Generated by trjconv : CNT in water t= 221.00000
33518
    1C        C    1   2.839   2.767   4.745
    1C        C    2   2.893   2.714   4.864
    1C        C    3   2.835   2.763   4.981
    1C        C    4   2.848   2.773   4.257
    1C        C    5   2.900   2.723   4.379
    1C        C    6   2.846   2.768   4.501
    1C        C    7   3.009   2.637   4.624
    1C        C    8   2.894   2.718   4.625
    1C        C    9   3.072   2.596   4.744
    1C        C   10   3.007   2.630   4.865
    1C        C   11   3.177   2.489   4.976
    1C        C   12   3.054   2.558   4.975
    1C        C   13   2.848   2.769   3.769
    1C        C   14   2.899   2.721   3.892
    1C        C   15   2.849   2.771   4.015
    1C        C   16   3.020   2.646   4.138
    1C        C   17   2.900   2.721   4.136
    1C        C   18   3.080   2.610   4.261
    1C        C   19   3.016   2.642   4.382
    1C        C   20   3.207   2.551   4.505
    1C        C   21   3.077   2.604   4.504
    1C        C   22   3.274   2.526   4.627
    1C        C   23   3.204   2.545   4.748
    1C        C   24   3.411   2.481   4.865
    1C        C   25   3.269   2.503   4.867
    1C        C   26   3.487   2.478   4.983
    1C        C   27   2.847   2.763   3.281
    1C        C   28   2.901   2.716   3.402
    1C        C   29   2.850   2.768   3.523
    1C        C   30   3.015   2.639   3.648
    1C        C   31   2.901   2.722   3.647
    1C        C   32   3.076   2.601   3.770
    1C        C   33   3.013   2.638   3.891
    1C        C   34   3.204   2.549   4.015
    1C        C   35   3.075   2.606   4.014
    1C        C   36   3.272   2.526   4.137
    1C        C   37   3.209   2.552   4.261
    1C        C   38   3.415   2.503   4.381
    1C        C   39   3.276   2.531   4.383
    1C        C   40   3.484   2.499   4.504
    1C        C   41   3.413   2.503   4.626
    1C        C   42   3.629   2.489   4.745
    1C        C   43   3.487   2.481   4.745
    1C        C   44   3.703   2.488   4.865
    1C        C   45   3.626   2.477   4.982
    1C        C   46   2.835   2.748   2.794
    1C        C   47   2.889   2.702   2.915
    1C        C   48   2.843   2.761   3.035
    1C        C   49   3.015   2.637   3.159
    1C        C   50   2.900   2.719   3.157
    1C        C   51   3.078   2.602   3.280
    1C        C   52   3.016   2.634   3.404
    1C        C   53   3.205   2.543   3.526
    1C        C   54   3.074   2.597   3.527
    1C        C   55   3.275   2.528   3.648
    1C        C   56   3.209   2.552   3.771
    1C        C   57   3.413   2.504   3.894
    1C        C   58   3.275   2.531   3.894
    1C        C   59   3.484   2.498   4.016
    1C        C   60   3.412   2.506   4.138
    1C        C   61   3.626   2.498   4.258
    1C        C   62   3.485   2.499   4.258
    1C        C   63   3.699   2.507   4.379
    1C        C   64   3.625   2.501   4.500
    1C        C   65   3.830   2.549   4.620
    1C        C   66   3.696   2.505   4.622
    1C        C   67   3.900   2.567   4.741
    1C        C   68   3.837   2.530   4.862
    1C        C   69   4.049   2.582   4.975
    1C        C   70   3.917   2.535   4.977
    1C        C   71   2.823   2.733   2.307
    1C        C   72   2.882   2.693   2.429
    1C        C   73   2.827   2.743   2.550
    1C        C   74   3.005   2.624   2.671
    1C        C   75   2.887   2.702   2.671
    1C        C   76   3.068   2.590   2.793
    1C        C   77   3.010   2.629   2.916
    1C        C   78   3.205   2.543   3.035
    1C        C   79   3.075   2.596   3.037
    1C        C   80   3.273   2.524   3.158
    1C        C   81   3.209   2.550   3.281
    1C        C   82   3.412   2.498   3.402
    1C        C   83   3.273   2.522   3.404
    1C        C   84   3.484   2.497   3.524
    1C        C   85   3.414   2.502   3.646
    1C        C   86   3.623   2.498   3.770
    1C        C   87   3.482   2.499   3.771
    1C        C   88   3.695   2.511   3.891
    1C        C   89   3.625   2.504   4.014
    1C        C   90   3.833   2.548   4.134
    1C        C   91   3.695   2.515   4.136
    1C        C   92   3.899   2.578   4.255
    1C        C   93   3.832   2.552   4.377
    1C        C   94   4.027   2.635   4.499
    1C        C   95   3.898   2.577   4.500
    1C        C   96   4.090   2.674   4.620
    1C        C   97   4.027   2.631   4.739
    1C        C   98   4.192   2.762   4.863
    1C        C   99   4.092   2.659   4.862
    1C        C  100   4.216   2.841   4.976
    1C        C  101   2.817   2.728   2.071
    1C        C  102   2.992   2.594   2.186
    1C        C  103   2.876   2.677   2.188
    1C        C  104   3.063   2.576   2.308
    1C        C  105   2.999   2.614   2.428
    1C        C  106   3.199   2.540   2.547
    1C        C  107   3.065   2.586   2.549
    1C        C  108   3.269   2.524   2.668
    1C        C  109   3.201   2.540   2.791
    1C        C  110   3.411   2.499   2.913
    1C        C  111   3.272   2.526   2.912
    1C        C  112   3.481   2.491   3.036
    1C        C  113   3.412   2.500   3.159
    1C        C  114   3.625   2.499   3.280
    1C        C  115   3.484   2.492   3.281
    1C        C  116   3.695   2.512   3.402
    1C        C  117   3.625   2.503   3.524
    1C        C  118   3.830   2.542   3.645
    1C        C  119   3.693   2.509   3.648
    1C        C  120   3.897   2.570   3.766
    1C        C  121   3.830   2.551   3.889
    1C        C  122   4.022   2.639   4.011
    1C        C  123   3.899   2.569   4.011
    1C        C  124   4.084   2.678   4.132
    1C        C  125   4.025   2.641   4.255
    1C        C  126   4.193   2.768   4.374
    1C        C  127   4.087   2.675   4.377
    1C        C  128   4.244   2.818   4.496
    1C        C  129   4.197   2.765   4.619
    1C        C  130   4.331   2.928   4.740
    1C        C  131   4.244   2.816   4.742
    1C        C  132   4.366   2.993   4.860
    1C        C  133   4.291   2.958   4.973
    1C        C  134   3.170   2.470   2.084
    1C        C  135   3.035   2.506   2.081
    1C        C  136   3.260   2.479   2.191
    1C        C  137   3.194   2.522   2.308
    1C        C  138   3.406   2.481   2.426
    1C        C  139   3.267   2.506   2.428
    1C        C  140   3.479   2.484   2.546
    1C        C  141   3.408   2.499   2.668
    1C        C  142   3.620   2.498   2.788
    1C        C  143   3.479   2.490   2.790
    1C        C  144   3.691   2.507   2.910
    1C        C  145   3.622   2.502   3.033
    1C        C  146   3.830   2.537   3.154
    1C        C  147   3.691   2.508   3.156
    1C        C  148   3.901   2.559   3.274
    1C        C  149   3.833   2.542   3.397
    1C        C  150   4.022   2.630   3.522
    1C        C  151   3.895   2.568   3.522
    1C        C  152   4.086   2.666   3.643
    1C        C  153   4.024   2.632   3.766
    1C        C  154   4.192   2.761   3.887
    1C        C  155   4.080   2.675   3.888
    1C        C  156   4.246   2.811   4.008
    1C        C  157   4.195   2.765   4.131
    1C        C  158   4.342   2.920   4.250
    1C        C  159   4.248   2.815   4.252
    1C        C  160   4.375   2.981   4.373
    1C        C  161   4.332   2.928   4.496
    1C        C  162   4.445   3.108   4.616
    1C        C  163   4.374   2.986   4.618
    1C        C  164   4.471   3.177   4.736
    1C        C  165   4.442   3.112   4.858
    1C        C  166   4.521   3.316   4.971
    1C        C  167   4.482   3.182   4.973
    1C        C  168   3.478   2.435   2.070
    1C        C  169   3.400   2.460   2.185
    1C        C  170   3.618   2.467   2.306
    1C        C  171   3.476   2.464   2.304
    1C        C  172   3.694   2.487   2.423
    1C        C  173   3.620   2.488   2.544
    1C        C  174   3.827   2.538   2.666
    1C        C  175   3.690   2.502   2.666
    1C        C  176   3.895   2.561   2.788
    1C        C  177   3.828   2.540   2.910
    1C        C  178   4.025   2.620   3.030
    1C        C  179   3.896   2.563   3.032
    1C        C  180   4.085   2.660   3.151
    1C        C  181   4.026   2.624   3.274
    1C        C  182   4.194   2.749   3.401
    1C        C  183   4.084   2.659   3.398
    1C        C  184   4.247   2.803   3.520
    1C        C  185   4.194   2.756   3.642
    1C        C  186   4.338   2.913   3.761
    1C        C  187   4.243   2.809   3.764
    1C        C  188   4.382   2.971   3.882
    1C        C  189   4.343   2.914   4.006
    1C        C  190   4.450   3.099   4.127
    1C        C  191   4.386   2.974   4.126
    1C        C  192   4.474   3.167   4.249
    1C        C  193   4.444   3.105   4.372
    1C        C  194   4.505   3.309   4.493
    1C        C  195   4.474   3.171   4.493
    1C        C  196   4.521   3.383   4.612
    1C        C  197   4.510   3.313   4.735
    1C        C  198   4.549   3.532   4.849
    1C        C  199   4.533   3.390   4.852
    1C        C  200   4.581   3.616   4.960
    1C        C  201   3.616   2.415   2.070
    1C        C  202   3.826   2.505   2.181
    1C        C  203   3.690   2.461   2.183
    1C        C  204   3.900   2.535   2.299
    1C        C  205   3.832   2.514   2.421
    1C        C  206   4.021   2.615   2.542
    1C        C  207   3.895   2.550   2.543
    1C        C  208   4.083   2.654   2.663
    1C        C  209   4.019   2.630   2.786
    1C        C  210   4.198   2.743   2.907
    1C        C  211   4.084   2.660   2.908
    1C        C  212   4.250   2.791   3.029
    1C        C  213   4.197   2.747   3.152
    1C        C  214   4.333   2.904   3.271
    1C        C  215   4.245   2.794   3.277
    1C        C  216   4.380   2.962   3.390
    1C        C  217   4.342   2.907   3.515
    1C        C  218   4.437   3.096   3.636
    1C        C  219   4.379   2.968   3.637
    1C        C  220   4.461   3.164   3.758
    1C        C  221   4.445   3.097   3.881
    1C        C  222   4.500   3.302   4.003
    1C        C  223   4.473   3.163   4.003
    1C        C  224   4.513   3.373   4.124
    1C        C  225   4.506   3.305   4.247
    1C        C  226   4.516   3.517   4.366
    1C        C  227   4.514   3.376   4.369
    1C        C  228   4.508   3.593   4.484
    1C        C  229   4.525   3.524   4.607
    1C        C  230   4.496   3.737   4.725
    1C        C  231   4.535   3.601   4.725
    1C        C  232   4.494   3.816   4.842
    1C        C  233   4.545   3.751   4.956
    1C        C  234   4.019   2.608   2.059
    1C        C  235   3.896   2.543   2.065
    1C        C  236   4.085   2.644   2.177
    1C        C  237   4.024   2.604   2.298
    1C        C  238   4.198   2.730   2.420
    1C        C  239   4.083   2.646   2.419
    1C        C  240   4.251   2.783   2.540
    1C        C  241   4.197   2.737   2.662
    1C        C  242   4.338   2.897   2.781
    1C        C  243   4.252   2.785   2.783
    1C        C  244   4.381   2.953   2.903
    1C        C  245   4.344   2.897   3.027
    1C        C  246   4.440   3.086   3.147
    1C        C  247   4.378   2.960   3.149
    1C        C  248   4.461   3.155   3.268
    1C        C  249   4.440   3.090   3.392
    1C        C  250   4.496   3.297   3.511
    1C        C  251   4.466   3.159   3.513
    1C        C  252   4.511   3.367   3.633
    1C        C  253   4.498   3.301   3.757
    1C        C  254   4.521   3.511   3.877
    1C        C  255   4.512   3.370   3.879
    1C        C  256   4.515   3.581   4.000
    1C        C  257   4.520   3.514   4.124
    1C        C  258   4.490   3.727   4.238
    1C        C  259   4.520   3.589   4.244
    1C        C  260   4.466   3.798   4.357
    1C        C  261   4.482   3.732   4.481
    1C        C  262   4.417   3.933   4.600
    1C        C  263   4.466   3.801   4.603
    1C        C  264   4.389   4.002   4.721
    1C        C  265   4.432   3.943   4.842
    1C        C  266   4.327   4.129   4.951
    1C        C  267   4.394   4.007   4.960
    1C        C  268   4.263   2.768   2.058
    1C        C  269   4.198   2.729   2.176
    1C        C  270   4.345   2.884   2.298
    1C        C  271   4.253   2.775   2.298
    1C        C  272   4.377   2.952   2.418
    1C        C  273   4.341   2.892   2.540
    1C        C  274   4.445   3.081   2.660
    1C        C  275   4.383   2.954   2.660
    1C        C  276   4.470   3.148   2.782
    1C        C  277   4.443   3.080   2.902
    1C        C  278   4.499   3.286   3.023
    1C        C  279   4.470   3.148   3.023
    1C        C  280   4.506   3.359   3.144
    1C        C  281   4.496   3.292   3.268
    1C        C  282   4.514   3.507   3.388
    1C        C  283   4.507   3.366   3.388
    1C        C  284   4.512   3.580   3.510
    1C        C  285   4.518   3.509   3.632
    1C        C  286   4.485   3.718   3.753
    1C        C  287   4.515   3.580   3.754
    1C        C  288   4.466   3.789   3.874
    1C        C  289   4.488   3.720   3.995
    1C        C  290   4.420   3.924   4.112
    1C        C  291   4.472   3.793   4.114
    1C        C  292   4.388   3.991   4.233
    1C        C  293   4.417   3.931   4.357
    1C        C  294   4.320   4.122   4.476
    1C        C  295   4.388   3.998   4.478
    1C        C  296   4.278   4.181   4.597
    1C        C  297   4.318   4.125   4.721
    1C        C  298   4.197   4.312   4.836
    1C        C  299   4.278   4.195   4.838
    1C        C  300   4.169   4.402   4.944
    1C        C  301   4.351   2.876   2.060
    1C        C  302   4.460   3.066   2.176
    1C        C  303   4.396   2.938   2.177
    1C        C  304   4.476   3.142   2.295
    1C        C  305   4.446   3.075   2.416
    1C        C  306   4.513   3.279   2.536
    1C        C  307   4.475   3.143   2.536
    1C        C  308   4.510   3.353   2.657
    1C        C  309   4.499   3.286   2.781
    1C        C  310   4.520   3.499   2.900
    1C        C  311   4.515   3.358   2.902
    1C        C  312   4.510   3.571   3.021
    1C        C  313   4.510   3.501   3.143
    1C        C  314   4.483   3.713   3.263
    1C        C  315   4.505   3.574   3.264
    1C        C  316   4.466   3.784   3.384
    1C        C  317   4.488   3.719   3.507
    1C        C  318   4.418   3.917   3.628
    1C        C  319   4.467   3.785   3.630
    1C        C  320   4.386   3.985   3.748
    1C        C  321   4.418   3.922   3.871
    1C        C  322   4.311   4.109   3.991
    1C        C  323   4.387   3.990   3.991
    1C        C  324   4.272   4.168   4.113
    1C        C  325   4.313   4.110   4.235
    1C        C  326   4.182   4.283   4.354
    1C        C  327   4.274   4.176   4.354
    1C        C  328   4.132   4.340   4.473
    1C        C  329   4.187   4.289   4.593
    1C        C  330   4.024   4.433   4.710
    1C        C  331   4.134   4.343   4.712
    1C        C  332   3.970   4.490   4.827
    1C        C  333   4.052   4.479   4.940
    1C        C  334   4.549   3.267   2.059
    1C        C  335   4.525   3.129   2.065
    1C        C  336   4.541   3.348   2.173
    1C        C  337   4.513   3.279   2.293
    1C        C  338   4.516   3.492   2.410
    1C        C  339   4.519   3.350   2.414
    1C        C  340   4.517   3.564   2.531
    1C        C  341   4.519   3.494   2.653
    1C        C  342   4.485   3.703   2.773
    1C        C  343   4.514   3.565   2.775
    1C        C  344   4.466   3.776   2.893
    1C        C  345   4.487   3.711   3.016
    1C        C  346   4.420   3.911   3.138
    1C        C  347   4.473   3.780   3.139
    1C        C  348   4.384   3.975   3.259
    1C        C  349   4.415   3.916   3.383
    1C        C  350   4.313   4.100   3.503
    1C        C  351   4.389   3.981   3.506
    1C        C  352   4.266   4.158   3.623
    1C        C  353   4.312   4.105   3.746
    1C        C  354   4.174   4.267   3.866
    1C        C  355   4.271   4.165   3.867
    1C        C  356   4.122   4.319   3.987
    1C        C  357   4.177   4.273   4.109
    1C        C  358   4.013   4.407   4.228
    1C        C  359   4.128   4.325   4.230
    1C        C  360   3.952   4.455   4.347
    1C        C  361   4.016   4.420   4.468
    1C        C  362   3.828   4.518   4.591
    1C        C  363   3.958   4.465   4.589
    1C        C  364   3.760   4.547   4.712
    1C        C  365   3.837   4.537   4.830
    1C        C  366   3.627   4.586   4.949
    1C        C  367   3.765   4.569   4.946
    1C        C  368   4.512   3.562   2.050
    1C        C  369   4.526   3.488   2.168
    1C        C  370   4.497   3.702   2.284
    1C        C  371   4.515   3.562   2.288
    1C        C  372   4.480   3.773   2.406
    1C        C  373   4.491   3.703   2.528
    1C        C  374   4.422   3.904   2.646
    1C        C  375   4.467   3.771   2.650
    1C        C  376   4.393   3.972   2.767
    1C        C  377   4.420   3.910   2.891
    1C        C  378   4.319   4.094   3.013
    1C        C  379   4.392   3.973   3.014
    1C        C  380   4.274   4.153   3.133
    1C        C  381   4.309   4.095   3.257
    1C        C  382   4.173   4.256   3.375
    1C        C  383   4.267   4.151   3.380
    1C        C  384   4.120   4.308   3.495
    1C        C  385   4.171   4.263   3.619
    1C        C  386   4.009   4.396   3.741
    1C        C  387   4.122   4.312   3.743
    1C        C  388   3.947   4.433   3.862
    1C        C  389   4.006   4.401   3.987
    1C        C  390   3.819   4.500   4.106
    1C        C  391   3.946   4.440   4.108
    1C        C  392   3.750   4.526   4.226
    1C        C  393   3.823   4.511   4.346
    1C        C  394   3.618   4.556   4.474
    1C        C  395   3.758   4.536   4.469
    1C        C  396   3.545   4.571   4.593
    1C        C  397   3.620   4.566   4.713
    1C        C  398   3.409   4.552   4.839
    1C        C  399   3.548   4.576   4.834
    1C        C  400   3.343   4.513   4.955
    1C        C  401   4.503   3.701   2.046
    1C        C  402   4.451   3.911   2.164
    1C        C  403   4.491   3.775   2.164
    1C        C  404   4.409   3.973   2.284
    1C        C  405   4.433   3.906   2.406
    1C        C  406   4.325   4.094   2.522
    1C        C  407   4.396   3.972   2.525
    1C        C  408   4.272   4.144   2.643
    1C        C  409   4.316   4.090   2.766
    1C        C  410   4.176   4.247   2.886
    1C        C  411   4.273   4.144   2.889
    1C        C  412   4.120   4.292   3.008
    1C        C  413   4.172   4.251   3.132
    1C        C  414   4.003   4.383   3.251
    1C        C  415   4.120   4.303   3.253
    1C        C  416   3.945   4.422   3.373
    1C        C  417   4.005   4.390   3.497
    1C        C  418   3.815   4.483   3.617
    1C        C  419   3.945   4.429   3.619
    1C        C  420   3.748   4.509   3.739
    1C        C  421   3.819   4.492   3.860
    1C        C  422   3.612   4.539   3.983
    1C        C  423   3.751   4.515   3.982
    1C        C  424   3.542   4.545   4.106
    1C        C  425   3.609   4.542   4.230
    1C        C  426   3.402   4.543   4.356
    1C        C  427   3.543   4.554   4.354
    1C        C  428   3.331   4.540   4.478
    1C        C  429   3.406   4.549   4.598
    1C        C  430   3.195   4.514   4.722
    1C        C  431   3.335   4.537   4.720
    1C        C  432   3.124   4.489   4.843
    1C        C  433   3.206   4.489   4.957
    1C        C  434   4.375   4.115   2.045
    1C        C  435   4.442   3.992   2.051
    1C        C  436   4.304   4.161   2.160
    1C        C  437   4.331   4.092   2.281
    1C        C  438   4.181   4.248   2.401
    1C        C  439   4.286   4.153   2.400
    1C        C  440   4.124   4.298   2.520
    1C        C  441   4.177   4.249   2.642
    1C        C  442   4.005   4.371   2.764
    1C        C  443   4.124   4.296   2.764
    1C        C  444   3.943   4.411   2.885
    1C        C  445   4.004   4.372   3.006
    1C        C  446   3.815   4.473   3.124
    1C        C  447   3.944   4.416   3.127
    1C        C  448   3.750   4.496   3.247
    1C        C  449   3.814   4.476   3.372
    1C        C  450   3.610   4.527   3.493
    1C        C  451   3.749   4.503   3.494
    1C        C  452   3.541   4.540   3.616
    1C        C  453   3.610   4.540   3.739
    1C        C  454   3.399   4.538   3.863
    1C        C  455   3.541   4.544   3.861
    1C        C  456   3.333   4.526   3.987
    1C        C  457   3.401   4.535   4.110
    1C        C  458   3.195   4.500   4.236
    1C        C  459   3.333   4.531   4.234
    1C        C  460   3.127   4.476   4.357
    1C        C  461   3.193   4.509   4.478
    1C        C  462   2.996   4.434   4.602
    1C        C  463   3.125   4.493   4.601
    1C        C  464   2.929   4.402   4.722
    1C        C  465   2.988   4.445   4.844
    1C        C  466   2.800   4.331   4.958
    1C        C  467   2.904   4.426   4.958
    1C        C  468   4.123   4.283   2.038
    1C        C  469   4.189   4.246   2.157
    1C        C  470   4.009   4.369   2.276
    1C        C  471   4.126   4.288   2.277
    1C        C  472   3.944   4.403   2.397
    1C        C  473   4.006   4.374   2.521
    1C        C  474   3.814   4.467   2.641
    1C        C  475   3.942   4.407   2.643
    1C        C  476   3.747   4.493   2.763
    1C        C  477   3.814   4.469   2.885
    1C        C  478   3.604   4.516   3.006
    1C        C  479   3.744   4.495   3.004
    1C        C  480   3.536   4.528   3.130
    1C        C  481   3.611   4.524   3.249
    1C        C  482   3.398   4.530   3.373
    1C        C  483   3.539   4.533   3.371
    1C        C  484   3.329   4.525   3.496
    1C        C  485   3.399   4.540   3.618
    1C        C  486   3.193   4.494   3.742
    1C        C  487   3.329   4.531   3.740
    1C        C  488   3.131   4.470   3.867
    1C        C  489   3.196   4.492   3.990
    1C        C  490   3.004   4.410   4.114
    1C        C  491   3.130   4.474   4.113
    1C        C  492   2.941   4.379   4.236
    1C        C  493   2.999   4.418   4.359
    1C        C  494   2.824   4.304   4.480
    1C        C  495   2.935   4.390   4.482
    1C        C  496   2.771   4.257   4.602
    1C        C  497   2.815   4.318   4.721
    1C        C  498   2.662   4.164   4.844
    1C        C  499   2.752   4.272   4.840
    1C        C  500   2.592   4.114   4.955
    1C        C  501   4.003   4.352   2.039
    1C        C  502   3.815   4.462   2.156
    1C        C  503   3.942   4.401   2.156
    1C        C  504   3.745   4.484   2.277
    1C        C  505   3.814   4.457   2.397
    1C        C  506   3.606   4.502   2.517
    1C        C  507   3.746   4.482   2.519
    1C        C  508   3.537   4.516   2.639
    1C        C  509   3.607   4.513   2.762
    1C        C  510   3.394   4.524   2.883
    1C        C  511   3.535   4.524   2.883
    1C        C  512   3.323   4.520   3.005
    1C        C  513   3.395   4.527   3.127
    1C        C  514   3.191   4.486   3.253
    1C        C  515   3.329   4.515   3.251
    1C        C  516   3.125   4.462   3.376
    1C        C  517   3.192   4.490   3.498
    1C        C  518   3.002   4.400   3.624
    1C        C  519   3.127   4.465   3.620
    1C        C  520   2.942   4.366   3.747
    1C        C  521   3.007   4.401   3.868
    1C        C  522   2.833   4.285   3.994
    1C        C  523   2.947   4.369   3.991
    1C        C  524   2.783   4.236   4.117
    1C        C  525   2.832   4.288   4.238
    1C        C  526   2.691   4.132   4.361
    1C        C  527   2.776   4.244   4.360
    1C        C  528   2.654   4.074   4.484
    1C        C  529   2.686   4.143   4.603
    1C        C  530   2.585   3.959   4.728
    1C        C  531   2.640   4.090   4.726
    1C        C  532   2.544   3.898   4.850
    1C        C  533   2.527   3.991   4.957
    1C        C  534   3.617   4.550   2.039
    1C        C  535   3.753   4.517   2.043
    1C        C  536   3.534   4.528   2.154
    1C        C  537   3.605   4.504   2.275
    1C        C  538   3.392   4.511   2.399
    1C        C  539   3.533   4.515   2.397
    1C        C  540   3.322   4.504   2.521
    1C        C  541   3.395   4.513   2.642
    1C        C  542   3.183   4.481   2.765
    1C        C  543   3.322   4.507   2.762
    1C        C  544   3.120   4.453   2.888
    1C        C  545   3.188   4.481   3.009
    1C        C  546   2.999   4.392   3.134
    1C        C  547   3.122   4.460   3.133
    1C        C  548   2.938   4.357   3.257
    1C        C  549   3.001   4.395   3.378
    1C        C  550   2.835   4.268   3.503
    1C        C  551   2.942   4.360   3.502
    1C        C  552   2.785   4.223   3.627
    1C        C  553   2.831   4.279   3.749
    1C        C  554   2.694   4.122   3.873
    1C        C  555   2.781   4.233   3.873
    1C        C  556   2.657   4.065   3.997
    1C        C  557   2.698   4.124   4.119
    1C        C  558   2.591   3.941   4.243
    1C        C  559   2.651   4.069   4.241
    1C        C  560   2.565   3.877   4.366
    1C        C  561   2.592   3.947   4.486
    1C        C  562   2.531   3.748   4.613
    1C        C  563   2.564   3.885   4.610
    1C        C  564   2.518   3.679   4.736
    1C        C  565   2.519   3.757   4.855
    1C        C  566   2.523   3.543   4.975
    1C        C  567   2.525   3.682   4.974
    1C        C  568   3.325   4.476   2.038
    1C        C  569   3.393   4.511   2.155
    1C        C  570   3.183   4.471   2.278
    1C        C  571   3.320   4.508   2.278
    1C        C  572   3.116   4.451   2.401
    1C        C  573   3.184   4.474   2.522
    1C        C  574   2.987   4.399   2.646
    1C        C  575   3.112   4.463   2.644
    1C        C  576   2.930   4.355   2.768
    1C        C  577   2.995   4.387   2.889
    1C        C  578   2.824   4.268   3.014
    1C        C  579   2.938   4.351   3.013
    1C        C  580   2.771   4.222   3.137
    1C        C  581   2.829   4.268   3.257
    1C        C  582   2.695   4.108   3.384
    1C        C  583   2.785   4.217   3.382
    1C        C  584   2.654   4.055   3.508
    1C        C  585   2.693   4.116   3.629
    1C        C  586   2.589   3.935   3.755
    1C        C  587   2.650   4.062   3.753
    1C        C  588   2.564   3.873   3.880
    1C        C  589   2.593   3.939   4.001
    1C        C  590   2.534   3.734   4.127
    1C        C  591   2.567   3.872   4.122
    1C        C  592   2.512   3.669   4.250
    1C        C  593   2.522   3.742   4.370
    1C        C  594   2.512   3.534   4.496
    1C        C  595   2.512   3.675   4.494
    1C        C  596   2.514   3.462   4.618
    1C        C  597   2.515   3.537   4.738
    1C        C  598   2.534   3.325   4.860
    1C        C  599   2.529   3.466   4.859
    1C        C  600   2.531   3.245   4.975
    1C        C  601   3.193   4.434   2.041
    1C        C  602   2.981   4.388   2.159
    1C        C  603   3.115   4.438   2.157
    1C        C  604   2.923   4.355   2.284
    1C        C  605   2.987   4.394   2.404
    1C        C  606   2.813   4.273   2.526
    1C        C  607   2.923   4.362   2.525
    1C        C  608   2.767   4.218   2.648
    1C        C  609   2.821   4.265   2.770
    1C        C  610   2.683   4.107   2.894
    1C        C  611   2.775   4.214   2.893
    1C        C  612   2.649   4.049   3.018
    1C        C  613   2.686   4.109   3.140
    1C        C  614   2.580   3.928   3.265
    1C        C  615   2.645   4.053   3.263
    1C        C  616   2.563   3.865   3.390
    1C        C  617   2.589   3.929   3.513
    1C        C  618   2.525   3.728   3.637
    1C        C  619   2.560   3.865   3.636
    1C        C  620   2.515   3.664   3.762
    1C        C  621   2.525   3.737   3.882
    1C        C  622   2.505   3.525   4.009
    1C        C  623   2.516   3.666   4.004
    1C        C  624   2.512   3.453   4.130
    1C        C  625   2.509   3.527   4.250
    1C        C  626   2.543   3.322   4.376
    1C        C  627   2.515   3.461   4.375
    1C        C  628   2.555   3.252   4.497
    1C        C  629   2.534   3.322   4.617
    1C        C  630   2.600   3.120   4.742
    1C        C  631   2.556   3.255   4.739
    1C        C  632   2.620   3.049   4.864
    1C        C  633   2.567   3.109   4.982
    1C        C  634   2.780   4.300   2.053
    1C        C  635   2.888   4.390   2.049
    1C        C  636   2.745   4.228   2.167
    1C        C  637   2.804   4.277   2.286
    1C        C  638   2.670   4.111   2.409
    1C        C  639   2.753   4.226   2.407
    1C        C  640   2.636   4.048   2.531
    1C        C  641   2.679   4.108   2.651
    1C        C  642   2.582   3.919   2.775
    1C        C  643   2.647   4.045   2.773
    1C        C  644   2.561   3.854   2.898
    1C        C  645   2.587   3.921   3.020
    1C        C  646   2.525   3.722   3.146
    1C        C  647   2.557   3.860   3.143
    1C        C  648   2.515   3.655   3.270
    1C        C  649   2.527   3.728   3.390
    1C        C  650   2.511   3.518   3.516
    1C        C  651   2.516   3.660   3.513
    1C        C  652   2.513   3.451   3.641
    1C        C  653   2.511   3.522   3.763
    1C        C  654   2.533   3.315   3.888
    1C        C  655   2.510   3.454   3.887
    1C        C  656   2.554   3.247   4.010
    1C        C  657   2.534   3.313   4.134
    1C        C  658   2.606   3.115   4.258
    1C        C  659   2.557   3.248   4.257
    1C        C  660   2.639   3.053   4.380
    1C        C  661   2.605   3.119   4.500
    1C        C  662   2.710   2.934   4.622
    1C        C  663   2.635   3.054   4.622
    1C        C  664   2.747   2.875   4.745
    1C        C  665   2.693   2.926   4.866
    1C        C  666   2.740   2.865   4.983
    1C        C  667   2.677   4.020   2.055
    1C        C  668   2.682   4.102   2.169
    1C        C  669   2.584   3.911   2.291
    1C        C  670   2.638   4.043   2.290
    1C        C  671   2.553   3.847   2.413
    1C        C  672   2.577   3.920   2.532
    1C        C  673   2.510   3.718   2.659
    1C        C  674   2.548   3.854   2.654
    1C        C  675   2.501   3.647   2.781
    1C        C  676   2.520   3.719   2.901
    1C        C  677   2.498   3.511   3.028
    1C        C  678   2.511   3.651   3.025
    1C        C  679   2.506   3.441   3.150
    1C        C  680   2.505   3.514   3.271
    1C        C  681   2.529   3.307   3.399
    1C        C  682   2.506   3.446   3.395
    1C        C  683   2.550   3.242   3.522
    1C        C  684   2.535   3.312   3.645
    1C        C  685   2.608   3.114   3.768
    1C        C  686   2.551   3.244   3.767
    1C        C  687   2.634   3.050   3.891
    1C        C  688   2.598   3.113   4.012
    1C        C  689   2.709   2.933   4.134
    1C        C  690   2.630   3.050   4.135
    1C        C  691   2.752   2.876   4.256
    1C        C  692   2.709   2.930   4.379
    1C        C  693   2.752   2.873   4.501
    1C        C  694   2.630   3.888   2.055
    1C        C  695   2.526   3.702   2.176
    1C        C  696   2.579   3.833   2.174
    1C        C  697   2.503   3.635   2.298
    1C        C  698   2.517   3.711   2.417
    1C        C  699   2.492   3.502   2.541
    1C        C  700   2.499   3.643   2.539
    1C        C  701   2.501   3.433   2.664
    1C        C  702   2.495   3.506   2.785
    1C        C  703   2.520   3.297   2.909
    1C        C  704   2.494   3.436   2.908
    1C        C  705   2.543   3.231   3.032
    1C        C  706   2.531   3.302   3.154
    1C        C  707   2.595   3.103   3.277
    1C        C  708   2.544   3.235   3.278
    1C        C  709   2.634   3.046   3.400
    1C        C  710   2.608   3.113   3.522
    1C        C  711   2.717   2.933   3.646
    1C        C  712   2.640   3.052   3.645
    1C        C  713   2.754   2.875   3.769
    1C        C  714   2.714   2.934   3.890
    1C        C  715   2.760   2.881   4.013
    1C        C  716   2.450   3.496   2.064
    1C        C  717   2.490   3.630   2.062
    1C        C  718   2.460   3.418   2.184
    1C        C  719   2.476   3.496   2.302
    1C        C  720   2.507   3.285   2.426
    1C        C  721   2.485   3.424   2.423
    1C        C  722   2.529   3.215   2.547
    1C        C  723   2.527   3.295   2.664
    1C        C  724   2.598   3.099   2.789
    1C        C  725   2.543   3.229   2.788
    1C        C  726   2.621   3.033   2.912
    1C        C  727   2.591   3.098   3.033
    1C        C  728   2.711   2.925   3.158
    1C        C  729   2.626   3.037   3.156
    1C        C  730   2.754   2.869   3.280
    1C        C  731   2.714   2.930   3.401
    1C        C  732   2.757   2.874   3.524
    1C        C  733   2.486   3.195   2.071
    1C        C  734   2.484   3.277   2.185
    1C        C  735   2.577   3.082   2.305
    1C        C  736   2.518   3.211   2.306
    1C        C  737   2.598   3.012   2.426
    1C        C  738   2.570   3.080   2.547
    1C        C  739   2.700   2.911   2.670
    1C        C  740   2.620   3.027   2.669
    1C        C  741   2.742   2.855   2.792
    1C        C  742   2.694   2.912   2.912
    1C        C  743   2.750   2.867   3.034
    1C        C  744   2.541   3.067   2.070
    1C        C  745   2.680   2.896   2.187
    1C        C  746   2.603   3.014   2.184
    1C        C  747   2.727   2.838   2.307
    1C        C  748   2.681   2.899   2.426
    1C        C  749   2.736   2.850   2.547
    1C        C  750   2.732   2.838   2.070
    1C        C  751   3.656   2.306   1.978
    1C        O  752   3.638   2.184   2.004
    1C        O  753   3.630   2.318   1.841
    1C        C  754   4.618   3.046   1.984
    1C        O  755   4.602   3.040   1.859
    1C        O  756   4.726   2.978   2.042
    1C        C  757   4.422   4.215   1.946
    1C        O  758   4.525   4.287   1.954
    1C        O  759   4.374   4.207   1.815
    1C        C  760   3.574   4.660   1.950
    1C        O  761   3.591   4.780   1.986
    1C        O  762   3.564   4.642   1.812
    1C        C  763   2.879   4.500   1.951
    1C        O  764   2.883   4.482   1.827
    1C        O  765   2.800   4.613   1.980
    1C        C  766   2.336   3.474   1.972
    1C        O  767   2.366   3.428   1.859
    1C        O  768   2.214   3.543   1.965
    1C        C  769   4.707   3.599   5.036
    1C        O  770   4.716   3.612   5.161
    1C        O  771   4.827   3.621   4.966
    1C        C  772   4.273   4.470   5.024
    1C        O  773   4.306   4.424   5.137
    1C        O  774   4.393   4.506   4.960
    1C        C  775   4.148   2.531   5.073
    1C        O  776   4.257   2.478   5.040
    1C        O  777   4.113   2.539   5.208
    1C        C  778   2.859   4.546   5.032
    1C        O  779   2.844   4.655   4.971
    1C        O  780   2.861   4.570   5.170
    1C        C  781   2.489   3.029   5.079
    1C        O  782   2.372   2.988   5.053
    1C        O  783   2.517   3.033   5.215
    1C        C  784   2.406   3.985   5.043
    1C        O  785   2.290   3.997   4.995
    1C        O  786   2.400   3.992   5.183
    1C        C  787   2.936   2.408   2.031
    1C        O  788   2.936   2.375   1.909
    1C        O  789   2.866   2.317   2.109
    1C        C  790   3.178   2.369   5.063
    1C        O  791   3.193   2.258   5.005
    1C        O  792   3.101   2.375   5.179
    1C        H  793   4.249   3.039   5.029
    1C        H  794   4.178   2.814   5.072
    1C        H  795   4.520   3.122   5.053
    1C        H  796   4.541   3.364   5.064
    1C        H  797   4.552   3.806   5.048
    1C        H  798   4.383   3.954   5.053
    1C        H  799   4.336   4.184   5.042
    1C        H  800   4.027   4.543   5.023
    1C        H  801   3.817   4.618   5.026
    1C        H  802   3.583   4.638   5.031
    1C        H  803   3.389   4.543   5.047
    1C        H  804   3.155   4.499   5.050
    1C        H  805   3.901   2.453   5.044
    1C        H  806   3.676   2.476   5.077
    1C        H  807   3.004   2.570   5.069
    1C        H  808   3.430   2.494   5.072
    1C        H  809   2.848   2.710   5.074
    1C        H  810   2.747   2.929   5.069
    1C        H  811   2.496   3.292   5.065
    1C        H  812   2.481   3.502   5.065
    1C        H  813   2.503   3.726   5.069
    1C        H  814   2.561   4.189   5.024
    1C        H  815   2.751   4.314   5.051
    1C        H  816   2.689   2.864   1.976
    1C        H  817   2.834   2.675   1.979
    1C        H  818   3.212   2.449   1.988
    1C        H  819   3.431   2.454   1.976
    1C        H  820   3.842   2.546   1.973
    1C        H  821   4.076   2.597   1.970
    1C        H  822   4.251   2.715   1.966
    1C        H  823   4.395   2.895   1.965
    1C        H  824   4.593   3.305   1.969
    1C        H  825   4.494   3.517   1.955
    1C        H  826   4.466   3.739   1.953
    1C        H  827   3.814   4.574   1.976
    1C        H  828   3.976   4.405   1.950
    1C        H  829   4.145   4.239   1.943
    1C        H  830   4.503   3.969   1.966
    1C        H  831   2.661   3.825   1.975
    1C        H  832   2.683   4.068   1.960
    1C        H  833   2.726   4.282   1.963
    1C        H  834   3.371   4.476   1.941
    1C        H  835   3.144   4.417   1.948
    1C        H  836   2.568   3.032   1.973
    1C        H  837   2.462   3.236   1.975
    1C        H  838   2.485   3.680   1.967
    2V3OU   H29  839   2.793   3.540   2.001
    2V3OU   C27  840   2.785   3.500   2.105
    2V3OU   H27  841   2.736   3.573   2.175
    2V3OU   H28  842   2.725   3.405   2.104
    2V3OU   O11  843   2.913   3.468   2.160
    2V3OU   C15  844   2.927   3.394   2.276
    2V3OU   C13  845   3.055   3.366   2.329
    2V3OU   C14  846   3.079   3.263   2.421
    2V3OU   C16  847   2.973   3.184   2.463
    2V3OU    H6  848   2.987   3.095   2.527
    2V3OU   C12  849   3.213   3.224   2.472
    2V3OU    O2  850   3.241   3.125   2.543
    2V3OU   C10  851   3.322   3.299   2.409
    2V3OU    C8  852   3.453   3.267   2.442
    2V3OU   O10  853   3.487   3.149   2.502
    2V3OU   H26  854   3.400   3.115   2.529
    2V3OU    C6  855   3.563   3.350   2.403
    2V3OU    C5  856   3.539   3.469   2.336
    2V3OU    C4  857   3.700   3.292   2.411
    2V3OU    H4  858   3.724   3.225   2.499
    2V3OU    H5  859   3.706   3.225   2.321
    2V3OU    C2  860   3.811   3.397   2.402
    2V3OU    O6  861   3.808   3.471   2.524
    2V3OU   H21  862   3.764   3.551   2.491
    2V3OU    C3  863   3.779   3.493   2.287
    2V3OU    H2  864   3.861   3.568   2.276
    2V3OU    H3  865   3.775   3.435   2.191
    2V3OU   C25  866   3.944   3.324   2.393
    2V3OU    O7  867   3.989   3.289   2.284
    2V3OU   C26  868   4.023   3.293   2.519
    2V3OU   H22  869   4.062   3.386   2.567
    2V3OU   H23  870   4.113   3.230   2.494
    2V3OU    O8  871   3.953   3.215   2.614
    2V3OU   H24  872   3.921   3.273   2.684
    2V3OU    C1  873   3.648   3.567   2.306
    2V3OU    H1  874   3.625   3.621   2.209
    2V3OU    O3  875   3.658   3.653   2.420
    2V3OU   C19  876   3.618   3.790   2.414
    2V3OU    H9  877   3.523   3.800   2.354
    2V3OU    O4  878   3.714   3.851   2.329
    2V3OU   C20  879   3.843   3.874   2.386
    2V3OU   H10  880   3.894   3.773   2.397
    2V3OU   C24  881   3.611   3.851   2.554
    2V3OU   H16  882   3.540   3.790   2.616
    2V3OU   H17  883   3.566   3.953   2.552
    2V3OU   C23  884   3.748   3.868   2.619
    2V3OU   H15  885   3.788   3.763   2.633
    2V3OU    N1  886   3.734   3.956   2.734
    2V3OU   H19  887   3.810   3.926   2.793
    2V3OU   H20  888   3.646   3.939   2.779
    2V3OU   C21  889   3.843   3.944   2.522
    2V3OU   H11  890   3.950   3.926   2.556
    2V3OU    O5  891   3.823   4.084   2.514
    2V3OU   H18  892   3.787   4.109   2.601
    2V3OU   C22  893   3.913   3.949   2.274
    2V3OU   H12  894   3.861   4.045   2.249
    2V3OU   H13  895   3.902   3.892   2.178
    2V3OU   H14  896   4.021   3.959   2.300
    2V3OU   C11  897   3.160   3.468   2.314
    2V3OU    O1  898   3.135   3.583   2.274
    2V3OU    C9  899   3.298   3.423   2.344
    2V3OU    C7  900   3.404   3.504   2.304
    2V3OU    O9  901   3.388   3.612   2.220
    2V3OU   H25  902   3.294   3.631   2.206
    2V3OU   C17  903   2.822   3.315   2.327
    2V3OU    H7  904   2.720   3.344   2.304
    2V3OU   C18  905   2.845   3.212   2.417
    2V3OU    H8  906   2.769   3.160   2.477
    3SOL     OW  907   2.802   5.126   0.623
    3SOL    HW1  908   2.806   5.094   0.718
    3SOL    HW2  909   2.894   5.120   0.583
    4SOL     OW  910   6.707   6.427   1.911
    4SOL    HW1  911   6.709   6.460   1.817
    4SOL    HW2  912   6.799   6.431   1.950
    5SOL     OW  913   4.543   1.504   2.757
    5SOL    HW1  914   4.504   1.443   2.826
    5SOL    HW2  915   4.580   1.449   2.682
    6SOL     OW  916   4.067   1.055   0.755
    6SOL    HW1  917   4.036   0.964   0.726
    6SOL    HW2  918   4.042   1.069   0.851
    7SOL     OW  919   6.822   3.301   2.060
    7SOL    HW1  920   6.723   3.293   2.066
    7SOL    HW2  921   6.864   3.212   2.077
    8SOL     OW  922   2.783   0.182   6.895
    8SOL    HW1  923   2.705   0.214   6.842
    8SOL    HW2  924   2.752   0.122   6.969
    9SOL     OW  925   6.274   6.871   6.341
    9SOL    HW1  926   6.274   6.824   6.253
    9SOL    HW2  927   6.288   6.805   6.415
   10SOL     OW  928   1.775   5.225   6.459
   10SOL    HW1  929   1.749   5.249   6.366
   10SOL    HW2  930   1.811   5.131   6.461
   11SOL     OW  931   2.751   0.278   6.116
   11SOL    HW1  932   2.844   0.282   6.152
   11SOL    HW2  933   2.742   0.343   6.040
   12SOL     OW  934   3.932   6.141   3.195
   12SOL    HW1  935   3.995   6.172   3.267
   12SOL    HW2  936   3.852   6.201   3.193
   13SOL     OW  937   4.322   5.795   3.925
   13SOL    HW1  938   4.242   5.855   3.931
   13SOL    HW2  939   4.339   5.771   3.829
   14SOL     OW  940   3.611   5.928   5.947
   14SOL    HW1  941   3.556   6.007   5.920
   14SOL    HW2  942   3.617   5.925   6.047
   15SOL     OW  943   1.940   6.594   1.666
   15SOL    HW1  944   1.931   6.606   1.567
   15SOL    HW2  945   2.004   6.520   1.685
   16SOL     OW  946   5.207   2.839   5.629
   16SOL    HW1  947   5.243   2.749   5.651
   16SOL    HW2  948   5.142   2.867   5.700
   17SOL     OW  949   5.250   5.314   5.636
   17SOL    HW1  950   5.337   5.304   5.683
   17SOL    HW2  951   5.202   5.226   5.636
   18SOL     OW  952   3.170   0.723   6.098
   18SOL    HW1  953   3.161   0.642   6.041
   18SOL    HW2  954   3.266   0.737   6.122
   19SOL     OW  955   0.343   0.295   3.423
   19SOL    HW1  956   0.437   0.327   3.410
   19SOL    HW2  957   0.299   0.287   3.334
   20SOL     OW  958   5.449   2.518   4.976
   20SOL    HW1  959   5.524   2.453   4.959
   20SOL    HW2  960   5.474   2.608   4.942
   21SOL     OW  961   3.964   2.040   2.583
   21SOL    HW1  962   4.063   2.053   2.591
   21SOL    HW2  963   3.931   2.090   2.503
   22SOL     OW  964   1.742   6.256   0.391
   22SOL    HW1  965   1.716   6.252   0.487
   22SOL    HW2  966   1.734   6.164   0.351
   23SOL     OW  967   5.503   6.248   3.264
   23SOL    HW1  968   5.581   6.261   3.202
   23SOL    HW2  969   5.533   6.261   3.358
   24SOL     OW  970   4.569   1.545   3.242
   24SOL    HW1  971   4.604   1.465   3.290
   24SOL    HW2  972   4.470   1.551   3.253
   25SOL     OW  973   3.073   0.376   5.075
   25SOL    HW1  974   3.088   0.432   5.156
   25SOL    HW2  975   2.977   0.383   5.047
   26SOL     OW  976   6.489   0.953   0.620
   26SOL    HW1  977   6.540   1.029   0.581
   26SOL    HW2  978   6.401   0.944   0.573
   27SOL     OW  979   0.976   2.197   2.267
   27SOL    HW1  980   1.004   2.177   2.360
   27SOL    HW2  981   1.010   2.126   2.206
   28SOL     OW  982   3.133   1.966   5.785
   28SOL    HW1  983   3.144   2.020   5.701
   28SOL    HW2  984   3.084   1.882   5.765
   29SOL     OW  985   4.995   2.230   1.978
   29SOL    HW1  986   4.952   2.165   2.040
   29SOL    HW2  987   5.048   2.181   1.909
   30SOL     OW  988   3.558   0.993   4.611
   30SOL    HW1  989   3.572   1.080   4.564
   30SOL    HW2  990   3.599   0.997   4.702
   31SOL     OW  991   1.385   2.506   6.439
   31SOL    HW1  992   1.402   2.584   6.379
   31SOL    HW2  993   1.437   2.427   6.406
   32SOL     OW  994   0.551   1.424   2.643
   32SOL    HW1  995   0.611   1.408   2.565
   32SOL    HW2  996   0.496   1.341   2.660
   33SOL     OW  997   2.115   4.331   6.465
   33SOL    HW1  998   2.121   4.290   6.556
   33SOL    HW2  999   2.154   4.268   6.398
   34SOL     OW 1000   2.717   0.986   4.219
   34SOL    HW1 1001   2.768   1.023   4.142
   34SOL    HW2 1002   2.775   0.985   4.300
   35SOL     OW 1003   3.162   3.727   0.065
   35SOL    HW1 1004   3.244   3.784   0.072
   35SOL    HW2 1005   3.091   3.777   0.015
   36SOL     OW 1006   6.050   0.865   4.637
   36SOL    HW1 1007   6.088   0.884   4.728
   36SOL    HW2 1008   6.120   0.882   4.568
   37SOL     OW 1009   0.708   1.477   0.701
   37SOL    HW1 1010   0.648   1.552   0.672
   37SOL    HW2 1011   0.734   1.422   0.622
   38SOL     OW 1012   6.934   4.322   2.653
   38SOL    HW1 1013   6.957   4.295   2.560
   38SOL    HW2 1014   6.854   4.381   2.652
   39SOL     OW 1015   0.015   4.864   6.954
   39SOL    HW1 1016   0.046   4.956   6.980
   39SOL    HW2 1017   0.046   4.798   0.003
   40SOL     OW 1018   5.367   1.477   0.654
   40SOL    HW1 1019   5.368   1.568   0.613
   40SOL    HW2 1020   5.435   1.419   0.610
   41SOL     OW 1021   6.965   6.020   3.882
   41SOL    HW1 1022   6.896   5.965   3.929
   41SOL    HW2 1023   0.007   6.060   3.950
   42SOL     OW 1024   3.043   5.310   5.274
   42SOL    HW1 1025   3.121   5.347   5.224
   42SOL    HW2 1026   2.978   5.383   5.293
   43SOL     OW 1027   6.223   6.372   5.362
   43SOL    HW1 1028   6.146   6.383   5.425
   43SOL    HW2 1029   6.291   6.443   5.381
   44SOL     OW 1030   4.902   1.842   6.348
   44SOL    HW1 1031   4.939   1.798   6.430
   44SOL    HW2 1032   4.855   1.773   6.292
   45SOL     OW 1033   4.461   6.161   2.884
   45SOL    HW1 1034   4.423   6.133   2.973
   45SOL    HW2 1035   4.453   6.260   2.874
   46SOL     OW 1036   0.948   3.063   3.145
   46SOL    HW1 1037   0.903   2.987   3.098
   46SOL    HW2 1038   1.036   3.082   3.102
   47SOL     OW 1039   4.691   4.372   0.597
   47SOL    HW1 1040   4.714   4.320   0.680
   47SOL    HW2 1041   4.758   4.445   0.585
   48SOL     OW 1042   6.978   2.854   5.717
   48SOL    HW1 1043   0.006   2.809   5.641
   48SOL    HW2 1044   0.020   2.860   5.795
   49SOL     OW 1045   5.588   4.141   1.477
   49SOL    HW1 1046   5.560   4.083   1.553
   49SOL    HW2 1047   5.627   4.085   1.405
   50SOL     OW 1048   5.278   0.821   4.815
   50SOL    HW1 1049   5.232   0.881   4.880
   50SOL    HW2 1050   5.338   0.758   4.865
   51SOL     OW 1051   2.612   6.839   3.279
   51SOL    HW1 1052   2.660   6.897   3.345
   51SOL    HW2 1053   2.520   6.875   3.264
   52SOL     OW 1054   6.160   2.115   3.070
   52SOL    HW1 1055   6.202   2.072   2.990
   52SOL    HW2 1056   6.078   2.064   3.096
   53SOL     OW 1057   3.410   6.523   4.449
   53SOL    HW1 1058   3.500   6.496   4.481
   53SOL    HW2 1059   3.351   6.443   4.441
   54SOL     OW 1060   3.576   5.254   0.959
   54SOL    HW1 1061   3.657   5.282   1.011
   54SOL    HW2 1062   3.534   5.176   1.005
   55SOL     OW 1063   2.867   2.440   6.506
   55SOL    HW1 1064   2.828   2.441   6.413
   55SOL    HW2 1065   2.965   2.424   6.501
   56SOL     OW 1066   0.149   6.951   1.051
   56SOL    HW1 1067   0.212   6.987   0.982
   56SOL    HW2 1068   0.178   6.979   1.142
   57SOL     OW 1069   5.079   1.158   0.891
   57SOL    HW1 1070   5.058   1.103   0.810
   57SOL    HW2 1071   5.178   1.162   0.904
   58SOL     OW 1072   6.528   6.431   5.722
   58SOL    HW1 1073   6.595   6.358   5.732
   58SOL    HW2 1074   6.439   6.401   5.757
   59SOL     OW 1075   1.106   1.819   5.052
   59SOL    HW1 1076   1.176   1.857   5.112
   59SOL    HW2 1077   1.145   1.743   5.000
   60SOL     OW 1078   5.272   1.981   5.712
   60SOL    HW1 1079   5.342   2.043   5.747
   60SOL    HW2 1080   5.230   2.020   5.629
   61SOL     OW 1081   5.686   2.340   4.952
   61SOL    HW1 1082   5.679   2.257   5.008
   61SOL    HW2 1083   5.780   2.373   4.954
   62SOL     OW 1084   0.879   1.251   1.543
   62SOL    HW1 1085   0.934   1.186   1.491
   62SOL    HW2 1086   0.788   1.212   1.561
   63SOL     OW 1087   4.939   1.330   3.333
   63SOL    HW1 1088   4.988   1.367   3.412
   63SOL    HW2 1089   4.891   1.246   3.359
   64SOL     OW 1090   6.814   3.488   5.321
   64SOL    HW1 1091   6.773   3.451   5.238
   64SOL    HW2 1092   6.893   3.433   5.348
   65SOL     OW 1093   0.432   5.171   6.555
   65SOL    HW1 1094   0.423   5.164   6.455
   65SOL    HW2 1095   0.480   5.256   6.578
   66SOL     OW 1096   4.192   1.150   5.525
   66SOL    HW1 1097   4.139   1.069   5.498
   66SOL    HW2 1098   4.273   1.157   5.467
   67SOL     OW 1099   5.300   4.086   5.882
   67SOL    HW1 1100   5.213   4.128   5.858
   67SOL    HW2 1101   5.358   4.154   5.927
   68SOL     OW 1102   5.916   1.053   6.672
   68SOL    HW1 1103   5.915   1.042   6.771
   68SOL    HW2 1104   5.984   1.122   6.647
   69SOL     OW 1105   0.543   3.356   5.874
   69SOL    HW1 1106   0.567   3.442   5.919
   69SOL    HW2 1107   0.486   3.302   5.935
   70SOL     OW 1108   5.368   3.659   4.903
   70SOL    HW1 1109   5.449   3.624   4.857
   70SOL    HW2 1110   5.324   3.729   4.845
   71SOL     OW 1111   4.466   1.844   2.980
   71SOL    HW1 1112   4.521   1.826   3.062
   71SOL    HW2 1113   4.386   1.898   3.005
   72SOL     OW 1114   1.864   6.308   4.276
   72SOL    HW1 1115   1.856   6.245   4.198
   72SOL    HW2 1116   1.790   6.375   4.272
   73SOL     OW 1117   3.761   0.835   1.382
   73SOL    HW1 1118   3.736   0.852   1.286
   73SOL    HW2 1119   3.843   0.888   1.405
   74SOL     OW 1120   4.955   6.778   0.058
   74SOL    HW1 1121   4.911   6.868   0.056
   74SOL    HW2 1122   4.941   6.736   0.148
   75SOL     OW 1123   4.278   0.618   0.819
   75SOL    HW1 1124   4.243   0.693   0.763
   75SOL    HW2 1125   4.372   0.596   0.790
   76SOL     OW 1126   3.414   3.182   0.955
   76SOL    HW1 1127   3.451   3.201   1.046
   76SOL    HW2 1128   3.420   3.084   0.936
   77SOL     OW 1129   6.970   6.861   3.223
   77SOL    HW1 1130   6.877   6.833   3.245
   77SOL    HW2 1131   6.976   6.883   3.125
   78SOL     OW 1132   5.916   1.790   0.138
   78SOL    HW1 1133   5.830   1.820   0.178
   78SOL    HW2 1134   5.943   1.854   0.066
   79SOL     OW 1135   3.449   6.202   0.931
   79SOL    HW1 1136   3.517   6.261   0.887
   79SOL    HW2 1137   3.384   6.259   0.981
   80SOL     OW 1138   5.303   1.020   4.553
   80SOL    HW1 1139   5.239   0.961   4.603
   80SOL    HW2 1140   5.252   1.080   4.491
   81SOL     OW 1141   1.915   0.095   2.667
   81SOL    HW1 1142   1.844   0.162   2.690
   81SOL    HW2 1143   1.899   0.010   2.717
   82SOL     OW 1144   6.014   4.673   1.151
   82SOL    HW1 1145   5.916   4.655   1.148
   82SOL    HW2 1146   6.064   4.591   1.123
   83SOL     OW 1147   0.598   0.745   6.879
   83SOL    HW1 1148   0.598   0.694   6.965
   83SOL    HW2 1149   0.670   0.710   6.820
   84SOL     OW 1150   6.089   2.486   3.361
   84SOL    HW1 1151   6.127   2.532   3.282
   84SOL    HW2 1152   6.163   2.450   3.418
   85SOL     OW 1153   1.518   0.979   3.950
   85SOL    HW1 1154   1.529   0.897   3.893
   85SOL    HW2 1155   1.538   1.060   3.895
   86SOL     OW 1156   6.841   0.889   5.071
   86SOL    HW1 1157   6.788   0.953   5.016
   86SOL    HW2 1158   6.799   0.798   5.067
   87SOL     OW 1159   4.700   3.622   0.744
   87SOL    HW1 1160   4.699   3.644   0.646
   87SOL    HW2 1161   4.792   3.597   0.772
   88SOL     OW 1162   3.433   1.693   5.278
   88SOL    HW1 1163   3.509   1.664   5.221
   88SOL    HW2 1164   3.464   1.766   5.340
   89SOL     OW 1165   1.152   2.494   5.772
   89SOL    HW1 1166   1.238   2.495   5.823
   89SOL    HW2 1167   1.107   2.582   5.781
   90SOL     OW 1168   3.535   4.864   2.247
   90SOL    HW1 1169   3.435   4.861   2.241
   90SOL    HW2 1170   3.573   4.860   2.154
   91SOL     OW 1171   5.387   4.210   5.268
   91SOL    HW1 1172   5.411   4.238   5.361
   91SOL    HW2 1173   5.457   4.146   5.234
   92SOL     OW 1174   3.983   5.014   0.561
   92SOL    HW1 1175   3.939   4.946   0.502
   92SOL    HW2 1176   4.072   5.039   0.522
   93SOL     OW 1177   3.161   4.326   6.906
   93SOL    HW1 1178   3.138   4.263   6.980
   93SOL    HW2 1179   3.080   4.344   6.851
   94SOL     OW 1180   2.085   5.874   6.638
   94SOL    HW1 1181   2.149   5.826   6.578
   94SOL    HW2 1182   2.018   5.808   6.673
   95SOL     OW 1183   1.490   0.403   3.942
   95SOL    HW1 1184   1.394   0.395   3.967
   95SOL    HW2 1185   1.547   0.358   4.010
   96SOL     OW 1186   3.100   0.537   5.272
   96SOL    HW1 1187   3.026   0.529   5.339
   96SOL    HW2 1188   3.126   0.633   5.262
   97SOL     OW 1189   2.318   3.456   5.848
   97SOL    HW1 1190   2.372   3.373   5.862
   97SOL    HW2 1191   2.315   3.477   5.751
   98SOL     OW 1192   0.125   3.743   0.837
   98SOL    HW1 1193   0.170   3.660   0.870
   98SOL    HW2 1194   0.118   3.741   0.737
   99SOL     OW 1195   3.607   2.874   1.071
   99SOL    HW1 1196   3.693   2.883   1.120
   99SOL    HW2 1197   3.551   2.803   1.114
  100SOL     OW 1198   6.791   0.095   4.851
  100SOL    HW1 1199   6.768   0.163   4.921
  100SOL    HW2 1200   6.742   0.010   4.870
  101SOL     OW 1201   1.391   4.886   1.878
  101SOL    HW1 1202   1.425   4.797   1.848
  101SOL    HW2 1203   1.421   4.904   1.971
  102SOL     OW 1204   4.033   5.749   2.360
  102SOL    HW1 1205   4.059   5.738   2.456
  102SOL    HW2 1206   4.066   5.671   2.307
  103SOL     OW 1207   2.358   1.711   1.858
  103SOL    HW1 1208   2.388   1.771   1.932
  103SOL    HW2 1209   2.359   1.616   1.890
  104SOL     OW 1210   0.864   5.489   2.627
  104SOL    HW1 1211   0.784   5.514   2.573
  104SOL    HW2 1212   0.947   5.508   2.575
  105SOL     OW 1213   6.580   2.343   6.258
  105SOL    HW1 1214   6.522   2.425   6.260
  105SOL    HW2 1215   6.596   2.316   6.163
  106SOL     OW 1216   3.454   6.386   4.871
  106SOL    HW1 1217   3.548   6.411   4.895
  106SOL    HW2 1218   3.417   6.454   4.808
  107SOL     OW 1219   1.747   1.583   1.804
  107SOL    HW1 1220   1.755   1.652   1.876
  107SOL    HW2 1221   1.651   1.556   1.795
  108SOL     OW 1222   2.783   5.823   5.706
  108SOL    HW1 1223   2.764   5.908   5.657
  108SOL    HW2 1224   2.740   5.826   5.797
  109SOL     OW 1225   0.183   0.166   1.647
  109SOL    HW1 1226   0.087   0.168   1.676
  109SOL    HW2 1227   0.207   0.074   1.616
  110SOL     OW 1228   3.498   6.037   4.501
  110SOL    HW1 1229   3.427   6.052   4.433
  110SOL    HW2 1230   3.580   6.088   4.476
  111SOL     OW 1231   2.063   0.884   4.331
  111SOL    HW1 1232   1.966   0.906   4.322
  111SOL    HW2 1233   2.081   0.846   4.421
  112SOL     OW 1234   3.470   6.481   6.682
  112SOL    HW1 1235   3.407   6.549   6.644
  112SOL    HW2 1236   3.542   6.462   6.615
  113SOL     OW 1237   0.218   5.653   3.573
  113SOL    HW1 1238   0.270   5.581   3.619
  113SOL    HW2 1239   0.219   5.735   3.629
  114SOL     OW 1240   0.974   0.271   2.015
  114SOL    HW1 1241   0.902   0.280   1.947
  114SOL    HW2 1242   0.943   0.211   2.089
  115SOL     OW 1243   4.363   1.692   2.791
  115SOL    HW1 1244   4.426   1.630   2.745
  115SOL    HW2 1245   4.413   1.747   2.858
  116SOL     OW 1246   5.815   5.313   1.628
  116SOL    HW1 1247   5.903   5.270   1.648
  116SOL    HW2 1248   5.812   5.404   1.668
  117SOL     OW 1249   2.095   2.111   0.533
  117SOL    HW1 1250   1.997   2.098   0.516
  117SOL    HW2 1251   2.146   2.100   0.448
  118SOL     OW 1252   1.728   0.963   2.623
  118SOL    HW1 1253   1.663   0.891   2.647
  118SOL    HW2 1254   1.787   0.931   2.548
  119SOL     OW 1255   0.543   0.358   0.043
  119SOL    HW1 1256   0.587   0.269   0.032
  119SOL    HW2 1257   0.496   0.383   6.978
  120SOL     OW 1258   5.513   6.793   6.983
  120SOL    HW1 1259   5.550   6.850   0.036
  120SOL    HW2 1260   5.572   6.796   6.903
  121SOL     OW 1261   0.871   3.619   6.045
  121SOL    HW1 1262   0.906   3.713   6.048
  121SOL    HW2 1263   0.912   3.570   5.968
  122SOL     OW 1264   1.916   3.594   5.587
  122SOL    HW1 1265   1.883   3.540   5.665
  122SOL    HW2 1266   1.898   3.545   5.502
  123SOL     OW 1267   0.906   1.104   2.934
  123SOL    HW1 1268   0.993   1.154   2.927
  123SOL    HW2 1269   0.900   1.039   2.859
  124SOL     OW 1270   3.612   2.929   0.464
  124SOL    HW1 1271   3.676   2.864   0.422
  124SOL    HW2 1272   3.519   2.910   0.433
  125SOL     OW 1273   2.997   1.742   0.533
  125SOL    HW1 1274   3.066   1.783   0.593
  125SOL    HW2 1275   2.947   1.814   0.485
  126SOL     OW 1276   1.965   4.389   0.832
  126SOL    HW1 1277   1.999   4.483   0.842
  126SOL    HW2 1278   2.035   4.325   0.862
  127SOL     OW 1279   0.796   5.317   0.257
  127SOL    HW1 1280   0.878   5.360   0.293
  127SOL    HW2 1281   0.768   5.364   0.173
  128SOL     OW 1282   5.295   2.181   1.181
  128SOL    HW1 1283   5.290   2.081   1.187
  128SOL    HW2 1284   5.220   2.221   1.234
  129SOL     OW 1285   2.055   3.216   6.322
  129SOL    HW1 1286   2.025   3.311   6.336
  129SOL    HW2 1287   1.988   3.167   6.266
  130SOL     OW 1288   1.306   2.180   4.414
  130SOL    HW1 1289   1.377   2.121   4.375
  130SOL    HW2 1290   1.292   2.156   4.510
  131SOL     OW 1291   5.209   1.200   3.166
  131SOL    HW1 1292   5.237   1.190   3.262
  131SOL    HW2 1293   5.144   1.128   3.143
  132SOL     OW 1294   2.956   2.989   1.418
  132SOL    HW1 1295   2.863   3.013   1.388
  132SOL    HW2 1296   2.961   2.993   1.517
  133SOL     OW 1297   5.234   0.175   4.405
  133SOL    HW1 1298   5.148   0.200   4.361
  133SOL    HW2 1299   5.262   0.084   4.376
  134SOL     OW 1300   6.400   0.631   2.340
  134SOL    HW1 1301   6.366   0.724   2.348
  134SOL    HW2 1302   6.479   0.619   2.401
  135SOL     OW 1303   5.309   3.422   3.530
  135SOL    HW1 1304   5.311   3.517   3.563
  135SOL    HW2 1305   5.381   3.370   3.576
  136SOL     OW 1306   2.779   4.212   5.811
  136SOL    HW1 1307   2.857   4.270   5.836
  136SOL    HW2 1308   2.801   4.161   5.728
  137SOL     OW 1309   5.796   2.335   3.573
  137SOL    HW1 1310   5.823   2.372   3.484
  137SOL    HW2 1311   5.816   2.237   3.575
  138SOL     OW 1312   1.000   4.504   2.269
  138SOL    HW1 1313   1.052   4.427   2.232
  138SOL    HW2 1314   0.998   4.498   2.369
  139SOL     OW 1315   1.719   7.008   5.009
  139SOL    HW1 1316   1.761   6.918   5.024
  139SOL    HW2 1317   1.692   7.017   4.913
  140SOL     OW 1318   1.473   6.147   3.141
  140SOL    HW1 1319   1.509   6.054   3.136
  140SOL    HW2 1320   1.503   6.190   3.226
  141SOL     OW 1321   0.383   2.554   5.488
  141SOL    HW1 1322   0.429   2.639   5.463
  141SOL    HW2 1323   0.412   2.481   5.426
  142SOL     OW 1324   1.147   3.483   1.374
  142SOL    HW1 1325   1.111   3.437   1.293
  142SOL    HW2 1326   1.227   3.435   1.408
  143SOL     OW 1327   6.069   4.438   0.482
  143SOL    HW1 1328   5.981   4.455   0.438
  143SOL    HW2 1329   6.138   4.499   0.443
  144SOL     OW 1330   1.605   4.968   5.727
  144SOL    HW1 1331   1.688   5.018   5.702
  144SOL    HW2 1332   1.631   4.885   5.775
  145SOL     OW 1333   6.976   5.572   0.360
  145SOL    HW1 1334   6.936   5.621   0.283
  145SOL    HW2 1335   6.923   5.591   0.443
  146SOL     OW 1336   4.884   0.334   6.246
  146SOL    HW1 1337   4.934   0.385   6.176
  146SOL    HW2 1338   4.857   0.245   6.208
  147SOL     OW 1339   5.611   3.644   0.041
  147SOL    HW1 1340   5.618   3.545   0.054
  147SOL    HW2 1341   5.683   3.675   6.999
  148SOL     OW 1342   6.782   5.601   0.144
  148SOL    HW1 1343   6.800   5.505   0.120
  148SOL    HW2 1344   6.689   5.610   0.179
  149SOL     OW 1345   3.633   2.067   3.997
  149SOL    HW1 1346   3.567   2.011   4.046
  149SOL    HW2 1347   3.616   2.060   3.898
  150SOL     OW 1348   5.784   6.736   0.932
  150SOL    HW1 1349   5.762   6.775   0.843
  150SOL    HW2 1350   5.851   6.663   0.921
  151SOL     OW 1351   3.052   2.853   1.186
  151SOL    HW1 1352   3.005   2.884   1.269
  151SOL    HW2 1353   2.988   2.858   1.109
  152SOL     OW 1354   0.710   1.087   1.708
  152SOL    HW1 1355   0.763   1.113   1.788
  152SOL    HW2 1356   0.613   1.106   1.724
  153SOL     OW 1357   2.764   1.217   2.692
  153SOL    HW1 1358   2.791   1.289   2.627
  153SOL    HW2 1359   2.735   1.259   2.777
  154SOL     OW 1360   0.226   2.741   2.063
  154SOL    HW1 1361   0.146   2.800   2.073
  154SOL    HW2 1362   0.199   2.654   2.023
  155SOL     OW 1363   0.468   1.408   3.832
  155SOL    HW1 1364   0.530   1.393   3.754
  155SOL    HW2 1365   0.437   1.503   3.832
  156SOL     OW 1366   6.489   1.633   0.552
  156SOL    HW1 1367   6.495   1.593   0.644
  156SOL    HW2 1368   6.401   1.610   0.511
  157SOL     OW 1369   5.398   3.806   2.014
  157SOL    HW1 1370   5.487   3.794   2.058
  157SOL    HW2 1371   5.326   3.769   2.072
  158SOL     OW 1372   2.114   4.558   2.640
  158SOL    HW1 1373   2.177   4.613   2.585
  158SOL    HW2 1374   2.086   4.477   2.589
  159SOL     OW 1375   4.807   4.243   2.273
  159SOL    HW1 1376   4.902   4.272   2.281
  159SOL    HW2 1377   4.751   4.291   2.340
  160SOL     OW 1378   5.203   5.565   0.928
  160SOL    HW1 1379   5.235   5.579   1.022
  160SOL    HW2 1380   5.282   5.558   0.867
  161SOL     OW 1381   1.763   6.068   3.763
  161SOL    HW1 1382   1.856   6.032   3.766
  161SOL    HW2 1383   1.755   6.131   3.686
  162SOL     OW 1384   3.671   6.072   0.262
  162SOL    HW1 1385   3.746   6.135   0.242
  162SOL    HW2 1386   3.628   6.098   0.348
  163SOL     OW 1387   6.053   5.483   0.723
  163SOL    HW1 1388   6.039   5.415   0.795
  163SOL    HW2 1389   6.001   5.565   0.744
  164SOL     OW 1390   0.210   4.357   1.723
  164SOL    HW1 1391   0.185   4.262   1.710
  164SOL    HW2 1392   0.241   4.370   1.818
  165SOL     OW 1393   4.978   3.349   1.505
  165SOL    HW1 1394   5.076   3.329   1.509
  165SOL    HW2 1395   4.935   3.292   1.435
  166SOL     OW 1396   0.439   4.106   2.791
  166SOL    HW1 1397   0.384   4.103   2.874
  166SOL    HW2 1398   0.530   4.067   2.809
  167SOL     OW 1399   5.278   3.064   6.953
  167SOL    HW1 1400   5.351   3.086   7.017
  167SOL    HW2 1401   5.237   2.976   6.978
  168SOL     OW 1402   3.087   3.435   1.416
  168SOL    HW1 1403   3.134   3.347   1.411
  168SOL    HW2 1404   3.005   3.433   1.358
  169SOL     OW 1405   5.143   2.055   1.732
  169SOL    HW1 1406   5.103   1.968   1.704
  169SOL    HW2 1407   5.238   2.059   1.699
  170SOL     OW 1408   0.871   0.583   2.680
  170SOL    HW1 1409   0.945   0.643   2.649
  170SOL    HW2 1410   0.792   0.593   2.620
  171SOL     OW 1411   3.139   4.826   6.511
  171SOL    HW1 1412   3.081   4.883   6.453
  171SOL    HW2 1413   3.121   4.847   6.607
  172SOL     OW 1414   6.536   1.325   2.919
  172SOL    HW1 1415   6.617   1.383   2.915
  172SOL    HW2 1416   6.464   1.364   2.861
  173SOL     OW 1417   5.501   1.440   4.339
  173SOL    HW1 1418   5.417   1.488   4.313
  173SOL    HW2 1419   5.555   1.422   4.257
  174SOL     OW 1420   3.820   4.982   3.578
  174SOL    HW1 1421   3.913   4.948   3.584
  174SOL    HW2 1422   3.810   5.064   3.635
  175SOL     OW 1423   3.144   0.284   1.663
  175SOL    HW1 1424   3.219   0.244   1.716
  175SOL    HW2 1425   3.107   0.363   1.712
  176SOL     OW 1426   0.535   4.313   0.591
  176SOL    HW1 1427   0.599   4.349   0.523
  176SOL    HW2 1428   0.516   4.384   0.659
  177SOL     OW 1429   5.243   2.598   2.660
  177SOL    HW1 1430   5.335   2.608   2.622
  177SOL    HW2 1431   5.176   2.640   2.598
  178SOL     OW 1432   2.258   2.853   6.326
  178SOL    HW1 1433   2.195   2.867   6.250
  178SOL    HW2 1434   2.261   2.935   6.383
  179SOL     OW 1435   3.736   1.554   5.553
  179SOL    HW1 1436   3.673   1.507   5.615
  179SOL    HW2 1437   3.745   1.500   5.469
  180SOL     OW 1438   2.187   6.756   0.059
  180SOL    HW1 1439   2.278   6.776   0.094
  180SOL    HW2 1440   2.118   6.783   0.126
  181SOL     OW 1441   3.172   3.298   6.078
  181SOL    HW1 1442   3.155   3.373   6.014
  181SOL    HW2 1443   3.184   3.336   6.170
  182SOL     OW 1444   3.562   1.985   5.731
  182SOL    HW1 1445   3.512   2.011   5.813
  182SOL    HW2 1446   3.539   2.047   5.656
  183SOL     OW 1447   4.018   2.249   3.544
  183SOL    HW1 1448   4.049   2.259   3.450
  183SOL    HW2 1449   4.073   2.179   3.590
  184SOL     OW 1450   1.160   6.494   4.617
  184SOL    HW1 1451   1.251   6.529   4.595
  184SOL    HW2 1452   1.159   6.455   4.709
  185SOL     OW 1453   0.880   1.012   6.154
  185SOL    HW1 1454   0.835   0.965   6.230
  185SOL    HW2 1455   0.960   1.061   6.188
  186SOL     OW 1456   5.751   0.327   4.263
  186SOL    HW1 1457   5.725   0.422   4.278
  186SOL    HW2 1458   5.674   0.268   4.286
  187SOL     OW 1459   4.796   0.067   2.415
  187SOL    HW1 1460   4.745   0.125   2.352
  187SOL    HW2 1461   4.834   0.123   2.489
  188SOL     OW 1462   0.865   2.043   3.741
  188SOL    HW1 1463   0.942   2.050   3.803
  188SOL    HW2 1464   0.880   2.102   3.662
  189SOL     OW 1465   2.322   5.239   1.580
  189SOL    HW1 1466   2.349   5.229   1.675
  189SOL    HW2 1467   2.225   5.217   1.570
  190SOL     OW 1468   5.165   2.405   4.661
  190SOL    HW1 1469   5.097   2.333   4.664
  190SOL    HW2 1470   5.151   2.467   4.738
  191SOL     OW 1471   5.683   0.170   7.010
  191SOL    HW1 1472   5.624   0.207   0.062
  191SOL    HW2 1473   5.777   0.164   0.024
  192SOL     OW 1474   1.460   5.387   1.639
  192SOL    HW1 1475   1.466   5.483   1.664
  192SOL    HW2 1476   1.397   5.340   1.701
  193SOL     OW 1477   4.271   3.686   5.413
  193SOL    HW1 1478   4.265   3.779   5.377
  193SOL    HW2 1479   4.338   3.634   5.360
  194SOL     OW 1480   4.124   0.734   3.095
  194SOL    HW1 1481   4.168   0.779   3.018
  194SOL    HW2 1482   4.057   0.668   3.061
  195SOL     OW 1483   1.833   0.466   5.279
  195SOL    HW1 1484   1.818   0.562   5.258
  195SOL    HW2 1485   1.790   0.409   5.209
  196SOL     OW 1486   2.503   0.623   0.727
  196SOL    HW1 1487   2.549   0.696   0.778
  196SOL    HW2 1488   2.565   0.545   0.719
  197SOL     OW 1489   2.884   0.364   1.274
  197SOL    HW1 1490   2.786   0.376   1.258
  197SOL    HW2 1491   2.901   0.346   1.371
  198SOL     OW 1492   4.858   0.653   1.569
  198SOL    HW1 1493   4.777   0.677   1.515
  198SOL    HW2 1494   4.850   0.559   1.601
  199SOL     OW 1495   6.886   1.244   3.996
  199SOL    HW1 1496   6.852   1.181   4.066
  199SOL    HW2 1497   6.836   1.331   4.002
  200SOL     OW 1498   1.097   4.223   1.685
  200SOL    HW1 1499   1.188   4.201   1.718
  200SOL    HW2 1500   1.090   4.199   1.588
  201SOL     OW 1501   6.526   6.958   5.613
  201SOL    HW1 1502   6.591   0.014   5.609
  201SOL    HW2 1503   6.434   6.994   5.628
  202SOL     OW 1504   4.689   1.446   6.584
  202SOL    HW1 1505   4.645   1.367   6.627
  202SOL    HW2 1506   4.628   1.525   6.591
  203SOL     OW 1507   5.347   2.172   5.169
  203SOL    HW1 1508   5.443   2.152   5.187
  203SOL    HW2 1509   5.292   2.091   5.189
  204SOL     OW 1510   0.344   0.410   5.403
  204SOL    HW1 1511   0.320   0.475   5.331
  204SOL    HW2 1512   0.278   0.418   5.478
  205SOL     OW 1513   0.854   1.490   2.509
  205SOL    HW1 1514   0.879   1.464   2.602
  205SOL    HW2 1515   0.797   1.419   2.468
  206SOL     OW 1516   0.426   4.400   0.904
  206SOL    HW1 1517   0.465   4.468   0.842
  206SOL    HW2 1518   0.327   4.414   0.910
  207SOL     OW 1519   6.185   1.542   3.409
  207SOL    HW1 1520   6.196   1.463   3.469
  207SOL    HW2 1521   6.118   1.605   3.449
  208SOL     OW 1522   6.091   3.170   4.634
  208SOL    HW1 1523   6.101   3.245   4.699
  208SOL    HW2 1524   6.174   3.161   4.580
  209SOL     OW 1525   0.656   4.680   3.549
  209SOL    HW1 1526   0.632   4.777   3.548
  209SOL    HW2 1527   0.755   4.670   3.541
  210SOL     OW 1528   4.077   2.419   0.759
  210SOL    HW1 1529   3.999   2.404   0.698
  210SOL    HW2 1530   4.044   2.451   0.848
  211SOL     OW 1531   1.963   6.294   2.830
  211SOL    HW1 1532   2.055   6.284   2.792
  211SOL    HW2 1533   1.969   6.335   2.921
  212SOL     OW 1534   1.376   3.909   1.781
  212SOL    HW1 1535   1.447   3.971   1.746
  212SOL    HW2 1536   1.416   3.850   1.851
  213SOL     OW 1537   3.106   0.763   0.503
  213SOL    HW1 1538   3.024   0.753   0.447
  213SOL    HW2 1539   3.086   0.822   0.581
  214SOL     OW 1540   4.534   4.751   1.569
  214SOL    HW1 1541   4.476   4.724   1.646
  214SOL    HW2 1542   4.490   4.826   1.519
  215SOL     OW 1543   2.600   3.977   0.787
  215SOL    HW1 1544   2.557   3.889   0.807
  215SOL    HW2 1545   2.699   3.971   0.802
  216SOL     OW 1546   2.015   5.979   3.770
  216SOL    HW1 1547   2.057   6.031   3.844
  216SOL    HW2 1548   2.050   5.885   3.771
  217SOL     OW 1549   0.843   1.909   4.082
  217SOL    HW1 1550   0.866   1.811   4.079
  217SOL    HW2 1551   0.743   1.919   4.080
  218SOL     OW 1552   0.097   3.749   4.231
  218SOL    HW1 1553   0.096   3.653   4.258
  218SOL    HW2 1554   0.024   3.798   4.279
  219SOL     OW 1555   4.505   6.954   6.526
  219SOL    HW1 1556   4.437   0.005   6.507
  219SOL    HW2 1557   4.510   6.937   6.624
  220SOL     OW 1558   2.997   0.005   1.344
  220SOL    HW1 1559   3.095   7.003   1.343
  220SOL    HW2 1560   2.952   6.982   1.265
  221SOL     OW 1561   0.020   3.432   0.831
  221SOL    HW1 1562   0.112   3.411   0.797
  221SOL    HW2 1563   7.003   3.352   0.878
  222SOL     OW 1564   1.724   5.223   5.557
  222SOL    HW1 1565   1.815   5.233   5.518
  222SOL    HW2 1566   1.655   5.243   5.487
  223SOL     OW 1567   6.063   3.299   6.785
  223SOL    HW1 1568   5.964   3.288   6.774
  223SOL    HW2 1569   6.105   3.309   6.694
  224SOL     OW 1570   1.833   1.217   4.497
  224SOL    HW1 1571   1.836   1.289   4.428
  224SOL    HW2 1572   1.784   1.250   4.578
  225SOL     OW 1573   4.109   3.687   6.229
  225SOL    HW1 1574   4.156   3.604   6.198
  225SOL    HW2 1575   4.172   3.764   6.225
  226SOL     OW 1576   2.203   1.496   5.812
  226SOL    HW1 1577   2.279   1.465   5.755
  226SOL    HW2 1578   2.196   1.437   5.893
  227SOL     OW 1579   1.752   3.814   2.220
  227SOL    HW1 1580   1.776   3.910   2.202
  227SOL    HW2 1581   1.746   3.800   2.319
  228SOL     OW 1582   2.963   6.587   3.716
  228SOL    HW1 1583   3.033   6.579   3.787
  228SOL    HW2 1584   2.883   6.533   3.743
  229SOL     OW 1585   5.962   6.273   0.114
  229SOL    HW1 1586   5.871   6.259   0.152
  229SOL    HW2 1587   6.030   6.278   0.188
  230SOL     OW 1588   3.343   5.264   3.713
  230SOL    HW1 1589   3.425   5.250   3.658
  230SOL    HW2 1590   3.365   5.249   3.809
  231SOL     OW 1591   6.270   2.203   5.833
  231SOL    HW1 1592   6.284   2.228   5.737
  231SOL    HW2 1593   6.357   2.177   5.874
  232SOL     OW 1594   0.817   3.264   6.682
  232SOL    HW1 1595   0.771   3.176   6.695
  232SOL    HW2 1596   0.775   3.313   6.606
  233SOL     OW 1597   3.127   1.771   2.749
  233SOL    HW1 1598   3.207   1.816   2.710
  233SOL    HW2 1599   3.144   1.672   2.756
  234SOL     OW 1600   5.235   0.488   5.386
  234SOL    HW1 1601   5.240   0.470   5.484
  234SOL    HW2 1602   5.140   0.480   5.356
  235SOL     OW 1603   3.371   2.570   1.552
  235SOL    HW1 1604   3.375   2.476   1.584
  235SOL    HW2 1605   3.449   2.589   1.492
  236SOL     OW 1606   5.230   3.362   6.264
  236SOL    HW1 1607   5.168   3.308   6.207
  236SOL    HW2 1608   5.265   3.440   6.212
  237SOL     OW 1609   5.991   4.419   1.611
  237SOL    HW1 1610   6.041   4.386   1.690
  237SOL    HW2 1611   6.040   4.394   1.527
  238SOL     OW 1612   4.908   2.329   0.498
  238SOL    HW1 1613   4.814   2.333   0.465
  238SOL    HW2 1614   4.966   2.386   0.440
  239SOL     OW 1615   0.730   5.422   7.002
  239SOL    HW1 1616   0.805   5.418   6.936
  239SOL    HW2 1617   0.674   5.339   6.995
  240SOL     OW 1618   6.972   2.506   3.480
  240SOL    HW1 1619   0.009   2.564   3.422
  240SOL    HW2 1620   6.941   2.426   3.428
  241SOL     OW 1621   2.576   1.610   5.146
  241SOL    HW1 1622   2.514   1.577   5.075
  241SOL    HW2 1623   2.523   1.653   5.219
  242SOL     OW 1624   3.529   3.531   4.348
  242SOL    HW1 1625   3.579   3.450   4.319
  242SOL    HW2 1626   3.590   3.593   4.396
  243SOL     OW 1627   4.159   0.852   5.831
  243SOL    HW1 1628   4.212   0.781   5.877
  243SOL    HW2 1629   4.108   0.904   5.899
  244SOL     OW 1630   6.156   2.936   4.756
  244SOL    HW1 1631   6.087   2.886   4.808
  244SOL    HW2 1632   6.143   3.035   4.769
  245SOL     OW 1633   5.665   3.798   3.862
  245SOL    HW1 1634   5.737   3.839   3.918
  245SOL    HW2 1635   5.644   3.859   3.785
  246SOL     OW 1636   4.490   2.554   3.661
  246SOL    HW1 1637   4.400   2.511   3.654
  246SOL    HW2 1638   4.521   2.582   3.571
  247SOL     OW 1639   3.013   1.759   1.668
  247SOL    HW1 1640   3.093   1.745   1.610
  247SOL    HW2 1641   2.999   1.857   1.684
  248SOL     OW 1642   3.452   1.353   2.514
  248SOL    HW1 1643   3.544   1.340   2.551
  248SOL    HW2 1644   3.396   1.272   2.532
  249SOL     OW 1645   4.287   0.482   4.876
  249SOL    HW1 1646   4.256   0.515   4.786
  249SOL    HW2 1647   4.228   0.519   4.947
  250SOL     OW 1648   4.905   2.683   1.061
  250SOL    HW1 1649   4.946   2.606   1.013
  250SOL    HW2 1650   4.975   2.733   1.112
  251SOL     OW 1651   4.281   4.375   5.763
  251SOL    HW1 1652   4.215   4.338   5.698
  251SOL    HW2 1653   4.276   4.475   5.764
  252SOL     OW 1654   6.499   6.218   0.147
  252SOL    HW1 1655   6.421   6.169   0.186
  252SOL    HW2 1656   6.498   6.313   0.178
  253SOL     OW 1657   2.526   5.686   6.639
  253SOL    HW1 1658   2.608   5.737   6.663
  253SOL    HW2 1659   2.515   5.608   6.701
  254SOL     OW 1660   5.540   2.928   3.682
  254SOL    HW1 1661   5.520   2.938   3.585
  254SOL    HW2 1662   5.472   2.977   3.736
  255SOL     OW 1663   1.562   3.459   4.913
  255SOL    HW1 1664   1.579   3.437   4.817
  255SOL    HW2 1665   1.484   3.522   4.919
  256SOL     OW 1666   6.428   3.810   6.149
  256SOL    HW1 1667   6.450   3.896   6.104
  256SOL    HW2 1668   6.505   3.779   6.204
  257SOL     OW 1669   4.611   0.047   3.329
  257SOL    HW1 1670   4.588   0.137   3.292
  257SOL    HW2 1671   4.545   0.021   3.400
  258SOL     OW 1672   2.116   5.084   4.993
  258SOL    HW1 1673   2.115   4.990   4.959
  258SOL    HW2 1674   2.036   5.100   5.050
  259SOL     OW 1675   0.574   2.003   1.977
  259SOL    HW1 1676   0.638   1.981   1.904
  259SOL    HW2 1677   0.622   2.007   2.064
  260SOL     OW 1678   4.561   0.972   0.603
  260SOL    HW1 1679   4.592   0.923   0.684
  260SOL    HW2 1680   4.640   1.003   0.550
  261SOL     OW 1681   6.625   3.447   0.732
  261SOL    HW1 1682   6.535   3.426   0.769
  261SOL    HW2 1683   6.619   3.459   0.633
  262SOL     OW 1684   6.995   3.923   0.473
  262SOL    HW1 1685   6.913   3.894   0.521
  262SOL    HW2 1686   0.035   3.974   0.535
  263SOL     OW 1687   1.365   0.846   3.282
  263SOL    HW1 1688   1.375   0.945   3.273
  263SOL    HW2 1689   1.419   0.813   3.359
  264SOL     OW 1690   5.791   3.271   6.729
  264SOL    HW1 1691   5.811   3.206   6.656
  264SOL    HW2 1692   5.727   3.229   6.794
  265SOL     OW 1693   5.083   5.901   2.526
  265SOL    HW1 1694   5.063   5.882   2.622
  265SOL    HW2 1695   5.043   5.829   2.469
  266SOL     OW 1696   3.221   2.950   5.267
  266SOL    HW1 1697   3.301   2.898   5.238
  266SOL    HW2 1698   3.245   3.047   5.272
  267SOL     OW 1699   0.455   1.466   6.787
  267SOL    HW1 1700   0.381   1.455   6.852
  267SOL    HW2 1701   0.462   1.384   6.730
  268SOL     OW 1702   3.701   0.800   5.803
  268SOL    HW1 1703   3.770   0.803   5.876
  268SOL    HW2 1704   3.718   0.876   5.740
  269SOL     OW 1705   1.057   3.713   2.150
  269SOL    HW1 1706   1.025   3.766   2.072
  269SOL    HW2 1707   1.157   3.719   2.156
  270SOL     OW 1708   0.536   0.236   0.538
  270SOL    HW1 1709   0.514   0.233   0.441
  270SOL    HW2 1710   0.632   0.212   0.552
  271SOL     OW 1711   1.012   1.228   6.677
  271SOL    HW1 1712   0.927   1.246   6.628
  271SOL    HW2 1713   0.996   1.235   6.776
  272SOL     OW 1714   3.298   5.280   4.551
  272SOL    HW1 1715   3.350   5.315   4.629
  272SOL    HW2 1716   3.340   5.311   4.466
  273SOL     OW 1717   2.184   4.352   4.637
  273SOL    HW1 1718   2.139   4.304   4.712
  273SOL    HW2 1719   2.256   4.411   4.674
  274SOL     OW 1720   4.341   2.003   3.350
  274SOL    HW1 1721   4.348   2.086   3.406
  274SOL    HW2 1722   4.261   2.009   3.291
  275SOL     OW 1723   6.000   4.492   5.529
  275SOL    HW1 1724   5.917   4.491   5.473
  275SOL    HW2 1725   6.011   4.582   5.571
  276SOL     OW 1726   0.295   6.430   2.357
  276SOL    HW1 1727   0.337   6.404   2.270
  276SOL    HW2 1728   0.196   6.413   2.353
  277SOL     OW 1729   1.021   3.986   0.801
  277SOL    HW1 1730   1.121   3.986   0.811
  277SOL    HW2 1731   0.995   3.927   0.724
  278SOL     OW 1732   5.924   5.119   2.095
  278SOL    HW1 1733   5.920   5.163   2.185
  278SOL    HW2 1734   5.934   5.188   2.024
  279SOL     OW 1735   6.674   2.976   4.251
  279SOL    HW1 1736   6.607   2.902   4.257
  279SOL    HW2 1737   6.680   3.009   4.157
  280SOL     OW 1738   2.859   0.025   3.051
  280SOL    HW1 1739   2.895   0.046   2.960
  280SOL    HW2 1740   2.924   0.055   3.120
  281SOL     OW 1741   2.632   4.676   2.329
  281SOL    HW1 1742   2.732   4.668   2.329
  281SOL    HW2 1743   2.600   4.700   2.238
  282SOL     OW 1744   3.246   1.752   5.483
  282SOL    HW1 1745   3.296   1.677   5.439
  282SOL    HW2 1746   3.311   1.812   5.529
  283SOL     OW 1747   6.369   1.720   6.425
  283SOL    HW1 1748   6.360   1.796   6.489
  283SOL    HW2 1749   6.466   1.709   6.401
  284SOL     OW 1750   1.415   3.878   4.175
  284SOL    HW1 1751   1.515   3.887   4.172
  284SOL    HW2 1752   1.381   3.917   4.261
  285SOL     OW 1753   6.009   4.706   5.683
  285SOL    HW1 1754   5.975   4.800   5.680
  285SOL    HW2 1755   5.981   4.663   5.769
  286SOL     OW 1756   3.968   6.040   5.287
  286SOL    HW1 1757   3.914   6.098   5.348
  286SOL    HW2 1758   3.906   5.988   5.227
  287SOL     OW 1759   0.174   4.771   6.689
  287SOL    HW1 1760   0.094   4.772   6.748
  287SOL    HW2 1761   0.253   4.805   6.741
  288SOL     OW 1762   3.569   1.697   6.138
  288SOL    HW1 1763   3.587   1.786   6.096
  288SOL    HW2 1764   3.645   1.673   6.199
  289SOL     OW 1765   0.211   4.330   4.896
  289SOL    HW1 1766   0.128   4.333   4.952
  289SOL    HW2 1767   0.241   4.235   4.886
  290SOL     OW 1768   6.106   1.964   4.338
  290SOL    HW1 1769   6.169   1.925   4.271
  290SOL    HW2 1770   6.120   2.063   4.342
  291SOL     OW 1771   1.575   2.272   4.573
  291SOL    HW1 1772   1.504   2.324   4.619
  291SOL    HW2 1773   1.536   2.225   4.493
  292SOL     OW 1774   1.381   1.670   3.214
  292SOL    HW1 1775   1.472   1.712   3.218
  292SOL    HW2 1776   1.311   1.740   3.224
  293SOL     OW 1777   4.362   4.833   1.793
  293SOL    HW1 1778   4.421   4.887   1.853
  293SOL    HW2 1779   4.267   4.864   1.803
  294SOL     OW 1780   6.790   5.472   6.457
  294SOL    HW1 1781   6.872   5.521   6.428
  294SOL    HW2 1782   6.768   5.496   6.552
  295SOL     OW 1783   3.224   1.838   4.532
  295SOL    HW1 1784   3.166   1.855   4.611
  295SOL    HW2 1785   3.286   1.916   4.518
  296SOL     OW 1786   4.680   1.779   2.791
  296SOL    HW1 1787   4.639   1.786   2.883
  296SOL    HW2 1788   4.665   1.688   2.755
  297SOL     OW 1789   2.022   4.508   2.889
  297SOL    HW1 1790   1.987   4.415   2.899
  297SOL    HW2 1791   2.066   4.518   2.800
  298SOL     OW 1792   3.875   6.531   0.774
  298SOL    HW1 1793   3.844   6.453   0.829
  298SOL    HW2 1794   3.861   6.615   0.826
  299SOL     OW 1795   4.382   3.956   6.692
  299SOL    HW1 1796   4.284   3.957   6.711
  299SOL    HW2 1797   4.420   3.867   6.719
  300SOL     OW 1798   6.207   1.158   1.583
  300SOL    HW1 1799   6.198   1.084   1.649
  300SOL    HW2 1800   6.204   1.122   1.490
  301SOL     OW 1801   5.201   3.522   1.764
  301SOL    HW1 1802   5.228   3.435   1.723
  301SOL    HW2 1803   5.278   3.585   1.763
  302SOL     OW 1804   0.809   0.355   3.355
  302SOL    HW1 1805   0.893   0.302   3.357
  302SOL    HW2 1806   0.746   0.320   3.425
  303SOL     OW 1807   6.348   6.976   1.313
  303SOL    HW1 1808   6.397   0.043   1.321
  303SOL    HW2 1809   6.318   6.963   1.218
  304SOL     OW 1810   2.542   0.516   4.126
  304SOL    HW1 1811   2.514   0.495   4.220
  304SOL    HW2 1812   2.518   0.611   4.105
  305SOL     OW 1813   0.600   3.114   0.150
  305SOL    HW1 1814   0.522   3.057   0.174
  305SOL    HW2 1815   0.599   3.131   0.051
  306SOL     OW 1816   2.297   0.481   3.560
  306SOL    HW1 1817   2.370   0.545   3.535
  306SOL    HW2 1818   2.216   0.531   3.590
  307SOL     OW 1819   5.272   6.665   0.621
  307SOL    HW1 1820   5.192   6.612   0.650
  307SOL    HW2 1821   5.292   6.735   0.689
  308SOL     OW 1822   5.660   3.379   5.085
  308SOL    HW1 1823   5.715   3.426   5.016
  308SOL    HW2 1824   5.580   3.435   5.107
  309SOL     OW 1825   3.323   5.265   6.970
  309SOL    HW1 1826   3.279   5.223   6.891
  309SOL    HW2 1827   3.279   5.352   6.991
  310SOL     OW 1828   6.236   6.976   4.972
  310SOL    HW1 1829   6.239   0.030   5.039
  310SOL    HW2 1830   6.239   6.888   5.019
  311SOL     OW 1831   5.442   4.531   2.296
  311SOL    HW1 1832   5.476   4.447   2.255
  311SOL    HW2 1833   5.518   4.591   2.319
  312SOL     OW 1834   4.238   1.745   5.603
  312SOL    HW1 1835   4.267   1.757   5.508
  312SOL    HW2 1836   4.171   1.671   5.607
  313SOL     OW 1837   3.209   4.121   1.821
  313SOL    HW1 1838   3.275   4.093   1.891
  313SOL    HW2 1839   3.128   4.062   1.827
  314SOL     OW 1840   3.726   5.190   6.716
  314SOL    HW1 1841   3.735   5.167   6.812
  314SOL    HW2 1842   3.731   5.289   6.704
  315SOL     OW 1843   1.514   2.655   3.523
  315SOL    HW1 1844   1.480   2.578   3.469
  315SOL    HW2 1845   1.552   2.724   3.461
  316SOL     OW 1846   3.111   1.187   3.460
  316SOL    HW1 1847   3.105   1.242   3.543
  316SOL    HW2 1848   3.161   1.238   3.390
  317SOL     OW 1849   0.528   0.785   0.810
  317SOL    HW1 1850   0.450   0.746   0.760
  317SOL    HW2 1851   0.495   0.826   0.896
  318SOL     OW 1852   1.264   6.357   7.017
  318SOL    HW1 1853   1.168   6.382   0.010
  318SOL    HW2 1854   1.279   6.331   6.922
  319SOL     OW 1855   6.953   0.450   3.795
  319SOL    HW1 1856   6.947   0.468   3.893
  319SOL    HW2 1857   0.027   0.429   3.770
  320SOL     OW 1858   5.837   2.211   0.388
  320SOL    HW1 1859   5.928   2.190   0.353
  320SOL    HW2 1860   5.808   2.299   0.351
  321SOL     OW 1861   4.014   1.449   0.624
  321SOL    HW1 1862   4.038   1.542   0.651
  321SOL    HW2 1863   4.078   1.384   0.665
  322SOL     OW 1864   3.743   4.009   4.306
  322SOL    HW1 1865   3.720   3.912   4.306
  322SOL    HW2 1866   3.679   4.059   4.364
  323SOL     OW 1867   1.081   3.300   6.588
  323SOL    HW1 1868   0.984   3.292   6.607
  323SOL    HW2 1869   1.132   3.232   6.642
  324SOL     OW 1870   2.467   2.071   4.285
  324SOL    HW1 1871   2.519   1.993   4.320
  324SOL    HW2 1872   2.522   2.119   4.216
  325SOL     OW 1873   1.043   2.873   1.710
  325SOL    HW1 1874   0.949   2.844   1.689
  325SOL    HW2 1875   1.108   2.821   1.655
  326SOL     OW 1876   1.051   5.033   0.201
  326SOL    HW1 1877   1.000   5.064   0.121
  326SOL    HW2 1878   0.988   4.999   0.271
  327SOL     OW 1879   1.287   5.181   3.678
  327SOL    HW1 1880   1.228   5.101   3.664
  327SOL    HW2 1881   1.376   5.163   3.636
  328SOL     OW 1882   1.448   5.911   1.761
  328SOL    HW1 1883   1.367   5.966   1.739
  328SOL    HW2 1884   1.480   5.935   1.853
  329SOL     OW 1885   4.001   3.922   4.321
  329SOL    HW1 1886   3.913   3.949   4.282
  329SOL    HW2 1887   4.061   4.002   4.324
  330SOL     OW 1888   2.948   0.221   1.051
  330SOL    HW1 1889   2.952   0.271   1.138
  330SOL    HW2 1890   2.884   0.268   0.989
  331SOL     OW 1891   3.619   5.711   0.521
  331SOL    HW1 1892   3.684   5.644   0.555
  331SOL    HW2 1893   3.532   5.667   0.501
  332SOL     OW 1894   2.968   1.828   4.364
  332SOL    HW1 1895   3.043   1.795   4.423
  332SOL    HW2 1896   2.980   1.792   4.272
  333SOL     OW 1897   3.697   6.566   6.503
  333SOL    HW1 1898   3.698   6.651   6.555
  333SOL    HW2 1899   3.785   6.519   6.515
  334SOL     OW 1900   2.955   0.617   1.471
  334SOL    HW1 1901   3.025   0.573   1.414
  334SOL    HW2 1902   2.983   0.710   1.492
  335SOL     OW 1903   3.328   6.992   4.523
  335SOL    HW1 1904   3.368   0.057   4.486
  335SOL    HW2 1905   3.400   6.931   4.553
  336SOL     OW 1906   2.083   0.759   3.944
  336SOL    HW1 1907   2.138   0.721   4.018
  336SOL    HW2 1908   2.132   0.836   3.903
  337SOL     OW 1909   0.092   3.162   0.002
  337SOL    HW1 1910   0.080   3.255   6.986
  337SOL    HW2 1911   0.111   3.166   0.100
  338SOL     OW 1912   2.950   2.703   1.492
  338SOL    HW1 1913   2.960   2.649   1.575
  338SOL    HW2 1914   2.945   2.800   1.516
  339SOL     OW 1915   2.946   6.846   4.678
  339SOL    HW1 1916   3.007   6.768   4.686
  339SOL    HW2 1917   2.854   6.820   4.709
  340SOL     OW 1918   4.994   4.218   6.018
  340SOL    HW1 1919   5.038   4.177   6.098
  340SOL    HW2 1920   4.898   4.192   6.016
  341SOL     OW 1921   6.840   0.867   4.271
  341SOL    HW1 1922   6.812   0.841   4.179
  341SOL    HW2 1923   6.836   0.966   4.281
  342SOL     OW 1924   5.971   3.981   0.130
  342SOL    HW1 1925   5.944   4.013   0.039
  342SOL    HW2 1926   5.903   4.011   0.197
  343SOL     OW 1927   1.939   5.479   0.849
  343SOL    HW1 1928   1.890   5.515   0.929
  343SOL    HW2 1929   1.980   5.554   0.798
  344SOL     OW 1930   0.912   5.112   1.989
  344SOL    HW1 1931   0.891   5.050   1.913
  344SOL    HW2 1932   0.852   5.191   1.985
  345SOL     OW 1933   5.800   0.949   4.150
  345SOL    HW1 1934   5.726   0.932   4.214
  345SOL    HW2 1935   5.864   1.015   4.189
  346SOL     OW 1936   2.059   0.588   3.089
  346SOL    HW1 1937   2.009   0.521   3.035
  346SOL    HW2 1938   2.000   0.665   3.112
  347SOL     OW 1939   2.965   5.453   6.128
  347SOL    HW1 1940   2.900   5.504   6.185
  347SOL    HW2 1941   3.058   5.474   6.157
  348SOL     OW 1942   5.473   4.932   1.614
  348SOL    HW1 1943   5.499   4.847   1.661
  348SOL    HW2 1944   5.538   5.004   1.636
  349SOL     OW 1945   0.008   4.113   0.668
  349SOL    HW1 1946   6.934   4.107   0.702
  349SOL    HW2 1947   0.069   4.143   0.741
  350SOL     OW 1948   3.702   2.655   0.683
  350SOL    HW1 1949   3.609   2.687   0.700
  350SOL    HW2 1950   3.709   2.558   0.707
  351SOL     OW 1951   2.068   2.885   0.127
  351SOL    HW1 1952   2.019   2.882   0.214
  351SOL    HW2 1953   2.023   2.825   0.061
  352SOL     OW 1954   3.294   0.500   4.902
  352SOL    HW1 1955   3.381   0.478   4.945
  352SOL    HW2 1956   3.219   0.473   4.963
  353SOL     OW 1957   2.644   6.957   0.785
  353SOL    HW1 1958   2.711   6.907   0.840
  353SOL    HW2 1959   2.646   6.923   0.691
  354SOL     OW 1960   3.095   2.957   0.211
  354SOL    HW1 1961   3.078   3.007   0.126
  354SOL    HW2 1962   3.057   2.865   0.204
  355SOL     OW 1963   0.241   3.114   2.991
  355SOL    HW1 1964   0.199   3.163   2.914
  355SOL    HW2 1965   0.282   3.180   3.054
  356SOL     OW 1966   3.674   6.078   5.316
  356SOL    HW1 1967   3.697   6.036   5.403
  356SOL    HW2 1968   3.714   6.024   5.241
  357SOL     OW 1969   6.366   6.636   5.409
  357SOL    HW1 1970   6.436   6.622   5.479
  357SOL    HW2 1971   6.393   6.713   5.351
  358SOL     OW 1972   5.206   6.932   1.733
  358SOL    HW1 1973   5.224   6.875   1.813
  358SOL    HW2 1974   5.118   6.977   1.743
  359SOL     OW 1975   1.136   2.407   2.115
  359SOL    HW1 1976   1.090   2.351   2.183
  359SOL    HW2 1977   1.161   2.495   2.156
  360SOL     OW 1978   1.249   5.988   6.641
  360SOL    HW1 1979   1.184   5.912   6.650
  360SOL    HW2 1980   1.316   5.966   6.570
  361SOL     OW 1981   5.876   6.024   3.248
  361SOL    HW1 1982   5.783   5.990   3.263
  361SOL    HW2 1983   5.891   6.104   3.306
  362SOL     OW 1984   3.539   4.072   1.383
  362SOL    HW1 1985   3.524   3.974   1.393
  362SOL    HW2 1986   3.609   4.088   1.313
  363SOL     OW 1987   5.053   4.332   3.779
  363SOL    HW1 1988   5.073   4.324   3.681
  363SOL    HW2 1989   5.003   4.417   3.795
  364SOL     OW 1990   6.699   5.889   6.255
  364SOL    HW1 1991   6.698   5.816   6.188
  364SOL    HW2 1992   6.789   5.894   6.298
  365SOL     OW 1993   5.759   4.917   2.013
  365SOL    HW1 1994   5.683   4.953   1.959
  365SOL    HW2 1995   5.831   4.986   2.019
  366SOL     OW 1996   6.234   0.718   0.003
  366SOL    HW1 1997   6.302   0.720   0.076
  366SOL    HW2 1998   6.274   0.677   6.940
  367SOL     OW 1999   4.923   3.140   1.346
  367SOL    HW1 2000   4.865   3.085   1.406
  367SOL    HW2 2001   4.938   3.090   1.260
  368SOL     OW 2002   0.040   3.783   4.969
  368SOL    HW1 2003   0.118   3.750   5.022
  368SOL    HW2 2004   6.975   3.764   5.020
  369SOL     OW 2005   6.659   5.473   1.825
  369SOL    HW1 2006   6.575   5.500   1.778
  369SOL    HW2 2007   6.738   5.512   1.778
  370SOL     OW 2008   3.014   1.731   5.638
  370SOL    HW1 2009   3.098   1.717   5.586
  370SOL    HW2 2010   2.935   1.717   5.577
  371SOL     OW 2011   2.641   3.284   6.509
  371SOL    HW1 2012   2.643   3.367   6.564
  371SOL    HW2 2013   2.565   3.289   6.444
  372SOL     OW 2014   0.501   6.843   5.446
  372SOL    HW1 2015   0.511   6.924   5.388
  372SOL    HW2 2016   0.510   6.870   5.542
  373SOL     OW 2017   6.225   6.125   4.906
  373SOL    HW1 2018   6.256   6.204   4.960
  373SOL    HW2 2019   6.239   6.144   4.809
  374SOL     OW 2020   2.722   1.650   2.248
  374SOL    HW1 2021   2.780   1.683   2.322
  374SOL    HW2 2022   2.756   1.563   2.214
  375SOL     OW 2023   1.113   4.527   3.279
  375SOL    HW1 2024   1.064   4.597   3.228
  375SOL    HW2 2025   1.211   4.535   3.261
  376SOL     OW 2026   1.795   2.075   4.585
  376SOL    HW1 2027   1.712   2.129   4.600
  376SOL    HW2 2028   1.850   2.119   4.514
  377SOL     OW 2029   0.257   3.051   1.848
  377SOL    HW1 2030   0.276   3.124   1.781
  377SOL    HW2 2031   0.180   2.996   1.815
  378SOL     OW 2032   3.695   2.966   5.382
  378SOL    HW1 2033   3.711   2.867   5.383
  378SOL    HW2 2034   3.737   3.005   5.300
  379SOL     OW 2035   6.108   4.023   1.629
  379SOL    HW1 2036   6.086   4.038   1.725
  379SOL    HW2 2037   6.032   4.056   1.572
  380SOL     OW 2038   3.162   1.444   1.849
  380SOL    HW1 2039   3.217   1.407   1.924
  380SOL    HW2 2040   3.149   1.542   1.862
  381SOL     OW 2041   1.425   4.381   2.442
  381SOL    HW1 2042   1.353   4.445   2.469
  381SOL    HW2 2043   1.509   4.402   2.491
  382SOL     OW 2044   5.626   6.293   5.922
  382SOL    HW1 2045   5.676   6.268   6.005
  382SOL    HW2 2046   5.596   6.388   5.929
  383SOL     OW 2047   5.500   3.234   6.111
  383SOL    HW1 2048   5.565   3.309   6.122
  383SOL    HW2 2049   5.413   3.271   6.079
  384SOL     OW 2050   6.418   4.940   4.439
  384SOL    HW1 2051   6.443   4.844   4.446
  384SOL    HW2 2052   6.501   4.996   4.432
  385SOL     OW 2053   4.746   6.184   5.949
  385SOL    HW1 2054   4.682   6.107   5.945
  385SOL    HW2 2055   4.738   6.229   6.038
  386SOL     OW 2056   3.200   6.299   5.810
  386SOL    HW1 2057   3.148   6.298   5.725
  386SOL    HW2 2058   3.298   6.302   5.789
  387SOL     OW 2059   0.062   6.565   3.250
  387SOL    HW1 2060   0.069   6.607   3.341
  387SOL    HW2 2061   0.133   6.603   3.190
  388SOL     OW 2062   1.450   2.278   3.815
  388SOL    HW1 2063   1.501   2.327   3.745
  388SOL    HW2 2064   1.509   2.261   3.894
  389SOL     OW 2065   4.152   4.173   1.682
  389SOL    HW1 2066   4.191   4.083   1.660
  389SOL    HW2 2067   4.215   4.221   1.743
  390SOL     OW 2068   3.792   1.135   0.015
  390SOL    HW1 2069   3.747   1.156   0.102
  390SOL    HW2 2070   3.794   1.217   6.977
  391SOL     OW 2071   2.360   4.210   5.331
  391SOL    HW1 2072   2.291   4.189   5.400
  391SOL    HW2 2073   2.365   4.135   5.265
  392SOL     OW 2074   1.898   3.699   1.738
  392SOL    HW1 2075   1.914   3.796   1.759
  392SOL    HW2 2076   1.941   3.642   1.807
  393SOL     OW 2077   1.253   5.058   0.584
  393SOL    HW1 2078   1.238   5.139   0.526
  393SOL    HW2 2079   1.283   5.088   0.675
  394SOL     OW 2080   1.025   3.031   0.123
  394SOL    HW1 2081   1.011   2.944   0.076
  394SOL    HW2 2082   0.970   3.102   0.080
  395SOL     OW 2083   5.240   4.757   2.939
  395SOL    HW1 2084   5.219   4.773   3.036
  395SOL    HW2 2085   5.219   4.662   2.916
  396SOL     OW 2086   2.596   2.675   1.612
  396SOL    HW1 2087   2.606   2.580   1.584
  396SOL    HW2 2088   2.559   2.679   1.705
  397SOL     OW 2089   5.378   1.937   6.406
  397SOL    HW1 2090   5.400   1.950   6.310
  397SOL    HW2 2091   5.388   2.024   6.455
  398SOL     OW 2092   1.744   6.260   3.567
  398SOL    HW1 2093   1.796   6.242   3.483
  398SOL    HW2 2094   1.742   6.359   3.584
  399SOL     OW 2095   5.667   6.657   4.502
  399SOL    HW1 2096   5.719   6.678   4.419
  399SOL    HW2 2097   5.609   6.735   4.526
  400SOL     OW 2098   6.147   6.712   5.573
  400SOL    HW1 2099   6.224   6.725   5.511
  400SOL    HW2 2100   6.176   6.658   5.652
  401SOL     OW 2101   5.337   6.956   6.125
  401SOL    HW1 2102   5.284   6.942   6.041
  401SOL    HW2 2103   5.430   6.921   6.112
  402SOL     OW 2104   6.454   6.950   3.232
  402SOL    HW1 2105   6.414   6.999   3.309
  402SOL    HW2 2106   6.437   6.852   3.243
  403SOL     OW 2107   4.006   0.668   5.587
  403SOL    HW1 2108   4.042   0.578   5.612
  403SOL    HW2 2109   3.976   0.716   5.669
  404SOL     OW 2110   1.914   5.094   5.175
  404SOL    HW1 2111   1.815   5.096   5.189
  404SOL    HW2 2112   1.960   5.084   5.263
  405SOL     OW 2113   2.153   3.731   3.091
  405SOL    HW1 2114   2.162   3.632   3.086
  405SOL    HW2 2115   2.233   3.774   3.048
  406SOL     OW 2116   0.411   4.304   4.586
  406SOL    HW1 2117   0.454   4.364   4.654
  406SOL    HW2 2118   0.335   4.352   4.542
  407SOL     OW 2119   2.007   2.135   4.948
  407SOL    HW1 2120   2.073   2.064   4.923
  407SOL    HW2 2121   1.942   2.099   5.015
  408SOL     OW 2122   3.242   2.043   3.064
  408SOL    HW1 2123   3.198   1.956   3.044
  408SOL    HW2 2124   3.281   2.081   2.981
  409SOL     OW 2125   6.486   3.248   1.492
  409SOL    HW1 2126   6.490   3.348   1.487
  409SOL    HW2 2127   6.558   3.209   1.434
  410SOL     OW 2128   1.302   2.013   1.055
  410SOL    HW1 2129   1.256   2.008   0.966
  410SOL    HW2 2130   1.279   1.932   1.109
  411SOL     OW 2131   6.177   0.804   1.556
  411SOL    HW1 2132   6.150   0.715   1.594
  411SOL    HW2 2133   6.123   0.823   1.475
  412SOL     OW 2134   3.361   5.147   3.025
  412SOL    HW1 2135   3.435   5.190   3.075
  412SOL    HW2 2136   3.328   5.208   2.954
  413SOL     OW 2137   4.770   4.345   1.532
  413SOL    HW1 2138   4.823   4.284   1.473
  413SOL    HW2 2139   4.702   4.293   1.583
  414SOL     OW 2140   3.032   6.533   4.010
  414SOL    HW1 2141   2.950   6.485   4.039
  414SOL    HW2 2142   3.052   6.608   4.073
  415SOL     OW 2143   0.310   0.674   0.041
  415SOL    HW1 2144   0.409   0.660   0.044
  415SOL    HW2 2145   0.264   0.591   0.073
  416SOL     OW 2146   5.100   4.921   4.967
  416SOL    HW1 2147   5.196   4.894   4.974
  416SOL    HW2 2148   5.092   5.021   4.975
  417SOL     OW 2149   2.130   1.302   6.622
  417SOL    HW1 2150   2.090   1.392   6.639
  417SOL    HW2 2151   2.188   1.276   6.699
  418SOL     OW 2152   2.488   6.746   5.848
  418SOL    HW1 2153   2.441   6.671   5.802
  418SOL    HW2 2154   2.542   6.797   5.780
  419SOL     OW 2155   0.709   6.939   2.876
  419SOL    HW1 2156   0.618   6.938   2.833
  419SOL    HW2 2157   0.721   0.004   2.926
  420SOL     OW 2158   5.541   1.383   6.206
  420SOL    HW1 2159   5.626   1.338   6.233
  420SOL    HW2 2160   5.499   1.332   6.131
  421SOL     OW 2161   5.866   3.733   5.156
  421SOL    HW1 2162   5.904   3.824   5.173
  421SOL    HW2 2163   5.838   3.692   5.242
  422SOL     OW 2164   5.251   2.943   0.656
  422SOL    HW1 2165   5.202   2.948   0.569
  422SOL    HW2 2166   5.262   3.035   0.694
  423SOL     OW 2167   2.729   1.711   0.027
  423SOL    HW1 2168   2.765   1.803   0.008
  423SOL    HW2 2169   2.786   1.667   0.095
  424SOL     OW 2170   2.000   4.973   3.225
  424SOL    HW1 2171   1.997   4.888   3.277
  424SOL    HW2 2172   1.913   5.021   3.236
  425SOL     OW 2173   5.035   1.346   4.468
  425SOL    HW1 2174   4.988   1.432   4.484
  425SOL    HW2 2175   5.042   1.295   4.554
  426SOL     OW 2176   2.338   2.731   4.970
  426SOL    HW1 2177   2.371   2.808   5.024
  426SOL    HW2 2178   2.351   2.646   5.020
  427SOL     OW 2179   5.714   0.479   3.760
  427SOL    HW1 2180   5.689   0.531   3.678
  427SOL    HW2 2181   5.804   0.437   3.747
  428SOL     OW 2182   3.472   0.476   3.016
  428SOL    HW1 2183   3.394   0.414   3.019
  428SOL    HW2 2184   3.522   0.462   2.931
  429SOL     OW 2185   0.642   5.234   4.011
  429SOL    HW1 2186   0.562   5.264   3.959
  429SOL    HW2 2187   0.614   5.215   4.105
  430SOL     OW 2188   1.674   6.907   3.348
  430SOL    HW1 2189   1.699   6.851   3.426
  430SOL    HW2 2190   1.662   6.849   3.267
  431SOL     OW 2191   2.577   2.012   0.748
  431SOL    HW1 2192   2.561   1.915   0.767
  431SOL    HW2 2193   2.665   2.039   0.786
  432SOL     OW 2194   6.287   2.048   0.455
  432SOL    HW1 2195   6.224   1.977   0.422
  432SOL    HW2 2196   6.234   2.118   0.504
  433SOL     OW 2197   2.464   5.962   6.045
  433SOL    HW1 2198   2.373   5.920   6.042
  433SOL    HW2 2199   2.482   6.008   5.958
  434SOL     OW 2200   4.306   5.713   4.312
  434SOL    HW1 2201   4.263   5.800   4.288
  434SOL    HW2 2202   4.248   5.637   4.281
  435SOL     OW 2203   3.761   1.967   5.365
  435SOL    HW1 2204   3.809   1.892   5.319
  435SOL    HW2 2205   3.673   1.934   5.399
  436SOL     OW 2206   3.313   6.221   2.544
  436SOL    HW1 2207   3.219   6.209   2.576
  436SOL    HW2 2208   3.360   6.287   2.602
  437SOL     OW 2209   0.123   1.310   5.331
  437SOL    HW1 2210   0.048   1.373   5.350
  437SOL    HW2 2211   0.125   1.287   5.234
  438SOL     OW 2212   2.095   3.716   3.493
  438SOL    HW1 2213   2.080   3.714   3.591
  438SOL    HW2 2214   2.152   3.795   3.470
  439SOL     OW 2215   6.308   6.761   2.821
  439SOL    HW1 2216   6.255   6.696   2.768
  439SOL    HW2 2217   6.318   6.846   2.770
  440SOL     OW 2218   3.695   1.507   6.314
  440SOL    HW1 2219   3.775   1.483   6.369
  440SOL    HW2 2220   3.624   1.437   6.326
  441SOL     OW 2221   5.827   4.201   3.161
  441SOL    HW1 2222   5.810   4.103   3.167
  441SOL    HW2 2223   5.925   4.218   3.164
  442SOL     OW 2224   4.387   4.918   5.468
  442SOL    HW1 2225   4.351   4.966   5.547
  442SOL    HW2 2226   4.343   4.828   5.461
  443SOL     OW 2227   5.868   4.228   4.297
  443SOL    HW1 2228   5.846   4.203   4.391
  443SOL    HW2 2229   5.924   4.157   4.255
  444SOL     OW 2230   4.275   1.208   6.697
  444SOL    HW1 2231   4.372   1.213   6.720
  444SOL    HW2 2232   4.229   1.147   6.761
  445SOL     OW 2233   2.080   5.710   3.368
  445SOL    HW1 2234   2.136   5.720   3.450
  445SOL    HW2 2235   2.082   5.614   3.338
  446SOL     OW 2236   3.972   5.460   3.031
  446SOL    HW1 2237   3.915   5.408   3.096
  446SOL    HW2 2238   4.004   5.399   2.959
  447SOL     OW 2239   6.455   3.069   5.092
  447SOL    HW1 2240   6.547   3.107   5.102
  447SOL    HW2 2241   6.434   3.012   5.171
  448SOL     OW 2242   1.755   1.217   2.791
  448SOL    HW1 2243   1.837   1.184   2.745
  448SOL    HW2 2244   1.678   1.215   2.728
  449SOL     OW 2245   2.679   1.919   3.245
  449SOL    HW1 2246   2.671   1.987   3.317
  449SOL    HW2 2247   2.590   1.906   3.201
  450SOL     OW 2248   1.644   4.716   3.951
  450SOL    HW1 2249   1.550   4.746   3.967
  450SOL    HW2 2250   1.705   4.765   4.013
  451SOL     OW 2251   1.190   2.520   4.101
  451SOL    HW1 2252   1.256   2.543   4.029
  451SOL    HW2 2253   1.197   2.423   4.124
  452SOL     OW 2254   3.800   0.605   1.579
  452SOL    HW1 2255   3.823   0.508   1.589
  452SOL    HW2 2256   3.822   0.634   1.486
  453SOL     OW 2257   3.651   6.711   6.777
  453SOL    HW1 2258   3.578   6.642   6.777
  453SOL    HW2 2259   3.620   6.791   6.828
  454SOL     OW 2260   6.659   4.097   6.665
  454SOL    HW1 2261   6.733   4.119   6.601
  454SOL    HW2 2262   6.688   4.117   6.758
  455SOL     OW 2263   6.488   3.706   5.330
  455SOL    HW1 2264   6.560   3.679   5.393
  455SOL    HW2 2265   6.414   3.750   5.381
  456SOL     OW 2266   1.594   0.680   4.603
  456SOL    HW1 2267   1.514   0.688   4.544
  456SOL    HW2 2268   1.575   0.618   4.678
  457SOL     OW 2269   0.900   5.044   4.562
  457SOL    HW1 2270   0.818   5.065   4.507
  457SOL    HW2 2271   0.876   4.979   4.634
  458SOL     OW 2272   3.514   0.779   3.010
  458SOL    HW1 2273   3.597   0.826   2.981
  458SOL    HW2 2274   3.517   0.684   2.979
  459SOL     OW 2275   2.077   0.659   5.449
  459SOL    HW1 2276   2.076   0.561   5.468
  459SOL    HW2 2277   1.986   0.697   5.462
  460SOL     OW 2278   1.284   1.501   5.165
  460SOL    HW1 2279   1.379   1.486   5.190
  460SOL    HW2 2280   1.224   1.465   5.237
  461SOL     OW 2281   6.488   5.117   5.684
  461SOL    HW1 2282   6.423   5.176   5.637
  461SOL    HW2 2283   6.541   5.170   5.750
  462SOL     OW 2284   4.127   3.675   4.811
  462SOL    HW1 2285   4.134   3.728   4.895
  462SOL    HW2 2286   4.142   3.578   4.831
  463SOL     OW 2287   6.516   0.040   2.959
  463SOL    HW1 2288   6.545   6.966   2.981
  463SOL    HW2 2289   6.553   0.102   3.027
  464SOL     OW 2290   3.374   0.081   5.897
  464SOL    HW1 2291   3.315   0.056   5.975
  464SOL    HW2 2292   3.399   0.177   5.904
  465SOL     OW 2293   0.685   2.568   6.913
  465SOL    HW1 2294   0.710   2.548   6.818
  465SOL    HW2 2295   0.744   2.516   6.974
  466SOL     OW 2296   2.652   6.446   3.899
  466SOL    HW1 2297   2.738   6.426   3.945
  466SOL    HW2 2298   2.593   6.365   3.903
  467SOL     OW 2299   0.556   1.928   2.411
  467SOL    HW1 2300   0.580   1.972   2.324
  467SOL    HW2 2301   0.530   1.997   2.477
  468SOL     OW 2302   4.832   6.361   6.477
  468SOL    HW1 2303   4.851   6.455   6.506
  468SOL    HW2 2304   4.750   6.328   6.523
  469SOL     OW 2305   3.045   4.339   5.817
  469SOL    HW1 2306   3.072   4.381   5.904
  469SOL    HW2 2307   3.124   4.338   5.755
  470SOL     OW 2308   3.826   5.988   2.442
  470SOL    HW1 2309   3.917   6.025   2.422
  470SOL    HW2 2310   3.834   5.909   2.503
  471SOL     OW 2311   2.807   2.230   3.886
  471SOL    HW1 2312   2.872   2.158   3.861
  471SOL    HW2 2313   2.784   2.221   3.983
  472SOL     OW 2314   6.077   4.988   6.956
  472SOL    HW1 2315   6.041   4.974   0.029
  472SOL    HW2 2316   6.138   5.067   6.956
  473SOL     OW 2317   6.690   2.300   2.561
  473SOL    HW1 2318   6.773   2.335   2.518
  473SOL    HW2 2319   6.687   2.330   2.656
  474SOL     OW 2320   6.191   4.812   5.502
  474SOL    HW1 2321   6.161   4.766   5.585
  474SOL    HW2 2322   6.180   4.911   5.512
  475SOL     OW 2323   6.157   3.723   0.011
  475SOL    HW1 2324   6.093   3.664   6.980
  475SOL    HW2 2325   6.158   3.814   6.988
  476SOL     OW 2326   0.305   4.340   1.341
  476SOL    HW1 2327   0.337   4.289   1.421
  476SOL    HW2 2328   0.376   4.339   1.270
  477SOL     OW 2329   1.829   5.838   3.324
  477SOL    HW1 2330   1.800   5.831   3.420
  477SOL    HW2 2331   1.900   5.771   3.305
  478SOL     OW 2332   4.573   6.210   3.667
  478SOL    HW1 2333   4.616   6.300   3.663
  478SOL    HW2 2334   4.475   6.220   3.687
  479SOL     OW 2335   3.463   3.495   4.630
  479SOL    HW1 2336   3.395   3.427   4.659
  479SOL    HW2 2337   3.443   3.523   4.536
  480SOL     OW 2338   1.801   0.388   2.620
  480SOL    HW1 2339   1.714   0.411   2.663
  480SOL    HW2 2340   1.868   0.365   2.691
  481SOL     OW 2341   0.806   6.723   1.266
  481SOL    HW1 2342   0.752   6.798   1.302
  481SOL    HW2 2343   0.824   6.657   1.339
  482SOL     OW 2344   4.476   4.827   2.801
  482SOL    HW1 2345   4.456   4.824   2.703
  482SOL    HW2 2346   4.547   4.895   2.818
  483SOL     OW 2347   6.618   2.525   2.792
  483SOL    HW1 2348   6.646   2.469   2.870
  483SOL    HW2 2349   6.518   2.529   2.787
  484SOL     OW 2350   1.508   4.205   5.131
  484SOL    HW1 2351   1.437   4.250   5.184
  484SOL    HW2 2352   1.581   4.271   5.111
  485SOL     OW 2353   5.246   3.553   2.400
  485SOL    HW1 2354   5.257   3.456   2.421
  485SOL    HW2 2355   5.152   3.582   2.422
  486SOL     OW 2356   5.401   0.674   6.379
  486SOL    HW1 2357   5.308   0.638   6.373
  486SOL    HW2 2358   5.422   0.697   6.474
  487SOL     OW 2359   0.777   0.124   3.031
  487SOL    HW1 2360   0.708   0.176   3.083
  487SOL    HW2 2361   0.862   0.176   3.028
  488SOL     OW 2362   1.598   6.769   3.134
  488SOL    HW1 2363   1.535   6.739   3.206
  488SOL    HW2 2364   1.604   6.700   3.063
  489SOL     OW 2365   6.033   5.325   4.972
  489SOL    HW1 2366   6.107   5.391   4.966
  489SOL    HW2 2367   6.071   5.233   4.977
  490SOL     OW 2368   1.717   5.782   4.924
  490SOL    HW1 2369   1.714   5.707   4.859
  490SOL    HW2 2370   1.639   5.776   4.985
  491SOL     OW 2371   0.646   3.467   0.175
  491SOL    HW1 2372   0.726   3.526   0.184
  491SOL    HW2 2373   0.566   3.523   0.152
  492SOL     OW 2374   1.795   1.589   5.902
  492SOL    HW1 2375   1.862   1.626   5.966
  492SOL    HW2 2376   1.841   1.530   5.835
  493SOL     OW 2377   2.611   6.864   5.644
  493SOL    HW1 2378   2.707   6.885   5.625
  493SOL    HW2 2379   2.553   6.939   5.613
  494SOL     OW 2380   2.387   1.856   5.990
  494SOL    HW1 2381   2.384   1.804   6.075
  494SOL    HW2 2382   2.422   1.948   6.008
  495SOL     OW 2383   4.040   6.458   5.343
  495SOL    HW1 2384   4.068   6.490   5.253
  495SOL    HW2 2385   3.977   6.524   5.384
  496SOL     OW 2386   6.219   1.351   2.240
  496SOL    HW1 2387   6.190   1.275   2.298
  496SOL    HW2 2388   6.202   1.328   2.144
  497SOL     OW 2389   3.639   1.243   4.466
  497SOL    HW1 2390   3.688   1.282   4.544
  497SOL    HW2 2391   3.677   1.281   4.381
  498SOL     OW 2392   0.605   4.764   1.702
  498SOL    HW1 2393   0.536   4.701   1.738
  498SOL    HW2 2394   0.603   4.762   1.602
  499SOL     OW 2395   2.334   5.815   5.798
  499SOL    HW1 2396   2.369   5.750   5.730
  499SOL    HW2 2397   2.346   5.776   5.889
  500SOL     OW 2398   5.260   3.163   5.712
  500SOL    HW1 2399   5.288   3.072   5.744
  500SOL    HW2 2400   5.251   3.162   5.612
  501SOL     OW 2401   2.861   0.177   1.959
  501SOL    HW1 2402   2.863   0.218   2.050
  501SOL    HW2 2403   2.830   0.245   1.892
  502SOL     OW 2404   1.196   4.714   6.821
  502SOL    HW1 2405   1.281   4.705   6.873
  502SOL    HW2 2406   1.201   4.656   6.740
  503SOL     OW 2407   2.089   5.101   6.213
  503SOL    HW1 2408   2.178   5.058   6.200
  503SOL    HW2 2409   2.026   5.035   6.255
  504SOL     OW 2410   0.415   5.721   2.455
  504SOL    HW1 2411   0.433   5.740   2.551
  504SOL    HW2 2412   0.457   5.792   2.399
  505SOL     OW 2413   3.621   0.162   4.997
  505SOL    HW1 2414   3.579   0.243   5.038
  505SOL    HW2 2415   3.703   0.137   5.048
  506SOL     OW 2416   3.138   5.699   2.494
  506SOL    HW1 2417   3.174   5.707   2.401
  506SOL    HW2 2418   3.157   5.783   2.544
  507SOL     OW 2419   4.200   0.912   2.507
  507SOL    HW1 2420   4.132   0.867   2.449
  507SOL    HW2 2421   4.155   0.983   2.562
  508SOL     OW 2422   6.604   2.293   3.637
  508SOL    HW1 2423   6.676   2.357   3.663
  508SOL    HW2 2424   6.555   2.329   3.558
  509SOL     OW 2425   4.714   0.568   6.933
  509SOL    HW1 2426   4.684   0.474   6.944
  509SOL    HW2 2427   4.765   0.596   7.014
  510SOL     OW 2428   6.941   4.906   5.831
  510SOL    HW1 2429   0.019   4.929   5.833
  510SOL    HW2 2430   6.918   4.869   5.741
  511SOL     OW 2431   1.391   1.820   6.653
  511SOL    HW1 2432   1.463   1.876   6.696
  511SOL    HW2 2433   1.355   1.755   6.720
  512SOL     OW 2434   5.848   2.697   6.911
  512SOL    HW1 2435   5.818   2.762   6.981
  512SOL    HW2 2436   5.785   2.699   6.834
  513SOL     OW 2437   5.728   6.353   2.554
  513SOL    HW1 2438   5.724   6.366   2.455
  513SOL    HW2 2439   5.659   6.411   2.598
  514SOL     OW 2440   0.474   0.197   4.174
  514SOL    HW1 2441   0.478   0.283   4.225
  514SOL    HW2 2442   0.380   0.181   4.143
  515SOL     OW 2443   2.143   0.613   6.390
  515SOL    HW1 2444   2.172   0.519   6.372
  515SOL    HW2 2445   2.206   0.677   6.345
  516SOL     OW 2446   2.450   4.288   1.883
  516SOL    HW1 2447   2.505   4.354   1.832
  516SOL    HW2 2448   2.431   4.324   1.975
  517SOL     OW 2449   3.223   4.995   2.239
  517SOL    HW1 2450   3.228   4.945   2.152
  517SOL    HW2 2451   3.158   4.949   2.300
  518SOL     OW 2452   2.455   2.370   3.950
  518SOL    HW1 2453   2.421   2.333   3.863
  518SOL    HW2 2454   2.380   2.371   4.017
  519SOL     OW 2455   0.026   6.682   3.495
  519SOL    HW1 2456   0.072   6.770   3.498
  519SOL    HW2 2457   6.955   6.690   3.536
  520SOL     OW 2458   1.085   4.239   6.770
  520SOL    HW1 2459   1.036   4.204   6.691
  520SOL    HW2 2460   1.019   4.266   6.840
  521SOL     OW 2461   4.547   5.559   4.287
  521SOL    HW1 2462   4.603   5.545   4.369
  521SOL    HW2 2463   4.453   5.582   4.315
  522SOL     OW 2464   4.187   3.799   1.877
  522SOL    HW1 2465   4.151   3.739   1.948
  522SOL    HW2 2466   4.182   3.894   1.907
  523SOL     OW 2467   0.149   6.208   1.676
  523SOL    HW1 2468   0.156   6.278   1.747
  523SOL    HW2 2469   0.240   6.170   1.657
  524SOL     OW 2470   0.582   3.203   2.466
  524SOL    HW1 2471   0.667   3.232   2.511
  524SOL    HW2 2472   0.589   3.106   2.442
  525SOL     OW 2473   2.160   3.863   6.418
  525SOL    HW1 2474   2.103   3.907   6.487
  525SOL    HW2 2475   2.249   3.839   6.457
  526SOL     OW 2476   2.772   6.813   4.138
  526SOL    HW1 2477   2.791   6.901   4.181
  526SOL    HW2 2478   2.681   6.814   4.098
  527SOL     OW 2479   0.478   2.232   6.901
  527SOL    HW1 2480   0.569   2.229   6.942
  527SOL    HW2 2481   0.438   2.323   6.914
  528SOL     OW 2482   0.940   2.632   3.875
  528SOL    HW1 2483   0.929   2.583   3.788
  528SOL    HW2 2484   0.926   2.569   3.951
  529SOL     OW 2485   2.328   0.392   5.343
  529SOL    HW1 2486   2.317   0.469   5.280
  529SOL    HW2 2487   2.239   0.368   5.382
  530SOL     OW 2488   3.571   2.897   2.454
  530SOL    HW1 2489   3.645   2.865   2.513
  530SOL    HW2 2490   3.566   2.997   2.458
  531SOL     OW 2491   1.542   0.777   2.718
  531SOL    HW1 2492   1.519   0.693   2.669
  531SOL    HW2 2493   1.491   0.781   2.804
  532SOL     OW 2494   1.324   3.717   0.764
  532SOL    HW1 2495   1.379   3.652   0.710
  532SOL    HW2 2496   1.238   3.673   0.790
  533SOL     OW 2497   4.924   6.620   3.823
  533SOL    HW1 2498   4.876   6.705   3.803
  533SOL    HW2 2499   4.993   6.603   3.753
  534SOL     OW 2500   6.825   6.054   2.207
  534SOL    HW1 2501   6.779   6.100   2.283
  534SOL    HW2 2502   6.773   6.069   2.123
  535SOL     OW 2503   6.952   4.550   2.857
  535SOL    HW1 2504   0.009   4.535   2.794
  535SOL    HW2 2505   6.953   4.480   2.928
  536SOL     OW 2506   6.282   5.304   2.918
  536SOL    HW1 2507   6.273   5.384   2.977
  536SOL    HW2 2508   6.353   5.321   2.849
  537SOL     OW 2509   3.357   6.663   4.106
  537SOL    HW1 2510   3.303   6.580   4.091
  537SOL    HW2 2511   3.328   6.708   4.190
  538SOL     OW 2512   0.776   4.831   4.938
  538SOL    HW1 2513   0.800   4.808   4.844
  538SOL    HW2 2514   0.741   4.749   4.984
  539SOL     OW 2515   1.752   5.862   2.015
  539SOL    HW1 2516   1.758   5.762   2.019
  539SOL    HW2 2517   1.797   5.900   2.096
  540SOL     OW 2518   1.894   0.733   3.744
  540SOL    HW1 2519   1.951   0.734   3.826
  540SOL    HW2 2520   1.813   0.678   3.760
  541SOL     OW 2521   4.717   6.197   3.378
  541SOL    HW1 2522   4.773   6.148   3.312
  541SOL    HW2 2523   4.634   6.144   3.398
  542SOL     OW 2524   3.750   6.241   6.336
  542SOL    HW1 2525   3.754   6.252   6.436
  542SOL    HW2 2526   3.663   6.200   6.310
  543SOL     OW 2527   5.319   3.552   3.859
  543SOL    HW1 2528   5.333   3.488   3.784
  543SOL    HW2 2529   5.318   3.646   3.823
  544SOL     OW 2530   0.266   5.102   0.592
  544SOL    HW1 2531   0.270   5.186   0.646
  544SOL    HW2 2532   0.353   5.089   0.545
  545SOL     OW 2533   4.491   1.516   0.645
  545SOL    HW1 2534   4.480   1.417   0.648
  545SOL    HW2 2535   4.585   1.540   0.671
  546SOL     OW 2536   1.206   3.451   1.770
  546SOL    HW1 2537   1.134   3.396   1.727
  546SOL    HW2 2538   1.183   3.548   1.764
  547SOL     OW 2539   3.070   3.223   1.092
  547SOL    HW1 2540   3.091   3.223   0.995
  547SOL    HW2 2541   3.148   3.189   1.144
  548SOL     OW 2542   3.689   3.665   1.199
  548SOL    HW1 2543   3.702   3.690   1.295
  548SOL    HW2 2544   3.777   3.656   1.154
  549SOL     OW 2545   5.433   2.797   1.987
  549SOL    HW1 2546   5.409   2.810   1.891
  549SOL    HW2 2547   5.350   2.791   2.042
  550SOL     OW 2548   0.712   5.301   3.146
  550SOL    HW1 2549   0.805   5.301   3.112
  550SOL    HW2 2550   0.665   5.218   3.116
  551SOL     OW 2551   6.873   0.497   1.557
  551SOL    HW1 2552   6.927   0.512   1.640
  551SOL    HW2 2553   6.926   0.523   1.477
  552SOL     OW 2554   5.247   4.475   5.238
  552SOL    HW1 2555   5.319   4.412   5.269
  552SOL    HW2 2556   5.189   4.429   5.172
  553SOL     OW 2557   3.121   6.696   3.495
  553SOL    HW1 2558   3.194   6.630   3.509
  553SOL    HW2 2559   3.054   6.687   3.569
  554SOL     OW 2560   5.872   6.266   0.392
  554SOL    HW1 2561   5.796   6.322   0.422
  554SOL    HW2 2562   5.954   6.323   0.383
  555SOL     OW 2563   2.908   5.151   4.888
  555SOL    HW1 2564   2.947   5.068   4.848
  555SOL    HW2 2565   2.830   5.126   4.946
  556SOL     OW 2566   5.138   1.293   4.099
  556SOL    HW1 2567   5.165   1.352   4.023
  556SOL    HW2 2568   5.042   1.266   4.088
  557SOL     OW 2569   6.893   5.066   6.134
  557SOL    HW1 2570   6.820   5.001   6.110
  557SOL    HW2 2571   6.969   5.016   6.176
  558SOL     OW 2572   3.235   3.011   4.388
  558SOL    HW1 2573   3.181   3.071   4.447
  558SOL    HW2 2574   3.208   3.023   4.293
  559SOL     OW 2575   6.951   5.842   6.005
  559SOL    HW1 2576   6.889   5.911   5.967
  559SOL    HW2 2577   6.919   5.751   5.979
  560SOL     OW 2578   6.320   3.621   2.920
  560SOL    HW1 2579   6.394   3.612   2.987
  560SOL    HW2 2580   6.250   3.683   2.956
  561SOL     OW 2581   0.516   2.550   0.155
  561SOL    HW1 2582   0.606   2.583   0.123
  561SOL    HW2 2583   0.448   2.567   0.083
  562SOL     OW 2584   3.984   1.105   5.976
  562SOL    HW1 2585   4.080   1.111   6.006
  562SOL    HW2 2586   3.931   1.175   6.024
  563SOL     OW 2587   2.081   1.541   3.542
  563SOL    HW1 2588   2.094   1.452   3.499
  563SOL    HW2 2589   2.098   1.614   3.476
  564SOL     OW 2590   1.068   2.377   0.368
  564SOL    HW1 2591   1.114   2.307   0.313
  564SOL    HW2 2592   1.085   2.467   0.329
  565SOL     OW 2593   3.227   3.415   3.095
  565SOL    HW1 2594   3.138   3.459   3.081
  565SOL    HW2 2595   3.242   3.347   3.023
  566SOL     OW 2596   1.862   3.700   3.381
  566SOL    HW1 2597   1.853   3.618   3.325
  566SOL    HW2 2598   1.958   3.711   3.409
  567SOL     OW 2599   3.144   2.528   1.372
  567SOL    HW1 2600   3.209   2.538   1.448
  567SOL    HW2 2601   3.070   2.594   1.382
  568SOL     OW 2602   5.231   6.802   0.144
  568SOL    HW1 2603   5.237   6.705   0.124
  568SOL    HW2 2604   5.136   6.832   0.139
  569SOL     OW 2605   0.772   2.637   0.854
  569SOL    HW1 2606   0.725   2.722   0.879
  569SOL    HW2 2607   0.739   2.562   0.910
  570SOL     OW 2608   3.390   0.248   6.631
  570SOL    HW1 2609   3.337   0.325   6.596
  570SOL    HW2 2610   3.339   0.163   6.619
  571SOL     OW 2611   2.880   4.918   3.938
  571SOL    HW1 2612   2.834   4.977   4.004
  571SOL    HW2 2613   2.978   4.918   3.956
  572SOL     OW 2614   1.580   5.053   5.185
  572SOL    HW1 2615   1.559   5.039   5.088
  572SOL    HW2 2616   1.570   4.967   5.234
  573SOL     OW 2617   6.111   1.143   5.625
  573SOL    HW1 2618   6.044   1.071   5.607
  573SOL    HW2 2619   6.064   1.227   5.652
  574SOL     OW 2620   3.639   0.450   5.426
  574SOL    HW1 2621   3.552   0.432   5.381
  574SOL    HW2 2622   3.656   0.382   5.497
  575SOL     OW 2623   4.362   2.743   1.690
  575SOL    HW1 2624   4.384   2.645   1.693
  575SOL    HW2 2625   4.369   2.776   1.596
  576SOL     OW 2626   1.196   3.408   3.085
  576SOL    HW1 2627   1.183   3.386   3.182
  576SOL    HW2 2628   1.202   3.324   3.032
  577SOL     OW 2629   1.557   0.811   2.204
  577SOL    HW1 2630   1.544   0.904   2.239
  577SOL    HW2 2631   1.605   0.816   2.116
  578SOL     OW 2632   0.489   4.981   4.812
  578SOL    HW1 2633   0.401   5.026   4.796
  578SOL    HW2 2634   0.478   4.882   4.803
  579SOL     OW 2635   1.653   4.350   3.431
  579SOL    HW1 2636   1.731   4.373   3.489
  579SOL    HW2 2637   1.595   4.284   3.478
  580SOL     OW 2638   3.850   5.215   5.696
  580SOL    HW1 2639   3.839   5.182   5.602
  580SOL    HW2 2640   3.911   5.154   5.746
  581SOL     OW 2641   2.133   3.205   2.278
  581SOL    HW1 2642   2.207   3.144   2.249
  581SOL    HW2 2643   2.114   3.190   2.375
  582SOL     OW 2644   4.544   5.644   2.664
  582SOL    HW1 2645   4.588   5.559   2.692
  582SOL    HW2 2646   4.614   5.712   2.641
  583SOL     OW 2647   2.925   5.919   5.472
  583SOL    HW1 2648   2.847   5.962   5.519
  583SOL    HW2 2649   3.009   5.937   5.523
  584SOL     OW 2650   3.001   7.005   6.296
  584SOL    HW1 2651   3.006   0.066   6.354
  584SOL    HW2 2652   2.905   6.981   6.280
  585SOL     OW 2653   4.279   1.149   0.410
  585SOL    HW1 2654   4.188   1.189   0.402
  585SOL    HW2 2655   4.314   1.126   0.320
  586SOL     OW 2656   3.388   0.811   0.486
  586SOL    HW1 2657   3.297   0.791   0.450
  586SOL    HW2 2658   3.424   0.731   0.534
  587SOL     OW 2659   4.792   2.420   3.042
  587SOL    HW1 2660   4.830   2.396   3.132
  587SOL    HW2 2661   4.851   2.383   2.970
  588SOL     OW 2662   2.159   5.260   1.282
  588SOL    HW1 2663   2.258   5.260   1.295
  588SOL    HW2 2664   2.122   5.169   1.301
  589SOL     OW 2665   3.394   5.575   1.748
  589SOL    HW1 2666   3.333   5.585   1.826
  589SOL    HW2 2667   3.481   5.620   1.768
  590SOL     OW 2668   5.468   1.282   1.248
  590SOL    HW1 2669   5.488   1.337   1.329
  590SOL    HW2 2670   5.518   1.196   1.252
  591SOL     OW 2671   3.889   6.081   3.517
  591SOL    HW1 2672   3.977   6.068   3.563
  591SOL    HW2 2673   3.872   6.179   3.504
  592SOL     OW 2674   4.476   0.918   2.437
  592SOL    HW1 2675   4.379   0.925   2.459
  592SOL    HW2 2676   4.488   0.908   2.338
  593SOL     OW 2677   4.953   1.993   3.913
  593SOL    HW1 2678   4.975   2.086   3.943
  593SOL    HW2 2679   5.033   1.953   3.869
  594SOL     OW 2680   5.962   0.267   1.096
  594SOL    HW1 2681   5.876   0.300   1.135
  594SOL    HW2 2682   6.017   0.346   1.066
  595SOL     OW 2683   5.247   6.302   3.907
  595SOL    HW1 2684   5.269   6.375   3.842
  595SOL    HW2 2685   5.208   6.341   3.990
  596SOL     OW 2686   0.527   4.770   2.998
  596SOL    HW1 2687   0.452   4.833   2.982
  596SOL    HW2 2688   0.500   4.678   2.969
  597SOL     OW 2689   2.877   6.393   6.810
  597SOL    HW1 2690   2.976   6.379   6.810
  597SOL    HW2 2691   2.845   6.404   6.716
  598SOL     OW 2692   3.845   3.909   4.590
  598SOL    HW1 2693   3.853   3.918   4.491
  598SOL    HW2 2694   3.749   3.924   4.617
  599SOL     OW 2695   2.170   5.598   2.599
  599SOL    HW1 2696   2.206   5.512   2.634
  599SOL    HW2 2697   2.168   5.666   2.673
  600SOL     OW 2698   6.002   2.655   6.356
  600SOL    HW1 2699   5.914   2.701   6.368
  600SOL    HW2 2700   6.038   2.675   6.265
  601SOL     OW 2701   1.385   0.904   4.168
  601SOL    HW1 2702   1.426   0.952   4.090
  601SOL    HW2 2703   1.368   0.970   4.242
  602SOL     OW 2704   2.268   0.793   6.185
  602SOL    HW1 2705   2.277   0.788   6.086
  602SOL    HW2 2706   2.339   0.851   6.223
  603SOL     OW 2707   2.767   2.574   5.296
  603SOL    HW1 2708   2.681   2.620   5.318
  603SOL    HW2 2709   2.842   2.640   5.300
  604SOL     OW 2710   1.200   1.801   1.196
  604SOL    HW1 2711   1.122   1.788   1.257
  604SOL    HW2 2712   1.234   1.712   1.165
  605SOL     OW 2713   6.358   4.602   1.240
  605SOL    HW1 2714   6.429   4.552   1.191
  605SOL    HW2 2715   6.290   4.537   1.276
  606SOL     OW 2716   4.971   6.776   5.631
  606SOL    HW1 2717   4.964   6.688   5.582
  606SOL    HW2 2718   5.067   6.797   5.648
  607SOL     OW 2719   6.856   4.904   4.756
  607SOL    HW1 2720   6.941   4.902   4.702
  607SOL    HW2 2721   6.778   4.891   4.694
  608SOL     OW 2722   4.248   6.159   6.681
  608SOL    HW1 2723   4.310   6.085   6.706
  608SOL    HW2 2724   4.204   6.195   6.764
  609SOL     OW 2725   3.574   2.856   2.137
  609SOL    HW1 2726   3.605   2.868   2.232
  609SOL    HW2 2727   3.577   2.759   2.113
  610SOL     OW 2728   5.660   3.366   0.264
  610SOL    HW1 2729   5.565   3.377   0.233
  610SOL    HW2 2730   5.672   3.274   0.302
  611SOL     OW 2731   4.678   0.379   1.736
  611SOL    HW1 2732   4.630   0.291   1.734
  611SOL    HW2 2733   4.612   0.453   1.726
  612SOL     OW 2734   3.169   5.643   4.315
  612SOL    HW1 2735   3.116   5.722   4.345
  612SOL    HW2 2736   3.248   5.673   4.262
  613SOL     OW 2737   4.715   4.772   5.565
  613SOL    HW1 2738   4.812   4.786   5.587
  613SOL    HW2 2739   4.673   4.860   5.543
  614SOL     OW 2740   5.009   4.791   5.612
  614SOL    HW1 2741   5.027   4.778   5.709
  614SOL    HW2 2742   5.067   4.729   5.558
  615SOL     OW 2743   6.562   2.579   1.010
  615SOL    HW1 2744   6.488   2.546   0.952
  615SOL    HW2 2745   6.526   2.606   1.099
  616SOL     OW 2746   0.292   2.065   2.416
  616SOL    HW1 2747   0.285   2.062   2.316
  616SOL    HW2 2748   0.339   2.148   2.443
  617SOL     OW 2749   0.603   4.561   5.667
  617SOL    HW1 2750   0.673   4.492   5.685
  617SOL    HW2 2751   0.518   4.534   5.711
  618SOL     OW 2752   1.038   2.272   0.628
  618SOL    HW1 2753   1.075   2.332   0.557
  618SOL    HW2 2754   1.012   2.327   0.708
  619SOL     OW 2755   2.813   1.697   0.877
  619SOL    HW1 2756   2.793   1.747   0.961
  619SOL    HW2 2757   2.730   1.651   0.846
  620SOL     OW 2758   4.597   2.321   0.444
  620SOL    HW1 2759   4.558   2.392   0.384
  620SOL    HW2 2760   4.526   2.288   0.506
  621SOL     OW 2761   3.318   5.644   0.001
  621SOL    HW1 2762   3.401   5.614   6.973
  621SOL    HW2 2763   3.278   5.722   6.972
  622SOL     OW 2764   1.146   0.912   6.322
  622SOL    HW1 2765   1.219   0.847   6.299
  622SOL    HW2 2766   1.166   0.954   6.410
  623SOL     OW 2767   1.012   5.890   6.035
  623SOL    HW1 2768   0.935   5.829   6.017
  623SOL    HW2 2769   0.986   5.984   6.013
  624SOL     OW 2770   0.059   2.291   1.390
  624SOL    HW1 2771   6.991   2.320   1.353
  624SOL    HW2 2772   0.129   2.359   1.369
  625SOL     OW 2773   2.394   2.026   1.361
  625SOL    HW1 2774   2.493   2.028   1.374
  625SOL    HW2 2775   2.363   2.115   1.329
  626SOL     OW 2776   2.641   5.651   3.760
  626SOL    HW1 2777   2.637   5.590   3.681
  626SOL    HW2 2778   2.631   5.598   3.844
  627SOL     OW 2779   5.165   0.458   0.757
  627SOL    HW1 2780   5.083   0.421   0.713
  627SOL    HW2 2781   5.246   0.424   0.710
  628SOL     OW 2782   5.549   5.329   5.792
  628SOL    HW1 2783   5.495   5.273   5.855
  628SOL    HW2 2784   5.589   5.405   5.842
  629SOL     OW 2785   6.756   6.517   1.116
  629SOL    HW1 2786   6.748   6.615   1.134
  629SOL    HW2 2787   6.852   6.489   1.123
  630SOL     OW 2788   6.156   1.265   2.532
  630SOL    HW1 2789   6.106   1.195   2.583
  630SOL    HW2 2790   6.253   1.259   2.553
  631SOL     OW 2791   3.854   6.856   4.759
  631SOL    HW1 2792   3.850   6.837   4.857
  631SOL    HW2 2793   3.945   6.835   4.725
  632SOL     OW 2794   2.629   1.962   0.476
  632SOL    HW1 2795   2.601   1.978   0.570
  632SOL    HW2 2796   2.552   1.979   0.415
  633SOL     OW 2797   4.275   5.170   0.124
  633SOL    HW1 2798   4.334   5.120   0.060
  633SOL    HW2 2799   4.329   5.240   0.170
  634SOL     OW 2800   4.906   4.587   1.785
  634SOL    HW1 2801   4.947   4.505   1.744
  634SOL    HW2 2802   4.809   4.571   1.802
  635SOL     OW 2803   4.352   5.886   2.087
  635SOL    HW1 2804   4.423   5.957   2.083
  635SOL    HW2 2805   4.262   5.927   2.071
  636SOL     OW 2806   5.259   5.822   6.706
  636SOL    HW1 2807   5.218   5.908   6.735
  636SOL    HW2 2808   5.216   5.746   6.756
  637SOL     OW 2809   6.311   3.878   1.792
  637SOL    HW1 2810   6.261   3.942   1.735
  637SOL    HW2 2811   6.394   3.848   1.745
  638SOL     OW 2812   4.895   1.952   2.120
  638SOL    HW1 2813   4.832   1.933   2.194
  638SOL    HW2 2814   4.989   1.951   2.154
  639SOL     OW 2815   5.205   3.920   2.523
  639SOL    HW1 2816   5.138   3.927   2.449
  639SOL    HW2 2817   5.297   3.920   2.485
  640SOL     OW 2818   0.970   4.935   5.092
  640SOL    HW1 2819   0.912   4.884   5.028
  640SOL    HW2 2820   1.033   4.993   5.040
  641SOL     OW 2821   0.180   5.392   4.409
  641SOL    HW1 2822   0.100   5.350   4.367
  641SOL    HW2 2823   0.156   5.483   4.443
  642SOL     OW 2824   6.762   4.091   4.211
  642SOL    HW1 2825   6.828   4.041   4.267
  642SOL    HW2 2826   6.811   4.140   4.139
  643SOL     OW 2827   5.574   4.720   5.506
  643SOL    HW1 2828   5.496   4.774   5.474
  643SOL    HW2 2829   5.626   4.772   5.573
  644SOL     OW 2830   1.509   6.260   3.368
  644SOL    HW1 2831   1.444   6.325   3.407
  644SOL    HW2 2832   1.573   6.230   3.438
  645SOL     OW 2833   5.585   2.124   4.439
  645SOL    HW1 2834   5.626   2.134   4.529
  645SOL    HW2 2835   5.500   2.071   4.446
  646SOL     OW 2836   2.888   1.487   3.500
  646SOL    HW1 2837   2.791   1.469   3.519
  646SOL    HW2 2838   2.896   1.556   3.428
  647SOL     OW 2839   5.769   2.857   5.645
  647SOL    HW1 2840   5.712   2.907   5.711
  647SOL    HW2 2841   5.721   2.774   5.616
  648SOL     OW 2842   6.890   3.879   3.263
  648SOL    HW1 2843   6.917   3.825   3.342
  648SOL    HW2 2844   6.867   3.818   3.187
  649SOL     OW 2845   4.242   3.842   0.986
  649SOL    HW1 2846   4.323   3.791   1.014
  649SOL    HW2 2847   4.267   3.939   0.974
  650SOL     OW 2848   5.151   4.258   0.769
  650SOL    HW1 2849   5.187   4.346   0.739
  650SOL    HW2 2850   5.226   4.198   0.797
  651SOL     OW 2851   0.156   6.642   6.794
  651SOL    HW1 2852   0.114   6.564   6.841
  651SOL    HW2 2853   0.109   6.656   6.706
  652SOL     OW 2854   5.783   5.998   3.720
  652SOL    HW1 2855   5.686   5.982   3.739
  652SOL    HW2 2856   5.792   6.070   3.652
  653SOL     OW 2857   3.543   5.978   5.019
  653SOL    HW1 2858   3.547   5.984   4.919
  653SOL    HW2 2859   3.480   5.905   5.046
  654SOL     OW 2860   0.215   4.127   5.849
  654SOL    HW1 2861   0.279   4.076   5.906
  654SOL    HW2 2862   0.236   4.110   5.752
  655SOL     OW 2863   0.796   6.797   2.111
  655SOL    HW1 2864   0.869   6.852   2.152
  655SOL    HW2 2865   0.813   6.700   2.131
  656SOL     OW 2866   1.823   5.751   1.526
  656SOL    HW1 2867   1.868   5.793   1.604
  656SOL    HW2 2868   1.725   5.769   1.529
  657SOL     OW 2869   1.869   2.347   1.835
  657SOL    HW1 2870   1.819   2.373   1.752
  657SOL    HW2 2871   1.931   2.271   1.815
  658SOL     OW 2872   2.741   3.638   6.079
  658SOL    HW1 2873   2.664   3.603   6.132
  658SOL    HW2 2874   2.809   3.566   6.066
  659SOL     OW 2875   2.813   6.653   6.219
  659SOL    HW1 2876   2.880   6.581   6.239
  659SOL    HW2 2877   2.722   6.613   6.208
  660SOL     OW 2878   5.073   3.991   1.597
  660SOL    HW1 2879   4.996   4.024   1.652
  660SOL    HW2 2880   5.147   4.058   1.600
  661SOL     OW 2881   4.293   6.256   3.741
  661SOL    HW1 2882   4.295   6.292   3.647
  661SOL    HW2 2883   4.255   6.325   3.802
  662SOL     OW 2884   4.160   1.169   5.056
  662SOL    HW1 2885   4.226   1.112   5.007
  662SOL    HW2 2886   4.203   1.257   5.078
  663SOL     OW 2887   2.327   3.784   5.935
  663SOL    HW1 2888   2.315   3.685   5.942
  663SOL    HW2 2889   2.348   3.808   5.840
  664SOL     OW 2890   0.320   6.516   6.481
  664SOL    HW1 2891   0.365   6.433   6.450
  664SOL    HW2 2892   0.244   6.538   6.420
  665SOL     OW 2893   4.412   5.390   1.938
  665SOL    HW1 2894   4.402   5.489   1.952
  665SOL    HW2 2895   4.338   5.342   1.985
  666SOL     OW 2896   5.221   1.236   1.833
  666SOL    HW1 2897   5.212   1.336   1.827
  666SOL    HW2 2898   5.218   1.208   1.928
  667SOL     OW 2899   1.300   5.193   2.493
  667SOL    HW1 2900   1.318   5.095   2.481
  667SOL    HW2 2901   1.234   5.205   2.567
  668SOL     OW 2902   4.936   6.058   6.180
  668SOL    HW1 2903   4.952   6.140   6.235
  668SOL    HW2 2904   5.022   6.025   6.143
  669SOL     OW 2905   5.142   0.380   3.375
  669SOL    HW1 2906   5.217   0.350   3.433
  669SOL    HW2 2907   5.166   0.368   3.279
  670SOL     OW 2908   2.968   2.511   1.685
  670SOL    HW1 2909   2.967   2.440   1.614
  670SOL    HW2 2910   2.969   2.468   1.775
  671SOL     OW 2911   3.186   6.317   0.963
  671SOL    HW1 2912   3.231   6.389   1.016
  671SOL    HW2 2913   3.144   6.356   0.881
  672SOL     OW 2914   6.509   5.754   1.633
  672SOL    HW1 2915   6.447   5.829   1.611
  672SOL    HW2 2916   6.458   5.678   1.673
  673SOL     OW 2917   6.546   0.241   1.451
  673SOL    HW1 2918   6.538   0.173   1.524
  673SOL    HW2 2919   6.615   0.309   1.475
  674SOL     OW 2920   0.542   1.553   5.108
  674SOL    HW1 2921   0.565   1.506   5.193
  674SOL    HW2 2922   0.455   1.602   5.119
  675SOL     OW 2923   6.939   2.416   2.479
  675SOL    HW1 2924   6.995   2.478   2.425
  675SOL    HW2 2925   6.981   2.325   2.480
  676SOL     OW 2926   3.256   5.525   3.673
  676SOL    HW1 2927   3.296   5.433   3.682
  676SOL    HW2 2928   3.210   5.550   3.758
  677SOL     OW 2929   5.340   1.370   0.016
  677SOL    HW1 2930   5.427   1.382   6.987
  677SOL    HW2 2931   5.351   1.301   0.087
  678SOL     OW 2932   2.766   6.173   4.965
  678SOL    HW1 2933   2.856   6.184   5.007
  678SOL    HW2 2934   2.699   6.230   5.012
  679SOL     OW 2935   4.625   2.022   4.228
  679SOL    HW1 2936   4.712   1.997   4.186
  679SOL    HW2 2937   4.559   1.948   4.213
  680SOL     OW 2938   5.125   5.711   4.840
  680SOL    HW1 2939   5.205   5.669   4.797
  680SOL    HW2 2940   5.150   5.746   4.930
  681SOL     OW 2941   4.437   5.380   1.671
  681SOL    HW1 2942   4.457   5.388   1.769
  681SOL    HW2 2943   4.391   5.293   1.653
  682SOL     OW 2944   6.224   0.936   1.794
  682SOL    HW1 2945   6.213   0.855   1.736
  682SOL    HW2 2946   6.318   0.941   1.827
  683SOL     OW 2947   5.146   2.526   0.914
  683SOL    HW1 2948   5.236   2.484   0.899
  683SOL    HW2 2949   5.147   2.620   0.880
  684SOL     OW 2950   6.563   1.239   0.830
  684SOL    HW1 2951   6.627   1.194   0.767
  684SOL    HW2 2952   6.500   1.297   0.779
  685SOL     OW 2953   3.118   1.774   3.889
  685SOL    HW1 2954   3.211   1.793   3.858
  685SOL    HW2 2955   3.101   1.676   3.887
  686SOL     OW 2956   4.494   2.444   3.980
  686SOL    HW1 2957   4.530   2.512   4.044
  686SOL    HW2 2958   4.518   2.469   3.887
  687SOL     OW 2959   0.555   1.955   4.060
  687SOL    HW1 2960   0.516   1.894   4.129
  687SOL    HW2 2961   0.495   2.035   4.049
  688SOL     OW 2962   0.602   1.798   6.383
  688SOL    HW1 2963   0.691   1.773   6.346
  688SOL    HW2 2964   0.548   1.715   6.398
  689SOL     OW 2965   0.999   4.814   6.437
  689SOL    HW1 2966   1.088   4.847   6.468
  689SOL    HW2 2967   0.928   4.880   6.464
  690SOL     OW 2968   6.650   3.034   3.538
  690SOL    HW1 2969   6.721   3.078   3.484
  690SOL    HW2 2970   6.629   2.945   3.499
  691SOL     OW 2971   3.034   1.073   0.508
  691SOL    HW1 2972   2.980   1.155   0.487
  691SOL    HW2 2973   3.055   1.024   0.423
  692SOL     OW 2974   4.093   2.222   4.239
  692SOL    HW1 2975   4.006   2.176   4.221
  692SOL    HW2 2976   4.096   2.249   4.336
  693SOL     OW 2977   4.688   6.635   4.150
  693SOL    HW1 2978   4.757   6.689   4.101
  693SOL    HW2 2979   4.683   6.544   4.110
  694SOL     OW 2980   4.358   6.814   4.780
  694SOL    HW1 2981   4.392   6.900   4.743
  694SOL    HW2 2982   4.263   6.801   4.751
  695SOL     OW 2983   4.255   6.800   3.795
  695SOL    HW1 2984   4.284   6.746   3.874
  695SOL    HW2 2985   4.258   6.897   3.817
  696SOL     OW 2986   4.978   4.637   3.581
  696SOL    HW1 2987   4.991   4.604   3.487
  696SOL    HW2 2988   5.067   4.652   3.624
  697SOL     OW 2989   1.631   3.930   2.550
  697SOL    HW1 2990   1.607   3.839   2.516
  697SOL    HW2 2991   1.550   3.989   2.546
  698SOL     OW 2992   5.277   6.555   1.328
  698SOL    HW1 2993   5.243   6.544   1.235
  698SOL    HW2 2994   5.205   6.530   1.393
  699SOL     OW 2995   1.581   3.444   6.992
  699SOL    HW1 2996   1.501   3.394   0.007
  699SOL    HW2 2997   1.552   3.515   6.929
  700SOL     OW 2998   3.719   0.704   2.488
  700SOL    HW1 2999   3.687   0.787   2.443
  700SOL    HW2 3000   3.648   0.633   2.480
  701SOL     OW 3001   6.723   3.541   0.111
  701SOL    HW1 3002   6.691   3.457   0.154
  701SOL    HW2 3003   6.670   3.558   0.028
  702SOL     OW 3004   1.443   6.260   4.981
  702SOL    HW1 3005   1.412   6.171   4.949
  702SOL    HW2 3006   1.382   6.331   4.945
  703SOL     OW 3007   3.536   3.205   5.767
  703SOL    HW1 3008   3.480   3.151   5.829
  703SOL    HW2 3009   3.631   3.204   5.798
  704SOL     OW 3010   1.385   2.724   6.270
  704SOL    HW1 3011   1.356   2.774   6.352
  704SOL    HW2 3012   1.352   2.773   6.188
  705SOL     OW 3013   6.007   5.618   2.748
  705SOL    HW1 3014   5.993   5.571   2.835
  705SOL    HW2 3015   6.055   5.704   2.763
  706SOL     OW 3016   4.026   1.882   4.990
  706SOL    HW1 3017   4.043   1.819   4.914
  706SOL    HW2 3018   4.108   1.937   5.007
  707SOL     OW 3019   4.702   4.598   3.156
  707SOL    HW1 3020   4.624   4.541   3.132
  707SOL    HW2 3021   4.783   4.568   3.105
  708SOL     OW 3022   2.991   0.819   2.683
  708SOL    HW1 3023   3.039   0.854   2.764
  708SOL    HW2 3024   2.895   0.801   2.707
  709SOL     OW 3025   0.925   5.862   1.054
  709SOL    HW1 3026   0.853   5.839   0.989
  709SOL    HW2 3027   0.886   5.866   1.146
  710SOL     OW 3028   4.177   2.393   1.287
  710SOL    HW1 3029   4.125   2.330   1.230
  710SOL    HW2 3030   4.275   2.382   1.267
  711SOL     OW 3031   0.262   3.020   5.925
  711SOL    HW1 3032   0.181   2.979   5.968
  711SOL    HW2 3033   0.235   3.072   5.845
  712SOL     OW 3034   4.804   2.317   1.365
  712SOL    HW1 3035   4.860   2.381   1.417
  712SOL    HW2 3036   4.805   2.228   1.409
  713SOL     OW 3037   3.606   3.573   5.844
  713SOL    HW1 3038   3.661   3.535   5.918
  713SOL    HW2 3039   3.664   3.590   5.764
  714SOL     OW 3040   0.094   5.142   3.364
  714SOL    HW1 3041   0.137   5.230   3.344
  714SOL    HW2 3042   7.015   5.155   3.371
  715SOL     OW 3043   5.525   5.996   6.497
  715SOL    HW1 3044   5.522   5.905   6.538
  715SOL    HW2 3045   5.567   6.061   6.561
  716SOL     OW 3046   0.696   1.210   2.175
  716SOL    HW1 3047   0.644   1.128   2.151
  716SOL    HW2 3048   0.659   1.289   2.126
  717SOL     OW 3049   0.034   4.677   3.837
  717SOL    HW1 3050   0.117   4.733   3.834
  717SOL    HW2 3051   6.988   4.711   3.768
  718SOL     OW 3052   4.712   3.288   5.846
  718SOL    HW1 3053   4.711   3.234   5.930
  718SOL    HW2 3054   4.634   3.261   5.789
  719SOL     OW 3055   5.863   0.175   2.564
  719SOL    HW1 3056   5.903   0.088   2.593
  719SOL    HW2 3057   5.766   0.176   2.587
  720SOL     OW 3058   2.261   0.353   6.367
  720SOL    HW1 3059   2.240   0.298   6.448
  720SOL    HW2 3060   2.349   0.325   6.330
  721SOL     OW 3061   2.430   1.839   2.131
  721SOL    HW1 3062   2.423   1.754   2.183
  721SOL    HW2 3063   2.347   1.893   2.145
  722SOL     OW 3064   2.688   1.081   5.603
  722SOL    HW1 3065   2.730   1.070   5.693
  722SOL    HW2 3066   2.760   1.086   5.534
  723SOL     OW 3067   2.082   4.603   3.424
  723SOL    HW1 3068   2.042   4.585   3.514
  723SOL    HW2 3069   2.081   4.519   3.370
  724SOL     OW 3070   0.655   1.347   3.637
  724SOL    HW1 3071   0.672   1.444   3.621
  724SOL    HW2 3072   0.722   1.293   3.585
  725SOL     OW 3073   1.183   5.194   2.774
  725SOL    HW1 3074   1.163   5.290   2.754
  725SOL    HW2 3075   1.219   5.186   2.867
  726SOL     OW 3076   2.987   5.130   1.551
  726SOL    HW1 3077   3.051   5.145   1.626
  726SOL    HW2 3078   2.945   5.216   1.524
  727SOL     OW 3079   5.904   4.428   6.018
  727SOL    HW1 3080   5.818   4.379   6.027
  727SOL    HW2 3081   5.887   4.526   6.010
  728SOL     OW 3082   6.568   3.431   3.923
  728SOL    HW1 3083   6.649   3.405   3.871
  728SOL    HW2 3084   6.558   3.370   4.002
  729SOL     OW 3085   6.963   2.440   1.046
  729SOL    HW1 3086   0.043   2.441   1.046
  729SOL    HW2 3087   6.930   2.417   1.138
  730SOL     OW 3088   6.682   0.353   3.887
  730SOL    HW1 3089   6.759   0.384   3.832
  730SOL    HW2 3090   6.599   0.400   3.857
  731SOL     OW 3091   4.210   5.217   6.328
  731SOL    HW1 3092   4.251   5.134   6.367
  731SOL    HW2 3093   4.208   5.289   6.398
  732SOL     OW 3094   5.876   3.147   1.908
  732SOL    HW1 3095   5.959   3.190   1.874
  732SOL    HW2 3096   5.830   3.098   1.834
  733SOL     OW 3097   5.401   0.093   5.071
  733SOL    HW1 3098   5.479   0.140   5.113
  733SOL    HW2 3099   5.430   0.052   4.985
  734SOL     OW 3100   6.102   5.196   2.771
  734SOL    HW1 3101   6.155   5.114   2.751
  734SOL    HW2 3102   6.154   5.254   2.834
  735SOL     OW 3103   4.062   1.658   0.391
  735SOL    HW1 3104   4.159   1.657   0.417
  735SOL    HW2 3105   4.013   1.589   0.444
  736SOL     OW 3106   0.639   0.789   3.674
  736SOL    HW1 3107   0.724   0.739   3.686
  736SOL    HW2 3108   0.619   0.843   3.756
  737SOL     OW 3109   5.130   1.710   5.618
  737SOL    HW1 3110   5.171   1.797   5.648
  737SOL    HW2 3111   5.155   1.637   5.681
  738SOL     OW 3112   2.959   3.742   1.360
  738SOL    HW1 3113   3.000   3.667   1.412
  738SOL    HW2 3114   3.023   3.819   1.356
  739SOL     OW 3115   4.606   0.263   4.178
  739SOL    HW1 3116   4.655   0.279   4.264
  739SOL    HW2 3117   4.508   0.280   4.192
  740SOL     OW 3118   5.590   1.179   2.792
  740SOL    HW1 3119   5.613   1.083   2.801
  740SOL    HW2 3120   5.532   1.207   2.869
  741SOL     OW 3121   1.871   0.086   3.799
  741SOL    HW1 3122   1.777   0.108   3.773
  741SOL    HW2 3123   1.931   0.162   3.773
  742SOL     OW 3124   2.295   6.745   1.712
  742SOL    HW1 3125   2.281   6.667   1.650
  742SOL    HW2 3126   2.332   6.712   1.799
  743SOL     OW 3127   0.459   5.154   3.038
  743SOL    HW1 3128   0.416   5.065   3.055
  743SOL    HW2 3129   0.415   5.224   3.095
  744SOL     OW 3130   5.715   0.980   0.874
  744SOL    HW1 3131   5.754   1.052   0.931
  744SOL    HW2 3132   5.786   0.912   0.854
  745SOL     OW 3133   1.553   5.578   5.273
  745SOL    HW1 3134   1.613   5.658   5.272
  745SOL    HW2 3135   1.550   5.537   5.182
  746SOL     OW 3136   6.102   3.750   6.195
  746SOL    HW1 3137   6.041   3.784   6.267
  746SOL    HW2 3138   6.176   3.816   6.181
  747SOL     OW 3139   3.993   6.004   4.864
  747SOL    HW1 3140   4.048   5.920   4.866
  747SOL    HW2 3141   3.897   5.981   4.876
  748SOL     OW 3142   4.496   5.423   2.479
  748SOL    HW1 3143   4.445   5.478   2.545
  748SOL    HW2 3144   4.461   5.329   2.479
  749SOL     OW 3145   5.759   3.628   4.489
  749SOL    HW1 3146   5.751   3.701   4.422
  749SOL    HW2 3147   5.716   3.545   4.453
  750SOL     OW 3148   2.774   1.203   1.503
  750SOL    HW1 3149   2.850   1.185   1.565
  750SOL    HW2 3150   2.763   1.126   1.440
  751SOL     OW 3151   4.455   1.420   0.156
  751SOL    HW1 3152   4.357   1.436   0.170
  751SOL    HW2 3153   4.508   1.487   0.209
  752SOL     OW 3154   2.607   3.267   1.127
  752SOL    HW1 3155   2.527   3.220   1.163
  752SOL    HW2 3156   2.690   3.218   1.153
  753SOL     OW 3157   0.964   3.516   5.809
  753SOL    HW1 3158   1.019   3.594   5.777
  753SOL    HW2 3159   0.979   3.438   5.749
  754SOL     OW 3160   4.539   1.415   6.132
  754SOL    HW1 3161   4.482   1.488   6.170
  754SOL    HW2 3162   4.566   1.438   6.038
  755SOL     OW 3163   2.153   4.650   5.259
  755SOL    HW1 3164   2.178   4.662   5.355
  755SOL    HW2 3165   2.161   4.553   5.235
  756SOL     OW 3166   2.310   5.484   6.962
  756SOL    HW1 3167   2.295   5.571   6.916
  756SOL    HW2 3168   2.241   5.472   0.014
  757SOL     OW 3169   0.853   6.135   4.336
  757SOL    HW1 3170   0.834   6.180   4.422
  757SOL    HW2 3171   0.858   6.203   4.262
  758SOL     OW 3172   4.406   0.699   3.295
  758SOL    HW1 3173   4.328   0.681   3.234
  758SOL    HW2 3174   4.381   0.675   3.389
  759SOL     OW 3175   0.243   2.851   2.906
  759SOL    HW1 3176   0.155   2.806   2.920
  759SOL    HW2 3177   0.238   2.946   2.938
  760SOL     OW 3178   6.065   0.086   3.697
  760SOL    HW1 3179   6.158   0.123   3.704
  760SOL    HW2 3180   6.069   7.006   3.689
  761SOL     OW 3181   5.586   4.165   6.781
  761SOL    HW1 3182   5.623   4.251   6.817
  761SOL    HW2 3183   5.523   4.125   6.848
  762SOL     OW 3184   3.065   0.134   5.459
  762SOL    HW1 3185   3.081   0.095   5.368
  762SOL    HW2 3186   3.140   0.109   5.520
  763SOL     OW 3187   4.166   6.203   5.972
  763SOL    HW1 3188   4.203   6.112   5.988
  763SOL    HW2 3189   4.082   6.214   6.025
  764SOL     OW 3190   5.192   0.918   5.719
  764SOL    HW1 3191   5.180   0.863   5.637
  764SOL    HW2 3192   5.242   1.001   5.697
  765SOL     OW 3193   1.825   5.844   1.008
  765SOL    HW1 3194   1.820   5.766   1.071
  765SOL    HW2 3195   1.862   5.924   1.056
  766SOL     OW 3196   2.838   2.161   5.339
  766SOL    HW1 3197   2.826   2.233   5.271
  766SOL    HW2 3198   2.930   2.122   5.331
  767SOL     OW 3199   6.910   6.296   3.954
  767SOL    HW1 3200   6.882   6.231   3.882
  767SOL    HW2 3201   6.948   6.378   3.911
  768SOL     OW 3202   1.690   5.348   3.493
  768SOL    HW1 3203   1.679   5.400   3.409
  768SOL    HW2 3204   1.629   5.384   3.564
  769SOL     OW 3205   2.915   0.808   5.953
  769SOL    HW1 3206   2.884   0.888   5.903
  769SOL    HW2 3207   3.013   0.794   5.937
  770SOL     OW 3208   1.577   5.300   3.935
  770SOL    HW1 3209   1.674   5.298   3.959
  770SOL    HW2 3210   1.535   5.213   3.962
  771SOL     OW 3211   1.280   4.716   2.677
  771SOL    HW1 3212   1.232   4.803   2.674
  771SOL    HW2 3213   1.371   4.728   2.718
  772SOL     OW 3214   6.050   4.290   0.204
  772SOL    HW1 3215   6.104   4.218   0.248
  772SOL    HW2 3216   6.101   4.375   0.204
  773SOL     OW 3217   0.811   4.061   3.175
  773SOL    HW1 3218   0.829   4.046   3.077
  773SOL    HW2 3219   0.715   4.084   3.188
  774SOL     OW 3220   1.535   1.505   2.071
  774SOL    HW1 3221   1.478   1.425   2.091
  774SOL    HW2 3222   1.629   1.475   2.055
  775SOL     OW 3223   2.149   1.576   4.159
  775SOL    HW1 3224   2.095   1.630   4.095
  775SOL    HW2 3225   2.089   1.535   4.227
  776SOL     OW 3226   6.813   0.618   6.138
  776SOL    HW1 3227   6.720   0.651   6.154
  776SOL    HW2 3228   6.823   0.595   6.041
  777SOL     OW 3229   1.714   4.135   1.627
  777SOL    HW1 3230   1.712   4.140   1.727
  777SOL    HW2 3231   1.806   4.157   1.594
  778SOL     OW 3232   2.601   6.993   1.529
  778SOL    HW1 3233   2.557   0.003   1.614
  778SOL    HW2 3234   2.680   6.935   1.551
  779SOL     OW 3235   6.697   2.358   1.984
  779SOL    HW1 3236   6.646   2.344   2.069
  779SOL    HW2 3237   6.717   2.270   1.942
  780SOL     OW 3238   0.855   2.256   4.545
  780SOL    HW1 3239   0.925   2.295   4.485
  780SOL    HW2 3240   0.832   2.164   4.513
  781SOL     OW 3241   5.668   5.974   1.148
  781SOL    HW1 3242   5.608   6.037   1.199
  781SOL    HW2 3243   5.692   6.016   1.060
  782SOL     OW 3244   1.422   3.265   5.542
  782SOL    HW1 3245   1.494   3.301   5.483
  782SOL    HW2 3246   1.381   3.340   5.593
  783SOL     OW 3247   5.159   4.643   1.938
  783SOL    HW1 3248   5.070   4.652   1.894
  783SOL    HW2 3249   5.160   4.561   1.995
  784SOL     OW 3250   4.111   4.900   1.888
  784SOL    HW1 3251   4.119   4.860   1.979
  784SOL    HW2 3252   4.072   4.992   1.896
  785SOL     OW 3253   0.697   1.455   3.278
  785SOL    HW1 3254   0.737   1.397   3.208
  785SOL    HW2 3255   0.769   1.512   3.319
  786SOL     OW 3256   0.017   0.485   2.533
  786SOL    HW1 3257   7.005   0.574   2.566
  786SOL    HW2 3258   0.036   0.491   2.435
  787SOL     OW 3259   1.436   0.437   0.018
  787SOL    HW1 3260   1.351   0.402   6.997
  787SOL    HW2 3261   1.463   0.376   0.093
  788SOL     OW 3262   4.490   2.129   0.994
  788SOL    HW1 3263   4.576   2.160   0.953
  788SOL    HW2 3264   4.507   2.048   1.050
  789SOL     OW 3265   4.524   5.023   1.975
  789SOL    HW1 3266   4.457   5.038   2.048
  789SOL    HW2 3267   4.581   4.944   1.999
  790SOL     OW 3268   2.534   1.569   2.827
  790SOL    HW1 3269   2.606   1.505   2.854
  790SOL    HW2 3270   2.470   1.581   2.902
  791SOL     OW 3271   2.625   6.224   5.242
  791SOL    HW1 3272   2.585   6.274   5.318
  791SOL    HW2 3273   2.654   6.134   5.273
  792SOL     OW 3274   0.954   0.665   1.835
  792SOL    HW1 3275   0.879   0.721   1.870
  792SOL    HW2 3276   0.981   0.598   1.903
  793SOL     OW 3277   4.904   5.611   4.717
  793SOL    HW1 3278   4.988   5.659   4.744
  793SOL    HW2 3279   4.893   5.529   4.773
  794SOL     OW 3280   2.561   3.987   5.741
  794SOL    HW1 3281   2.616   4.063   5.707
  794SOL    HW2 3282   2.500   3.955   5.669
  795SOL     OW 3283   4.082   0.521   5.337
  795SOL    HW1 3284   4.089   0.471   5.423
  795SOL    HW2 3285   4.041   0.611   5.354
  796SOL     OW 3286   1.027   2.577   6.826
  796SOL    HW1 3287   0.947   2.521   6.847
  796SOL    HW2 3288   1.089   2.577   6.904
  797SOL     OW 3289   4.633   0.586   1.061
  797SOL    HW1 3290   4.720   0.631   1.082
  797SOL    HW2 3291   4.593   0.627   0.979
  798SOL     OW 3292   3.535   6.972   2.406
  798SOL    HW1 3293   3.540   6.910   2.485
  798SOL    HW2 3294   3.524   6.918   2.322
  799SOL     OW 3295   0.448   0.615   6.399
  799SOL    HW1 3296   0.413   0.709   6.401
  799SOL    HW2 3297   0.442   0.579   6.306
  800SOL     OW 3298   6.881   0.718   2.695
  800SOL    HW1 3299   6.796   0.720   2.642
  800SOL    HW2 3300   6.874   0.781   2.772
  801SOL     OW 3301   2.459   4.415   5.213
  801SOL    HW1 3302   2.407   4.350   5.269
  801SOL    HW2 3303   2.550   4.428   5.252
  802SOL     OW 3304   3.221   2.536   6.796
  802SOL    HW1 3305   3.249   2.610   6.857
  802SOL    HW2 3306   3.255   2.555   6.703
  803SOL     OW 3307   1.352   0.479   5.715
  803SOL    HW1 3308   1.256   0.506   5.706
  803SOL    HW2 3309   1.365   0.429   5.800
  804SOL     OW 3310   6.720   6.637   1.429
  804SOL    HW1 3311   6.790   6.687   1.377
  804SOL    HW2 3312   6.631   6.649   1.385
  805SOL     OW 3313   2.308   1.000   4.286
  805SOL    HW1 3314   2.311   1.090   4.329
  805SOL    HW2 3315   2.224   0.953   4.313
  806SOL     OW 3316   5.689   0.491   6.080
  806SOL    HW1 3317   5.628   0.484   6.158
  806SOL    HW2 3318   5.721   0.586   6.071
  807SOL     OW 3319   0.625   7.009   4.403
  807SOL    HW1 3320   0.647   7.007   4.500
  807SOL    HW2 3321   0.526   7.011   4.391
  808SOL     OW 3322   4.702   3.040   6.969
  808SOL    HW1 3323   4.660   3.129   6.954
  808SOL    HW2 3324   4.768   3.021   6.896
  809SOL     OW 3325   0.776   4.639   0.805
  809SOL    HW1 3326   0.759   4.654   0.902
  809SOL    HW2 3327   0.850   4.572   0.794
  810SOL     OW 3328   3.667   4.248   0.119
  810SOL    HW1 3329   3.688   4.336   0.162
  810SOL    HW2 3330   3.639   4.263   0.024
  811SOL     OW 3331   5.445   5.503   4.141
  811SOL    HW1 3332   5.526   5.509   4.082
  811SOL    HW2 3333   5.428   5.408   4.165
  812SOL     OW 3334   6.948   1.823   1.997
  812SOL    HW1 3335   6.892   1.773   1.931
  812SOL    HW2 3336   6.892   1.847   2.077
  813SOL     OW 3337   3.097   0.352   4.351
  813SOL    HW1 3338   3.109   0.297   4.268
  813SOL    HW2 3339   3.012   0.325   4.396
  814SOL     OW 3340   6.612   5.494   2.554
  814SOL    HW1 3341   6.580   5.483   2.648
  814SOL    HW2 3342   6.632   5.590   2.536
  815SOL     OW 3343   6.016   2.884   3.578
  815SOL    HW1 3344   5.917   2.894   3.570
  815SOL    HW2 3345   6.061   2.938   3.507
  816SOL     OW 3346   5.595   5.278   0.385
  816SOL    HW1 3347   5.556   5.321   0.467
  816SOL    HW2 3348   5.545   5.309   0.305
  817SOL     OW 3349   0.998   5.334   1.473
  817SOL    HW1 3350   1.097   5.345   1.459
  817SOL    HW2 3351   0.977   5.347   1.570
  818SOL     OW 3352   6.100   3.089   3.787
  818SOL    HW1 3353   6.068   3.029   3.714
  818SOL    HW2 3354   6.199   3.082   3.797
  819SOL     OW 3355   6.078   3.024   1.370
  819SOL    HW1 3356   6.133   2.989   1.446
  819SOL    HW2 3357   5.983   2.994   1.381
  820SOL     OW 3358   3.201   2.152   4.777
  820SOL    HW1 3359   3.206   2.201   4.864
  820SOL    HW2 3360   3.149   2.206   4.712
  821SOL     OW 3361   6.310   4.672   6.290
  821SOL    HW1 3362   6.297   4.651   6.193
  821SOL    HW2 3363   6.329   4.587   6.340
  822SOL     OW 3364   0.053   3.516   3.347
  822SOL    HW1 3365   0.025   3.607   3.377
  822SOL    HW2 3366   0.088   3.464   3.425
  823SOL     OW 3367   6.134   4.434   6.418
  823SOL    HW1 3368   6.183   4.402   6.338
  823SOL    HW2 3369   6.077   4.360   6.454
  824SOL     OW 3370   4.541   1.147   6.053
  824SOL    HW1 3371   4.529   1.245   6.070
  824SOL    HW2 3372   4.600   1.108   6.123
  825SOL     OW 3373   6.289   5.413   0.800
  825SOL    HW1 3374   6.277   5.399   0.899
  825SOL    HW2 3375   6.208   5.457   0.763
  826SOL     OW 3376   3.874   2.744   5.567
  826SOL    HW1 3377   3.885   2.698   5.478
  826SOL    HW2 3378   3.957   2.731   5.621
  827SOL     OW 3379   2.794   4.153   5.286
  827SOL    HW1 3380   2.713   4.097   5.304
  827SOL    HW2 3381   2.838   4.122   5.203
  828SOL     OW 3382   5.849   6.533   6.238
  828SOL    HW1 3383   5.931   6.529   6.295
  828SOL    HW2 3384   5.854   6.613   6.178
  829SOL     OW 3385   3.837   3.325   1.935
  829SOL    HW1 3386   3.820   3.240   1.985
  829SOL    HW2 3387   3.781   3.326   1.851
  830SOL     OW 3388   5.756   4.683   6.733
  830SOL    HW1 3389   5.825   4.756   6.723
  830SOL    HW2 3390   5.755   4.650   6.827
  831SOL     OW 3391   5.927   0.017   1.142
  831SOL    HW1 3392   5.956   0.109   1.116
  831SOL    HW2 3393   5.837   7.017   1.103
  832SOL     OW 3394   4.361   2.274   4.151
  832SOL    HW1 3395   4.389   2.342   4.082
  832SOL    HW2 3396   4.264   2.285   4.170
  833SOL     OW 3397   1.934   3.480   6.343
  833SOL    HW1 3398   1.980   3.558   6.300
  833SOL    HW2 3399   1.856   3.452   6.287
  834SOL     OW 3400   5.278   3.512   0.963
  834SOL    HW1 3401   5.292   3.548   1.056
  834SOL    HW2 3402   5.284   3.412   0.965
  835SOL     OW 3403   2.563   0.173   4.935
  835SOL    HW1 3404   2.507   0.190   5.016
  835SOL    HW2 3405   2.508   0.125   4.866
  836SOL     OW 3406   3.685   0.672   5.115
  836SOL    HW1 3407   3.763   0.663   5.053
  836SOL    HW2 3408   3.718   0.677   5.209
  837SOL     OW 3409   0.308   0.557   1.055
  837SOL    HW1 3410   0.308   0.657   1.049
  837SOL    HW2 3411   0.389   0.521   1.008
  838SOL     OW 3412   2.793   6.528   4.591
  838SOL    HW1 3413   2.739   6.494   4.668
  838SOL    HW2 3414   2.863   6.591   4.625
  839SOL     OW 3415   2.168   1.346   1.999
  839SOL    HW1 3416   2.164   1.441   1.970
  839SOL    HW2 3417   2.104   1.292   1.945
  840SOL     OW 3418   6.308   6.009   0.167
  840SOL    HW1 3419   6.251   5.969   0.239
  840SOL    HW2 3420   6.266   5.994   0.078
  841SOL     OW 3421   3.411   5.671   6.107
  841SOL    HW1 3422   3.420   5.766   6.138
  841SOL    HW2 3423   3.340   5.665   6.037
  842SOL     OW 3424   3.665   0.072   6.156
  842SOL    HW1 3425   3.570   0.101   6.169
  842SOL    HW2 3426   3.689   0.004   6.225
  843SOL     OW 3427   1.152   1.749   1.551
  843SOL    HW1 3428   1.090   1.804   1.495
  843SOL    HW2 3429   1.099   1.695   1.617
  844SOL     OW 3430   0.006   6.704   1.059
  844SOL    HW1 3431   0.057   6.784   1.027
  844SOL    HW2 3432   6.987   6.722   1.149
  845SOL     OW 3433   5.370   3.904   3.457
  845SOL    HW1 3434   5.300   3.961   3.415
  845SOL    HW2 3435   5.457   3.952   3.457
  846SOL     OW 3436   2.445   0.529   5.833
  846SOL    HW1 3437   2.364   0.472   5.849
  846SOL    HW2 3438   2.428   0.591   5.757
  847SOL     OW 3439   0.943   3.349   1.703
  847SOL    HW1 3440   0.925   3.363   1.800
  847SOL    HW2 3441   0.873   3.288   1.665
  848SOL     OW 3442   6.591   6.690   5.573
  848SOL    HW1 3443   6.542   6.769   5.611
  848SOL    HW2 3444   6.613   6.626   5.647
  849SOL     OW 3445   6.064   4.095   6.182
  849SOL    HW1 3446   6.038   4.015   6.127
  849SOL    HW2 3447   6.009   4.097   6.265
  850SOL     OW 3448   6.108   0.080   4.733
  850SOL    HW1 3449   6.132   0.177   4.743
  850SOL    HW2 3450   6.146   0.028   4.810
  851SOL     OW 3451   0.187   2.964   0.264
  851SOL    HW1 3452   0.124   3.041   0.257
  851SOL    HW2 3453   0.134   2.880   0.277
  852SOL     OW 3454   0.973   4.149   0.208
  852SOL    HW1 3455   0.914   4.073   0.238
  852SOL    HW2 3456   1.066   4.133   0.241
  853SOL     OW 3457   0.726   4.774   0.116
  853SOL    HW1 3458   0.705   4.871   0.100
  853SOL    HW2 3459   0.823   4.764   0.136
  854SOL     OW 3460   4.842   6.034   0.444
  854SOL    HW1 3461   4.877   6.117   0.402
  854SOL    HW2 3462   4.743   6.040   0.452
  855SOL     OW 3463   6.471   0.181   0.526
  855SOL    HW1 3464   6.525   0.262   0.547
  855SOL    HW2 3465   6.405   0.203   0.453
  856SOL     OW 3466   1.374   1.154   6.750
  856SOL    HW1 3467   1.459   1.116   6.714
  856SOL    HW2 3468   1.377   1.155   6.850
  857SOL     OW 3469   6.187   5.149   2.312
  857SOL    HW1 3470   6.190   5.106   2.222
  857SOL    HW2 3471   6.279   5.175   2.339
  858SOL     OW 3472   3.209   4.876   1.445
  858SOL    HW1 3473   3.274   4.879   1.521
  858SOL    HW2 3474   3.218   4.788   1.398
  859SOL     OW 3475   5.998   6.286   4.618
  859SOL    HW1 3476   6.097   6.272   4.624
  859SOL    HW2 3477   5.951   6.200   4.635
  860SOL     OW 3478   6.487   2.475   6.631
  860SOL    HW1 3479   6.491   2.540   6.707
  860SOL    HW2 3480   6.396   2.476   6.591
  861SOL     OW 3481   2.266   4.851   3.717
  861SOL    HW1 3482   2.286   4.939   3.758
  861SOL    HW2 3483   2.220   4.792   3.784
  862SOL     OW 3484   2.004   4.077   2.849
  862SOL    HW1 3485   1.907   4.091   2.869
  862SOL    HW2 3486   2.023   3.979   2.840
  863SOL     OW 3487   6.214   0.966   6.209
  863SOL    HW1 3488   6.242   0.902   6.138
  863SOL    HW2 3489   6.137   1.022   6.176
  864SOL     OW 3490   3.770   6.166   4.396
  864SOL    HW1 3491   3.784   6.213   4.483
  864SOL    HW2 3492   3.820   6.214   4.324
  865SOL     OW 3493   1.891   0.015   5.844
  865SOL    HW1 3494   1.800   0.032   5.881
  865SOL    HW2 3495   1.922   6.943   5.871
  866SOL     OW 3496   2.794   0.792   0.634
  866SOL    HW1 3497   2.733   0.871   0.644
  866SOL    HW2 3498   2.881   0.811   0.679
  867SOL     OW 3499   4.940   3.569   0.872
  867SOL    HW1 3500   5.008   3.637   0.899
  867SOL    HW2 3501   4.911   3.517   0.952
  868SOL     OW 3502   6.685   1.100   1.569
  868SOL    HW1 3503   6.614   1.154   1.615
  868SOL    HW2 3504   6.715   1.147   1.487
  869SOL     OW 3505   0.053   4.136   2.859
  869SOL    HW1 3506   6.998   4.185   2.811
  869SOL    HW2 3507   0.113   4.094   2.791
  870SOL     OW 3508   3.953   4.072   0.873
  870SOL    HW1 3509   3.866   4.120   0.885
  870SOL    HW2 3510   3.968   4.010   0.950
  871SOL     OW 3511   5.115   2.248   3.582
  871SOL    HW1 3512   5.083   2.227   3.490
  871SOL    HW2 3513   5.039   2.244   3.646
  872SOL     OW 3514   5.834   2.755   3.847
  872SOL    HW1 3515   5.790   2.692   3.782
  872SOL    HW2 3516   5.929   2.726   3.861
  873SOL     OW 3517   5.099   5.183   5.070
  873SOL    HW1 3518   5.192   5.219   5.079
  873SOL    HW2 3519   5.057   5.176   5.161
  874SOL     OW 3520   6.654   3.590   6.609
  874SOL    HW1 3521   6.748   3.555   6.607
  874SOL    HW2 3522   6.653   3.685   6.576
  875SOL     OW 3523   4.689   5.013   1.227
  875SOL    HW1 3524   4.621   5.038   1.158
  875SOL    HW2 3525   4.725   4.923   1.206
  876SOL     OW 3526   0.037   5.452   2.195
  876SOL    HW1 3527   0.066   5.370   2.244
  876SOL    HW2 3528   0.068   5.533   2.246
  877SOL     OW 3529   3.229   4.592   6.213
  877SOL    HW1 3530   3.300   4.590   6.283
  877SOL    HW2 3531   3.213   4.686   6.183
  878SOL     OW 3532   4.543   6.405   4.454
  878SOL    HW1 3533   4.637   6.402   4.422
  878SOL    HW2 3534   4.538   6.365   4.546
  879SOL     OW 3535   4.355   0.869   1.578
  879SOL    HW1 3536   4.373   0.782   1.533
  879SOL    HW2 3537   4.347   0.856   1.676
  880SOL     OW 3538   3.079   3.693   4.111
  880SOL    HW1 3539   3.140   3.704   4.190
  880SOL    HW2 3540   3.041   3.782   4.085
  881SOL     OW 3541   5.087   3.780   5.544
  881SOL    HW1 3542   5.038   3.836   5.611
  881SOL    HW2 3543   5.185   3.803   5.546
  882SOL     OW 3544   1.046   2.059   3.946
  882SOL    HW1 3545   1.024   2.154   3.969
  882SOL    HW2 3546   0.984   1.998   3.996
  883SOL     OW 3547   3.197   0.673   0.824
  883SOL    HW1 3548   3.258   0.671   0.904
  883SOL    HW2 3549   3.184   0.767   0.795
  884SOL     OW 3550   6.543   4.141   6.301
  884SOL    HW1 3551   6.562   4.239   6.306
  884SOL    HW2 3552   6.491   4.113   6.382
  885SOL     OW 3553   3.905   0.700   4.946
  885SOL    HW1 3554   3.984   0.656   4.989
  885SOL    HW2 3555   3.924   0.713   4.849
  886SOL     OW 3556   3.435   0.081   0.519
  886SOL    HW1 3557   3.431   0.144   0.442
  886SOL    HW2 3558   3.369   0.111   0.589
  887SOL     OW 3559   3.643   6.448   3.720
  887SOL    HW1 3560   3.678   6.467   3.812
  887SOL    HW2 3561   3.603   6.532   3.682
  888SOL     OW 3562   0.391   5.975   3.156
  888SOL    HW1 3563   0.351   6.059   3.191
  888SOL    HW2 3564   0.475   5.954   3.207
  889SOL     OW 3565   7.018   1.767   6.715
  889SOL    HW1 3566   0.087   1.729   6.691
  889SOL    HW2 3567   6.945   1.713   6.673
  890SOL     OW 3568   2.027   4.960   3.555
  890SOL    HW1 3569   2.019   5.058   3.571
  890SOL    HW2 3570   2.110   4.925   3.599
  891SOL     OW 3571   6.714   3.944   1.178
  891SOL    HW1 3572   6.782   3.878   1.148
  891SOL    HW2 3573   6.754   4.036   1.178
  892SOL     OW 3574   3.188   4.091   4.628
  892SOL    HW1 3575   3.136   4.016   4.586
  892SOL    HW2 3576   3.181   4.173   4.571
  893SOL     OW 3577   2.295   6.491   3.794
  893SOL    HW1 3578   2.239   6.504   3.713
  893SOL    HW2 3579   2.391   6.512   3.772
  894SOL     OW 3580   0.930   3.232   2.356
  894SOL    HW1 3581   0.958   3.136   2.348
  894SOL    HW2 3582   0.898   3.250   2.448
  895SOL     OW 3583   0.900   5.273   4.001
  895SOL    HW1 3584   0.800   5.270   4.005
  895SOL    HW2 3585   0.934   5.349   4.057
  896SOL     OW 3586   5.239   4.756   1.572
  896SOL    HW1 3587   5.260   4.683   1.508
  896SOL    HW2 3588   5.299   4.835   1.555
  897SOL     OW 3589   3.324   1.117   6.941
  897SOL    HW1 3590   3.359   1.151   6.853
  897SOL    HW2 3591   3.357   1.024   6.956
  898SOL     OW 3592   4.039   6.245   2.958
  898SOL    HW1 3593   3.990   6.191   3.026
  898SOL    HW2 3594   4.031   6.342   2.981
  899SOL     OW 3595   0.452   6.723   0.305
  899SOL    HW1 3596   0.376   6.674   0.348
  899SOL    HW2 3597   0.438   6.821   0.316
  900SOL     OW 3598   5.204   0.076   0.431
  900SOL    HW1 3599   5.246   7.007   0.413
  900SOL    HW2 3600   5.153   0.107   0.351
  901SOL     OW 3601   1.333   0.908   3.570
  901SOL    HW1 3602   1.264   0.947   3.508
  901SOL    HW2 3603   1.288   0.852   3.639
  902SOL     OW 3604   0.936   2.642   1.120
  902SOL    HW1 3605   1.004   2.614   1.052
  902SOL    HW2 3606   0.905   2.561   1.170
  903SOL     OW 3607   0.892   3.235   6.961
  903SOL    HW1 3608   0.848   3.160   6.912
  903SOL    HW2 3609   0.854   3.322   6.931
  904SOL     OW 3610   1.843   1.892   2.550
  904SOL    HW1 3611   1.841   1.903   2.649
  904SOL    HW2 3612   1.760   1.846   2.519
  905SOL     OW 3613   5.305   3.815   5.983
  905SOL    HW1 3614   5.381   3.879   5.977
  905SOL    HW2 3615   5.227   3.858   6.028
  906SOL     OW 3616   0.519   2.240   6.392
  906SOL    HW1 3617   0.438   2.209   6.343
  906SOL    HW2 3618   0.502   2.240   6.491
  907SOL     OW 3619   5.161   2.991   0.414
  907SOL    HW1 3620   5.081   3.051   0.420
  907SOL    HW2 3621   5.138   2.910   0.360
  908SOL     OW 3622   2.456   4.459   3.091
  908SOL    HW1 3623   2.411   4.406   3.019
  908SOL    HW2 3624   2.504   4.536   3.050
  909SOL     OW 3625   4.017   6.857   1.675
  909SOL    HW1 3626   3.964   6.850   1.590
  909SOL    HW2 3627   4.114   6.841   1.655
  910SOL     OW 3628   3.170   1.814   1.226
  910SOL    HW1 3629   3.155   1.723   1.187
  910SOL    HW2 3630   3.097   1.835   1.291
  911SOL     OW 3631   1.114   6.424   6.721
  911SOL    HW1 3632   1.205   6.386   6.737
  911SOL    HW2 3633   1.123   6.519   6.690
  912SOL     OW 3634   6.184   1.053   3.165
  912SOL    HW1 3635   6.255   1.070   3.234
  912SOL    HW2 3636   6.095   1.045   3.210
  913SOL     OW 3637   3.110   0.561   3.833
  913SOL    HW1 3638   3.046   0.578   3.758
  913SOL    HW2 3639   3.060   0.560   3.920
  914SOL     OW 3640   2.263   0.165   5.706
  914SOL    HW1 3641   2.318   0.204   5.780
  914SOL    HW2 3642   2.239   0.071   5.728
  915SOL     OW 3643   6.810   3.155   0.095
  915SOL    HW1 3644   6.793   3.222   0.022
  915SOL    HW2 3645   6.879   3.090   0.065
  916SOL     OW 3646   1.720   2.945   2.528
  916SOL    HW1 3647   1.798   2.997   2.494
  916SOL    HW2 3648   1.749   2.852   2.552
  917SOL     OW 3649   1.014   6.699   1.879
  917SOL    HW1 3650   1.065   6.774   1.838
  917SOL    HW2 3651   0.930   6.734   1.921
  918SOL     OW 3652   3.846   0.438   0.734
  918SOL    HW1 3653   3.939   0.411   0.709
  918SOL    HW2 3654   3.781   0.398   0.669
  919SOL     OW 3655   6.654   0.033   2.667
  919SOL    HW1 3656   6.662   7.005   2.579
  919SOL    HW2 3657   6.594   0.112   2.657
  920SOL     OW 3658   2.296   4.372   2.392
  920SOL    HW1 3659   2.319   4.382   2.295
  920SOL    HW2 3660   2.354   4.433   2.446
  921SOL     OW 3661   3.865   5.513   4.302
  921SOL    HW1 3662   3.910   5.602   4.297
  921SOL    HW2 3663   3.917   5.453   4.363
  922SOL     OW 3664   2.893   3.573   4.310
  922SOL    HW1 3665   2.913   3.596   4.405
  922SOL    HW2 3666   2.948   3.630   4.250
  923SOL     OW 3667   2.314   3.477   6.328
  923SOL    HW1 3668   2.260   3.457   6.245
  923SOL    HW2 3669   2.253   3.511   6.399
  924SOL     OW 3670   6.150   3.555   2.091
  924SOL    HW1 3671   6.230   3.515   2.137
  924SOL    HW2 3672   6.149   3.654   2.106
  925SOL     OW 3673   0.216   2.222   6.604
  925SOL    HW1 3674   0.309   2.185   6.602
  925SOL    HW2 3675   0.181   2.219   6.697
  926SOL     OW 3676   6.443   0.671   1.214
  926SOL    HW1 3677   6.423   0.765   1.185
  926SOL    HW2 3678   6.444   0.611   1.134
  927SOL     OW 3679   5.471   4.161   3.202
  927SOL    HW1 3680   5.535   4.212   3.144
  927SOL    HW2 3681   5.377   4.188   3.180
  928SOL     OW 3682   1.911   5.779   0.473
  928SOL    HW1 3683   1.846   5.853   0.491
  928SOL    HW2 3684   2.004   5.815   0.475
  929SOL     OW 3685   0.523   1.006   6.895
  929SOL    HW1 3686   0.538   0.961   6.807
  929SOL    HW2 3687   0.570   0.955   6.967
  930SOL     OW 3688   5.547   6.585   5.904
  930SOL    HW1 3689   5.645   6.602   5.903
  930SOL    HW2 3690   5.520   6.536   5.821
  931SOL     OW 3691   6.738   1.114   4.928
  931SOL    HW1 3692   6.722   1.181   5.001
  931SOL    HW2 3693   6.822   1.139   4.878
  932SOL     OW 3694   3.247   0.746   3.500
  932SOL    HW1 3695   3.317   0.689   3.544
  932SOL    HW2 3696   3.266   0.751   3.402
  933SOL     OW 3697   1.582   5.896   3.191
  933SOL    HW1 3698   1.492   5.883   3.232
  933SOL    HW2 3699   1.653   5.875   3.259
  934SOL     OW 3700   2.625   6.138   6.678
  934SOL    HW1 3701   2.659   6.139   6.772
  934SOL    HW2 3702   2.615   6.232   6.645
  935SOL     OW 3703   4.914   4.016   4.311
  935SOL    HW1 3704   4.900   3.917   4.299
  935SOL    HW2 3705   4.832   4.056   4.351
  936SOL     OW 3706   6.888   0.581   5.850
  936SOL    HW1 3707   6.842   0.573   5.762
  936SOL    HW2 3708   6.977   0.624   5.837
  937SOL     OW 3709   5.485   1.849   5.980
  937SOL    HW1 3710   5.485   1.816   5.886
  937SOL    HW2 3711   5.429   1.789   6.037
  938SOL     OW 3712   5.720   4.452   6.586
  938SOL    HW1 3713   5.646   4.398   6.627
  938SOL    HW2 3714   5.720   4.544   6.626
  939SOL     OW 3715   0.604   6.779   4.235
  939SOL    HW1 3716   0.513   6.740   4.242
  939SOL    HW2 3717   0.636   6.806   4.327
  940SOL     OW 3718   0.258   3.930   1.015
  940SOL    HW1 3719   0.247   3.844   0.965
  940SOL    HW2 3720   0.338   3.924   1.074
  941SOL     OW 3721   5.664   2.373   6.731
  941SOL    HW1 3722   5.646   2.471   6.722
  941SOL    HW2 3723   5.648   2.345   6.826
  942SOL     OW 3724   6.166   6.790   3.066
  942SOL    HW1 3725   6.219   6.769   2.984
  942SOL    HW2 3726   6.227   6.791   3.145
  943SOL     OW 3727   1.610   4.239   3.182
  943SOL    HW1 3728   1.640   4.145   3.196
  943SOL    HW2 3729   1.645   4.297   3.256
  944SOL     OW 3730   0.279   5.278   5.778
  944SOL    HW1 3731   0.372   5.293   5.813
  944SOL    HW2 3732   0.267   5.181   5.757
  945SOL     OW 3733   0.416   4.287   6.095
  945SOL    HW1 3734   0.494   4.335   6.056
  945SOL    HW2 3735   0.428   4.189   6.083
  946SOL     OW 3736   4.928   4.268   5.541
  946SOL    HW1 3737   4.969   4.182   5.510
  946SOL    HW2 3738   4.948   4.282   5.638
  947SOL     OW 3739   3.679   3.324   3.416
  947SOL    HW1 3740   3.714   3.416   3.429
  947SOL    HW2 3741   3.716   3.286   3.331
  948SOL     OW 3742   5.224   0.998   2.930
  948SOL    HW1 3743   5.125   0.985   2.917
  948SOL    HW2 3744   5.267   0.908   2.941
  949SOL     OW 3745   2.296   5.705   0.527
  949SOL    HW1 3746   2.314   5.614   0.491
  949SOL    HW2 3747   2.382   5.748   0.554
  950SOL     OW 3748   6.068   5.842   2.085
  950SOL    HW1 3749   6.033   5.790   2.162
  950SOL    HW2 3750   6.113   5.925   2.119
  951SOL     OW 3751   1.557   0.086   4.236
  951SOL    HW1 3752   1.627   0.119   4.174
  951SOL    HW2 3753   1.599   0.035   4.311
  952SOL     OW 3754   4.421   2.428   3.237
  952SOL    HW1 3755   4.437   2.449   3.140
  952SOL    HW2 3756   4.444   2.333   3.255
  953SOL     OW 3757   5.598   5.313   4.639
  953SOL    HW1 3758   5.538   5.336   4.715
  953SOL    HW2 3759   5.675   5.259   4.672
  954SOL     OW 3760   3.641   5.966   2.215
  954SOL    HW1 3761   3.574   6.034   2.245
  954SOL    HW2 3762   3.701   5.942   2.292
  955SOL     OW 3763   0.627   3.596   1.091
  955SOL    HW1 3764   0.647   3.680   1.041
  955SOL    HW2 3765   0.713   3.551   1.115
  956SOL     OW 3766   6.370   0.426   1.390
  956SOL    HW1 3767   6.418   0.488   1.328
  956SOL    HW2 3768   6.418   0.339   1.393
  957SOL     OW 3769   5.516   2.932   2.660
  957SOL    HW1 3770   5.486   2.932   2.564
  957SOL    HW2 3771   5.610   2.965   2.665
  958SOL     OW 3772   4.614   0.855   1.248
  958SOL    HW1 3773   4.594   0.941   1.294
  958SOL    HW2 3774   4.569   0.853   1.159
  959SOL     OW 3775   3.291   6.271   4.445
  959SOL    HW1 3776   3.302   6.203   4.373
  959SOL    HW2 3777   3.246   6.230   4.523
  960SOL     OW 3778   1.127   0.250   1.787
  960SOL    HW1 3779   1.083   0.256   1.876
  960SOL    HW2 3780   1.068   0.201   1.724
  961SOL     OW 3781   4.324   6.365   3.485
  961SOL    HW1 3782   4.392   6.385   3.415
  961SOL    HW2 3783   4.255   6.437   3.486
  962SOL     OW 3784   6.747   0.493   4.782
  962SOL    HW1 3785   6.660   0.504   4.829
  962SOL    HW2 3786   6.822   0.520   4.842
  963SOL     OW 3787   5.405   1.354   6.453
  963SOL    HW1 3788   5.448   1.367   6.364
  963SOL    HW2 3789   5.321   1.408   6.458
  964SOL     OW 3790   5.376   4.845   6.973
  964SOL    HW1 3791   5.315   4.861   6.895
  964SOL    HW2 3792   5.347   4.903   0.030
  965SOL     OW 3793   5.940   1.696   1.957
  965SOL    HW1 3794   5.946   1.648   1.869
  965SOL    HW2 3795   5.905   1.633   2.026
  966SOL     OW 3796   5.712   2.735   3.139
  966SOL    HW1 3797   5.688   2.808   3.076
  966SOL    HW2 3798   5.629   2.685   3.165
  967SOL     OW 3799   2.957   4.428   1.128
  967SOL    HW1 3800   2.951   4.527   1.136
  967SOL    HW2 3801   2.867   4.387   1.143
  968SOL     OW 3802   4.420   0.836   1.849
  968SOL    HW1 3803   4.365   0.760   1.884
  968SOL    HW2 3804   4.394   0.920   1.895
  969SOL     OW 3805   2.579   4.190   5.535
  969SOL    HW1 3806   2.505   4.189   5.468
  969SOL    HW2 3807   2.630   4.276   5.527
  970SOL     OW 3808   5.190   0.501   6.339
  970SOL    HW1 3809   5.234   0.433   6.398
  970SOL    HW2 3810   5.091   0.499   6.355
  971SOL     OW 3811   6.990   2.778   2.663
  971SOL    HW1 3812   6.919   2.716   2.629
  971SOL    HW2 3813   0.046   2.780   2.598
  972SOL     OW 3814   5.659   1.895   2.011
  972SOL    HW1 3815   5.735   1.950   2.045
  972SOL    HW2 3816   5.641   1.820   2.074
  973SOL     OW 3817   0.933   5.402   6.827
  973SOL    HW1 3818   0.974   5.356   6.748
  973SOL    HW2 3819   1.006   5.441   6.883
  974SOL     OW 3820   6.156   5.701   1.477
  974SOL    HW1 3821   6.234   5.752   1.441
  974SOL    HW2 3822   6.133   5.734   1.568
  975SOL     OW 3823   2.277   0.191   0.416
  975SOL    HW1 3824   2.211   0.214   0.487
  975SOL    HW2 3825   2.343   0.266   0.407
  976SOL     OW 3826   0.244   3.677   1.234
  976SOL    HW1 3827   0.197   3.764   1.241
  976SOL    HW2 3828   0.305   3.665   1.313
  977SOL     OW 3829   0.350   0.591   1.790
  977SOL    HW1 3830   0.315   0.531   1.718
  977SOL    HW2 3831   0.332   0.686   1.764
  978SOL     OW 3832   5.250   2.351   6.963
  978SOL    HW1 3833   5.335   2.324   7.009
  978SOL    HW2 3834   5.206   2.269   6.926
  979SOL     OW 3835   0.721   2.978   6.819
  979SOL    HW1 3836   0.634   3.027   6.830
  979SOL    HW2 3837   0.733   2.955   6.722
  980SOL     OW 3838   5.722   1.979   4.058
  980SOL    HW1 3839   5.678   2.058   4.100
  980SOL    HW2 3840   5.658   1.935   3.995
  981SOL     OW 3841   6.950   1.216   4.786
  981SOL    HW1 3842   6.953   1.208   4.686
  981SOL    HW2 3843   0.010   1.267   4.817
  982SOL     OW 3844   0.770   1.167   4.760
  982SOL    HW1 3845   0.734   1.244   4.813
  982SOL    HW2 3846   0.776   1.193   4.664
  983SOL     OW 3847   6.641   2.796   3.423
  983SOL    HW1 3848   6.741   2.797   3.420
  983SOL    HW2 3849   6.608   2.701   3.417
  984SOL     OW 3850   2.458   2.664   3.953
  984SOL    HW1 3851   2.465   2.568   3.981
  984SOL    HW2 3852   2.485   2.722   4.029
  985SOL     OW 3853   6.793   3.408   4.754
  985SOL    HW1 3854   6.799   3.507   4.768
  985SOL    HW2 3855   6.870   3.363   4.800
  986SOL     OW 3856   4.163   4.493   1.035
  986SOL    HW1 3857   4.118   4.552   0.968
  986SOL    HW2 3858   4.111   4.408   1.045
  987SOL     OW 3859   4.753   6.594   2.729
  987SOL    HW1 3860   4.830   6.632   2.677
  987SOL    HW2 3861   4.679   6.569   2.667
  988SOL     OW 3862   3.498   4.296   0.976
  988SOL    HW1 3863   3.441   4.365   1.019
  988SOL    HW2 3864   3.475   4.206   1.013
  989SOL     OW 3865   6.564   2.064   6.368
  989SOL    HW1 3866   6.472   2.031   6.347
  989SOL    HW2 3867   6.577   2.155   6.328
  990SOL     OW 3868   3.537   0.841   2.147
  990SOL    HW1 3869   3.607   0.825   2.078
  990SOL    HW2 3870   3.580   0.872   2.232
  991SOL     OW 3871   0.673   3.586   3.634
  991SOL    HW1 3872   0.639   3.652   3.566
  991SOL    HW2 3873   0.768   3.608   3.658
  992SOL     OW 3874   0.164   3.067   2.095
  992SOL    HW1 3875   0.184   3.161   2.123
  992SOL    HW2 3876   0.202   3.051   2.004
  993SOL     OW 3877   6.927   4.559   0.897
  993SOL    HW1 3878   6.951   4.528   0.805
  993SOL    HW2 3879   6.847   4.619   0.892
  994SOL     OW 3880   4.351   5.026   2.201
  994SOL    HW1 3881   4.287   5.092   2.162
  994SOL    HW2 3882   4.313   4.934   2.196
  995SOL     OW 3883   3.914   3.526   5.944
  995SOL    HW1 3884   3.842   3.565   6.001
  995SOL    HW2 3885   3.983   3.596   5.923
  996SOL     OW 3886   3.536   4.955   4.849
  996SOL    HW1 3887   3.438   4.941   4.864
  996SOL    HW2 3888   3.588   4.911   4.922
  997SOL     OW 3889   1.024   0.037   2.884
  997SOL    HW1 3890   1.099   6.991   2.874
  997SOL    HW2 3891   0.960   0.005   2.953
  998SOL     OW 3892   5.912   0.330   6.063
  998SOL    HW1 3893   5.952   0.363   5.977
  998SOL    HW2 3894   5.830   0.383   6.084
  999SOL     OW 3895   5.439   4.062   2.167
  999SOL    HW1 3896   5.341   4.067   2.185
  999SOL    HW2 3897   5.481   3.992   2.225
 1000SOL     OW 3898   4.079   1.679   1.453
 1000SOL    HW1 3899   4.063   1.777   1.464
 1000SOL    HW2 3900   4.087   1.658   1.355
 1001SOL     OW 3901   4.108   5.990   2.007
 1001SOL    HW1 3902   4.056   6.074   1.995
 1001SOL    HW2 3903   4.056   5.913   1.970
 1002SOL     OW 3904   5.561   2.006   1.098
 1002SOL    HW1 3905   5.649   1.958   1.102
 1002SOL    HW2 3906   5.573   2.100   1.128
 1003SOL     OW 3907   2.108   5.483   3.034
 1003SOL    HW1 3908   2.101   5.578   3.064
 1003SOL    HW2 3909   2.112   5.423   3.114
 1004SOL     OW 3910   0.956   1.283   2.083
 1004SOL    HW1 3911   0.938   1.296   1.985
 1004SOL    HW2 3912   0.876   1.240   2.126
 1005SOL     OW 3913   1.803   2.656   4.289
 1005SOL    HW1 3914   1.774   2.595   4.215
 1005SOL    HW2 3915   1.747   2.739   4.288
 1006SOL     OW 3916   1.277   4.193   0.537
 1006SOL    HW1 3917   1.344   4.267   0.550
 1006SOL    HW2 3918   1.306   4.113   0.589
 1007SOL     OW 3919   4.323   0.871   5.611
 1007SOL    HW1 3920   4.256   0.897   5.680
 1007SOL    HW2 3921   4.287   0.794   5.558
 1008SOL     OW 3922   0.524   2.076   5.699
 1008SOL    HW1 3923   0.572   2.135   5.763
 1008SOL    HW2 3924   0.518   1.984   5.736
 1009SOL     OW 3925   0.173   5.553   5.792
 1009SOL    HW1 3926   0.211   5.460   5.795
 1009SOL    HW2 3927   0.236   5.616   5.836
 1010SOL     OW 3928   2.605   2.252   1.001
 1010SOL    HW1 3929   2.677   2.321   1.003
 1010SOL    HW2 3930   2.645   2.162   0.985
 1011SOL     OW 3931   1.251   5.341   3.466
 1011SOL    HW1 3932   1.251   5.277   3.544
 1011SOL    HW2 3933   1.319   5.312   3.399
 1012SOL     OW 3934   0.120   6.911   2.019
 1012SOL    HW1 3935   0.142   7.004   1.989
 1012SOL    HW2 3936   0.164   6.845   1.959
 1013SOL     OW 3937   0.611   0.972   6.132
 1013SOL    HW1 3938   0.702   0.990   6.095
 1013SOL    HW2 3939   0.545   1.034   6.088
 1014SOL     OW 3940   0.401   3.951   5.249
 1014SOL    HW1 3941   0.458   4.022   5.291
 1014SOL    HW2 3942   0.305   3.978   5.255
 1015SOL     OW 3943   2.056   0.164   5.996
 1015SOL    HW1 3944   2.024   0.121   5.912
 1015SOL    HW2 3945   2.156   0.155   6.001
 1016SOL     OW 3946   4.184   3.919   0.513
 1016SOL    HW1 3947   4.272   3.871   0.511
 1016SOL    HW2 3948   4.113   3.860   0.474
 1017SOL     OW 3949   4.051   2.230   1.116
 1017SOL    HW1 3950   4.113   2.230   1.037
 1017SOL    HW2 3951   4.038   2.136   1.148
 1018SOL     OW 3952   0.873   4.401   4.330
 1018SOL    HW1 3953   0.847   4.474   4.267
 1018SOL    HW2 3954   0.792   4.346   4.352
 1019SOL     OW 3955   6.989   5.825   1.103
 1019SOL    HW1 3956   0.002   5.734   1.078
 1019SOL    HW2 3957   6.913   5.851   1.043
 1020SOL     OW 3958   6.413   1.519   1.691
 1020SOL    HW1 3959   6.495   1.576   1.685
 1020SOL    HW2 3960   6.337   1.574   1.725
 1021SOL     OW 3961   5.598   6.752   1.920
 1021SOL    HW1 3962   5.542   6.834   1.932
 1021SOL    HW2 3963   5.604   6.730   1.823
 1022SOL     OW 3964   3.021   4.854   5.422
 1022SOL    HW1 3965   3.043   4.762   5.388
 1022SOL    HW2 3966   2.993   4.912   5.346
 1023SOL     OW 3967   0.582   1.082   2.636
 1023SOL    HW1 3968   0.547   1.106   2.726
 1023SOL    HW2 3969   0.680   1.100   2.631
 1024SOL     OW 3970   0.375   2.141   4.047
 1024SOL    HW1 3971   0.316   2.209   4.091
 1024SOL    HW2 3972   0.359   2.143   3.948
 1025SOL     OW 3973   3.726   3.137   0.826
 1025SOL    HW1 3974   3.639   3.100   0.796
 1025SOL    HW2 3975   3.715   3.182   0.915
 1026SOL     OW 3976   2.477   3.274   1.532
 1026SOL    HW1 3977   2.449   3.370   1.540
 1026SOL    HW2 3978   2.558   3.258   1.589
 1027SOL     OW 3979   2.945   0.111   2.250
 1027SOL    HW1 3980   2.952   0.045   2.326
 1027SOL    HW2 3981   2.860   0.163   2.260
 1028SOL     OW 3982   1.623   6.873   2.741
 1028SOL    HW1 3983   1.620   6.843   2.646
 1028SOL    HW2 3984   1.654   6.968   2.745
 1029SOL     OW 3985   1.229   1.662   6.150
 1029SOL    HW1 3986   1.281   1.710   6.220
 1029SOL    HW2 3987   1.131   1.669   6.171
 1030SOL     OW 3988   3.523   3.203   1.838
 1030SOL    HW1 3989   3.519   3.157   1.926
 1030SOL    HW2 3990   3.431   3.228   1.809
 1031SOL     OW 3991   4.751   3.436   1.772
 1031SOL    HW1 3992   4.651   3.432   1.771
 1031SOL    HW2 3993   4.787   3.348   1.743
 1032SOL     OW 3994   0.900   1.049   5.011
 1032SOL    HW1 3995   0.839   1.122   4.978
 1032SOL    HW2 3996   0.994   1.083   5.014
 1033SOL     OW 3997   1.878   5.346   1.350
 1033SOL    HW1 3998   1.942   5.309   1.283
 1033SOL    HW2 3999   1.929   5.399   1.418
 1034SOL     OW 4000   1.601   5.348   4.385
 1034SOL    HW1 4001   1.555   5.339   4.473
 1034SOL    HW2 4002   1.685   5.402   4.396
 1035SOL     OW 4003   6.789   2.018   6.518
 1035SOL    HW1 4004   6.847   2.090   6.558
 1035SOL    HW2 4005   6.724   2.060   6.454
 1036SOL     OW 4006   4.106   0.991   1.794
 1036SOL    HW1 4007   4.078   0.898   1.770
 1036SOL    HW2 4008   4.201   1.005   1.765
 1037SOL     OW 4009   1.578   1.457   2.649
 1037SOL    HW1 4010   1.671   1.455   2.685
 1037SOL    HW2 4011   1.576   1.413   2.559
 1038SOL     OW 4012   1.880   1.499   5.454
 1038SOL    HW1 4013   1.920   1.458   5.373
 1038SOL    HW2 4014   1.892   1.599   5.450
 1039SOL     OW 4015   3.845   3.946   4.018
 1039SOL    HW1 4016   3.825   4.041   4.040
 1039SOL    HW2 4017   3.838   3.932   3.919
 1040SOL     OW 4018   4.963   0.909   2.086
 1040SOL    HW1 4019   4.944   0.995   2.134
 1040SOL    HW2 4020   4.933   0.917   1.990
 1041SOL     OW 4021   0.137   6.137   3.036
 1041SOL    HW1 4022   0.104   6.069   3.102
 1041SOL    HW2 4023   0.139   6.097   2.945
 1042SOL     OW 4024   4.249   5.168   2.764
 1042SOL    HW1 4025   4.213   5.101   2.699
 1042SOL    HW2 4026   4.183   5.181   2.838
 1043SOL     OW 4027   3.505   2.113   3.129
 1043SOL    HW1 4028   3.405   2.116   3.127
 1043SOL    HW2 4029   3.541   2.162   3.049
 1044SOL     OW 4030   6.076   5.407   2.302
 1044SOL    HW1 4031   6.107   5.317   2.271
 1044SOL    HW2 4032   6.076   5.409   2.402
 1045SOL     OW 4033   4.351   0.705   2.628
 1045SOL    HW1 4034   4.439   0.683   2.586
 1045SOL    HW2 4035   4.297   0.761   2.565
 1046SOL     OW 4036   1.717   1.278   0.295
 1046SOL    HW1 4037   1.664   1.265   0.379
 1046SOL    HW2 4038   1.736   1.376   0.283
 1047SOL     OW 4039   2.403   6.914   4.296
 1047SOL    HW1 4040   2.386   6.959   4.208
 1047SOL    HW2 4041   2.417   6.816   4.281
 1048SOL     OW 4042   3.427   6.600   2.207
 1048SOL    HW1 4043   3.376   6.531   2.155
 1048SOL    HW2 4044   3.365   6.653   2.263
 1049SOL     OW 4045   6.129   6.398   3.913
 1049SOL    HW1 4046   6.201   6.426   3.978
 1049SOL    HW2 4047   6.042   6.390   3.962
 1050SOL     OW 4048   3.695   4.971   2.431
 1050SOL    HW1 4049   3.710   5.068   2.412
 1050SOL    HW2 4050   3.663   4.925   2.349
 1051SOL     OW 4051   0.534   5.299   0.747
 1051SOL    HW1 4052   0.532   5.201   0.767
 1051SOL    HW2 4053   0.570   5.313   0.655
 1052SOL     OW 4054   4.501   1.075   5.558
 1052SOL    HW1 4055   4.527   1.128   5.638
 1052SOL    HW2 4056   4.448   0.995   5.586
 1053SOL     OW 4057   5.995   3.755   2.375
 1053SOL    HW1 4058   5.962   3.684   2.313
 1053SOL    HW2 4059   5.933   3.833   2.373
 1054SOL     OW 4060   2.867   3.640   0.914
 1054SOL    HW1 4061   2.832   3.705   0.981
 1054SOL    HW2 4062   2.967   3.646   0.910
 1055SOL     OW 4063   3.872   6.662   5.469
 1055SOL    HW1 4064   3.877   6.657   5.569
 1055SOL    HW2 4065   3.939   6.728   5.436
 1056SOL     OW 4066   1.420   2.985   0.055
 1056SOL    HW1 4067   1.399   2.906   7.017
 1056SOL    HW2 4068   1.419   2.957   0.151
 1057SOL     OW 4069   3.700   3.216   1.095
 1057SOL    HW1 4070   3.701   3.180   1.188
 1057SOL    HW2 4071   3.667   3.310   1.096
 1058SOL     OW 4072   5.045   2.297   4.002
 1058SOL    HW1 4073   5.133   2.295   3.954
 1058SOL    HW2 4074   4.982   2.356   3.952
 1059SOL     OW 4075   1.930   0.801   2.510
 1059SOL    HW1 4076   2.003   0.772   2.571
 1059SOL    HW2 4077   1.878   0.720   2.481
 1060SOL     OW 4078   0.446   4.571   3.723
 1060SOL    HW1 4079   0.507   4.610   3.653
 1060SOL    HW2 4080   0.454   4.471   3.722
 1061SOL     OW 4081   6.555   3.226   6.177
 1061SOL    HW1 4082   6.550   3.290   6.101
 1061SOL    HW2 4083   6.639   3.243   6.230
 1062SOL     OW 4084   5.129   5.063   5.667
 1062SOL    HW1 4085   5.030   5.073   5.659
 1062SOL    HW2 4086   5.150   5.011   5.750
 1063SOL     OW 4087   0.871   5.808   0.382
 1063SOL    HW1 4088   0.851   5.793   0.286
 1063SOL    HW2 4089   0.854   5.904   0.405
 1064SOL     OW 4090   1.195   4.530   2.505
 1064SOL    HW1 4091   1.125   4.467   2.541
 1064SOL    HW2 4092   1.209   4.605   2.570
 1065SOL     OW 4093   4.628   0.911   2.669
 1065SOL    HW1 4094   4.564   0.906   2.593
 1065SOL    HW2 4095   4.709   0.855   2.649
 1066SOL     OW 4096   4.534   6.871   2.852
 1066SOL    HW1 4097   4.517   6.850   2.755
 1066SOL    HW2 4098   4.542   6.786   2.904
 1067SOL     OW 4099   1.536   2.591   0.238
 1067SOL    HW1 4100   1.524   2.518   0.304
 1067SOL    HW2 4101   1.449   2.638   0.223
 1068SOL     OW 4102   6.751   4.255   1.382
 1068SOL    HW1 4103   6.806   4.222   1.305
 1068SOL    HW2 4104   6.705   4.178   1.426
 1069SOL     OW 4105   5.338   5.883   0.931
 1069SOL    HW1 4106   5.264   5.881   0.863
 1069SOL    HW2 4107   5.299   5.873   1.022
 1070SOL     OW 4108   1.483   0.340   1.343
 1070SOL    HW1 4109   1.487   0.283   1.426
 1070SOL    HW2 4110   1.445   0.430   1.366
 1071SOL     OW 4111   2.218   1.711   3.715
 1071SOL    HW1 4112   2.274   1.659   3.780
 1071SOL    HW2 4113   2.159   1.647   3.665
 1072SOL     OW 4114   2.463   1.010   1.148
 1072SOL    HW1 4115   2.497   0.967   1.232
 1072SOL    HW2 4116   2.413   1.093   1.170
 1073SOL     OW 4117   4.788   0.475   3.393
 1073SOL    HW1 4118   4.847   0.478   3.474
 1073SOL    HW2 4119   4.757   0.567   3.371
 1074SOL     OW 4120   2.406   5.245   1.850
 1074SOL    HW1 4121   2.487   5.198   1.882
 1074SOL    HW2 4122   2.408   5.341   1.881
 1075SOL     OW 4123   6.062   0.297   3.317
 1075SOL    HW1 4124   6.124   0.252   3.253
 1075SOL    HW2 4125   6.043   0.390   3.285
 1076SOL     OW 4126   0.883   2.255   5.643
 1076SOL    HW1 4127   0.939   2.242   5.725
 1076SOL    HW2 4128   0.848   2.349   5.642
 1077SOL     OW 4129   6.191   0.014   0.606
 1077SOL    HW1 4130   6.239   0.043   0.689
 1077SOL    HW2 4131   6.093   0.026   0.618
 1078SOL     OW 4132   0.302   0.892   2.816
 1078SOL    HW1 4133   0.371   0.839   2.767
 1078SOL    HW2 4134   0.251   0.948   2.750
 1079SOL     OW 4135   1.386   5.939   2.207
 1079SOL    HW1 4136   1.414   5.988   2.125
 1079SOL    HW2 4137   1.290   5.912   2.199
 1080SOL     OW 4138   2.292   5.550   3.761
 1080SOL    HW1 4139   2.311   5.609   3.840
 1080SOL    HW2 4140   2.214   5.490   3.783
 1081SOL     OW 4141   6.758   5.411   5.571
 1081SOL    HW1 4142   6.782   5.360   5.653
 1081SOL    HW2 4143   6.661   5.434   5.573
 1082SOL     OW 4144   5.470   2.151   5.774
 1082SOL    HW1 4145   5.545   2.168   5.838
 1082SOL    HW2 4146   5.476   2.215   5.698
 1083SOL     OW 4147   4.652   3.941   0.366
 1083SOL    HW1 4148   4.710   4.020   0.387
 1083SOL    HW2 4149   4.666   3.913   0.271
 1084SOL     OW 4150   6.571   6.610   6.412
 1084SOL    HW1 4151   6.480   6.595   6.450
 1084SOL    HW2 4152   6.634   6.634   6.486
 1085SOL     OW 4153   1.911   4.068   4.508
 1085SOL    HW1 4154   1.998   4.026   4.535
 1085SOL    HW2 4155   1.835   4.007   4.533
 1086SOL     OW 4156   6.710   4.488   0.185
 1086SOL    HW1 4157   6.642   4.419   0.209
 1086SOL    HW2 4158   6.770   4.452   0.113
 1087SOL     OW 4159   7.017   2.071   5.222
 1087SOL    HW1 4160   6.971   2.095   5.136
 1087SOL    HW2 4161   0.053   1.989   5.208
 1088SOL     OW 4162   6.778   3.790   2.527
 1088SOL    HW1 4163   6.876   3.806   2.536
 1088SOL    HW2 4164   6.758   3.693   2.539
 1089SOL     OW 4165   6.347   5.681   4.661
 1089SOL    HW1 4166   6.414   5.647   4.728
 1089SOL    HW2 4167   6.255   5.667   4.697
 1090SOL     OW 4168   3.629   1.654   3.094
 1090SOL    HW1 4169   3.572   1.633   3.173
 1090SOL    HW2 4170   3.670   1.745   3.105
 1091SOL     OW 4171   2.497   2.362   4.374
 1091SOL    HW1 4172   2.593   2.383   4.360
 1091SOL    HW2 4173   2.487   2.268   4.408
 1092SOL     OW 4174   1.099   4.810   0.442
 1092SOL    HW1 4175   1.058   4.784   0.529
 1092SOL    HW2 4176   1.031   4.798   0.369
 1093SOL     OW 4177   3.049   6.561   1.226
 1093SOL    HW1 4178   3.007   6.541   1.315
 1093SOL    HW2 4179   2.999   6.513   1.154
 1094SOL     OW 4180   1.058   6.390   3.088
 1094SOL    HW1 4181   1.041   6.326   3.162
 1094SOL    HW2 4182   0.989   6.462   3.089
 1095SOL     OW 4183   0.502   2.894   5.876
 1095SOL    HW1 4184   0.497   2.801   5.914
 1095SOL    HW2 4185   0.415   2.941   5.894
 1096SOL     OW 4186   3.569   4.529   1.222
 1096SOL    HW1 4187   3.667   4.539   1.206
 1096SOL    HW2 4188   3.553   4.449   1.279
 1097SOL     OW 4189   2.256   5.063   3.890
 1097SOL    HW1 4190   2.229   5.009   3.969
 1097SOL    HW2 4191   2.345   5.105   3.907
 1098SOL     OW 4192   5.167   3.745   6.391
 1098SOL    HW1 4193   5.130   3.656   6.365
 1098SOL    HW2 4194   5.150   3.811   6.318
 1099SOL     OW 4195   3.780   1.212   6.576
 1099SOL    HW1 4196   3.791   1.233   6.673
 1099SOL    HW2 4197   3.828   1.282   6.522
 1100SOL     OW 4198   4.670   1.703   4.618
 1100SOL    HW1 4199   4.574   1.708   4.591
 1100SOL    HW2 4200   4.698   1.791   4.657
 1101SOL     OW 4201   5.689   3.977   5.864
 1101SOL    HW1 4202   5.596   3.976   5.827
 1101SOL    HW2 4203   5.754   3.970   5.788
 1102SOL     OW 4204   1.122   0.430   4.773
 1102SOL    HW1 4205   1.137   0.454   4.869
 1102SOL    HW2 4206   1.048   0.363   4.766
 1103SOL     OW 4207   3.423   1.331   0.213
 1103SOL    HW1 4208   3.349   1.264   0.213
 1103SOL    HW2 4209   3.410   1.396   0.288
 1104SOL     OW 4210   1.647   3.108   4.178
 1104SOL    HW1 4211   1.582   3.181   4.199
 1104SOL    HW2 4212   1.721   3.144   4.121
 1105SOL     OW 4213   5.687   3.099   5.016
 1105SOL    HW1 4214   5.669   3.195   5.034
 1105SOL    HW2 4215   5.606   3.056   4.975
 1106SOL     OW 4216   0.630   2.401   0.994
 1106SOL    HW1 4217   0.582   2.329   0.943
 1106SOL    HW2 4218   0.571   2.435   1.067
 1107SOL     OW 4219   1.153   0.431   0.142
 1107SOL    HW1 4220   1.218   0.496   0.182
 1107SOL    HW2 4221   1.151   0.348   0.198
 1108SOL     OW 4222   3.260   6.809   5.683
 1108SOL    HW1 4223   3.216   6.815   5.773
 1108SOL    HW2 4224   3.341   6.751   5.689
 1109SOL     OW 4225   5.618   0.899   4.326
 1109SOL    HW1 4226   5.683   0.879   4.400
 1109SOL    HW2 4227   5.577   0.989   4.341
 1110SOL     OW 4228   4.434   2.230   2.948
 1110SOL    HW1 4229   4.467   2.322   2.925
 1110SOL    HW2 4230   4.481   2.198   3.030
 1111SOL     OW 4231   5.768   5.806   6.756
 1111SOL    HW1 4232   5.683   5.801   6.704
 1111SOL    HW2 4233   5.750   5.848   6.845
 1112SOL     OW 4234   5.644   1.026   2.431
 1112SOL    HW1 4235   5.577   1.095   2.457
 1112SOL    HW2 4236   5.705   1.007   2.508
 1113SOL     OW 4237   5.513   4.818   1.364
 1113SOL    HW1 4238   5.487   4.721   1.359
 1113SOL    HW2 4239   5.498   4.852   1.456
 1114SOL     OW 4240   2.724   1.113   6.215
 1114SOL    HW1 4241   2.816   1.141   6.187
 1114SOL    HW2 4242   2.695   1.033   6.163
 1115SOL     OW 4243   3.785   3.365   5.550
 1115SOL    HW1 4244   3.772   3.454   5.594
 1115SOL    HW2 4245   3.696   3.321   5.536
 1116SOL     OW 4246   5.288   6.492   6.598
 1116SOL    HW1 4247   5.337   6.425   6.653
 1116SOL    HW2 4248   5.301   6.471   6.501
 1117SOL     OW 4249   0.762   2.332   2.175
 1117SOL    HW1 4250   0.766   2.354   2.078
 1117SOL    HW2 4251   0.846   2.285   2.203
 1118SOL     OW 4252   2.257   5.229   0.633
 1118SOL    HW1 4253   2.296   5.158   0.691
 1118SOL    HW2 4254   2.157   5.222   0.634
 1119SOL     OW 4255   4.095   4.468   1.653
 1119SOL    HW1 4256   4.190   4.440   1.665
 1119SOL    HW2 4257   4.091   4.566   1.637
 1120SOL     OW 4258   6.014   5.571   0.459
 1120SOL    HW1 4259   6.043   5.528   0.545
 1120SOL    HW2 4260   6.094   5.606   0.411
 1121SOL     OW 4261   6.961   4.289   4.599
 1121SOL    HW1 4262   6.900   4.269   4.523
 1121SOL    HW2 4263   6.960   4.387   4.618
 1122SOL     OW 4264   5.537   3.046   2.065
 1122SOL    HW1 4265   5.520   2.962   2.014
 1122SOL    HW2 4266   5.450   3.081   2.100
 1123SOL     OW 4267   5.345   2.410   3.394
 1123SOL    HW1 4268   5.342   2.387   3.297
 1123SOL    HW2 4269   5.252   2.429   3.426
 1124SOL     OW 4270   0.128   4.037   5.253
 1124SOL    HW1 4271   0.034   4.023   5.222
 1124SOL    HW2 4272   0.127   4.092   5.337
 1125SOL     OW 4273   1.864   1.889   3.810
 1125SOL    HW1 4274   1.885   1.838   3.726
 1125SOL    HW2 4275   1.883   1.986   3.796
 1126SOL     OW 4276   6.092   5.639   5.911
 1126SOL    HW1 4277   6.127   5.715   5.964
 1126SOL    HW2 4278   6.162   5.567   5.905
 1127SOL     OW 4279   5.340   6.265   4.656
 1127SOL    HW1 4280   5.418   6.232   4.603
 1127SOL    HW2 4281   5.280   6.188   4.679
 1128SOL     OW 4282   5.614   1.453   4.079
 1128SOL    HW1 4283   5.536   1.425   4.023
 1128SOL    HW2 4284   5.615   1.553   4.085
 1129SOL     OW 4285   1.954   6.766   0.806
 1129SOL    HW1 4286   1.864   6.736   0.774
 1129SOL    HW2 4287   1.981   6.847   0.755
 1130SOL     OW 4288   2.392   4.721   0.771
 1130SOL    HW1 4289   2.441   4.650   0.721
 1130SOL    HW2 4290   2.295   4.698   0.774
 1131SOL     OW 4291   1.393   6.845   5.371
 1131SOL    HW1 4292   1.465   6.831   5.440
 1131SOL    HW2 4293   1.422   6.917   5.308
 1132SOL     OW 4294   4.335   0.109   2.704
 1132SOL    HW1 4295   4.404   0.180   2.693
 1132SOL    HW2 4296   4.369   0.038   2.765
 1133SOL     OW 4297   1.420   1.205   7.017
 1133SOL    HW1 4298   1.517   1.178   7.014
 1133SOL    HW2 4299   1.402   1.257   0.081
 1134SOL     OW 4300   5.081   0.103   2.641
 1134SOL    HW1 4301   5.047   0.017   2.680
 1134SOL    HW2 4302   5.004   0.161   2.615
 1135SOL     OW 4303   2.074   6.420   4.408
 1135SOL    HW1 4304   2.161   6.370   4.408
 1135SOL    HW2 4305   2.007   6.371   4.352
 1136SOL     OW 4306   4.465   4.471   3.139
 1136SOL    HW1 4307   4.412   4.488   3.222
 1136SOL    HW2 4308   4.506   4.380   3.144
 1137SOL     OW 4309   1.361   6.843   0.146
 1137SOL    HW1 4310   1.421   6.896   0.205
 1137SOL    HW2 4311   1.266   6.872   0.160
 1138SOL     OW 4312   0.031   1.023   5.964
 1138SOL    HW1 4313   0.043   0.949   6.030
 1138SOL    HW2 4314   0.026   0.986   5.871
 1139SOL     OW 4315   2.511   5.106   3.202
 1139SOL    HW1 4316   2.573   5.158   3.143
 1139SOL    HW2 4317   2.467   5.034   3.148
 1140SOL     OW 4318   3.013   1.016   2.233
 1140SOL    HW1 4319   2.913   1.020   2.236
 1140SOL    HW2 4320   3.044   1.040   2.141
 1141SOL     OW 4321   0.318   6.213   0.258
 1141SOL    HW1 4322   0.229   6.185   0.291
 1141SOL    HW2 4323   0.389   6.158   0.301
 1142SOL     OW 4324   3.092   0.141   3.857
 1142SOL    HW1 4325   3.096   0.048   3.893
 1142SOL    HW2 4326   3.163   0.154   3.788
 1143SOL     OW 4327   2.374   2.686   2.881
 1143SOL    HW1 4328   2.361   2.634   2.965
 1143SOL    HW2 4329   2.392   2.782   2.903
 1144SOL     OW 4330   6.245   4.388   3.436
 1144SOL    HW1 4331   6.312   4.344   3.495
 1144SOL    HW2 4332   6.271   4.483   3.421
 1145SOL     OW 4333   6.879   3.080   0.712
 1145SOL    HW1 4334   6.812   3.017   0.753
 1145SOL    HW2 4335   6.946   3.028   0.660
 1146SOL     OW 4336   0.060   1.211   2.042
 1146SOL    HW1 4337   0.056   1.310   2.059
 1146SOL    HW2 4338   6.986   1.174   2.042
 1147SOL     OW 4339   3.062   5.380   1.743
 1147SOL    HW1 4340   3.123   5.310   1.779
 1147SOL    HW2 4341   3.083   5.468   1.785
 1148SOL     OW 4342   4.668   6.383   0.701
 1148SOL    HW1 4343   4.759   6.394   0.662
 1148SOL    HW2 4344   4.674   6.329   0.785
 1149SOL     OW 4345   5.545   2.610   2.697
 1149SOL    HW1 4346   5.503   2.695   2.730
 1149SOL    HW2 4347   5.637   2.630   2.664
 1150SOL     OW 4348   0.895   4.446   6.805
 1150SOL    HW1 4349   0.821   4.508   6.829
 1150SOL    HW2 4350   0.921   4.460   6.709
 1151SOL     OW 4351   5.752   4.524   5.383
 1151SOL    HW1 4352   5.740   4.487   5.291
 1151SOL    HW2 4353   5.687   4.599   5.398
 1152SOL     OW 4354   4.972   5.601   6.131
 1152SOL    HW1 4355   5.023   5.617   6.215
 1152SOL    HW2 4356   4.969   5.685   6.077
 1153SOL     OW 4357   6.944   0.055   1.770
 1153SOL    HW1 4358   6.961   6.977   1.779
 1153SOL    HW2 4359   6.884   0.086   1.844
 1154SOL     OW 4360   0.378   4.795   0.737
 1154SOL    HW1 4361   0.291   4.844   0.732
 1154SOL    HW2 4362   0.440   4.844   0.798
 1155SOL     OW 4363   3.017   4.981   5.878
 1155SOL    HW1 4364   3.082   5.054   5.859
 1155SOL    HW2 4365   3.016   4.917   5.801
 1156SOL     OW 4366   4.318   1.759   5.339
 1156SOL    HW1 4367   4.235   1.750   5.283
 1156SOL    HW2 4368   4.390   1.802   5.285
 1157SOL     OW 4369   5.021   1.146   5.986
 1157SOL    HW1 4370   4.996   1.169   6.080
 1157SOL    HW2 4371   5.118   1.122   5.982
 1158SOL     OW 4372   6.776   5.127   4.907
 1158SOL    HW1 4373   6.767   5.105   5.004
 1158SOL    HW2 4374   6.802   5.044   4.857
 1159SOL     OW 4375   6.352   6.887   3.674
 1159SOL    HW1 4376   6.257   6.858   3.687
 1159SOL    HW2 4377   6.413   6.829   3.727
 1160SOL     OW 4378   4.367   4.907   1.437
 1160SOL    HW1 4379   4.394   4.997   1.403
 1160SOL    HW2 4380   4.272   4.909   1.467
 1161SOL     OW 4381   6.968   5.801   6.320
 1161SOL    HW1 4382   7.016   5.889   6.324
 1161SOL    HW2 4383   6.978   5.762   6.228
 1162SOL     OW 4384   2.158   2.228   6.500
 1162SOL    HW1 4385   2.155   2.194   6.406
 1162SOL    HW2 4386   2.220   2.171   6.554
 1163SOL     OW 4387   6.446   4.024   2.163
 1163SOL    HW1 4388   6.516   3.999   2.097
 1163SOL    HW2 4389   6.455   4.120   2.189
 1164SOL     OW 4390   4.744   2.266   4.085
 1164SOL    HW1 4391   4.807   2.277   4.162
 1164SOL    HW2 4392   4.659   2.222   4.116
 1165SOL     OW 4393   4.388   5.483   3.841
 1165SOL    HW1 4394   4.485   5.507   3.844
 1165SOL    HW2 4395   4.339   5.550   3.784
 1166SOL     OW 4396   2.684   6.507   0.230
 1166SOL    HW1 4397   2.698   6.513   0.131
 1166SOL    HW2 4398   2.612   6.440   0.250
 1167SOL     OW 4399   4.469   6.407   0.380
 1167SOL    HW1 4400   4.404   6.481   0.393
 1167SOL    HW2 4401   4.462   6.343   0.457
 1168SOL     OW 4402   5.781   2.947   1.367
 1168SOL    HW1 4403   5.685   2.947   1.340
 1168SOL    HW2 4404   5.817   2.854   1.363
 1169SOL     OW 4405   4.203   1.687   5.900
 1169SOL    HW1 4406   4.215   1.712   5.804
 1169SOL    HW2 4407   4.210   1.769   5.957
 1170SOL     OW 4408   5.284   6.993   2.939
 1170SOL    HW1 4409   5.346   0.041   2.898
 1170SOL    HW2 4410   5.322   6.902   2.927
 1171SOL     OW 4411   3.132   6.293   6.929
 1171SOL    HW1 4412   3.221   6.290   6.884
 1171SOL    HW2 4413   3.106   6.201   6.958
 1172SOL     OW 4414   4.414   4.299   0.927
 1172SOL    HW1 4415   4.378   4.292   0.835
 1172SOL    HW2 4416   4.442   4.394   0.945
 1173SOL     OW 4417   3.570   1.226   1.156
 1173SOL    HW1 4418   3.539   1.321   1.149
 1173SOL    HW2 4419   3.643   1.211   1.089
 1174SOL     OW 4420   3.149   3.922   1.497
 1174SOL    HW1 4421   3.226   3.882   1.546
 1174SOL    HW2 4422   3.068   3.920   1.554
 1175SOL     OW 4423   4.253   3.932   6.216
 1175SOL    HW1 4424   4.291   3.945   6.124
 1175SOL    HW2 4425   4.327   3.932   6.283
 1176SOL     OW 4426   5.072   3.546   0.453
 1176SOL    HW1 4427   5.057   3.478   0.525
 1176SOL    HW2 4428   5.041   3.636   0.486
 1177SOL     OW 4429   6.413   3.877   4.600
 1177SOL    HW1 4430   6.462   3.888   4.513
 1177SOL    HW2 4431   6.359   3.792   4.597
 1178SOL     OW 4432   3.428   4.250   0.382
 1178SOL    HW1 4433   3.445   4.240   0.480
 1178SOL    HW2 4434   3.514   4.267   0.334
 1179SOL     OW 4435   2.786   5.534   0.954
 1179SOL    HW1 4436   2.768   5.632   0.953
 1179SOL    HW2 4437   2.760   5.494   0.866
 1180SOL     OW 4438   2.443   6.236   4.036
 1180SOL    HW1 4439   2.499   6.279   4.107
 1180SOL    HW2 4440   2.375   6.177   4.078
 1181SOL     OW 4441   0.226   5.473   4.998
 1181SOL    HW1 4442   0.326   5.468   5.006
 1181SOL    HW2 4443   0.201   5.506   4.907
 1182SOL     OW 4444   5.538   5.349   3.799
 1182SOL    HW1 4445   5.564   5.443   3.775
 1182SOL    HW2 4446   5.547   5.291   3.719
 1183SOL     OW 4447   2.423   4.880   0.370
 1183SOL    HW1 4448   2.471   4.899   0.456
 1183SOL    HW2 4449   2.363   4.956   0.347
 1184SOL     OW 4450   0.098   1.532   5.074
 1184SOL    HW1 4451   0.177   1.471   5.082
 1184SOL    HW2 4452   0.070   1.538   4.979
 1185SOL     OW 4453   0.884   0.652   1.122
 1185SOL    HW1 4454   0.963   0.608   1.079
 1185SOL    HW2 4455   0.873   0.744   1.085
 1186SOL     OW 4456   5.161   5.916   5.499
 1186SOL    HW1 4457   5.081   5.966   5.530
 1186SOL    HW2 4458   5.211   5.970   5.431
 1187SOL     OW 4459   4.764   0.224   5.911
 1187SOL    HW1 4460   4.745   0.282   5.832
 1187SOL    HW2 4461   4.818   0.276   5.978
 1188SOL     OW 4462   3.433   6.132   5.966
 1188SOL    HW1 4463   3.432   6.212   5.906
 1188SOL    HW2 4464   3.342   6.091   5.968
 1189SOL     OW 4465   6.118   1.741   1.478
 1189SOL    HW1 4466   6.160   1.812   1.421
 1189SOL    HW2 4467   6.190   1.690   1.526
 1190SOL     OW 4468   3.696   5.704   3.772
 1190SOL    HW1 4469   3.689   5.803   3.757
 1190SOL    HW2 4470   3.787   5.682   3.806
 1191SOL     OW 4471   4.140   5.744   4.559
 1191SOL    HW1 4472   4.208   5.728   4.487
 1191SOL    HW2 4473   4.062   5.794   4.521
 1192SOL     OW 4474   5.190   4.512   2.422
 1192SOL    HW1 4475   5.241   4.590   2.460
 1192SOL    HW2 4476   5.228   4.427   2.459
 1193SOL     OW 4477   6.787   2.060   5.015
 1193SOL    HW1 4478   6.730   1.999   5.071
 1193SOL    HW2 4479   6.833   2.007   4.944
 1194SOL     OW 4480   5.682   6.932   1.604
 1194SOL    HW1 4481   5.753   6.943   1.673
 1194SOL    HW2 4482   5.621   6.857   1.630
 1195SOL     OW 4483   0.625   4.214   0.824
 1195SOL    HW1 4484   0.549   4.277   0.843
 1195SOL    HW2 4485   0.627   4.193   0.727
 1196SOL     OW 4486   6.585   5.007   3.327
 1196SOL    HW1 4487   6.500   4.955   3.333
 1196SOL    HW2 4488   6.582   5.065   3.246
 1197SOL     OW 4489   4.779   6.943   5.109
 1197SOL    HW1 4490   4.723   0.001   5.137
 1197SOL    HW2 4491   4.868   6.947   5.156
 1198SOL     OW 4492   1.381   3.083   3.131
 1198SOL    HW1 4493   1.418   3.163   3.178
 1198SOL    HW2 4494   1.453   3.014   3.122
 1199SOL     OW 4495   3.663   3.887   1.034
 1199SOL    HW1 4496   3.667   3.803   1.087
 1199SOL    HW2 4497   3.718   3.877   0.950
 1200SOL     OW 4498   3.649   4.120   3.837
 1200SOL    HW1 4499   3.662   4.143   3.933
 1200SOL    HW2 4500   3.568   4.063   3.826
 1201SOL     OW 4501   0.837   1.233   4.473
 1201SOL    HW1 4502   0.912   1.170   4.455
 1201SOL    HW2 4503   0.872   1.314   4.521
 1202SOL     OW 4504   0.406   5.702   5.846
 1202SOL    HW1 4505   0.425   5.789   5.801
 1202SOL    HW2 4506   0.439   5.627   5.789
 1203SOL     OW 4507   6.926   6.184   0.055
 1203SOL    HW1 4508   6.897   6.241   0.132
 1203SOL    HW2 4509   0.005   6.193   0.042
 1204SOL     OW 4510   4.461   1.397   1.610
 1204SOL    HW1 4511   4.413   1.372   1.525
 1204SOL    HW2 4512   4.441   1.330   1.681
 1205SOL     OW 4513   3.847   2.997   0.613
 1205SOL    HW1 4514   3.760   2.974   0.568
 1205SOL    HW2 4515   3.828   3.039   0.702
 1206SOL     OW 4516   2.540   2.807   5.359
 1206SOL    HW1 4517   2.603   2.833   5.432
 1206SOL    HW2 4518   2.531   2.883   5.294
 1207SOL     OW 4519   2.458   6.527   0.998
 1207SOL    HW1 4520   2.418   6.449   1.046
 1207SOL    HW2 4521   2.455   6.608   1.057
 1208SOL     OW 4522   3.518   3.456   1.161
 1208SOL    HW1 4523   3.580   3.534   1.157
 1208SOL    HW2 4524   3.461   3.461   1.243
 1209SOL     OW 4525   4.251   0.978   4.228
 1209SOL    HW1 4526   4.247   0.920   4.309
 1209SOL    HW2 4527   4.220   1.070   4.252
 1210SOL     OW 4528   3.419   6.994   3.523
 1210SOL    HW1 4529   3.499   0.034   3.533
 1210SOL    HW2 4530   3.440   6.920   3.459
 1211SOL     OW 4531   0.098   3.602   2.693
 1211SOL    HW1 4532   0.064   3.695   2.683
 1211SOL    HW2 4533   0.072   3.566   2.783
 1212SOL     OW 4534   6.175   0.525   0.260
 1212SOL    HW1 4535   6.253   0.584   0.281
 1212SOL    HW2 4536   6.093   0.561   0.305
 1213SOL     OW 4537   6.209   2.453   1.121
 1213SOL    HW1 4538   6.269   2.479   1.045
 1213SOL    HW2 4539   6.139   2.522   1.134
 1214SOL     OW 4540   1.276   2.835   6.840
 1214SOL    HW1 4541   1.265   2.934   6.836
 1214SOL    HW2 4542   1.187   2.792   6.852
 1215SOL     OW 4543   1.375   4.626   2.991
 1215SOL    HW1 4544   1.450   4.598   3.051
 1215SOL    HW2 4545   1.301   4.558   2.997
 1216SOL     OW 4546   5.113   0.271   1.024
 1216SOL    HW1 4547   5.165   0.275   0.939
 1216SOL    HW2 4548   5.053   0.351   1.031
 1217SOL     OW 4549   2.104   4.656   0.796
 1217SOL    HW1 4550   2.038   4.654   0.720
 1217SOL    HW2 4551   2.079   4.729   0.859
 1218SOL     OW 4552   1.438   3.868   4.776
 1218SOL    HW1 4553   1.507   3.927   4.734
 1218SOL    HW2 4554   1.347   3.893   4.742
 1219SOL     OW 4555   5.185   5.998   1.965
 1219SOL    HW1 4556   5.156   6.093   1.955
 1219SOL    HW2 4557   5.283   5.990   1.946
 1220SOL     OW 4558   0.650   4.416   3.126
 1220SOL    HW1 4559   0.598   4.441   3.044
 1220SOL    HW2 4560   0.636   4.485   3.197
 1221SOL     OW 4561   5.010   4.126   6.653
 1221SOL    HW1 4562   5.053   4.071   6.724
 1221SOL    HW2 4563   5.059   4.212   6.643
 1222SOL     OW 4564   6.768   0.598   0.073
 1222SOL    HW1 4565   6.783   0.677   0.132
 1222SOL    HW2 4566   6.782   0.624   6.997
 1223SOL     OW 4567   4.017   1.836   0.029
 1223SOL    HW1 4568   4.007   1.745   0.070
 1223SOL    HW2 4569   3.981   1.905   0.092
 1224SOL     OW 4570   3.628   5.810   0.851
 1224SOL    HW1 4571   3.620   5.749   0.930
 1224SOL    HW2 4572   3.537   5.833   0.817
 1225SOL     OW 4573   2.932   3.175   6.017
 1225SOL    HW1 4574   3.018   3.223   6.034
 1225SOL    HW2 4575   2.901   3.194   5.925
 1226SOL     OW 4576   2.732   6.284   1.681
 1226SOL    HW1 4577   2.768   6.220   1.613
 1226SOL    HW2 4578   2.640   6.255   1.709
 1227SOL     OW 4579   6.846   4.646   6.016
 1227SOL    HW1 4580   6.934   4.692   6.009
 1227SOL    HW2 4581   6.845   4.588   6.097
 1228SOL     OW 4582   3.319   1.706   6.504
 1228SOL    HW1 4583   3.323   1.687   6.406
 1228SOL    HW2 4584   3.255   1.782   6.520
 1229SOL     OW 4585   3.784   5.112   5.450
 1229SOL    HW1 4586   3.802   5.178   5.377
 1229SOL    HW2 4587   3.685   5.106   5.466
 1230SOL     OW 4588   4.465   6.759   2.591
 1230SOL    HW1 4589   4.504   6.667   2.581
 1230SOL    HW2 4590   4.366   6.752   2.602
 1231SOL     OW 4591   1.757   2.919   4.588
 1231SOL    HW1 4592   1.745   2.974   4.671
 1231SOL    HW2 4593   1.669   2.912   4.540
 1232SOL     OW 4594   0.520   1.830   4.930
 1232SOL    HW1 4595   0.491   1.735   4.941
 1232SOL    HW2 4596   0.574   1.839   4.846
 1233SOL     OW 4597   0.899   4.458   4.823
 1233SOL    HW1 4598   0.911   4.460   4.922
 1233SOL    HW2 4599   0.871   4.548   4.790
 1234SOL     OW 4600   6.501   3.932   5.150
 1234SOL    HW1 4601   6.537   3.851   5.197
 1234SOL    HW2 4602   6.482   3.909   5.055
 1235SOL     OW 4603   0.250   6.047   2.377
 1235SOL    HW1 4604   0.348   6.037   2.397
 1235SOL    HW2 4605   0.235   6.032   2.279
 1236SOL     OW 4606   4.539   1.574   6.898
 1236SOL    HW1 4607   4.540   1.514   6.978
 1236SOL    HW2 4608   4.561   1.667   6.925
 1237SOL     OW 4609   2.111   5.090   5.378
 1237SOL    HW1 4610   2.161   5.026   5.320
 1237SOL    HW2 4611   2.154   5.094   5.468
 1238SOL     OW 4612   2.599   1.459   0.230
 1238SOL    HW1 4613   2.610   1.364   0.259
 1238SOL    HW2 4614   2.664   1.479   0.157
 1239SOL     OW 4615   0.152   6.940   5.620
 1239SOL    HW1 4616   0.080   6.935   5.551
 1239SOL    HW2 4617   0.197   0.010   5.615
 1240SOL     OW 4618   5.255   6.398   1.761
 1240SOL    HW1 4619   5.338   6.454   1.754
 1240SOL    HW2 4620   5.220   6.402   1.855
 1241SOL     OW 4621   5.469   3.805   4.037
 1241SOL    HW1 4622   5.484   3.890   4.087
 1241SOL    HW2 4623   5.540   3.794   3.967
 1242SOL     OW 4624   0.432   3.362   1.848
 1242SOL    HW1 4625   0.379   3.445   1.864
 1242SOL    HW2 4626   0.419   3.332   1.754
 1243SOL     OW 4627   0.003   0.075   4.669
 1243SOL    HW1 4628   6.969   0.102   4.749
 1243SOL    HW2 4629   0.094   0.043   4.699
 1244SOL     OW 4630   6.436   0.040   3.967
 1244SOL    HW1 4631   6.394   6.976   4.002
 1244SOL    HW2 4632   6.509   0.069   4.029
 1245SOL     OW 4633   4.660   5.192   0.308
 1245SOL    HW1 4634   4.650   5.102   0.267
 1245SOL    HW2 4635   4.704   5.183   0.398
 1246SOL     OW 4636   2.357   6.345   1.608
 1246SOL    HW1 4637   2.383   6.317   1.516
 1246SOL    HW2 4638   2.417   6.299   1.674
 1247SOL     OW 4639   2.182   0.672   6.833
 1247SOL    HW1 4640   2.203   0.768   6.821
 1247SOL    HW2 4641   2.088   0.654   6.804
 1248SOL     OW 4642   2.181   0.239   4.975
 1248SOL    HW1 4643   2.131   0.207   4.894
 1248SOL    HW2 4644   2.186   0.339   4.972
 1249SOL     OW 4645   5.800   2.224   2.646
 1249SOL    HW1 4646   5.887   2.269   2.627
 1249SOL    HW2 4647   5.784   2.222   2.745
 1250SOL     OW 4648   6.194   4.914   4.251
 1250SOL    HW1 4649   6.264   4.960   4.305
 1250SOL    HW2 4650   6.134   4.861   4.312
 1251SOL     OW 4651   3.222   0.581   4.426
 1251SOL    HW1 4652   3.190   0.492   4.395
 1251SOL    HW2 4653   3.231   0.643   4.348
 1252SOL     OW 4654   3.841   3.460   4.505
 1252SOL    HW1 4655   3.930   3.452   4.549
 1252SOL    HW2 4656   3.802   3.550   4.523
 1253SOL     OW 4657   3.569   5.392   2.098
 1253SOL    HW1 4658   3.574   5.333   2.179
 1253SOL    HW2 4659   3.515   5.473   2.120
 1254SOL     OW 4660   0.982   2.372   2.739
 1254SOL    HW1 4661   0.916   2.377   2.814
 1254SOL    HW2 4662   0.948   2.424   2.661
 1255SOL     OW 4663   6.287   2.004   4.948
 1255SOL    HW1 4664   6.228   1.933   4.909
 1255SOL    HW2 4665   6.355   1.963   5.008
 1256SOL     OW 4666   0.011   6.249   3.657
 1256SOL    HW1 4667   6.993   6.164   3.622
 1256SOL    HW2 4668   0.110   6.252   3.641
 1257SOL     OW 4669   0.227   6.764   4.573
 1257SOL    HW1 4670   0.133   6.762   4.539
 1257SOL    HW2 4671   0.227   6.747   4.671
 1258SOL     OW 4672   1.495   5.402   3.683
 1258SOL    HW1 4673   1.415   5.350   3.655
 1258SOL    HW2 4674   1.520   5.376   3.776
 1259SOL     OW 4675   3.879   1.202   4.003
 1259SOL    HW1 4676   3.971   1.240   4.002
 1259SOL    HW2 4677   3.865   1.151   4.088
 1260SOL     OW 4678   1.678   1.711   6.977
 1260SOL    HW1 4679   1.640   1.757   6.897
 1260SOL    HW2 4680   1.709   1.779   0.024
 1261SOL     OW 4681   0.594   5.414   6.526
 1261SOL    HW1 4682   0.523   5.435   6.459
 1261SOL    HW2 4683   0.684   5.420   6.483
 1262SOL     OW 4684   4.889   4.068   1.412
 1262SOL    HW1 4685   4.940   4.014   1.478
 1262SOL    HW2 4686   4.842   4.007   1.348
 1263SOL     OW 4687   0.172   1.618   2.391
 1263SOL    HW1 4688   0.080   1.659   2.391
 1263SOL    HW2 4689   0.213   1.632   2.481
 1264SOL     OW 4690   6.768   4.178   0.441
 1264SOL    HW1 4691   6.735   4.111   0.375
 1264SOL    HW2 4692   6.755   4.143   0.534
 1265SOL     OW 4693   5.718   4.861   4.694
 1265SOL    HW1 4694   5.781   4.931   4.660
 1265SOL    HW2 4695   5.748   4.830   4.784
 1266SOL     OW 4696   0.349   1.148   4.206
 1266SOL    HW1 4697   0.407   1.177   4.129
 1266SOL    HW2 4698   0.376   1.057   4.235
 1267SOL     OW 4699   6.065   1.317   0.986
 1267SOL    HW1 4700   5.985   1.300   0.928
 1267SOL    HW2 4701   6.087   1.415   0.983
 1268SOL     OW 4702   2.673   3.019   6.293
 1268SOL    HW1 4703   2.752   3.060   6.339
 1268SOL    HW2 4704   2.622   2.964   6.359
 1269SOL     OW 4705   5.975   3.529   4.288
 1269SOL    HW1 4706   5.989   3.594   4.214
 1269SOL    HW2 4707   5.878   3.502   4.290
 1270SOL     OW 4708   1.646   4.503   2.534
 1270SOL    HW1 4709   1.670   4.582   2.589
 1270SOL    HW2 4710   1.696   4.506   2.447
 1271SOL     OW 4711   3.842   1.796   2.687
 1271SOL    HW1 4712   3.924   1.738   2.687
 1271SOL    HW2 4713   3.868   1.890   2.667
 1272SOL     OW 4714   5.562   5.007   6.765
 1272SOL    HW1 4715   5.621   4.937   6.725
 1272SOL    HW2 4716   5.471   4.970   6.780
 1273SOL     OW 4717   1.010   3.860   6.053
 1273SOL    HW1 4718   1.016   3.902   6.144
 1273SOL    HW2 4719   1.078   3.901   5.992
 1274SOL     OW 4720   0.141   4.361   0.937
 1274SOL    HW1 4721   0.068   4.410   0.890
 1274SOL    HW2 4722   0.115   4.343   1.032
 1275SOL     OW 4723   3.376   1.860   3.447
 1275SOL    HW1 4724   3.441   1.818   3.510
 1275SOL    HW2 4725   3.421   1.933   3.396
 1276SOL     OW 4726   5.897   4.907   5.149
 1276SOL    HW1 4727   5.899   4.841   5.074
 1276SOL    HW2 4728   5.851   4.991   5.118
 1277SOL     OW 4729   2.203   5.367   6.203
 1277SOL    HW1 4730   2.143   5.290   6.224
 1277SOL    HW2 4731   2.280   5.368   6.268
 1278SOL     OW 4732   1.267   0.070   4.853
 1278SOL    HW1 4733   1.171   0.094   4.866
 1278SOL    HW2 4734   1.314   0.069   4.942
 1279SOL     OW 4735   1.915   5.066   6.760
 1279SOL    HW1 4736   1.953   5.148   6.718
 1279SOL    HW2 4737   1.989   5.001   6.777
 1280SOL     OW 4738   4.666   6.411   4.025
 1280SOL    HW1 4739   4.581   6.358   4.037
 1280SOL    HW2 4740   4.742   6.348   4.008
 1281SOL     OW 4741   2.678   6.261   3.027
 1281SOL    HW1 4742   2.588   6.218   3.021
 1281SOL    HW2 4743   2.741   6.213   2.966
 1282SOL     OW 4744   6.330   2.006   6.267
 1282SOL    HW1 4745   6.259   2.038   6.329
 1282SOL    HW2 4746   6.289   1.984   6.178
 1283SOL     OW 4747   6.772   2.962   5.082
 1283SOL    HW1 4748   6.807   2.954   5.175
 1283SOL    HW2 4749   6.738   2.873   5.051
 1284SOL     OW 4750   4.396   1.929   1.905
 1284SOL    HW1 4751   4.339   1.873   1.845
 1284SOL    HW2 4752   4.480   1.955   1.857
 1285SOL     OW 4753   4.852   1.554   5.273
 1285SOL    HW1 4754   4.769   1.554   5.329
 1285SOL    HW2 4755   4.831   1.592   5.183
 1286SOL     OW 4756   4.574   2.912   0.726
 1286SOL    HW1 4757   4.483   2.875   0.744
 1286SOL    HW2 4758   4.622   2.927   0.812
 1287SOL     OW 4759   5.354   4.273   5.552
 1287SOL    HW1 4760   5.271   4.268   5.608
 1287SOL    HW2 4761   5.432   4.291   5.611
 1288SOL     OW 4762   3.709   3.845   6.181
 1288SOL    HW1 4763   3.717   3.752   6.144
 1288SOL    HW2 4764   3.714   3.840   6.281
 1289SOL     OW 4765   0.668   6.977   1.293
 1289SOL    HW1 4766   0.634   0.049   1.312
 1289SOL    HW2 4767   0.628   6.944   1.207
 1290SOL     OW 4768   1.431   7.006   0.422
 1290SOL    HW1 4769   1.447   6.908   0.433
 1290SOL    HW2 4770   1.397   0.025   0.508
 1291SOL     OW 4771   0.441   4.338   4.000
 1291SOL    HW1 4772   0.443   4.322   3.901
 1291SOL    HW2 4773   0.375   4.411   4.020
 1292SOL     OW 4774   1.034   6.075   2.444
 1292SOL    HW1 4775   1.009   5.984   2.413
 1292SOL    HW2 4776   1.007   6.143   2.375
 1293SOL     OW 4777   2.423   2.278   6.952
 1293SOL    HW1 4778   2.339   2.236   6.917
 1293SOL    HW2 4779   2.403   2.372   6.980
 1294SOL     OW 4780   0.188   3.172   5.703
 1294SOL    HW1 4781   0.221   3.155   5.610
 1294SOL    HW2 4782   0.230   3.255   5.739
 1295SOL     OW 4783   0.364   3.598   0.995
 1295SOL    HW1 4784   0.290   3.613   1.061
 1295SOL    HW2 4785   0.452   3.602   1.042
 1296SOL     OW 4786   4.791   6.691   5.274
 1296SOL    HW1 4787   4.754   6.679   5.366
 1296SOL    HW2 4788   4.756   6.776   5.235
 1297SOL     OW 4789   0.785   6.798   0.992
 1297SOL    HW1 4790   0.793   6.897   0.988
 1297SOL    HW2 4791   0.799   6.767   1.086
 1298SOL     OW 4792   4.805   6.007   3.187
 1298SOL    HW1 4793   4.864   5.986   3.109
 1298SOL    HW2 4794   4.737   5.935   3.198
 1299SOL     OW 4795   2.533   2.596   3.702
 1299SOL    HW1 4796   2.497   2.627   3.790
 1299SOL    HW2 4797   2.485   2.644   3.628
 1300SOL     OW 4798   1.883   3.056   0.895
 1300SOL    HW1 4799   1.843   3.130   0.840
 1300SOL    HW2 4800   1.943   3.095   0.964
 1301SOL     OW 4801   0.687   6.435   1.583
 1301SOL    HW1 4802   0.643   6.386   1.509
 1301SOL    HW2 4803   0.751   6.502   1.546
 1302SOL     OW 4804   5.186   7.002   5.423
 1302SOL    HW1 4805   5.160   6.918   5.471
 1302SOL    HW2 4806   5.105   0.040   5.411
 1303SOL     OW 4807   4.269   1.151   1.131
 1303SOL    HW1 4808   4.176   1.186   1.119
 1303SOL    HW2 4809   4.266   1.051   1.141
 1304SOL     OW 4810   2.085   0.173   0.659
 1304SOL    HW1 4811   2.053   0.082   0.630
 1304SOL    HW2 4812   2.006   0.228   0.688
 1305SOL     OW 4813   6.106   3.997   0.663
 1305SOL    HW1 4814   6.131   3.901   0.672
 1305SOL    HW2 4815   6.034   4.019   0.729
 1306SOL     OW 4816   1.142   5.938   4.622
 1306SOL    HW1 4817   1.115   6.004   4.692
 1306SOL    HW2 4818   1.152   5.984   4.534
 1307SOL     OW 4819   2.189   4.179   4.199
 1307SOL    HW1 4820   2.189   4.146   4.294
 1307SOL    HW2 4821   2.282   4.199   4.170
 1308SOL     OW 4822   6.958   6.940   6.120
 1308SOL    HW1 4823   6.890   7.004   6.083
 1308SOL    HW2 4824   6.959   6.857   6.065
 1309SOL     OW 4825   5.858   5.011   5.730
 1309SOL    HW1 4826   5.944   5.049   5.696
 1309SOL    HW2 4827   5.786   5.028   5.663
 1310SOL     OW 4828   0.189   3.667   3.094
 1310SOL    HW1 4829   0.237   3.680   3.181
 1310SOL    HW2 4830   0.158   3.572   3.087
 1311SOL     OW 4831   0.041   6.081   6.114
 1311SOL    HW1 4832   0.053   6.064   6.212
 1311SOL    HW2 4833   0.003   6.000   6.070
 1312SOL     OW 4834   1.525   6.751   6.991
 1312SOL    HW1 4835   1.527   6.811   6.912
 1312SOL    HW2 4836   1.460   6.787   0.039
 1313SOL     OW 4837   0.173   5.047   2.807
 1313SOL    HW1 4838   0.242   5.079   2.742
 1313SOL    HW2 4839   0.127   4.966   2.771
 1314SOL     OW 4840   3.731   1.384   4.700
 1314SOL    HW1 4841   3.775   1.470   4.726
 1314SOL    HW2 4842   3.715   1.329   4.782
 1315SOL     OW 4843   6.887   1.299   2.899
 1315SOL    HW1 4844   6.957   1.229   2.893
 1315SOL    HW2 4845   6.929   1.389   2.891
 1316SOL     OW 4846   3.636   0.046   5.787
 1316SOL    HW1 4847   3.727   0.046   5.826
 1316SOL    HW2 4848   3.568   0.040   5.860
 1317SOL     OW 4849   1.381   4.162   6.139
 1317SOL    HW1 4850   1.401   4.096   6.212
 1317SOL    HW2 4851   1.413   4.252   6.166
 1318SOL     OW 4852   1.248   2.595   0.572
 1318SOL    HW1 4853   1.300   2.659   0.629
 1318SOL    HW2 4854   1.164   2.569   0.621
 1319SOL     OW 4855   6.786   5.876   0.948
 1319SOL    HW1 4856   6.791   5.881   0.848
 1319SOL    HW2 4857   6.776   5.969   0.985
 1320SOL     OW 4858   3.746   3.972   0.102
 1320SOL    HW1 4859   3.678   3.947   0.033
 1320SOL    HW2 4860   3.728   4.065   0.134
 1321SOL     OW 4861   5.027   3.201   6.104
 1321SOL    HW1 4862   5.027   3.209   6.004
 1321SOL    HW2 4863   5.042   3.105   6.129
 1322SOL     OW 4864   3.516   1.557   4.346
 1322SOL    HW1 4865   3.573   1.612   4.407
 1322SOL    HW2 4866   3.421   1.588   4.353
 1323SOL     OW 4867   3.417   6.859   6.414
 1323SOL    HW1 4868   3.362   6.852   6.497
 1323SOL    HW2 4869   3.501   6.807   6.426
 1324SOL     OW 4870   0.336   3.103   6.587
 1324SOL    HW1 4871   0.343   3.161   6.668
 1324SOL    HW2 4872   0.359   3.158   6.506
 1325SOL     OW 4873   3.729   6.392   4.952
 1325SOL    HW1 4874   3.735   6.392   5.051
 1325SOL    HW2 4875   3.807   6.344   4.913
 1326SOL     OW 4876   4.892   3.622   5.389
 1326SOL    HW1 4877   4.856   3.631   5.296
 1326SOL    HW2 4878   4.980   3.668   5.396
 1327SOL     OW 4879   1.359   6.265   0.961
 1327SOL    HW1 4880   1.421   6.343   0.961
 1327SOL    HW2 4881   1.311   6.260   0.873
 1328SOL     OW 4882   2.346   3.413   0.100
 1328SOL    HW1 4883   2.359   3.358   0.017
 1328SOL    HW2 4884   2.414   3.388   0.168
 1329SOL     OW 4885   0.817   2.443   2.928
 1329SOL    HW1 4886   0.743   2.379   2.912
 1329SOL    HW2 4887   0.779   2.534   2.947
 1330SOL     OW 4888   1.704   1.839   1.688
 1330SOL    HW1 4889   1.748   1.905   1.629
 1330SOL    HW2 4890   1.744   1.748   1.673
 1331SOL     OW 4891   4.799   2.749   3.288
 1331SOL    HW1 4892   4.873   2.681   3.291
 1331SOL    HW2 4893   4.717   2.710   3.330
 1332SOL     OW 4894   2.860   6.964   1.074
 1332SOL    HW1 4895   2.912   0.030   1.075
 1332SOL    HW2 4896   2.763   6.986   1.061
 1333SOL     OW 4897   2.967   3.546   3.033
 1333SOL    HW1 4898   2.940   3.458   3.074
 1333SOL    HW2 4899   2.959   3.618   3.102
 1334SOL     OW 4900   6.561   1.475   3.872
 1334SOL    HW1 4901   6.522   1.506   3.959
 1334SOL    HW2 4902   6.660   1.467   3.881
 1335SOL     OW 4903   2.439   2.076   2.345
 1335SOL    HW1 4904   2.464   2.140   2.418
 1335SOL    HW2 4905   2.515   2.012   2.330
 1336SOL     OW 4906   2.833   1.633   4.845
 1336SOL    HW1 4907   2.853   1.645   4.942
 1336SOL    HW2 4908   2.815   1.722   4.803
 1337SOL     OW 4909   0.936   1.649   2.814
 1337SOL    HW1 4910   0.925   1.733   2.761
 1337SOL    HW2 4911   0.861   1.639   2.879
 1338SOL     OW 4912   6.775   3.049   4.680
 1338SOL    HW1 4913   6.768   2.957   4.641
 1338SOL    HW2 4914   6.684   3.080   4.707
 1339SOL     OW 4915   6.291   1.969   0.017
 1339SOL    HW1 4916   6.293   1.889   0.076
 1339SOL    HW2 4917   6.382   1.985   6.998
 1340SOL     OW 4918   5.146   1.350   2.635
 1340SOL    HW1 4919   5.136   1.365   2.733
 1340SOL    HW2 4920   5.198   1.426   2.595
 1341SOL     OW 4921   4.618   6.635   6.657
 1341SOL    HW1 4922   4.542   6.682   6.613
 1341SOL    HW2 4923   4.585   6.586   6.737
 1342SOL     OW 4924   2.839   5.400   6.486
 1342SOL    HW1 4925   2.851   5.442   6.577
 1342SOL    HW2 4926   2.868   5.466   6.416
 1343SOL     OW 4927   5.474   5.849   2.791
 1343SOL    HW1 4928   5.471   5.921   2.861
 1343SOL    HW2 4929   5.381   5.830   2.760
 1344SOL     OW 4930   0.262   5.982   4.548
 1344SOL    HW1 4931   0.221   6.073   4.552
 1344SOL    HW2 4932   0.247   5.942   4.458
 1345SOL     OW 4933   0.852   5.756   2.737
 1345SOL    HW1 4934   0.945   5.785   2.718
 1345SOL    HW2 4935   0.842   5.659   2.715
 1346SOL     OW 4936   1.827   5.476   5.242
 1346SOL    HW1 4937   1.729   5.488   5.257
 1346SOL    HW2 4938   1.861   5.399   5.296
 1347SOL     OW 4939   6.845   0.080   5.583
 1347SOL    HW1 4940   6.781   0.094   5.507
 1347SOL    HW2 4941   6.921   0.023   5.552
 1348SOL     OW 4942   6.507   6.386   4.487
 1348SOL    HW1 4943   6.460   6.473   4.470
 1348SOL    HW2 4944   6.605   6.403   4.496
 1349SOL     OW 4945   5.478   2.876   5.099
 1349SOL    HW1 4946   5.405   2.930   5.140
 1349SOL    HW2 4947   5.462   2.779   5.117
 1350SOL     OW 4948   5.252   5.160   5.325
 1350SOL    HW1 4949   5.220   5.252   5.347
 1350SOL    HW2 4950   5.217   5.094   5.392
 1351SOL     OW 4951   5.603   2.046   3.458
 1351SOL    HW1 4952   5.695   2.052   3.499
 1351SOL    HW2 4953   5.546   2.120   3.493
 1352SOL     OW 4954   6.322   5.831   3.976
 1352SOL    HW1 4955   6.374   5.822   3.890
 1352SOL    HW2 4956   6.280   5.922   3.978
 1353SOL     OW 4957   0.649   2.249   0.117
 1353SOL    HW1 4958   0.602   2.261   0.204
 1353SOL    HW2 4959   0.697   2.334   0.093
 1354SOL     OW 4960   0.439   4.538   1.767
 1354SOL    HW1 4961   0.464   4.442   1.756
 1354SOL    HW2 4962   0.341   4.549   1.748
 1355SOL     OW 4963   6.013   3.609   4.589
 1355SOL    HW1 4964   6.034   3.542   4.661
 1355SOL    HW2 4965   5.915   3.606   4.569
 1356SOL     OW 4966   3.144   2.997   2.124
 1356SOL    HW1 4967   3.127   2.961   2.216
 1356SOL    HW2 4968   3.222   2.951   2.083
 1357SOL     OW 4969   0.079   4.406   6.363
 1357SOL    HW1 4970   0.137   4.466   6.418
 1357SOL    HW2 4971   0.126   4.384   6.277
 1358SOL     OW 4972   5.788   6.475   6.670
 1358SOL    HW1 4973   5.727   6.554   6.677
 1358SOL    HW2 4974   5.880   6.500   6.698
 1359SOL     OW 4975   5.775   4.856   2.818
 1359SOL    HW1 4976   5.825   4.819   2.739
 1359SOL    HW2 4977   5.784   4.955   2.820
 1360SOL     OW 4978   2.842   3.672   0.268
 1360SOL    HW1 4979   2.749   3.650   0.298
 1360SOL    HW2 4980   2.867   3.612   0.192
 1361SOL     OW 4981   6.196   4.629   5.262
 1361SOL    HW1 4982   6.215   4.680   5.346
 1361SOL    HW2 4983   6.260   4.552   5.254
 1362SOL     OW 4984   3.948   3.932   3.329
 1362SOL    HW1 4985   4.031   3.968   3.287
 1362SOL    HW2 4986   3.972   3.875   3.407
 1363SOL     OW 4987   0.301   4.952   4.533
 1363SOL    HW1 4988   0.303   4.934   4.435
 1363SOL    HW2 4989   0.377   5.013   4.557
 1364SOL     OW 4990   4.810   4.148   0.428
 1364SOL    HW1 4991   4.853   4.204   0.499
 1364SOL    HW2 4992   4.813   4.197   0.341
 1365SOL     OW 4993   0.174   4.398   6.090
 1365SOL    HW1 4994   0.101   4.337   6.059
 1365SOL    HW2 4995   0.262   4.353   6.078
 1366SOL     OW 4996   1.732   5.927   6.745
 1366SOL    HW1 4997   1.725   5.941   6.646
 1366SOL    HW2 4998   1.680   5.846   6.771
 1367SOL     OW 4999   2.333   6.923   3.253
 1367SOL    HW1 5000   2.299   6.886   3.340
 1367SOL    HW2 5001   2.288   6.876   3.177
 1368SOL     OW 5002   5.410   6.489   3.716
 1368SOL    HW1 5003   5.377   6.552   3.645
 1368SOL    HW2 5004   5.458   6.412   3.672
 1369SOL     OW 5005   1.873   6.527   3.011
 1369SOL    HW1 5006   1.963   6.569   3.025
 1369SOL    HW2 5007   1.833   6.502   3.100
 1370SOL     OW 5008   3.715   1.359   1.358
 1370SOL    HW1 5009   3.631   1.310   1.334
 1370SOL    HW2 5010   3.744   1.415   1.280
 1371SOL     OW 5011   5.112   1.676   4.018
 1371SOL    HW1 5012   5.124   1.744   3.946
 1371SOL    HW2 5013   5.172   1.598   4.001
 1372SOL     OW 5014   1.673   2.677   0.746
 1372SOL    HW1 5015   1.722   2.592   0.762
 1372SOL    HW2 5016   1.738   2.754   0.748
 1373SOL     OW 5017   6.255   4.018   0.027
 1373SOL    HW1 5018   6.240   4.112   7.016
 1373SOL    HW2 5019   6.184   3.991   0.092
 1374SOL     OW 5020   3.807   1.910   0.495
 1374SOL    HW1 5021   3.780   2.006   0.504
 1374SOL    HW2 5022   3.758   1.869   0.417
 1375SOL     OW 5023   0.339   4.838   5.984
 1375SOL    HW1 5024   0.332   4.899   6.063
 1375SOL    HW2 5025   0.404   4.877   5.919
 1376SOL     OW 5026   4.917   3.540   3.924
 1376SOL    HW1 5027   4.993   3.515   3.984
 1376SOL    HW2 5028   4.851   3.465   3.921
 1377SOL     OW 5029   6.590   4.253   5.392
 1377SOL    HW1 5030   6.522   4.184   5.414
 1377SOL    HW2 5031   6.565   4.300   5.308
 1378SOL     OW 5032   6.215   2.275   4.891
 1378SOL    HW1 5033   6.164   2.232   4.817
 1378SOL    HW2 5034   6.261   2.205   4.946
 1379SOL     OW 5035   3.214   0.190   2.188
 1379SOL    HW1 5036   3.257   0.188   2.278
 1379SOL    HW2 5037   3.116   0.176   2.197
 1380SOL     OW 5038   0.147   0.422   2.012
 1380SOL    HW1 5039   0.180   0.376   2.095
 1380SOL    HW2 5040   0.192   0.511   2.002
 1381SOL     OW 5041   5.203   2.831   0.064
 1381SOL    HW1 5042   5.294   2.793   0.049
 1381SOL    HW2 5043   5.179   2.824   0.161
 1382SOL     OW 5044   5.358   4.432   0.148
 1382SOL    HW1 5045   5.282   4.372   0.120
 1382SOL    HW2 5046   5.436   4.376   0.176
 1383SOL     OW 5047   0.966   1.202   0.405
 1383SOL    HW1 5048   0.945   1.109   0.436
 1383SOL    HW2 5049   0.899   1.265   0.444
 1384SOL     OW 5050   4.056   1.179   2.921
 1384SOL    HW1 5051   4.027   1.273   2.943
 1384SOL    HW2 5052   4.007   1.115   2.980
 1385SOL     OW 5053   0.557   2.976   2.997
 1385SOL    HW1 5054   0.465   2.972   2.957
 1385SOL    HW2 5055   0.598   3.065   2.978
 1386SOL     OW 5056   2.178   1.785   4.358
 1386SOL    HW1 5057   2.090   1.833   4.360
 1386SOL    HW2 5058   2.186   1.734   4.272
 1387SOL     OW 5059   3.820   0.481   3.654
 1387SOL    HW1 5060   3.748   0.479   3.724
 1387SOL    HW2 5061   3.888   0.551   3.678
 1388SOL     OW 5062   6.963   6.523   4.253
 1388SOL    HW1 5063   6.998   6.581   4.180
 1388SOL    HW2 5064   6.865   6.539   4.264
 1389SOL     OW 5065   0.424   1.036   3.762
 1389SOL    HW1 5066   0.520   1.046   3.737
 1389SOL    HW2 5067   0.368   1.094   3.704
 1390SOL     OW 5068   4.333   1.767   6.410
 1390SOL    HW1 5069   4.351   1.768   6.508
 1390SOL    HW2 5070   4.259   1.831   6.389
 1391SOL     OW 5071   5.954   1.775   5.880
 1391SOL    HW1 5072   5.914   1.860   5.846
 1391SOL    HW2 5073   5.972   1.783   5.978
 1392SOL     OW 5074   4.787   5.846   5.733
 1392SOL    HW1 5075   4.804   5.765   5.677
 1392SOL    HW2 5076   4.827   5.926   5.689
 1393SOL     OW 5077   5.937   3.053   6.988
 1393SOL    HW1 5078   5.874   2.997   0.022
 1393SOL    HW2 5079   5.929   3.148   7.016
 1394SOL     OW 5080   3.743   6.475   3.962
 1394SOL    HW1 5081   3.839   6.484   3.991
 1394SOL    HW2 5082   3.684   6.508   4.035
 1395SOL     OW 5083   0.216   4.082   2.659
 1395SOL    HW1 5084   0.314   4.076   2.674
 1395SOL    HW2 5085   0.197   4.091   2.561
 1396SOL     OW 5086   1.926   6.987   4.470
 1396SOL    HW1 5087   1.948   6.946   4.558
 1396SOL    HW2 5088   2.010   7.017   4.425
 1397SOL     OW 5089   0.279   6.228   4.892
 1397SOL    HW1 5090   0.338   6.200   4.968
 1397SOL    HW2 5091   0.324   6.203   4.805
 1398SOL     OW 5092   1.749   1.086   1.365
 1398SOL    HW1 5093   1.698   1.003   1.340
 1398SOL    HW2 5094   1.846   1.073   1.344
 1399SOL     OW 5095   4.314   0.544   0.467
 1399SOL    HW1 5096   4.383   0.616   0.465
 1399SOL    HW2 5097   4.265   0.542   0.379
 1400SOL     OW 5098   6.577   0.874   4.346
 1400SOL    HW1 5099   6.665   0.844   4.384
 1400SOL    HW2 5100   6.561   0.828   4.258
 1401SOL     OW 5101   5.517   0.051   3.945
 1401SOL    HW1 5102   5.593   7.014   3.978
 1401SOL    HW2 5103   5.477   0.100   4.023
 1402SOL     OW 5104   5.885   4.292   7.001
 1402SOL    HW1 5105   5.936   4.292   0.068
 1402SOL    HW2 5106   5.910   4.211   6.947
 1403SOL     OW 5107   2.831   3.175   0.635
 1403SOL    HW1 5108   2.850   3.273   0.623
 1403SOL    HW2 5109   2.749   3.164   0.691
 1404SOL     OW 5110   4.500   0.328   1.127
 1404SOL    HW1 5111   4.491   0.273   1.045
 1404SOL    HW2 5112   4.558   0.408   1.109
 1405SOL     OW 5113   1.544   3.492   0.792
 1405SOL    HW1 5114   1.605   3.570   0.809
 1405SOL    HW2 5115   1.488   3.476   0.874
 1406SOL     OW 5116   2.451   4.134   1.670
 1406SOL    HW1 5117   2.368   4.078   1.674
 1406SOL    HW2 5118   2.462   4.184   1.756
 1407SOL     OW 5119   0.839   3.477   2.254
 1407SOL    HW1 5120   0.745   3.496   2.283
 1407SOL    HW2 5121   0.870   3.391   2.295
 1408SOL     OW 5122   6.243   6.714   6.913
 1408SOL    HW1 5123   6.177   6.649   6.949
 1408SOL    HW2 5124   6.336   6.685   6.938
 1409SOL     OW 5125   6.813   1.091   5.467
 1409SOL    HW1 5126   6.910   1.083   5.492
 1409SOL    HW2 5127   6.793   1.186   5.443
 1410SOL     OW 5128   2.239   3.084   6.466
 1410SOL    HW1 5129   2.321   3.114   6.418
 1410SOL    HW2 5130   2.162   3.143   6.441
 1411SOL     OW 5131   3.548   6.052   6.698
 1411SOL    HW1 5132   3.647   6.037   6.698
 1411SOL    HW2 5133   3.508   6.015   6.615
 1412SOL     OW 5134   0.584   3.515   0.792
 1412SOL    HW1 5135   0.573   3.614   0.783
 1412SOL    HW2 5136   0.555   3.486   0.883
 1413SOL     OW 5137   1.457   1.897   4.692
 1413SOL    HW1 5138   1.457   1.856   4.601
 1413SOL    HW2 5139   1.545   1.883   4.735
 1414SOL     OW 5140   1.121   3.014   1.956
 1414SOL    HW1 5141   1.131   3.110   1.930
 1414SOL    HW2 5142   1.128   2.957   1.874
 1415SOL     OW 5143   2.540   1.677   4.681
 1415SOL    HW1 5144   2.526   1.709   4.587
 1415SOL    HW2 5145   2.612   1.732   4.724
 1416SOL     OW 5146   4.139   0.620   5.077
 1416SOL    HW1 5147   4.190   0.705   5.086
 1416SOL    HW2 5148   4.117   0.584   5.168
 1417SOL     OW 5149   3.346   3.503   5.930
 1417SOL    HW1 5150   3.371   3.493   6.026
 1417SOL    HW2 5151   3.428   3.524   5.877
 1418SOL     OW 5152   3.623   3.945   0.628
 1418SOL    HW1 5153   3.677   3.875   0.674
 1418SOL    HW2 5154   3.664   4.035   0.645
 1419SOL     OW 5155   1.355   4.764   3.955
 1419SOL    HW1 5156   1.292   4.712   3.897
 1419SOL    HW2 5157   1.312   4.780   4.044
 1420SOL     OW 5158   4.247   4.992   3.080
 1420SOL    HW1 5159   4.209   4.899   3.073
 1420SOL    HW2 5160   4.334   4.995   3.033
 1421SOL     OW 5161   0.682   4.692   4.423
 1421SOL    HW1 5162   0.692   4.620   4.354
 1421SOL    HW2 5163   0.589   4.694   4.457
 1422SOL     OW 5164   2.661   4.495   5.838
 1422SOL    HW1 5165   2.679   4.397   5.825
 1422SOL    HW2 5166   2.696   4.546   5.759
 1423SOL     OW 5167   4.106   1.944   4.461
 1423SOL    HW1 5168   4.162   1.862   4.466
 1423SOL    HW2 5169   4.049   1.950   4.543
 1424SOL     OW 5170   6.674   3.846   6.513
 1424SOL    HW1 5171   6.685   3.922   6.578
 1424SOL    HW2 5172   6.662   3.882   6.421
 1425SOL     OW 5173   3.260   6.610   5.137
 1425SOL    HW1 5174   3.281   6.652   5.226
 1425SOL    HW2 5175   3.333   6.631   5.072
 1426SOL     OW 5176   2.352   1.811   6.688
 1426SOL    HW1 5177   2.296   1.732   6.666
 1426SOL    HW2 5178   2.410   1.791   6.767
 1427SOL     OW 5179   1.069   0.274   3.357
 1427SOL    HW1 5180   1.140   0.331   3.399
 1427SOL    HW2 5181   1.095   0.253   3.263
 1428SOL     OW 5182   0.015   2.655   1.644
 1428SOL    HW1 5183   0.094   2.618   1.594
 1428SOL    HW2 5184   6.984   2.580   1.687
 1429SOL     OW 5185   6.353   1.287   6.533
 1429SOL    HW1 5186   6.264   1.260   6.569
 1429SOL    HW2 5187   6.423   1.225   6.570
 1430SOL     OW 5188   2.599   4.584   4.420
 1430SOL    HW1 5189   2.649   4.655   4.370
 1430SOL    HW2 5190   2.604   4.602   4.518
 1431SOL     OW 5191   2.810   1.641   5.445
 1431SOL    HW1 5192   2.745   1.710   5.479
 1431SOL    HW2 5193   2.759   1.566   5.403
 1432SOL     OW 5194   2.136   1.147   1.020
 1432SOL    HW1 5195   2.174   1.054   1.014
 1432SOL    HW2 5196   2.048   1.151   0.973
 1433SOL     OW 5197   3.661   0.119   3.530
 1433SOL    HW1 5198   3.611   0.189   3.581
 1433SOL    HW2 5199   3.744   0.158   3.491
 1434SOL     OW 5200   0.477   2.127   6.644
 1434SOL    HW1 5201   0.477   2.155   6.740
 1434SOL    HW2 5202   0.545   2.055   6.630
 1435SOL     OW 5203   0.505   0.366   3.715
 1435SOL    HW1 5204   0.472   0.450   3.673
 1435SOL    HW2 5205   0.434   0.330   3.776
 1436SOL     OW 5206   5.896   3.746   0.943
 1436SOL    HW1 5207   5.815   3.778   0.992
 1436SOL    HW2 5208   5.876   3.658   0.900
 1437SOL     OW 5209   3.709   1.479   5.995
 1437SOL    HW1 5210   3.645   1.542   6.036
 1437SOL    HW2 5211   3.802   1.516   6.001
 1438SOL     OW 5212   3.021   1.139   1.656
 1438SOL    HW1 5213   3.037   1.054   1.605
 1438SOL    HW2 5214   3.096   1.202   1.639
 1439SOL     OW 5215   0.701   6.066   0.129
 1439SOL    HW1 5216   0.790   6.111   0.118
 1439SOL    HW2 5217   0.711   5.969   0.108
 1440SOL     OW 5218   3.216   3.718   3.800
 1440SOL    HW1 5219   3.173   3.661   3.730
 1440SOL    HW2 5220   3.148   3.747   3.867
 1441SOL     OW 5221   6.561   3.098   3.062
 1441SOL    HW1 5222   6.512   3.117   3.147
 1441SOL    HW2 5223   6.658   3.117   3.075
 1442SOL     OW 5224   5.197   4.806   1.076
 1442SOL    HW1 5225   5.190   4.901   1.105
 1442SOL    HW2 5226   5.273   4.796   1.011
 1443SOL     OW 5227   1.219   0.352   3.947
 1443SOL    HW1 5228   1.259   0.275   3.996
 1443SOL    HW2 5229   1.142   0.388   3.999
 1444SOL     OW 5230   4.063   5.902   3.064
 1444SOL    HW1 5231   4.121   5.945   2.995
 1444SOL    HW2 5232   4.007   5.971   3.109
 1445SOL     OW 5233   0.353   2.769   1.710
 1445SOL    HW1 5234   0.442   2.815   1.710
 1445SOL    HW2 5235   0.304   2.791   1.795
 1446SOL     OW 5236   4.688   2.759   6.983
 1446SOL    HW1 5237   4.688   2.851   0.003
 1446SOL    HW2 5238   4.777   2.739   6.943
 1447SOL     OW 5239   6.430   0.818   5.063
 1447SOL    HW1 5240   6.456   0.887   5.130
 1447SOL    HW2 5241   6.511   0.791   5.010
 1448SOL     OW 5242   5.898   1.815   0.632
 1448SOL    HW1 5243   5.828   1.772   0.689
 1448SOL    HW2 5244   5.855   1.856   0.551
 1449SOL     OW 5245   6.146   6.613   0.576
 1449SOL    HW1 5246   6.229   6.638   0.627
 1449SOL    HW2 5247   6.070   6.671   0.606
 1450SOL     OW 5248   6.781   2.625   2.602
 1450SOL    HW1 5249   6.800   2.543   2.547
 1450SOL    HW2 5250   6.713   2.603   2.671
 1451SOL     OW 5251   3.215   0.415   2.817
 1451SOL    HW1 5252   3.256   0.499   2.855
 1451SOL    HW2 5253   3.173   0.436   2.729
 1452SOL     OW 5254   4.939   1.027   4.589
 1452SOL    HW1 5255   4.973   1.108   4.637
 1452SOL    HW2 5256   4.840   1.024   4.595
 1453SOL     OW 5257   5.833   3.488   4.901
 1453SOL    HW1 5258   5.816   3.421   4.828
 1453SOL    HW2 5259   5.924   3.527   4.890
 1454SOL     OW 5260   5.379   2.524   2.300
 1454SOL    HW1 5261   5.439   2.485   2.371
 1454SOL    HW2 5262   5.413   2.497   2.210
 1455SOL     OW 5263   1.012   0.556   1.602
 1455SOL    HW1 5264   1.002   0.596   1.693
 1455SOL    HW2 5265   1.017   0.628   1.533
 1456SOL     OW 5266   6.764   6.558   5.106
 1456SOL    HW1 5267   6.747   6.571   5.009
 1456SOL    HW2 5268   6.799   6.643   5.146
 1457SOL     OW 5269   1.424   0.103   2.894
 1457SOL    HW1 5270   1.395   0.018   2.937
 1457SOL    HW2 5271   1.465   0.163   2.962
 1458SOL     OW 5272   5.561   6.760   5.091
 1458SOL    HW1 5273   5.619   6.783   5.169
 1458SOL    HW2 5274   5.618   6.744   5.010
 1459SOL     OW 5275   2.853   5.421   7.007
 1459SOL    HW1 5276   2.857   5.388   0.081
 1459SOL    HW2 5277   2.826   5.346   6.946
 1460SOL     OW 5278   0.048   6.052   6.393
 1460SOL    HW1 5279   0.087   5.992   6.462
 1460SOL    HW2 5280   0.116   6.121   6.366
 1461SOL     OW 5281   6.449   4.420   3.666
 1461SOL    HW1 5282   6.479   4.492   3.603
 1461SOL    HW2 5283   6.528   4.387   3.718
 1462SOL     OW 5284   6.720   1.842   0.183
 1462SOL    HW1 5285   6.642   1.861   0.241
 1462SOL    HW2 5286   6.793   1.908   0.202
 1463SOL     OW 5287   0.274   0.174   5.648
 1463SOL    HW1 5288   0.331   0.256   5.645
 1463SOL    HW2 5289   0.193   0.191   5.704
 1464SOL     OW 5290   0.551   6.520   0.504
 1464SOL    HW1 5291   0.531   6.491   0.411
 1464SOL    HW2 5292   0.649   6.511   0.522
 1465SOL     OW 5293   0.979   1.221   3.300
 1465SOL    HW1 5294   0.993   1.309   3.256
 1465SOL    HW2 5295   0.915   1.232   3.376
 1466SOL     OW 5296   6.889   6.402   2.698
 1466SOL    HW1 5297   6.952   6.325   2.697
 1466SOL    HW2 5298   6.898   6.454   2.613
 1467SOL     OW 5299   1.536   0.424   2.276
 1467SOL    HW1 5300   1.475   0.495   2.241
 1467SOL    HW2 5301   1.614   0.467   2.321
 1468SOL     OW 5302   5.474   5.991   3.026
 1468SOL    HW1 5303   5.504   5.915   3.083
 1468SOL    HW2 5304   5.537   6.067   3.035
 1469SOL     OW 5305   0.660   0.475   2.957
 1469SOL    HW1 5306   0.663   0.412   2.879
 1469SOL    HW2 5307   0.581   0.536   2.947
 1470SOL     OW 5308   1.034   1.010   2.159
 1470SOL    HW1 5309   1.004   0.938   2.096
 1470SOL    HW2 5310   0.968   1.085   2.159
 1471SOL     OW 5311   6.871   0.843   6.586
 1471SOL    HW1 5312   6.778   0.851   6.548
 1471SOL    HW2 5313   6.931   0.802   6.518
 1472SOL     OW 5314   4.594   6.190   4.647
 1472SOL    HW1 5315   4.687   6.204   4.682
 1472SOL    HW2 5316   4.596   6.121   4.575
 1473SOL     OW 5317   6.019   5.423   3.425
 1473SOL    HW1 5318   6.092   5.398   3.488
 1473SOL    HW2 5319   6.024   5.366   3.343
 1474SOL     OW 5320   6.326   5.979   3.711
 1474SOL    HW1 5321   6.263   5.983   3.633
 1474SOL    HW2 5322   6.283   6.021   3.791
 1475SOL     OW 5323   0.239   0.417   1.579
 1475SOL    HW1 5324   0.194   0.446   1.494
 1475SOL    HW2 5325   0.205   0.327   1.606
 1476SOL     OW 5326   1.474   1.148   1.228
 1476SOL    HW1 5327   1.552   1.181   1.175
 1476SOL    HW2 5328   1.498   1.061   1.272
 1477SOL     OW 5329   3.031   0.320   6.145
 1477SOL    HW1 5330   3.021   0.262   6.065
 1477SOL    HW2 5331   3.127   0.324   6.172
 1478SOL     OW 5332   5.716   4.814   0.630
 1478SOL    HW1 5333   5.787   4.817   0.700
 1478SOL    HW2 5334   5.627   4.832   0.672
 1479SOL     OW 5335   1.287   4.546   0.442
 1479SOL    HW1 5336   1.222   4.495   0.497
 1479SOL    HW2 5337   1.323   4.623   0.496
 1480SOL     OW 5338   2.779   0.562   7.002
 1480SOL    HW1 5339   2.680   0.551   6.995
 1480SOL    HW2 5340   2.812   0.613   6.923
 1481SOL     OW 5341   5.366   1.698   5.015
 1481SOL    HW1 5342   5.455   1.733   5.042
 1481SOL    HW2 5343   5.338   1.626   5.078
 1482SOL     OW 5344   5.748   1.714   0.832
 1482SOL    HW1 5345   5.688   1.634   0.836
 1482SOL    HW2 5346   5.749   1.760   0.921
 1483SOL     OW 5347   0.207   3.478   6.786
 1483SOL    HW1 5348   0.133   3.481   6.854
 1483SOL    HW2 5349   0.216   3.567   6.742
 1484SOL     OW 5350   6.366   4.120   3.529
 1484SOL    HW1 5351   6.455   4.093   3.493
 1484SOL    HW2 5352   6.355   4.084   3.622
 1485SOL     OW 5353   4.609   2.587   2.373
 1485SOL    HW1 5354   4.657   2.559   2.289
 1485SOL    HW2 5355   4.590   2.685   2.368
 1486SOL     OW 5356   4.793   2.432   3.462
 1486SOL    HW1 5357   4.824   2.424   3.556
 1486SOL    HW2 5358   4.872   2.451   3.403
 1487SOL     OW 5359   6.602   1.765   6.320
 1487SOL    HW1 5360   6.582   1.863   6.322
 1487SOL    HW2 5361   6.701   1.752   6.317
 1488SOL     OW 5362   5.939   2.262   3.151
 1488SOL    HW1 5363   6.019   2.210   3.121
 1488SOL    HW2 5364   5.966   2.328   3.221
 1489SOL     OW 5365   3.801   4.919   4.430
 1489SOL    HW1 5366   3.873   4.917   4.500
 1489SOL    HW2 5367   3.712   4.905   4.473
 1490SOL     OW 5368   1.349   2.232   0.696
 1490SOL    HW1 5369   1.347   2.199   0.602
 1490SOL    HW2 5370   1.263   2.208   0.741
 1491SOL     OW 5371   6.704   3.331   3.365
 1491SOL    HW1 5372   6.700   3.365   3.272
 1491SOL    HW2 5373   6.791   3.284   3.380
 1492SOL     OW 5374   5.322   2.048   2.082
 1492SOL    HW1 5375   5.244   2.000   2.124
 1492SOL    HW2 5376   5.358   1.993   2.007
 1493SOL     OW 5377   4.829   0.681   4.631
 1493SOL    HW1 5378   4.883   0.694   4.548
 1493SOL    HW2 5379   4.731   0.689   4.609
 1494SOL     OW 5380   4.343   2.845   5.469
 1494SOL    HW1 5381   4.294   2.860   5.554
 1494SOL    HW2 5382   4.335   2.926   5.411
 1495SOL     OW 5383   0.530   3.171   3.540
 1495SOL    HW1 5384   0.442   3.159   3.586
 1495SOL    HW2 5385   0.546   3.094   3.478
 1496SOL     OW 5386   0.797   0.395   1.602
 1496SOL    HW1 5387   0.880   0.426   1.649
 1496SOL    HW2 5388   0.807   0.410   1.504
 1497SOL     OW 5389   0.179   4.359   3.593
 1497SOL    HW1 5390   0.211   4.452   3.578
 1497SOL    HW2 5391   0.225   4.297   3.529
 1498SOL     OW 5392   1.902   4.940   6.372
 1498SOL    HW1 5393   1.943   4.886   6.446
 1498SOL    HW2 5394   1.881   4.880   6.295
 1499SOL     OW 5395   1.164   3.873   5.131
 1499SOL    HW1 5396   1.087   3.913   5.081
 1499SOL    HW2 5397   1.250   3.897   5.085
 1500SOL     OW 5398   5.738   0.421   0.850
 1500SOL    HW1 5399   5.653   0.447   0.897
 1500SOL    HW2 5400   5.763   0.328   0.875
 1501SOL     OW 5401   4.143   0.498   6.314
 1501SOL    HW1 5402   4.089   0.572   6.355
 1501SOL    HW2 5403   4.240   0.515   6.332
 1502SOL     OW 5404   6.281   6.861   0.374
 1502SOL    HW1 5405   6.264   6.762   0.370
 1502SOL    HW2 5406   6.291   6.889   0.469
 1503SOL     OW 5407   2.339   2.522   1.335
 1503SOL    HW1 5408   2.370   2.459   1.407
 1503SOL    HW2 5409   2.343   2.475   1.247
 1504SOL     OW 5410   2.817   0.465   5.034
 1504SOL    HW1 5411   2.773   0.435   5.119
 1504SOL    HW2 5412   2.752   0.456   4.959
 1505SOL     OW 5413   5.107   6.951   6.276
 1505SOL    HW1 5414   5.171   6.956   6.199
 1505SOL    HW2 5415   5.120   0.011   6.335
 1506SOL     OW 5416   1.196   4.666   3.530
 1506SOL    HW1 5417   1.222   4.602   3.457
 1506SOL    HW2 5418   1.221   4.627   3.618
 1507SOL     OW 5419   1.493   1.485   4.819
 1507SOL    HW1 5420   1.409   1.463   4.770
 1507SOL    HW2 5421   1.565   1.508   4.754
 1508SOL     OW 5422   4.609   6.849   1.006
 1508SOL    HW1 5423   4.614   6.842   1.105
 1508SOL    HW2 5424   4.529   6.903   0.980
 1509SOL     OW 5425   4.499   2.881   5.970
 1509SOL    HW1 5426   4.486   2.979   5.982
 1509SOL    HW2 5427   4.477   2.833   6.055
 1510SOL     OW 5428   5.513   2.187   4.104
 1510SOL    HW1 5429   5.531   2.285   4.099
 1510SOL    HW2 5430   5.429   2.171   4.156
 1511SOL     OW 5431   2.238   1.854   0.032
 1511SOL    HW1 5432   2.225   1.774   6.993
 1511SOL    HW2 5433   2.240   1.936   6.994
 1512SOL     OW 5434   6.695   6.611   1.708
 1512SOL    HW1 5435   6.708   6.620   1.609
 1512SOL    HW2 5436   6.617   6.667   1.736
 1513SOL     OW 5437   4.779   1.105   3.774
 1513SOL    HW1 5438   4.712   1.179   3.781
 1513SOL    HW2 5439   4.738   1.019   3.803
 1514SOL     OW 5440   5.417   1.727   4.660
 1514SOL    HW1 5441   5.504   1.764   4.692
 1514SOL    HW2 5442   5.421   1.627   4.662
 1515SOL     OW 5443   0.217   2.981   5.398
 1515SOL    HW1 5444   0.206   2.960   5.301
 1515SOL    HW2 5445   0.200   3.078   5.414
 1516SOL     OW 5446   0.600   1.146   0.776
 1516SOL    HW1 5447   0.528   1.205   0.811
 1516SOL    HW2 5448   0.567   1.096   0.697
 1517SOL     OW 5449   4.375   5.218   3.942
 1517SOL    HW1 5450   4.468   5.189   3.964
 1517SOL    HW2 5451   4.377   5.311   3.904
 1518SOL     OW 5452   6.638   3.565   6.862
 1518SOL    HW1 5453   6.629   3.659   6.895
 1518SOL    HW2 5454   6.636   3.564   6.762
 1519SOL     OW 5455   0.081   4.114   1.525
 1519SOL    HW1 5456   0.169   4.103   1.571
 1519SOL    HW2 5457   0.010   4.136   1.592
 1520SOL     OW 5458   1.962   3.454   2.295
 1520SOL    HW1 5459   1.959   3.504   2.209
 1520SOL    HW2 5460   2.003   3.365   2.281
 1521SOL     OW 5461   1.795   3.110   6.983
 1521SOL    HW1 5462   1.878   3.157   7.012
 1521SOL    HW2 5463   1.761   3.150   6.898
 1522SOL     OW 5464   6.986   1.792   5.786
 1522SOL    HW1 5465   7.012   1.873   5.734
 1522SOL    HW2 5466   6.989   1.812   5.884
 1523SOL     OW 5467   4.877   3.823   6.647
 1523SOL    HW1 5468   4.957   3.882   6.656
 1523SOL    HW2 5469   4.794   3.876   6.662
 1524SOL     OW 5470   0.861   2.017   1.806
 1524SOL    HW1 5471   0.933   1.990   1.871
 1524SOL    HW2 5472   0.895   2.089   1.746
 1525SOL     OW 5473   4.835   2.156   5.594
 1525SOL    HW1 5474   4.773   2.089   5.634
 1525SOL    HW2 5475   4.826   2.243   5.643
 1526SOL     OW 5476   0.350   0.841   1.021
 1526SOL    HW1 5477   0.361   0.844   1.121
 1526SOL    HW2 5478   0.281   0.908   0.993
 1527SOL     OW 5479   3.427   1.393   4.619
 1527SOL    HW1 5480   3.515   1.366   4.580
 1527SOL    HW2 5481   3.435   1.486   4.657
 1528SOL     OW 5482   5.134   6.153   2.793
 1528SOL    HW1 5483   5.232   6.138   2.810
 1528SOL    HW2 5484   5.107   6.241   2.832
 1529SOL     OW 5485   4.848   1.511   5.653
 1529SOL    HW1 5486   4.900   1.457   5.719
 1529SOL    HW2 5487   4.880   1.490   5.561
 1530SOL     OW 5488   3.260   0.232   1.432
 1530SOL    HW1 5489   3.218   0.281   1.509
 1530SOL    HW2 5490   3.271   0.136   1.456
 1531SOL     OW 5491   5.826   0.907   5.382
 1531SOL    HW1 5492   5.753   0.872   5.323
 1531SOL    HW2 5493   5.913   0.905   5.332
 1532SOL     OW 5494   2.586   2.108   4.601
 1532SOL    HW1 5495   2.613   2.114   4.697
 1532SOL    HW2 5496   2.668   2.112   4.543
 1533SOL     OW 5497   0.254   3.738   6.697
 1533SOL    HW1 5498   0.341   3.786   6.714
 1533SOL    HW2 5499   0.185   3.804   6.667
 1534SOL     OW 5500   1.541   5.101   0.446
 1534SOL    HW1 5501   1.636   5.132   0.441
 1534SOL    HW2 5502   1.480   5.177   0.424
 1535SOL     OW 5503   5.675   5.228   4.363
 1535SOL    HW1 5504   5.656   5.215   4.460
 1535SOL    HW2 5505   5.753   5.171   4.336
 1536SOL     OW 5506   3.329   5.137   4.293
 1536SOL    HW1 5507   3.304   5.225   4.254
 1536SOL    HW2 5508   3.252   5.073   4.285
 1537SOL     OW 5509   3.962   5.447   3.784
 1537SOL    HW1 5510   3.990   5.540   3.761
 1537SOL    HW2 5511   3.921   5.446   3.875
 1538SOL     OW 5512   3.755   4.862   6.290
 1538SOL    HW1 5513   3.671   4.835   6.338
 1538SOL    HW2 5514   3.767   4.804   6.210
 1539SOL     OW 5515   4.097   4.271   1.377
 1539SOL    HW1 5516   4.152   4.354   1.389
 1539SOL    HW2 5517   4.019   4.291   1.317
 1540SOL     OW 5518   0.965   6.950   5.081
 1540SOL    HW1 5519   1.007   6.867   5.044
 1540SOL    HW2 5520   1.024   6.988   5.152
 1541SOL     OW 5521   3.782   2.302   1.362
 1541SOL    HW1 5522   3.843   2.224   1.353
 1541SOL    HW2 5523   3.730   2.294   1.448
 1542SOL     OW 5524   6.670   6.145   2.007
 1542SOL    HW1 5525   6.651   6.239   1.978
 1542SOL    HW2 5526   6.664   6.085   1.927
 1543SOL     OW 5527   2.993   3.372   3.393
 1543SOL    HW1 5528   3.040   3.457   3.369
 1543SOL    HW2 5529   2.956   3.380   3.486
 1544SOL     OW 5530   2.990   3.759   2.109
 1544SOL    HW1 5531   2.935   3.805   2.178
 1544SOL    HW2 5532   3.050   3.692   2.153
 1545SOL     OW 5533   5.394   0.423   5.161
 1545SOL    HW1 5534   5.332   0.450   5.235
 1545SOL    HW2 5535   5.415   0.503   5.105
 1546SOL     OW 5536   5.348   0.211   6.205
 1546SOL    HW1 5537   5.249   0.215   6.211
 1546SOL    HW2 5538   5.377   0.118   6.181
 1547SOL     OW 5539   2.073   4.320   2.521
 1547SOL    HW1 5540   2.095   4.226   2.549
 1547SOL    HW2 5541   2.141   4.353   2.457
 1548SOL     OW 5542   4.205   4.287   5.532
 1548SOL    HW1 5543   4.217   4.364   5.470
 1548SOL    HW2 5544   4.143   4.220   5.491
 1549SOL     OW 5545   6.497   1.369   2.215
 1549SOL    HW1 5546   6.501   1.355   2.116
 1549SOL    HW2 5547   6.409   1.411   2.239
 1550SOL     OW 5548   2.888   6.677   5.886
 1550SOL    HW1 5549   2.982   6.644   5.897
 1550SOL    HW2 5550   2.852   6.704   5.976
 1551SOL     OW 5551   1.652   3.313   1.316
 1551SOL    HW1 5552   1.689   3.406   1.310
 1551SOL    HW2 5553   1.709   3.259   1.378
 1552SOL     OW 5554   1.479   0.086   1.246
 1552SOL    HW1 5555   1.426   0.065   1.163
 1552SOL    HW2 5556   1.484   0.186   1.258
 1553SOL     OW 5557   6.228   1.937   6.021
 1553SOL    HW1 5558   6.303   1.969   5.963
 1553SOL    HW2 5559   6.153   2.003   6.018
 1554SOL     OW 5560   4.100   2.236   3.261
 1554SOL    HW1 5561   4.104   2.318   3.203
 1554SOL    HW2 5562   4.050   2.164   3.212
 1555SOL     OW 5563   5.024   2.476   5.414
 1555SOL    HW1 5564   4.962   2.456   5.339
 1555SOL    HW2 5565   5.118   2.465   5.384
 1556SOL     OW 5566   3.520   0.578   0.641
 1556SOL    HW1 5567   3.466   0.501   0.676
 1556SOL    HW2 5568   3.569   0.621   0.716
 1557SOL     OW 5569   2.431   2.865   1.075
 1557SOL    HW1 5570   2.460   2.775   1.042
 1557SOL    HW2 5571   2.427   2.865   1.174
 1558SOL     OW 5572   5.964   2.370   5.010
 1558SOL    HW1 5573   6.050   2.345   4.966
 1558SOL    HW2 5574   5.979   2.450   5.068
 1559SOL     OW 5575   0.578   3.982   1.294
 1559SOL    HW1 5576   0.621   4.017   1.211
 1559SOL    HW2 5577   0.608   3.888   1.310
 1560SOL     OW 5578   3.172   1.463   6.564
 1560SOL    HW1 5579   3.228   1.538   6.600
 1560SOL    HW2 5580   3.080   1.497   6.546
 1561SOL     OW 5581   5.467   6.194   2.761
 1561SOL    HW1 5582   5.558   6.160   2.786
 1561SOL    HW2 5583   5.445   6.163   2.669
 1562SOL     OW 5584   3.284   6.347   2.085
 1562SOL    HW1 5585   3.237   6.271   2.130
 1562SOL    HW2 5586   3.230   6.378   2.007
 1563SOL     OW 5587   2.960   2.103   5.005
 1563SOL    HW1 5588   2.936   2.112   4.909
 1563SOL    HW2 5589   3.031   2.169   5.028
 1564SOL     OW 5590   1.144   1.435   2.305
 1564SOL    HW1 5591   1.110   1.528   2.315
 1564SOL    HW2 5592   1.088   1.387   2.236
 1565SOL     OW 5593   4.352   5.587   5.078
 1565SOL    HW1 5594   4.387   5.611   4.987
 1565SOL    HW2 5595   4.360   5.666   5.138
 1566SOL     OW 5596   6.375   4.706   4.110
 1566SOL    HW1 5597   6.466   4.721   4.147
 1566SOL    HW2 5598   6.307   4.753   4.166
 1567SOL     OW 5599   5.839   5.059   6.521
 1567SOL    HW1 5600   5.845   5.150   6.563
 1567SOL    HW2 5601   5.879   4.992   6.583
 1568SOL     OW 5602   2.734   5.961   3.498
 1568SOL    HW1 5603   2.780   5.878   3.467
 1568SOL    HW2 5604   2.635   5.947   3.498
 1569SOL     OW 5605   3.855   0.287   3.466
 1569SOL    HW1 5606   3.821   0.359   3.526
 1569SOL    HW2 5607   3.952   0.272   3.483
 1570SOL     OW 5608   2.649   6.654   6.562
 1570SOL    HW1 5609   2.604   6.737   6.528
 1570SOL    HW2 5610   2.747   6.670   6.572
 1571SOL     OW 5611   0.925   3.213   3.402
 1571SOL    HW1 5612   0.845   3.272   3.410
 1571SOL    HW2 5613   0.924   3.166   3.314
 1572SOL     OW 5614   1.744   5.369   2.013
 1572SOL    HW1 5615   1.670   5.307   1.987
 1572SOL    HW2 5616   1.811   5.375   1.939
 1573SOL     OW 5617   5.553   5.114   2.130
 1573SOL    HW1 5618   5.589   5.031   2.172
 1573SOL    HW2 5619   5.499   5.090   2.049
 1574SOL     OW 5620   6.509   2.957   2.252
 1574SOL    HW1 5621   6.438   2.895   2.286
 1574SOL    HW2 5622   6.492   3.049   2.287
 1575SOL     OW 5623   2.103   0.673   2.038
 1575SOL    HW1 5624   2.174   0.607   2.017
 1575SOL    HW2 5625   2.073   0.718   1.953
 1576SOL     OW 5626   1.219   6.405   2.604
 1576SOL    HW1 5627   1.200   6.471   2.531
 1576SOL    HW2 5628   1.139   6.398   2.664
 1577SOL     OW 5629   2.587   0.701   6.412
 1577SOL    HW1 5630   2.525   0.776   6.388
 1577SOL    HW2 5631   2.600   0.642   6.333
 1578SOL     OW 5632   4.617   0.897   6.532
 1578SOL    HW1 5633   4.663   0.811   6.553
 1578SOL    HW2 5634   4.529   0.878   6.488
 1579SOL     OW 5635   0.253   2.561   1.571
 1579SOL    HW1 5636   0.313   2.482   1.575
 1579SOL    HW2 5637   0.296   2.639   1.617
 1580SOL     OW 5638   3.130   4.024   2.964
 1580SOL    HW1 5639   3.140   4.020   2.865
 1580SOL    HW2 5640   3.113   4.119   2.992
 1581SOL     OW 5641   6.867   4.545   5.447
 1581SOL    HW1 5642   6.853   4.540   5.545
 1581SOL    HW2 5643   6.942   4.607   5.426
 1582SOL     OW 5644   3.797   5.894   5.108
 1582SOL    HW1 5645   3.709   5.927   5.073
 1582SOL    HW2 5646   3.815   5.802   5.073
 1583SOL     OW 5647   0.556   5.747   4.512
 1583SOL    HW1 5648   0.614   5.689   4.454
 1583SOL    HW2 5649   0.601   5.761   4.600
 1584SOL     OW 5650   2.079   4.738   6.845
 1584SOL    HW1 5651   2.176   4.715   6.836
 1584SOL    HW2 5652   2.061   4.771   6.937
 1585SOL     OW 5653   4.341   1.155   3.213
 1585SOL    HW1 5654   4.365   1.140   3.309
 1585SOL    HW2 5655   4.251   1.199   3.208
 1586SOL     OW 5656   2.870   4.757   2.994
 1586SOL    HW1 5657   2.923   4.677   2.968
 1586SOL    HW2 5658   2.931   4.827   3.032
 1587SOL     OW 5659   1.552   5.317   5.361
 1587SOL    HW1 5660   1.538   5.234   5.307
 1587SOL    HW2 5661   1.529   5.397   5.306
 1588SOL     OW 5662   4.535   0.259   2.310
 1588SOL    HW1 5663   4.609   0.326   2.298
 1588SOL    HW2 5664   4.518   0.213   2.223
 1589SOL     OW 5665   6.759   3.411   2.825
 1589SOL    HW1 5666   6.807   3.325   2.809
 1589SOL    HW2 5667   6.665   3.393   2.854
 1590SOL     OW 5668   5.611   1.025   3.640
 1590SOL    HW1 5669   5.601   1.060   3.733
 1590SOL    HW2 5670   5.521   1.022   3.595
 1591SOL     OW 5671   6.764   5.662   1.658
 1591SOL    HW1 5672   6.677   5.690   1.617
 1591SOL    HW2 5673   6.830   5.641   1.587
 1592SOL     OW 5674   1.682   4.168   0.019
 1592SOL    HW1 5675   1.648   4.260   7.017
 1592SOL    HW2 5676   1.681   4.112   6.956
 1593SOL     OW 5677   0.717   0.017   6.385
 1593SOL    HW1 5678   0.639   0.072   6.356
 1593SOL    HW2 5679   0.709   6.944   6.348
 1594SOL     OW 5680   0.009   6.633   1.551
 1594SOL    HW1 5681   0.106   6.609   1.549
 1594SOL    HW2 5682   6.975   6.557   1.513
 1595SOL     OW 5683   1.078   4.397   0.511
 1595SOL    HW1 5684   1.035   4.408   0.422
 1595SOL    HW2 5685   1.143   4.321   0.508
 1596SOL     OW 5686   6.181   2.603   2.769
 1596SOL    HW1 5687   6.115   2.589   2.842
 1596SOL    HW2 5688   6.160   2.687   2.720
 1597SOL     OW 5689   2.779   6.066   1.529
 1597SOL    HW1 5690   2.765   6.014   1.613
 1597SOL    HW2 5691   2.818   6.006   1.459
 1598SOL     OW 5692   1.385   5.453   6.131
 1598SOL    HW1 5693   1.417   5.365   6.096
 1598SOL    HW2 5694   1.295   5.442   6.172
 1599SOL     OW 5695   4.483   4.989   5.222
 1599SOL    HW1 5696   4.491   4.964   5.318
 1599SOL    HW2 5697   4.460   4.908   5.168
 1600SOL     OW 5698   2.938   0.797   1.924
 1600SOL    HW1 5699   2.889   0.866   1.871
 1600SOL    HW2 5700   2.882   0.769   2.001
 1601SOL     OW 5701   0.120   6.805   4.140
 1601SOL    HW1 5702   0.202   6.833   4.090
 1601SOL    HW2 5703   0.089   6.715   4.107
 1602SOL     OW 5704   4.994   5.526   4.123
 1602SOL    HW1 5705   4.995   5.566   4.215
 1602SOL    HW2 5706   5.038   5.436   4.126
 1603SOL     OW 5707   2.820   5.030   4.183
 1603SOL    HW1 5708   2.859   5.065   4.268
 1603SOL    HW2 5709   2.735   5.079   4.163
 1604SOL     OW 5710   3.853   5.076   1.419
 1604SOL    HW1 5711   3.804   4.994   1.389
 1604SOL    HW2 5712   3.804   5.119   1.495
 1605SOL     OW 5713   6.149   5.512   1.108
 1605SOL    HW1 5714   6.169   5.607   1.132
 1605SOL    HW2 5715   6.206   5.451   1.163
 1606SOL     OW 5716   4.139   5.571   5.574
 1606SOL    HW1 5717   4.221   5.608   5.616
 1606SOL    HW2 5718   4.146   5.580   5.474
 1607SOL     OW 5719   4.263   0.399   1.202
 1607SOL    HW1 5720   4.349   0.356   1.176
 1607SOL    HW2 5721   4.238   0.370   1.295
 1608SOL     OW 5722   0.057   1.086   2.873
 1608SOL    HW1 5723   0.127   1.098   2.943
 1608SOL    HW2 5724   0.101   1.067   2.785
 1609SOL     OW 5725   3.392   0.202   0.925
 1609SOL    HW1 5726   3.481   0.162   0.905
 1609SOL    HW2 5727   3.385   0.220   1.023
 1610SOL     OW 5728   5.049   6.369   1.138
 1610SOL    HW1 5729   5.140   6.349   1.176
 1610SOL    HW2 5730   5.018   6.291   1.084
 1611SOL     OW 5731   1.658   3.232   0.732
 1611SOL    HW1 5732   1.597   3.156   0.754
 1611SOL    HW2 5733   1.616   3.318   0.761
 1612SOL     OW 5734   3.360   6.528   1.031
 1612SOL    HW1 5735   3.341   6.621   0.999
 1612SOL    HW2 5736   3.381   6.529   1.128
 1613SOL     OW 5737   0.392   5.482   2.252
 1613SOL    HW1 5738   0.462   5.412   2.239
 1613SOL    HW2 5739   0.423   5.547   2.322
 1614SOL     OW 5740   5.698   1.988   6.047
 1614SOL    HW1 5741   5.689   2.083   6.018
 1614SOL    HW2 5742   5.611   1.940   6.034
 1615SOL     OW 5743   6.667   5.265   6.272
 1615SOL    HW1 5744   6.707   5.346   6.315
 1615SOL    HW2 5745   6.739   5.200   6.249
 1616SOL     OW 5746   4.093   0.417   3.799
 1616SOL    HW1 5747   4.093   0.516   3.782
 1616SOL    HW2 5748   4.030   0.395   3.873
 1617SOL     OW 5749   5.101   6.473   3.106
 1617SOL    HW1 5750   5.052   6.483   3.020
 1617SOL    HW2 5751   5.101   6.377   3.134
 1618SOL     OW 5752   1.070   5.586   2.215
 1618SOL    HW1 5753   1.145   5.547   2.268
 1618SOL    HW2 5754   1.031   5.664   2.264
 1619SOL     OW 5755   0.399   5.379   6.942
 1619SOL    HW1 5756   0.332   5.386   7.016
 1619SOL    HW2 5757   0.453   5.295   6.953
 1620SOL     OW 5758   2.908   4.767   1.564
 1620SOL    HW1 5759   2.836   4.796   1.627
 1620SOL    HW2 5760   2.954   4.686   1.601
 1621SOL     OW 5761   5.728   0.280   1.211
 1621SOL    HW1 5762   5.670   0.360   1.226
 1621SOL    HW2 5763   5.719   0.218   1.290
 1622SOL     OW 5764   0.582   3.955   5.548
 1622SOL    HW1 5765   0.528   3.921   5.471
 1622SOL    HW2 5766   0.645   3.884   5.579
 1623SOL     OW 5767   0.124   2.196   4.714
 1623SOL    HW1 5768   0.200   2.258   4.737
 1623SOL    HW2 5769   0.094   2.213   4.621
 1624SOL     OW 5770   4.319   1.859   6.710
 1624SOL    HW1 5771   4.274   1.937   6.667
 1624SOL    HW2 5772   4.261   1.778   6.699
 1625SOL     OW 5773   1.584   5.291   6.702
 1625SOL    HW1 5774   1.675   5.302   6.661
 1625SOL    HW2 5775   1.514   5.304   6.631
 1626SOL     OW 5776   3.445   1.526   1.819
 1626SOL    HW1 5777   3.501   1.563   1.745
 1626SOL    HW2 5778   3.361   1.581   1.828
 1627SOL     OW 5779   5.730   2.621   3.651
 1627SOL    HW1 5780   5.732   2.682   3.571
 1627SOL    HW2 5781   5.731   2.526   3.620
 1628SOL     OW 5782   4.550   5.349   6.755
 1628SOL    HW1 5783   4.572   5.373   6.850
 1628SOL    HW2 5784   4.635   5.336   6.703
 1629SOL     OW 5785   2.640   1.401   3.544
 1629SOL    HW1 5786   2.643   1.390   3.644
 1629SOL    HW2 5787   2.552   1.370   3.510
 1630SOL     OW 5788   0.297   4.309   5.320
 1630SOL    HW1 5789   0.263   4.366   5.394
 1630SOL    HW2 5790   0.225   4.298   5.251
 1631SOL     OW 5791   0.096   2.873   0.591
 1631SOL    HW1 5792   0.149   2.911   0.515
 1631SOL    HW2 5793   0.155   2.813   0.646
 1632SOL     OW 5794   4.694   4.328   2.692
 1632SOL    HW1 5795   4.665   4.319   2.596
 1632SOL    HW2 5796   4.638   4.397   2.737
 1633SOL     OW 5797   5.096   4.501   5.006
 1633SOL    HW1 5798   5.017   4.557   4.981
 1633SOL    HW2 5799   5.091   4.413   4.958
 1634SOL     OW 5800   4.627   1.031   4.196
 1634SOL    HW1 5801   4.564   1.108   4.207
 1634SOL    HW2 5802   4.717   1.056   4.232
 1635SOL     OW 5803   1.359   5.383   6.594
 1635SOL    HW1 5804   1.361   5.460   6.529
 1635SOL    HW2 5805   1.324   5.415   6.682
 1636SOL     OW 5806   3.361   5.710   1.296
 1636SOL    HW1 5807   3.308   5.705   1.211
 1636SOL    HW2 5808   3.323   5.647   1.363
 1637SOL     OW 5809   6.648   0.381   3.563
 1637SOL    HW1 5810   6.604   0.467   3.587
 1637SOL    HW2 5811   6.599   0.305   3.607
 1638SOL     OW 5812   0.461   3.003   2.092
 1638SOL    HW1 5813   0.372   2.960   2.105
 1638SOL    HW2 5814   0.450   3.090   2.044
 1639SOL     OW 5815   6.179   4.685   2.003
 1639SOL    HW1 5816   6.107   4.722   2.061
 1639SOL    HW2 5817   6.194   4.747   1.925
 1640SOL     OW 5818   6.729   0.205   0.215
 1640SOL    HW1 5819   6.710   0.179   0.309
 1640SOL    HW2 5820   6.643   0.215   0.165
 1641SOL     OW 5821   6.719   2.831   3.996
 1641SOL    HW1 5822   6.629   2.822   4.040
 1641SOL    HW2 5823   6.767   2.743   4.001
 1642SOL     OW 5824   6.918   2.730   6.420
 1642SOL    HW1 5825   6.940   2.707   6.325
 1642SOL    HW2 5826   6.839   2.676   6.451
 1643SOL     OW 5827   2.596   4.702   3.029
 1643SOL    HW1 5828   2.529   4.749   2.971
 1643SOL    HW2 5829   2.687   4.736   3.008
 1644SOL     OW 5830   5.572   3.179   6.824
 1644SOL    HW1 5831   5.501   3.147   6.761
 1644SOL    HW2 5832   5.547   3.268   6.861
 1645SOL     OW 5833   3.046   6.573   6.462
 1645SOL    HW1 5834   2.997   6.623   6.533
 1645SOL    HW2 5835   2.980   6.522   6.406
 1646SOL     OW 5836   1.983   6.353   0.285
 1646SOL    HW1 5837   1.896   6.304   0.285
 1646SOL    HW2 5838   1.977   6.431   0.223
 1647SOL     OW 5839   5.416   2.505   4.346
 1647SOL    HW1 5840   5.495   2.484   4.289
 1647SOL    HW2 5841   5.378   2.421   4.384
 1648SOL     OW 5842   5.461   6.357   0.322
 1648SOL    HW1 5843   5.399   6.314   0.256
 1648SOL    HW2 5844   5.415   6.365   0.410
 1649SOL     OW 5845   3.726   1.376   4.225
 1649SOL    HW1 5846   3.814   1.422   4.213
 1649SOL    HW2 5847   3.658   1.441   4.259
 1650SOL     OW 5848   1.038   5.685   5.550
 1650SOL    HW1 5849   1.000   5.679   5.457
 1650SOL    HW2 5850   1.134   5.712   5.545
 1651SOL     OW 5851   0.485   2.061   2.935
 1651SOL    HW1 5852   0.536   2.002   2.873
 1651SOL    HW2 5853   0.449   2.139   2.884
 1652SOL     OW 5854   1.315   3.706   2.238
 1652SOL    HW1 5855   1.411   3.695   2.212
 1652SOL    HW2 5856   1.295   3.645   2.315
 1653SOL     OW 5857   6.988   5.782   1.514
 1653SOL    HW1 5858   6.934   5.828   1.444
 1653SOL    HW2 5859   0.040   5.843   1.547
 1654SOL     OW 5860   0.176   3.343   1.101
 1654SOL    HW1 5861   0.185   3.243   1.099
 1654SOL    HW2 5862   0.255   3.385   1.056
 1655SOL     OW 5863   6.566   1.200   4.134
 1655SOL    HW1 5864   6.610   1.141   4.066
 1655SOL    HW2 5865   6.535   1.144   4.211
 1656SOL     OW 5866   2.260   5.389   2.805
 1656SOL    HW1 5867   2.226   5.434   2.888
 1656SOL    HW2 5868   2.319   5.313   2.831
 1657SOL     OW 5869   6.454   0.283   4.575
 1657SOL    HW1 5870   6.497   0.324   4.494
 1657SOL    HW2 5871   6.523   0.235   4.629
 1658SOL     OW 5872   6.643   0.409   0.842
 1658SOL    HW1 5873   6.632   0.396   0.743
 1658SOL    HW2 5874   6.682   0.499   0.860
 1659SOL     OW 5875   3.380   0.123   6.896
 1659SOL    HW1 5876   3.362   0.172   6.810
 1659SOL    HW2 5877   3.297   0.119   6.950
 1660SOL     OW 5878   1.912   6.866   2.830
 1660SOL    HW1 5879   1.859   6.913   2.901
 1660SOL    HW2 5880   1.853   6.801   2.783
 1661SOL     OW 5881   2.802   5.714   1.989
 1661SOL    HW1 5882   2.709   5.717   1.952
 1661SOL    HW2 5883   2.807   5.771   2.071
 1662SOL     OW 5884   6.546   0.192   4.997
 1662SOL    HW1 5885   6.546   0.286   4.963
 1662SOL    HW2 5886   6.497   0.133   4.932
 1663SOL     OW 5887   5.051   5.476   2.662
 1663SOL    HW1 5888   5.090   5.407   2.723
 1663SOL    HW2 5889   4.975   5.436   2.611
 1664SOL     OW 5890   2.200   6.285   5.622
 1664SOL    HW1 5891   2.243   6.196   5.640
 1664SOL    HW2 5892   2.172   6.289   5.526
 1665SOL     OW 5893   6.907   3.770   1.779
 1665SOL    HW1 5894   6.824   3.783   1.834
 1665SOL    HW2 5895   6.913   3.842   1.710
 1666SOL     OW 5896   5.708   0.146   0.527
 1666SOL    HW1 5897   5.719   0.243   0.545
 1666SOL    HW2 5898   5.614   0.118   0.549
 1667SOL     OW 5899   6.716   6.119   1.574
 1667SOL    HW1 5900   6.789   6.074   1.523
 1667SOL    HW2 5901   6.697   6.066   1.657
 1668SOL     OW 5902   5.003   4.535   3.326
 1668SOL    HW1 5903   5.080   4.471   3.326
 1668SOL    HW2 5904   4.921   4.490   3.291
 1669SOL     OW 5905   6.811   4.542   5.744
 1669SOL    HW1 5906   6.885   4.542   5.812
 1669SOL    HW2 5907   6.769   4.452   5.741
 1670SOL     OW 5908   0.532   4.358   4.884
 1670SOL    HW1 5909   0.441   4.354   4.924
 1670SOL    HW2 5910   0.599   4.318   4.947
 1671SOL     OW 5911   5.792   1.135   3.032
 1671SOL    HW1 5912   5.702   1.101   3.058
 1671SOL    HW2 5913   5.808   1.115   2.935
 1672SOL     OW 5914   2.203   4.145   6.295
 1672SOL    HW1 5915   2.296   4.145   6.259
 1672SOL    HW2 5916   2.184   4.057   6.340
 1673SOL     OW 5917   1.525   1.473   5.294
 1673SOL    HW1 5918   1.530   1.480   5.394
 1673SOL    HW2 5919   1.591   1.404   5.262
 1674SOL     OW 5920   0.174   2.835   2.481
 1674SOL    HW1 5921   0.130   2.908   2.428
 1674SOL    HW2 5922   0.225   2.875   2.557
 1675SOL     OW 5923   5.104   0.140   0.151
 1675SOL    HW1 5924   5.049   0.078   0.095
 1675SOL    HW2 5925   5.195   0.149   0.112
 1676SOL     OW 5926   2.398   2.271   2.150
 1676SOL    HW1 5927   2.455   2.276   2.067
 1676SOL    HW2 5928   2.408   2.181   2.192
 1677SOL     OW 5929   4.028   3.802   3.548
 1677SOL    HW1 5930   4.003   3.715   3.506
 1677SOL    HW2 5931   4.048   3.788   3.645
 1678SOL     OW 5932   0.032   5.793   2.091
 1678SOL    HW1 5933   6.979   5.749   2.144
 1678SOL    HW2 5934   0.005   5.799   1.995
 1679SOL     OW 5935   1.746   1.500   4.973
 1679SOL    HW1 5936   1.809   1.578   4.967
 1679SOL    HW2 5937   1.660   1.523   4.928
 1680SOL     OW 5938   6.268   3.798   5.477
 1680SOL    HW1 5939   6.185   3.853   5.467
 1680SOL    HW2 5940   6.245   3.701   5.474
 1681SOL     OW 5941   1.693   6.080   5.730
 1681SOL    HW1 5942   1.748   5.999   5.711
 1681SOL    HW2 5943   1.651   6.113   5.645
 1682SOL     OW 5944   2.229   0.970   5.592
 1682SOL    HW1 5945   2.303   1.029   5.625
 1682SOL    HW2 5946   2.147   1.026   5.575
 1683SOL     OW 5947   6.141   5.840   2.774
 1683SOL    HW1 5948   6.132   5.877   2.682
 1683SOL    HW2 5949   6.211   5.891   2.824
 1684SOL     OW 5950   0.178   5.687   2.326
 1684SOL    HW1 5951   0.247   5.692   2.398
 1684SOL    HW2 5952   0.207   5.744   2.248
 1685SOL     OW 5953   2.080   1.725   5.919
 1685SOL    HW1 5954   2.103   1.808   5.868
 1685SOL    HW2 5955   2.117   1.646   5.871
 1686SOL     OW 5956   3.401   5.794   4.217
 1686SOL    HW1 5957   3.406   5.826   4.122
 1686SOL    HW2 5958   3.494   5.778   4.252
 1687SOL     OW 5959   0.225   3.538   1.502
 1687SOL    HW1 5960   0.173   3.501   1.425
 1687SOL    HW2 5961   0.162   3.573   1.571
 1688SOL     OW 5962   1.342   1.330   3.996
 1688SOL    HW1 5963   1.360   1.242   3.953
 1688SOL    HW2 5964   1.338   1.402   3.925
 1689SOL     OW 5965   6.227   0.565   2.530
 1689SOL    HW1 5966   6.145   0.619   2.510
 1689SOL    HW2 5967   6.288   0.568   2.451
 1690SOL     OW 5968   0.654   3.250   4.733
 1690SOL    HW1 5969   0.650   3.345   4.700
 1690SOL    HW2 5970   0.643   3.249   4.832
 1691SOL     OW 5971   5.215   2.901   4.114
 1691SOL    HW1 5972   5.178   2.927   4.025
 1691SOL    HW2 5973   5.141   2.869   4.173
 1692SOL     OW 5974   4.888   6.052   1.884
 1692SOL    HW1 5975   4.828   6.122   1.924
 1692SOL    HW2 5976   4.937   6.091   1.806
 1693SOL     OW 5977   6.780   2.091   4.287
 1693SOL    HW1 5978   6.851   2.062   4.350
 1693SOL    HW2 5979   6.753   2.015   4.228
 1694SOL     OW 5980   6.323   1.272   3.974
 1694SOL    HW1 5981   6.290   1.344   4.035
 1694SOL    HW2 5982   6.423   1.265   3.982
 1695SOL     OW 5983   3.681   0.470   6.704
 1695SOL    HW1 5984   3.689   0.548   6.766
 1695SOL    HW2 5985   3.598   0.479   6.649
 1696SOL     OW 5986   3.675   6.303   0.792
 1696SOL    HW1 5987   3.654   6.400   0.801
 1696SOL    HW2 5988   3.683   6.279   0.695
 1697SOL     OW 5989   6.089   2.684   1.255
 1697SOL    HW1 5990   6.066   2.737   1.173
 1697SOL    HW2 5991   6.149   2.738   1.313
 1698SOL     OW 5992   4.039   0.937   1.170
 1698SOL    HW1 5993   4.122   0.899   1.211
 1698SOL    HW2 5994   3.989   0.988   1.240
 1699SOL     OW 5995   2.211   1.962   5.820
 1699SOL    HW1 5996   2.282   1.916   5.874
 1699SOL    HW2 5997   2.241   2.054   5.796
 1700SOL     OW 5998   6.180   3.857   3.047
 1700SOL    HW1 5999   6.083   3.858   3.074
 1700SOL    HW2 6000   6.236   3.891   3.123
 1701SOL     OW 6001   6.003   5.710   5.248
 1701SOL    HW1 6002   5.904   5.696   5.253
 1701SOL    HW2 6003   6.026   5.798   5.291
 1702SOL     OW 6004   0.581   1.408   0.930
 1702SOL    HW1 6005   0.488   1.377   0.909
 1702SOL    HW2 6006   0.636   1.407   0.847
 1703SOL     OW 6007   4.075   1.655   6.396
 1703SOL    HW1 6008   4.171   1.629   6.408
 1703SOL    HW2 6009   4.053   1.731   6.457
 1704SOL     OW 6010   1.731   2.347   0.319
 1704SOL    HW1 6011   1.741   2.385   0.227
 1704SOL    HW2 6012   1.701   2.419   0.382
 1705SOL     OW 6013   3.414   2.308   1.685
 1705SOL    HW1 6014   3.331   2.278   1.734
 1705SOL    HW2 6015   3.488   2.322   1.751
 1706SOL     OW 6016   4.226   2.090   1.603
 1706SOL    HW1 6017   4.175   2.116   1.685
 1706SOL    HW2 6018   4.245   2.171   1.548
 1707SOL     OW 6019   4.852   2.559   2.607
 1707SOL    HW1 6020   4.855   2.459   2.613
 1707SOL    HW2 6021   4.767   2.592   2.649
 1708SOL     OW 6022   4.085   5.233   1.696
 1708SOL    HW1 6023   4.002   5.200   1.740
 1708SOL    HW2 6024   4.061   5.285   1.614
 1709SOL     OW 6025   3.733   6.749   1.259
 1709SOL    HW1 6026   3.725   6.669   1.201
 1709SOL    HW2 6027   3.698   6.829   1.211
 1710SOL     OW 6028   3.795   5.221   3.725
 1710SOL    HW1 6029   3.865   5.292   3.728
 1710SOL    HW2 6030   3.751   5.213   3.815
 1711SOL     OW 6031   2.332   4.786   5.084
 1711SOL    HW1 6032   2.326   4.830   4.995
 1711SOL    HW2 6033   2.248   4.735   5.102
 1712SOL     OW 6034   6.994   1.590   4.830
 1712SOL    HW1 6035   0.054   1.578   4.771
 1712SOL    HW2 6036   6.938   1.665   4.796
 1713SOL     OW 6037   4.042   1.458   2.627
 1713SOL    HW1 6038   4.017   1.396   2.702
 1713SOL    HW2 6039   3.979   1.444   2.550
 1714SOL     OW 6040   4.236   1.459   6.570
 1714SOL    HW1 6041   4.235   1.366   6.607
 1714SOL    HW2 6042   4.184   1.520   6.630
 1715SOL     OW 6043   2.470   5.566   3.142
 1715SOL    HW1 6044   2.502   5.536   3.052
 1715SOL    HW2 6045   2.433   5.658   3.135
 1716SOL     OW 6046   4.264   0.234   3.692
 1716SOL    HW1 6047   4.183   0.290   3.711
 1716SOL    HW2 6048   4.344   0.294   3.681
 1717SOL     OW 6049   3.972   5.593   4.966
 1717SOL    HW1 6050   3.893   5.537   4.939
 1717SOL    HW2 6051   3.987   5.584   5.064
 1718SOL     OW 6052   2.578   1.399   2.500
 1718SOL    HW1 6053   2.665   1.433   2.464
 1718SOL    HW2 6054   2.513   1.475   2.506
 1719SOL     OW 6055   2.085   3.630   1.019
 1719SOL    HW1 6056   2.076   3.714   0.965
 1719SOL    HW2 6057   2.109   3.554   0.959
 1720SOL     OW 6058   6.967   2.547   5.752
 1720SOL    HW1 6059   6.993   2.543   5.849
 1720SOL    HW2 6060   6.917   2.631   5.734
 1721SOL     OW 6061   1.780   0.313   1.331
 1721SOL    HW1 6062   1.854   0.298   1.397
 1721SOL    HW2 6063   1.695   0.335   1.380
 1722SOL     OW 6064   4.108   1.274   3.472
 1722SOL    HW1 6065   4.118   1.209   3.548
 1722SOL    HW2 6066   4.061   1.228   3.396
 1723SOL     OW 6067   4.246   2.210   7.018
 1723SOL    HW1 6068   4.232   2.213   0.097
 1723SOL    HW2 6069   4.342   2.189   6.998
 1724SOL     OW 6070   6.483   2.516   1.889
 1724SOL    HW1 6071   6.563   2.470   1.929
 1724SOL    HW2 6072   6.433   2.564   1.961
 1725SOL     OW 6073   2.015   5.328   6.715
 1725SOL    HW1 6074   1.993   5.351   6.621
 1725SOL    HW2 6075   2.105   5.285   6.719
 1726SOL     OW 6076   5.421   3.828   4.470
 1726SOL    HW1 6077   5.333   3.807   4.514
 1726SOL    HW2 6078   5.425   3.783   4.381
 1727SOL     OW 6079   3.896   3.704   3.157
 1727SOL    HW1 6080   3.908   3.800   3.183
 1727SOL    HW2 6081   3.982   3.668   3.121
 1728SOL     OW 6082   5.286   4.608   5.608
 1728SOL    HW1 6083   5.342   4.525   5.616
 1728SOL    HW2 6084   5.218   4.595   5.536
 1729SOL     OW 6085   1.346   4.220   3.153
 1729SOL    HW1 6086   1.324   4.125   3.133
 1729SOL    HW2 6087   1.443   4.228   3.176
 1730SOL     OW 6088   3.165   6.971   5.258
 1730SOL    HW1 6089   3.077   6.962   5.211
 1730SOL    HW2 6090   3.216   0.029   5.220
 1731SOL     OW 6091   6.251   4.732   3.532
 1731SOL    HW1 6092   6.169   4.740   3.590
 1731SOL    HW2 6093   6.330   4.710   3.590
 1732SOL     OW 6094   1.770   4.508   6.346
 1732SOL    HW1 6095   1.867   4.534   6.345
 1732SOL    HW2 6096   1.719   4.573   6.402
 1733SOL     OW 6097   2.457   3.807   1.564
 1733SOL    HW1 6098   2.416   3.877   1.623
 1733SOL    HW2 6099   2.556   3.821   1.561
 1734SOL     OW 6100   5.725   2.754   1.804
 1734SOL    HW1 6101   5.644   2.732   1.750
 1734SOL    HW2 6102   5.737   2.685   1.875
 1735SOL     OW 6103   4.491   5.574   5.795
 1735SOL    HW1 6104   4.443   5.660   5.775
 1735SOL    HW2 6105   4.457   5.502   5.734
 1736SOL     OW 6106   3.573   3.540   0.484
 1736SOL    HW1 6107   3.669   3.548   0.457
 1736SOL    HW2 6108   3.565   3.544   0.583
 1737SOL     OW 6109   5.051   7.003   4.900
 1737SOL    HW1 6110   5.076   6.944   4.977
 1737SOL    HW2 6111   5.110   0.064   4.899
 1738SOL     OW 6112   1.770   3.391   4.152
 1738SOL    HW1 6113   1.746   3.361   4.060
 1738SOL    HW2 6114   1.721   3.475   4.173
 1739SOL     OW 6115   6.091   0.512   4.271
 1739SOL    HW1 6116   6.090   0.440   4.340
 1739SOL    HW2 6117   5.999   0.551   4.262
 1740SOL     OW 6118   6.284   1.321   5.349
 1740SOL    HW1 6119   6.354   1.377   5.305
 1740SOL    HW2 6120   6.202   1.319   5.292
 1741SOL     OW 6121   2.895   1.107   4.042
 1741SOL    HW1 6122   2.986   1.137   4.071
 1741SOL    HW2 6123   2.902   1.061   3.954
 1742SOL     OW 6124   5.519   0.956   6.020
 1742SOL    HW1 6125   5.565   0.870   6.042
 1742SOL    HW2 6126   5.579   1.032   6.044
 1743SOL     OW 6127   1.036   1.053   2.436
 1743SOL    HW1 6128   1.049   1.036   2.338
 1743SOL    HW2 6129   1.114   1.103   2.472
 1744SOL     OW 6130   5.654   2.481   2.920
 1744SOL    HW1 6131   5.634   2.528   3.006
 1744SOL    HW2 6132   5.613   2.532   2.844
 1745SOL     OW 6133   6.267   6.537   2.135
 1745SOL    HW1 6134   6.327   6.500   2.065
 1745SOL    HW2 6135   6.281   6.636   2.141
 1746SOL     OW 6136   2.112   3.766   4.087
 1746SOL    HW1 6137   2.116   3.857   4.045
 1746SOL    HW2 6138   2.147   3.698   4.023
 1747SOL     OW 6139   3.660   1.820   2.149
 1747SOL    HW1 6140   3.754   1.790   2.140
 1747SOL    HW2 6141   3.601   1.742   2.169
 1748SOL     OW 6142   6.187   1.447   4.137
 1748SOL    HW1 6143   6.138   1.500   4.067
 1748SOL    HW2 6144   6.122   1.388   4.186
 1749SOL     OW 6145   2.765   6.838   0.088
 1749SOL    HW1 6146   2.785   6.791   0.002
 1749SOL    HW2 6147   2.748   6.771   0.160
 1750SOL     OW 6148   4.625   0.470   3.993
 1750SOL    HW1 6149   4.552   0.449   3.928
 1750SOL    HW2 6150   4.638   0.393   4.055
 1751SOL     OW 6151   5.688   2.237   4.692
 1751SOL    HW1 6152   5.731   2.298   4.625
 1751SOL    HW2 6153   5.671   2.287   4.777
 1752SOL     OW 6154   5.825   0.580   1.429
 1752SOL    HW1 6155   5.753   0.563   1.362
 1752SOL    HW2 6156   5.836   0.500   1.488
 1753SOL     OW 6157   6.778   1.286   1.997
 1753SOL    HW1 6158   6.682   1.315   2.003
 1753SOL    HW2 6159   6.795   1.246   1.907
 1754SOL     OW 6160   1.820   5.743   6.433
 1754SOL    HW1 6161   1.832   5.696   6.520
 1754SOL    HW2 6162   1.874   5.698   6.362
 1755SOL     OW 6163   0.226   6.235   6.307
 1755SOL    HW1 6164   0.215   6.257   6.210
 1755SOL    HW2 6165   0.321   6.249   6.334
 1756SOL     OW 6166   3.948   6.440   6.533
 1756SOL    HW1 6167   4.000   6.441   6.619
 1756SOL    HW2 6168   4.009   6.462   6.457
 1757SOL     OW 6169   3.254   4.957   4.828
 1757SOL    HW1 6170   3.275   4.959   4.730
 1757SOL    HW2 6171   3.185   4.887   4.846
 1758SOL     OW 6172   1.589   0.218   4.565
 1758SOL    HW1 6173   1.510   0.252   4.615
 1758SOL    HW2 6174   1.573   0.123   4.537
 1759SOL     OW 6175   1.175   6.438   5.364
 1759SOL    HW1 6176   1.189   6.397   5.454
 1759SOL    HW2 6177   1.078   6.450   5.347
 1760SOL     OW 6178   5.652   0.549   4.409
 1760SOL    HW1 6179   5.559   0.523   4.436
 1760SOL    HW2 6180   5.718   0.511   4.473
 1761SOL     OW 6181   6.679   0.781   1.348
 1761SOL    HW1 6182   6.646   0.781   1.443
 1761SOL    HW2 6183   6.603   0.763   1.286
 1762SOL     OW 6184   6.832   1.593   5.122
 1762SOL    HW1 6185   6.752   1.609   5.063
 1762SOL    HW2 6186   6.898   1.537   5.073
 1763SOL     OW 6187   1.258   4.476   5.007
 1763SOL    HW1 6188   1.249   4.466   4.908
 1763SOL    HW2 6189   1.168   4.493   5.047
 1764SOL     OW 6190   0.521   3.386   2.262
 1764SOL    HW1 6191   0.562   3.347   2.179
 1764SOL    HW2 6192   0.552   3.333   2.342
 1765SOL     OW 6193   4.010   2.527   1.681
 1765SOL    HW1 6194   4.016   2.626   1.670
 1765SOL    HW2 6195   3.920   2.503   1.717
 1766SOL     OW 6196   5.425   4.657   3.798
 1766SOL    HW1 6197   5.451   4.614   3.885
 1766SOL    HW2 6198   5.489   4.730   3.776
 1767SOL     OW 6199   0.882   4.559   2.794
 1767SOL    HW1 6200   0.925   4.496   2.729
 1767SOL    HW2 6201   0.783   4.551   2.788
 1768SOL     OW 6202   4.496   0.472   0.182
 1768SOL    HW1 6203   4.481   0.374   0.171
 1768SOL    HW2 6204   4.588   0.488   0.220
 1769SOL     OW 6205   5.990   0.759   0.580
 1769SOL    HW1 6206   5.924   0.816   0.531
 1769SOL    HW2 6207   6.010   0.677   0.527
 1770SOL     OW 6208   0.418   3.644   5.172
 1770SOL    HW1 6209   0.379   3.705   5.240
 1770SOL    HW2 6210   0.450   3.560   5.217
 1771SOL     OW 6211   2.007   4.871   0.056
 1771SOL    HW1 6212   1.972   4.965   0.062
 1771SOL    HW2 6213   1.992   4.825   0.144
 1772SOL     OW 6214   4.018   5.308   4.430
 1772SOL    HW1 6215   4.062   5.226   4.467
 1772SOL    HW2 6216   4.059   5.332   4.343
 1773SOL     OW 6217   0.853   1.808   5.453
 1773SOL    HW1 6218   0.885   1.845   5.365
 1773SOL    HW2 6219   0.755   1.823   5.462
 1774SOL     OW 6220   5.357   6.586   1.995
 1774SOL    HW1 6221   5.430   6.654   1.996
 1774SOL    HW2 6222   5.394   6.497   2.023
 1775SOL     OW 6223   1.946   5.635   6.676
 1775SOL    HW1 6224   1.931   5.645   6.774
 1775SOL    HW2 6225   1.957   5.538   6.654
 1776SOL     OW 6226   4.982   0.701   5.888
 1776SOL    HW1 6227   5.022   0.792   5.905
 1776SOL    HW2 6228   5.021   0.662   5.805
 1777SOL     OW 6229   4.035   6.921   6.566
 1777SOL    HW1 6230   3.993   7.011   6.577
 1777SOL    HW2 6231   4.019   6.867   6.648
 1778SOL     OW 6232   4.830   1.169   4.331
 1778SOL    HW1 6233   4.910   1.126   4.373
 1778SOL    HW2 6234   4.858   1.222   4.252
 1779SOL     OW 6235   5.248   6.773   5.589
 1779SOL    HW1 6236   5.327   6.773   5.527
 1779SOL    HW2 6237   5.265   6.710   5.665
 1780SOL     OW 6238   1.726   4.280   4.867
 1780SOL    HW1 6239   1.634   4.276   4.826
 1780SOL    HW2 6240   1.764   4.371   4.854
 1781SOL     OW 6241   5.014   6.840   4.684
 1781SOL    HW1 6242   5.062   6.752   4.683
 1781SOL    HW2 6243   5.039   6.891   4.766
 1782SOL     OW 6244   1.902   1.531   2.825
 1782SOL    HW1 6245   1.959   1.454   2.853
 1782SOL    HW2 6246   1.953   1.589   2.762
 1783SOL     OW 6247   2.125   3.436   6.087
 1783SOL    HW1 6248   2.063   3.512   6.072
 1783SOL    HW2 6249   2.168   3.410   6.001
 1784SOL     OW 6250   2.589   1.121   2.017
 1784SOL    HW1 6251   2.493   1.106   2.040
 1784SOL    HW2 6252   2.599   1.209   1.971
 1785SOL     OW 6253   6.999   6.318   4.415
 1785SOL    HW1 6254   0.071   6.310   4.453
 1785SOL    HW2 6255   6.987   6.408   4.375
 1786SOL     OW 6256   1.969   5.282   0.661
 1786SOL    HW1 6257   1.948   5.344   0.736
 1786SOL    HW2 6258   1.922   5.313   0.578
 1787SOL     OW 6259   2.086   2.433   5.716
 1787SOL    HW1 6260   2.001   2.419   5.767
 1787SOL    HW2 6261   2.067   2.431   5.618
 1788SOL     OW 6262   4.712   3.605   0.459
 1788SOL    HW1 6263   4.749   3.527   0.409
 1788SOL    HW2 6264   4.764   3.688   0.434
 1789SOL     OW 6265   6.272   3.064   2.053
 1789SOL    HW1 6266   6.306   2.971   2.046
 1789SOL    HW2 6267   6.268   3.105   1.962
 1790SOL     OW 6268   3.289   1.259   4.315
 1790SOL    HW1 6269   3.362   1.208   4.270
 1790SOL    HW2 6270   3.313   1.276   4.410
 1791SOL     OW 6271   6.338   1.128   3.386
 1791SOL    HW1 6272   6.429   1.102   3.419
 1791SOL    HW2 6273   6.341   1.222   3.351
 1792SOL     OW 6274   6.449   1.773   4.556
 1792SOL    HW1 6275   6.474   1.820   4.472
 1792SOL    HW2 6276   6.495   1.817   4.633
 1793SOL     OW 6277   6.393   1.341   4.702
 1793SOL    HW1 6278   6.300   1.352   4.738
 1793SOL    HW2 6279   6.424   1.247   4.718
 1794SOL     OW 6280   6.386   0.123   5.967
 1794SOL    HW1 6281   6.319   0.155   6.034
 1794SOL    HW2 6282   6.403   0.025   5.981
 1795SOL     OW 6283   5.912   5.038   0.877
 1795SOL    HW1 6284   5.930   5.017   0.781
 1795SOL    HW2 6285   5.975   4.985   0.935
 1796SOL     OW 6286   1.856   1.153   5.444
 1796SOL    HW1 6287   1.807   1.090   5.504
 1796SOL    HW2 6288   1.791   1.201   5.386
 1797SOL     OW 6289   1.358   0.124   5.115
 1797SOL    HW1 6290   1.441   0.103   5.167
 1797SOL    HW2 6291   1.278   0.104   5.172
 1798SOL     OW 6292   3.446   2.862   4.441
 1798SOL    HW1 6293   3.475   2.823   4.354
 1798SOL    HW2 6294   3.364   2.917   4.427
 1799SOL     OW 6295   4.200   2.114   6.680
 1799SOL    HW1 6296   4.191   2.073   6.771
 1799SOL    HW2 6297   4.258   2.195   6.685
 1800SOL     OW 6298   5.338   4.392   3.715
 1800SOL    HW1 6299   5.304   4.484   3.734
 1800SOL    HW2 6300   5.433   4.397   3.686
 1801SOL     OW 6301   0.680   1.918   1.612
 1801SOL    HW1 6302   0.709   1.908   1.517
 1801SOL    HW2 6303   0.756   1.954   1.667
 1802SOL     OW 6304   6.237   5.562   3.704
 1802SOL    HW1 6305   6.186   5.515   3.776
 1802SOL    HW2 6306   6.177   5.627   3.658
 1803SOL     OW 6307   0.112   6.687   2.398
 1803SOL    HW1 6308   0.161   6.665   2.313
 1803SOL    HW2 6309   0.064   6.774   2.388
 1804SOL     OW 6310   3.369   3.691   5.548
 1804SOL    HW1 6311   3.402   3.683   5.454
 1804SOL    HW2 6312   3.354   3.599   5.586
 1805SOL     OW 6313   1.285   5.926   5.952
 1805SOL    HW1 6314   1.347   5.853   5.982
 1805SOL    HW2 6315   1.191   5.902   5.975
 1806SOL     OW 6316   6.864   2.213   2.197
 1806SOL    HW1 6317   6.866   2.167   2.286
 1806SOL    HW2 6318   6.930   2.288   2.196
 1807SOL     OW 6319   6.399   3.807   0.191
 1807SOL    HW1 6320   6.336   3.759   0.129
 1807SOL    HW2 6321   6.345   3.860   0.258
 1808SOL     OW 6322   5.289   3.220   4.855
 1808SOL    HW1 6323   5.235   3.137   4.871
 1808SOL    HW2 6324   5.248   3.296   4.904
 1809SOL     OW 6325   3.021   1.783   5.324
 1809SOL    HW1 6326   2.948   1.727   5.365
 1809SOL    HW2 6327   3.102   1.780   5.383
 1810SOL     OW 6328   0.276   0.723   4.604
 1810SOL    HW1 6329   0.245   0.811   4.566
 1810SOL    HW2 6330   0.198   0.673   4.642
 1811SOL     OW 6331   4.719   4.599   1.451
 1811SOL    HW1 6332   4.717   4.504   1.483
 1811SOL    HW2 6333   4.644   4.650   1.493
 1812SOL     OW 6334   4.511   6.979   6.066
 1812SOL    HW1 6335   4.472   0.025   6.002
 1812SOL    HW2 6336   4.564   6.910   6.016
 1813SOL     OW 6337   4.503   4.497   2.182
 1813SOL    HW1 6338   4.559   4.424   2.143
 1813SOL    HW2 6339   4.427   4.517   2.121
 1814SOL     OW 6340   6.623   6.858   0.297
 1814SOL    HW1 6341   6.647   6.949   0.330
 1814SOL    HW2 6342   6.626   6.793   0.373
 1815SOL     OW 6343   5.757   5.858   2.693
 1815SOL    HW1 6344   5.759   5.780   2.629
 1815SOL    HW2 6345   5.677   5.851   2.752
 1816SOL     OW 6346   4.207   6.377   5.545
 1816SOL    HW1 6347   4.164   6.430   5.472
 1816SOL    HW2 6348   4.258   6.301   5.505
 1817SOL     OW 6349   2.928   1.960   2.707
 1817SOL    HW1 6350   2.988   2.039   2.721
 1817SOL    HW2 6351   2.974   1.877   2.738
 1818SOL     OW 6352   1.730   6.658   0.494
 1818SOL    HW1 6353   1.829   6.652   0.507
 1818SOL    HW2 6354   1.695   6.571   0.461
 1819SOL     OW 6355   1.531   5.193   1.936
 1819SOL    HW1 6356   1.565   5.099   1.937
 1819SOL    HW2 6357   1.438   5.195   1.973
 1820SOL     OW 6358   4.173   0.552   2.792
 1820SOL    HW1 6359   4.238   0.608   2.740
 1820SOL    HW2 6360   4.084   0.597   2.794
 1821SOL     OW 6361   3.509   1.161   1.847
 1821SOL    HW1 6362   3.463   1.078   1.815
 1821SOL    HW2 6363   3.443   1.220   1.893
 1822SOL     OW 6364   0.834   3.430   1.953
 1822SOL    HW1 6365   0.825   3.524   1.917
 1822SOL    HW2 6366   0.882   3.432   2.040
 1823SOL     OW 6367   3.522   6.365   2.676
 1823SOL    HW1 6368   3.568   6.281   2.704
 1823SOL    HW2 6369   3.579   6.415   2.611
 1824SOL     OW 6370   3.762   3.774   0.796
 1824SOL    HW1 6371   3.841   3.737   0.748
 1824SOL    HW2 6372   3.699   3.699   0.820
 1825SOL     OW 6373   0.410   2.780   4.671
 1825SOL    HW1 6374   0.418   2.866   4.723
 1825SOL    HW2 6375   0.322   2.737   4.690
 1826SOL     OW 6376   3.657   1.688   0.786
 1826SOL    HW1 6377   3.623   1.703   0.879
 1826SOL    HW2 6378   3.742   1.738   0.773
 1827SOL     OW 6379   4.957   5.218   1.116
 1827SOL    HW1 6380   4.898   5.145   1.080
 1827SOL    HW2 6381   5.041   5.178   1.152
 1828SOL     OW 6382   1.534   3.661   6.315
 1828SOL    HW1 6383   1.542   3.621   6.223
 1828SOL    HW2 6384   1.606   3.728   6.328
 1829SOL     OW 6385   3.665   0.628   3.445
 1829SOL    HW1 6386   3.597   0.568   3.403
 1829SOL    HW2 6387   3.714   0.579   3.516
 1830SOL     OW 6388   5.925   6.461   4.842
 1830SOL    HW1 6389   5.958   6.413   4.761
 1830SOL    HW2 6390   5.826   6.451   4.848
 1831SOL     OW 6391   5.175   5.936   3.163
 1831SOL    HW1 6392   5.096   5.912   3.107
 1831SOL    HW2 6393   5.185   6.035   3.165
 1832SOL     OW 6394   3.227   3.961   0.539
 1832SOL    HW1 6395   3.262   3.987   0.449
 1832SOL    HW2 6396   3.147   4.017   0.561
 1833SOL     OW 6397   4.844   0.064   1.254
 1833SOL    HW1 6398   4.814   0.076   1.159
 1833SOL    HW2 6399   4.827   0.148   1.305
 1834SOL     OW 6400   3.323   2.988   1.176
 1834SOL    HW1 6401   3.228   2.961   1.191
 1834SOL    HW2 6402   3.365   2.926   1.110
 1835SOL     OW 6403   1.060   5.466   1.132
 1835SOL    HW1 6404   1.093   5.558   1.113
 1835SOL    HW2 6405   1.137   5.402   1.137
 1836SOL     OW 6406   4.926   1.152   2.190
 1836SOL    HW1 6407   4.935   1.233   2.131
 1836SOL    HW2 6408   4.839   1.155   2.238
 1837SOL     OW 6409   1.618   1.082   5.533
 1837SOL    HW1 6410   1.553   1.012   5.560
 1837SOL    HW2 6411   1.621   1.089   5.433
 1838SOL     OW 6412   6.527   1.054   6.677
 1838SOL    HW1 6413   6.432   1.043   6.709
 1838SOL    HW2 6414   6.547   0.982   6.610
 1839SOL     OW 6415   6.200   1.730   6.193
 1839SOL    HW1 6416   6.268   1.733   6.267
 1839SOL    HW2 6417   6.212   1.809   6.133
 1840SOL     OW 6418   3.786   6.979   3.198
 1840SOL    HW1 6419   3.698   7.016   3.168
 1840SOL    HW2 6420   3.846   0.034   3.227
 1841SOL     OW 6421   2.615   0.439   2.399
 1841SOL    HW1 6422   2.607   0.534   2.369
 1841SOL    HW2 6423   2.534   0.415   2.454
 1842SOL     OW 6424   1.644   5.081   0.738
 1842SOL    HW1 6425   1.620   5.041   0.649
 1842SOL    HW2 6426   1.733   5.125   0.732
 1843SOL     OW 6427   4.004   1.227   4.631
 1843SOL    HW1 6428   4.003   1.226   4.731
 1843SOL    HW2 6429   3.950   1.305   4.598
 1844SOL     OW 6430   4.639   2.284   5.425
 1844SOL    HW1 6431   4.557   2.314   5.472
 1844SOL    HW2 6432   4.715   2.279   5.490
 1845SOL     OW 6433   2.803   0.665   3.672
 1845SOL    HW1 6434   2.739   0.674   3.748
 1845SOL    HW2 6435   2.752   0.653   3.586
 1846SOL     OW 6436   4.695   0.672   2.994
 1846SOL    HW1 6437   4.745   0.653   3.079
 1846SOL    HW2 6438   4.692   0.771   2.979
 1847SOL     OW 6439   1.444   0.719   4.970
 1847SOL    HW1 6440   1.460   0.632   4.923
 1847SOL    HW2 6441   1.482   0.794   4.916
 1848SOL     OW 6442   2.667   5.897   4.040
 1848SOL    HW1 6443   2.603   5.851   3.978
 1848SOL    HW2 6444   2.747   5.928   3.988
 1849SOL     OW 6445   4.922   3.142   2.166
 1849SOL    HW1 6446   4.846   3.093   2.122
 1849SOL    HW2 6447   4.954   3.214   2.105
 1850SOL     OW 6448   5.255   2.064   2.457
 1850SOL    HW1 6449   5.285   2.145   2.405
 1850SOL    HW2 6450   5.330   2.032   2.515
 1851SOL     OW 6451   0.474   3.116   6.331
 1851SOL    HW1 6452   0.569   3.087   6.321
 1851SOL    HW2 6453   0.450   3.177   6.256
 1852SOL     OW 6454   0.225   4.833   1.478
 1852SOL    HW1 6455   0.205   4.788   1.391
 1852SOL    HW2 6456   0.270   4.768   1.539
 1853SOL     OW 6457   6.890   2.625   4.011
 1853SOL    HW1 6458   6.896   2.539   3.960
 1853SOL    HW2 6459   6.982   2.657   4.034
 1854SOL     OW 6460   1.198   5.750   3.455
 1854SOL    HW1 6461   1.293   5.730   3.475
 1854SOL    HW2 6462   1.155   5.670   3.413
 1855SOL     OW 6463   5.715   3.164   4.452
 1855SOL    HW1 6464   5.765   3.093   4.501
 1855SOL    HW2 6465   5.621   3.133   4.435
 1856SOL     OW 6466   4.138   3.075   6.531
 1856SOL    HW1 6467   4.142   3.158   6.586
 1856SOL    HW2 6468   4.046   3.036   6.536
 1857SOL     OW 6469   5.795   0.928   0.455
 1857SOL    HW1 6470   5.736   0.981   0.517
 1857SOL    HW2 6471   5.740   0.890   0.381
 1858SOL     OW 6472   4.838   2.498   3.903
 1858SOL    HW1 6473   4.806   2.467   3.993
 1858SOL    HW2 6474   4.922   2.552   3.915
 1859SOL     OW 6475   5.400   1.918   4.459
 1859SOL    HW1 6476   5.419   1.860   4.538
 1859SOL    HW2 6477   5.343   1.868   4.394
 1860SOL     OW 6478   0.752   2.086   5.003
 1860SOL    HW1 6479   0.774   2.083   4.905
 1860SOL    HW2 6480   0.668   2.139   5.016
 1861SOL     OW 6481   5.676   0.041   2.958
 1861SOL    HW1 6482   5.724   6.974   2.971
 1861SOL    HW2 6483   5.741   0.112   2.932
 1862SOL     OW 6484   1.796   0.091   6.800
 1862SOL    HW1 6485   1.738   0.010   6.810
 1862SOL    HW2 6486   1.875   0.085   6.861
 1863SOL     OW 6487   0.271   3.054   1.156
 1863SOL    HW1 6488   0.290   2.956   1.167
 1863SOL    HW2 6489   0.314   3.105   1.231
 1864SOL     OW 6490   2.806   5.402   4.160
 1864SOL    HW1 6491   2.811   5.400   4.260
 1864SOL    HW2 6492   2.750   5.326   4.127
 1865SOL     OW 6493   4.137   1.569   1.184
 1865SOL    HW1 6494   4.173   1.504   1.251
 1865SOL    HW2 6495   4.162   1.539   1.092
 1866SOL     OW 6496   6.295   4.169   4.472
 1866SOL    HW1 6497   6.298   4.083   4.524
 1866SOL    HW2 6498   6.205   4.210   4.481
 1867SOL     OW 6499   2.489   2.846   1.349
 1867SOL    HW1 6500   2.421   2.785   1.392
 1867SOL    HW2 6501   2.571   2.793   1.326
 1868SOL     OW 6502   4.829   4.061   5.082
 1868SOL    HW1 6503   4.853   3.966   5.100
 1868SOL    HW2 6504   4.865   4.119   5.155
 1869SOL     OW 6505   5.078   2.641   3.938
 1869SOL    HW1 6506   5.094   2.738   3.921
 1869SOL    HW2 6507   5.148   2.606   4.000
 1870SOL     OW 6508   0.948   2.975   4.104
 1870SOL    HW1 6509   1.020   2.909   4.084
 1870SOL    HW2 6510   0.875   2.966   4.037
 1871SOL     OW 6511   6.889   6.378   0.362
 1871SOL    HW1 6512   6.910   6.299   0.419
 1871SOL    HW2 6513   6.794   6.407   0.378
 1872SOL     OW 6514   3.041   2.517   0.749
 1872SOL    HW1 6515   3.013   2.592   0.689
 1872SOL    HW2 6516   3.131   2.537   0.788
 1873SOL     OW 6517   6.273   0.941   6.682
 1873SOL    HW1 6518   6.212   0.902   6.613
 1873SOL    HW2 6519   6.262   0.892   6.769
 1874SOL     OW 6520   0.825   0.639   6.722
 1874SOL    HW1 6521   0.819   0.541   6.744
 1874SOL    HW2 6522   0.920   0.663   6.703
 1875SOL     OW 6523   6.454   6.150   0.541
 1875SOL    HW1 6524   6.370   6.111   0.504
 1875SOL    HW2 6525   6.454   6.140   0.641
 1876SOL     OW 6526   5.816   6.589   5.873
 1876SOL    HW1 6527   5.825   6.529   5.793
 1876SOL    HW2 6528   5.898   6.644   5.883
 1877SOL     OW 6529   6.910   1.167   2.600
 1877SOL    HW1 6530   6.842   1.130   2.664
 1877SOL    HW2 6531   6.916   1.266   2.611
 1878SOL     OW 6532   0.188   3.941   3.450
 1878SOL    HW1 6533   0.238   3.952   3.536
 1878SOL    HW2 6534   0.134   3.856   3.454
 1879SOL     OW 6535   2.612   5.417   4.747
 1879SOL    HW1 6536   2.711   5.430   4.743
 1879SOL    HW2 6537   2.579   5.441   4.838
 1880SOL     OW 6538   0.101   2.018   3.317
 1880SOL    HW1 6539   0.167   1.943   3.308
 1880SOL    HW2 6540   0.119   2.087   3.247
 1881SOL     OW 6541   0.680   2.245   3.380
 1881SOL    HW1 6542   0.716   2.209   3.294
 1881SOL    HW2 6543   0.583   2.221   3.388
 1882SOL     OW 6544   1.245   5.934   0.308
 1882SOL    HW1 6545   1.185   6.015   0.304
 1882SOL    HW2 6546   1.340   5.963   0.304
 1883SOL     OW 6547   1.353   3.536   2.870
 1883SOL    HW1 6548   1.391   3.619   2.909
 1883SOL    HW2 6549   1.291   3.493   2.936
 1884SOL     OW 6550   4.258   0.820   0.628
 1884SOL    HW1 6551   4.287   0.915   0.636
 1884SOL    HW2 6552   4.298   0.780   0.546
 1885SOL     OW 6553   6.493   2.153   1.048
 1885SOL    HW1 6554   6.506   2.058   1.017
 1885SOL    HW2 6555   6.569   2.209   1.014
 1886SOL     OW 6556   1.695   1.865   0.205
 1886SOL    HW1 6557   1.610   1.837   0.248
 1886SOL    HW2 6558   1.772   1.843   0.265
 1887SOL     OW 6559   0.395   4.427   5.802
 1887SOL    HW1 6560   0.398   4.421   5.901
 1887SOL    HW2 6561   0.437   4.345   5.762
 1888SOL     OW 6562   1.947   1.451   5.722
 1888SOL    HW1 6563   2.047   1.464   5.727
 1888SOL    HW2 6564   1.917   1.459   5.627
 1889SOL     OW 6565   4.474   3.438   0.141
 1889SOL    HW1 6566   4.569   3.434   0.174
 1889SOL    HW2 6567   4.416   3.383   0.201
 1890SOL     OW 6568   1.305   5.782   6.235
 1890SOL    HW1 6569   1.349   5.694   6.214
 1890SOL    HW2 6570   1.213   5.765   6.272
 1891SOL     OW 6571   5.564   3.316   5.416
 1891SOL    HW1 6572   5.610   3.266   5.489
 1891SOL    HW2 6573   5.560   3.259   5.334
 1892SOL     OW 6574   3.731   6.649   1.810
 1892SOL    HW1 6575   3.705   6.646   1.713
 1892SOL    HW2 6576   3.652   6.675   1.865
 1893SOL     OW 6577   3.456   2.115   4.727
 1893SOL    HW1 6578   3.518   2.128   4.804
 1893SOL    HW2 6579   3.362   2.118   4.760
 1894SOL     OW 6580   4.371   3.759   1.671
 1894SOL    HW1 6581   4.302   3.761   1.744
 1894SOL    HW2 6582   4.365   3.843   1.617
 1895SOL     OW 6583   6.112   0.686   2.135
 1895SOL    HW1 6584   6.188   0.643   2.087
 1895SOL    HW2 6585   6.114   0.785   2.119
 1896SOL     OW 6586   6.693   1.038   3.957
 1896SOL    HW1 6587   6.786   1.047   3.920
 1896SOL    HW2 6588   6.628   1.073   3.890
 1897SOL     OW 6589   6.911   5.684   3.536
 1897SOL    HW1 6590   6.985   5.728   3.485
 1897SOL    HW2 6591   6.885   5.599   3.490
 1898SOL     OW 6592   4.140   6.123   1.663
 1898SOL    HW1 6593   4.145   6.219   1.636
 1898SOL    HW2 6594   4.210   6.104   1.732
 1899SOL     OW 6595   0.015   3.866   2.657
 1899SOL    HW1 6596   0.077   3.899   2.586
 1899SOL    HW2 6597   0.057   3.878   2.747
 1900SOL     OW 6598   0.982   0.068   6.371
 1900SOL    HW1 6599   0.883   0.056   6.380
 1900SOL    HW2 6600   1.003   0.164   6.356
 1901SOL     OW 6601   2.322   1.438   0.384
 1901SOL    HW1 6602   2.332   1.521   0.329
 1901SOL    HW2 6603   2.331   1.357   0.326
 1902SOL     OW 6604   1.354   2.372   4.688
 1902SOL    HW1 6605   1.291   2.294   4.688
 1902SOL    HW2 6606   1.325   2.439   4.620
 1903SOL     OW 6607   6.487   3.897   2.993
 1903SOL    HW1 6608   6.557   3.897   2.921
 1903SOL    HW2 6609   6.480   3.807   3.034
 1904SOL     OW 6610   6.872   6.971   4.466
 1904SOL    HW1 6611   6.937   7.018   4.526
 1904SOL    HW2 6612   6.840   6.888   4.511
 1905SOL     OW 6613   6.791   2.479   3.707
 1905SOL    HW1 6614   6.778   2.577   3.723
 1905SOL    HW2 6615   6.856   2.466   3.632
 1906SOL     OW 6616   2.879   0.257   5.669
 1906SOL    HW1 6617   2.794   0.279   5.621
 1906SOL    HW2 6618   2.953   0.245   5.603
 1907SOL     OW 6619   2.877   0.055   3.652
 1907SOL    HW1 6620   2.855   7.002   3.717
 1907SOL    HW2 6621   2.833   0.140   3.681
 1908SOL     OW 6622   4.641   1.148   5.804
 1908SOL    HW1 6623   4.589   1.130   5.887
 1908SOL    HW2 6624   4.731   1.105   5.811
 1909SOL     OW 6625   2.302   4.560   4.443
 1909SOL    HW1 6626   2.261   4.489   4.499
 1909SOL    HW2 6627   2.400   4.562   4.458
 1910SOL     OW 6628   5.327   2.734   6.639
 1910SOL    HW1 6629   5.280   2.681   6.709
 1910SOL    HW2 6630   5.400   2.679   6.598
 1911SOL     OW 6631   6.633   1.783   5.475
 1911SOL    HW1 6632   6.694   1.721   5.525
 1911SOL    HW2 6633   6.547   1.792   5.526
 1912SOL     OW 6634   3.862   6.509   2.439
 1912SOL    HW1 6635   3.848   6.542   2.532
 1912SOL    HW2 6636   3.844   6.411   2.435
 1913SOL     OW 6637   1.859   6.491   5.027
 1913SOL    HW1 6638   1.949   6.448   5.025
 1913SOL    HW2 6639   1.803   6.454   4.953
 1914SOL     OW 6640   2.201   2.469   6.620
 1914SOL    HW1 6641   2.155   2.511   6.542
 1914SOL    HW2 6642   2.209   2.371   6.605
 1915SOL     OW 6643   4.110   1.328   5.729
 1915SOL    HW1 6644   4.174   1.342   5.804
 1915SOL    HW2 6645   4.153   1.272   5.658
 1916SOL     OW 6646   4.470   5.887   1.076
 1916SOL    HW1 6647   4.561   5.877   1.117
 1916SOL    HW2 6648   4.479   5.893   0.977
 1917SOL     OW 6649   3.740   3.328   4.296
 1917SOL    HW1 6650   3.663   3.264   4.306
 1917SOL    HW2 6651   3.777   3.350   4.386
 1918SOL     OW 6652   6.348   6.867   5.971
 1918SOL    HW1 6653   6.302   6.806   6.036
 1918SOL    HW2 6654   6.447   6.862   5.986
 1919SOL     OW 6655   1.616   6.253   1.859
 1919SOL    HW1 6656   1.563   6.274   1.777
 1919SOL    HW2 6657   1.679   6.329   1.879
 1920SOL     OW 6658   0.263   4.215   3.378
 1920SOL    HW1 6659   0.193   4.143   3.379
 1920SOL    HW2 6660   0.349   4.178   3.413
 1921SOL     OW 6661   0.145   5.148   6.984
 1921SOL    HW1 6662   0.132   5.245   7.007
 1921SOL    HW2 6663   0.226   5.139   6.926
 1922SOL     OW 6664   4.369   3.070   1.113
 1922SOL    HW1 6665   4.401   2.976   1.100
 1922SOL    HW2 6666   4.441   3.123   1.159
 1923SOL     OW 6667   3.230   1.167   0.190
 1923SOL    HW1 6668   3.165   1.117   0.247
 1923SOL    HW2 6669   3.239   1.122   0.101
 1924SOL     OW 6670   6.128   4.453   1.855
 1924SOL    HW1 6671   6.145   4.531   1.914
 1924SOL    HW2 6672   6.055   4.396   1.895
 1925SOL     OW 6673   2.951   3.618   1.771
 1925SOL    HW1 6674   2.884   3.617   1.697
 1925SOL    HW2 6675   2.966   3.713   1.801
 1926SOL     OW 6676   1.333   0.278   4.701
 1926SOL    HW1 6677   1.324   0.188   4.742
 1926SOL    HW2 6678   1.244   0.323   4.698
 1927SOL     OW 6679   3.304   4.270   6.346
 1927SOL    HW1 6680   3.385   4.221   6.379
 1927SOL    HW2 6681   3.299   4.263   6.247
 1928SOL     OW 6682   6.291   3.299   6.102
 1928SOL    HW1 6683   6.253   3.367   6.165
 1928SOL    HW2 6684   6.384   3.277   6.129
 1929SOL     OW 6685   0.957   5.457   1.757
 1929SOL    HW1 6686   1.026   5.405   1.807
 1929SOL    HW2 6687   0.980   5.554   1.760
 1930SOL     OW 6688   5.765   4.420   0.495
 1930SOL    HW1 6689   5.777   4.328   0.458
 1930SOL    HW2 6690   5.795   4.488   0.428
 1931SOL     OW 6691   0.057   3.475   2.947
 1931SOL    HW1 6692   7.015   3.451   3.022
 1931SOL    HW2 6693   0.076   3.393   2.892
 1932SOL     OW 6694   5.165   3.634   2.720
 1932SOL    HW1 6695   5.150   3.698   2.796
 1932SOL    HW2 6696   5.091   3.643   2.654
 1933SOL     OW 6697   2.734   5.072   0.888
 1933SOL    HW1 6698   2.719   4.979   0.919
 1933SOL    HW2 6699   2.794   5.119   0.953
 1934SOL     OW 6700   1.218   7.003   5.517
 1934SOL    HW1 6701   1.277   0.061   5.539
 1934SOL    HW2 6702   1.271   6.934   5.467
 1935SOL     OW 6703   3.001   0.161   4.875
 1935SOL    HW1 6704   3.055   0.216   4.939
 1935SOL    HW2 6705   3.063   0.114   4.812
 1936SOL     OW 6706   5.821   5.234   4.784
 1936SOL    HW1 6707   5.848   5.183   4.702
 1936SOL    HW2 6708   5.901   5.279   4.823
 1937SOL     OW 6709   4.245   0.211   2.102
 1937SOL    HW1 6710   4.212   0.120   2.076
 1937SOL    HW2 6711   4.265   0.213   2.200
 1938SOL     OW 6712   4.182   1.871   3.115
 1938SOL    HW1 6713   4.093   1.901   3.151
 1938SOL    HW2 6714   4.181   1.772   3.102
 1939SOL     OW 6715   1.099   7.018   4.070
 1939SOL    HW1 6716   1.027   0.066   4.087
 1939SOL    HW2 6717   1.064   6.946   4.009
 1940SOL     OW 6718   5.215   5.355   6.884
 1940SOL    HW1 6719   5.278   5.335   6.809
 1940SOL    HW2 6720   5.264   5.346   6.971
 1941SOL     OW 6721   6.598   4.174   2.706
 1941SOL    HW1 6722   6.633   4.190   2.614
 1941SOL    HW2 6723   6.523   4.107   2.702
 1942SOL     OW 6724   6.500   6.538   2.860
 1942SOL    HW1 6725   6.448   6.620   2.837
 1942SOL    HW2 6726   6.492   6.471   2.785
 1943SOL     OW 6727   3.276   5.859   1.849
 1943SOL    HW1 6728   3.339   5.835   1.923
 1943SOL    HW2 6729   3.323   5.920   1.785
 1944SOL     OW 6730   5.006   2.234   6.144
 1944SOL    HW1 6731   5.022   2.256   6.048
 1944SOL    HW2 6732   5.056   2.152   6.169
 1945SOL     OW 6733   4.420   5.728   3.438
 1945SOL    HW1 6734   4.474   5.669   3.379
 1945SOL    HW2 6735   4.342   5.765   3.387
 1946SOL     OW 6736   0.290   0.846   0.368
 1946SOL    HW1 6737   0.231   0.910   0.320
 1946SOL    HW2 6738   0.278   0.754   0.331
 1947SOL     OW 6739   5.319   6.539   4.216
 1947SOL    HW1 6740   5.352   6.607   4.282
 1947SOL    HW2 6741   5.323   6.448   4.258
 1948SOL     OW 6742   6.660   5.398   3.453
 1948SOL    HW1 6743   6.648   5.452   3.535
 1948SOL    HW2 6744   6.575   5.350   3.431
 1949SOL     OW 6745   3.973   4.449   5.771
 1949SOL    HW1 6746   3.998   4.542   5.797
 1949SOL    HW2 6747   3.977   4.390   5.851
 1950SOL     OW 6748   4.007   3.883   1.063
 1950SOL    HW1 6749   4.008   3.912   1.159
 1950SOL    HW2 6750   4.100   3.862   1.033
 1951SOL     OW 6751   6.694   2.827   0.414
 1951SOL    HW1 6752   6.755   2.807   0.490
 1951SOL    HW2 6753   6.712   2.919   0.379
 1952SOL     OW 6754   3.629   2.381   6.873
 1952SOL    HW1 6755   3.535   2.350   6.886
 1952SOL    HW2 6756   3.639   2.474   6.909
 1953SOL     OW 6757   6.109   2.213   6.355
 1953SOL    HW1 6758   6.137   2.242   6.263
 1953SOL    HW2 6759   6.014   2.182   6.352
 1954SOL     OW 6760   5.498   1.132   4.373
 1954SOL    HW1 6761   5.455   1.119   4.462
 1954SOL    HW2 6762   5.485   1.227   4.343
 1955SOL     OW 6763   1.541   0.071   2.384
 1955SOL    HW1 6764   1.558   0.079   2.482
 1955SOL    HW2 6765   1.491   7.007   2.365
 1956SOL     OW 6766   5.995   6.352   2.654
 1956SOL    HW1 6767   5.979   6.271   2.710
 1956SOL    HW2 6768   5.908   6.397   2.635
 1957SOL     OW 6769   6.551   4.799   5.016
 1957SOL    HW1 6770   6.553   4.887   4.969
 1957SOL    HW2 6771   6.601   4.806   5.102
 1958SOL     OW 6772   6.078   2.686   3.929
 1958SOL    HW1 6773   6.144   2.630   3.879
 1958SOL    HW2 6774   6.127   2.757   3.980
 1959SOL     OW 6775   0.595   2.274   5.876
 1959SOL    HW1 6776   0.576   2.318   5.788
 1959SOL    HW2 6777   0.536   2.312   5.946
 1960SOL     OW 6778   6.329   4.851   1.284
 1960SOL    HW1 6779   6.331   4.753   1.264
 1960SOL    HW2 6780   6.363   4.903   1.206
 1961SOL     OW 6781   5.536   4.539   4.081
 1961SOL    HW1 6782   5.517   4.566   4.175
 1961SOL    HW2 6783   5.615   4.590   4.047
 1962SOL     OW 6784   2.005   6.024   3.008
 1962SOL    HW1 6785   2.024   6.034   2.910
 1962SOL    HW2 6786   1.929   6.084   3.034
 1963SOL     OW 6787   0.648   0.625   1.740
 1963SOL    HW1 6788   0.553   0.602   1.756
 1963SOL    HW2 6789   0.687   0.562   1.672
 1964SOL     OW 6790   4.631   2.743   1.386
 1964SOL    HW1 6791   4.641   2.645   1.402
 1964SOL    HW2 6792   4.536   2.769   1.397
 1965SOL     OW 6793   0.891   3.201   2.812
 1965SOL    HW1 6794   0.899   3.106   2.783
 1965SOL    HW2 6795   0.947   3.216   2.894
 1966SOL     OW 6796   0.189   5.220   5.096
 1966SOL    HW1 6797   0.197   5.312   5.058
 1966SOL    HW2 6798   0.158   5.157   5.025
 1967SOL     OW 6799   4.547   2.074   5.655
 1967SOL    HW1 6800   4.495   2.130   5.590
 1967SOL    HW2 6801   4.568   2.130   5.736
 1968SOL     OW 6802   2.888   5.999   0.196
 1968SOL    HW1 6803   2.913   6.060   0.271
 1968SOL    HW2 6804   2.792   5.975   0.204
 1969SOL     OW 6805   0.563   1.516   1.549
 1969SOL    HW1 6806   0.650   1.541   1.591
 1969SOL    HW2 6807   0.488   1.558   1.599
 1970SOL     OW 6808   2.467   1.222   6.173
 1970SOL    HW1 6809   2.552   1.181   6.208
 1970SOL    HW2 6810   2.454   1.312   6.214
 1971SOL     OW 6811   6.709   6.678   6.170
 1971SOL    HW1 6812   6.663   6.679   6.259
 1971SOL    HW2 6813   6.654   6.626   6.105
 1972SOL     OW 6814   6.901   2.292   3.079
 1972SOL    HW1 6815   6.913   2.310   3.176
 1972SOL    HW2 6816   6.988   2.304   3.032
 1973SOL     OW 6817   2.600   3.578   1.324
 1973SOL    HW1 6818   2.626   3.482   1.315
 1973SOL    HW2 6819   2.519   3.597   1.268
 1974SOL     OW 6820   6.552   6.303   3.911
 1974SOL    HW1 6821   6.588   6.238   3.845
 1974SOL    HW2 6822   6.468   6.343   3.875
 1975SOL     OW 6823   2.536   0.999   3.132
 1975SOL    HW1 6824   2.531   1.065   3.208
 1975SOL    HW2 6825   2.516   1.045   3.046
 1976SOL     OW 6826   1.030   5.526   0.086
 1976SOL    HW1 6827   1.046   5.449   0.147
 1976SOL    HW2 6828   1.110   5.587   0.087
 1977SOL     OW 6829   1.637   2.296   3.376
 1977SOL    HW1 6830   1.631   2.372   3.311
 1977SOL    HW2 6831   1.604   2.212   3.333
 1978SOL     OW 6832   1.322   0.158   4.098
 1978SOL    HW1 6833   1.252   0.087   4.086
 1978SOL    HW2 6834   1.406   0.116   4.131
 1979SOL     OW 6835   6.520   4.027   4.786
 1979SOL    HW1 6836   6.537   4.120   4.752
 1979SOL    HW2 6837   6.449   3.983   4.731
 1980SOL     OW 6838   3.080   0.783   6.928
 1980SOL    HW1 6839   3.073   0.690   6.893
 1980SOL    HW2 6840   3.111   0.781   0.003
 1981SOL     OW 6841   5.755   2.419   2.335
 1981SOL    HW1 6842   5.765   2.333   2.285
 1981SOL    HW2 6843   5.845   2.451   2.364
 1982SOL     OW 6844   6.077   4.208   5.912
 1982SOL    HW1 6845   6.085   4.160   6.000
 1982SOL    HW2 6846   6.022   4.291   5.924
 1983SOL     OW 6847   1.089   2.214   2.513
 1983SOL    HW1 6848   1.061   2.249   2.603
 1983SOL    HW2 6849   1.185   2.185   2.516
 1984SOL     OW 6850   5.487   0.595   5.458
 1984SOL    HW1 6851   5.397   0.567   5.424
 1984SOL    HW2 6852   5.531   0.517   5.503
 1985SOL     OW 6853   1.366   0.635   2.165
 1985SOL    HW1 6854   1.440   0.702   2.175
 1985SOL    HW2 6855   1.336   0.632   2.069
 1986SOL     OW 6856   1.335   0.539   0.297
 1986SOL    HW1 6857   1.362   0.449   0.332
 1986SOL    HW2 6858   1.317   0.601   0.373
 1987SOL     OW 6859   1.663   3.404   2.032
 1987SOL    HW1 6860   1.748   3.385   2.080
 1987SOL    HW2 6861   1.684   3.431   1.937
 1988SOL     OW 6862   4.508   4.727   0.829
 1988SOL    HW1 6863   4.487   4.685   0.916
 1988SOL    HW2 6864   4.466   4.675   0.755
 1989SOL     OW 6865   2.731   6.872   5.212
 1989SOL    HW1 6866   2.806   6.896   5.151
 1989SOL    HW2 6867   2.697   6.781   5.189
 1990SOL     OW 6868   3.636   6.974   1.131
 1990SOL    HW1 6869   3.666   0.022   1.063
 1990SOL    HW2 6870   3.563   7.013   1.187
 1991SOL     OW 6871   3.861   5.287   6.289
 1991SOL    HW1 6872   3.949   5.239   6.294
 1991SOL    HW2 6873   3.788   5.226   6.319
 1992SOL     OW 6874   1.587   6.914   6.773
 1992SOL    HW1 6875   1.601   6.845   6.702
 1992SOL    HW2 6876   1.547   6.996   6.732
 1993SOL     OW 6877   3.995   3.548   5.157
 1993SOL    HW1 6878   4.046   3.631   5.133
 1993SOL    HW2 6879   3.968   3.501   5.073
 1994SOL     OW 6880   1.467   2.371   1.486
 1994SOL    HW1 6881   1.518   2.449   1.451
 1994SOL    HW2 6882   1.421   2.397   1.572
 1995SOL     OW 6883   6.222   2.900   1.581
 1995SOL    HW1 6884   6.275   2.859   1.507
 1995SOL    HW2 6885   6.230   2.844   1.663
 1996SOL     OW 6886   2.843   3.725   0.542
 1996SOL    HW1 6887   2.804   3.811   0.576
 1996SOL    HW2 6888   2.862   3.735   0.444
 1997SOL     OW 6889   5.193   0.523   5.742
 1997SOL    HW1 6890   5.155   0.458   5.809
 1997SOL    HW2 6891   5.270   0.480   5.695
 1998SOL     OW 6892   3.134   3.783   5.682
 1998SOL    HW1 6893   3.064   3.711   5.684
 1998SOL    HW2 6894   3.221   3.743   5.654
 1999SOL     OW 6895   2.719   6.954   2.143
 1999SOL    HW1 6896   2.743   0.010   2.081
 1999SOL    HW2 6897   2.802   6.925   2.192
 2000SOL     OW 6898   3.838   1.993   5.770
 2000SOL    HW1 6899   3.748   1.956   5.794
 2000SOL    HW2 6900   3.827   2.064   5.701
 2001SOL     OW 6901   3.379   2.095   1.967
 2001SOL    HW1 6902   3.465   2.143   1.981
 2001SOL    HW2 6903   3.307   2.161   1.944
 2002SOL     OW 6904   0.933   5.613   6.224
 2002SOL    HW1 6905   0.847   5.641   6.181
 2002SOL    HW2 6906   0.914   5.543   6.293
 2003SOL     OW 6907   5.228   0.042   3.232
 2003SOL    HW1 6908   5.194   6.990   3.293
 2003SOL    HW2 6909   5.239   0.006   3.140
 2004SOL     OW 6910   5.100   0.989   4.935
 2004SOL    HW1 6911   5.061   1.080   4.948
 2004SOL    HW2 6912   5.028   0.920   4.941
 2005SOL     OW 6913   1.142   5.284   0.196
 2005SOL    HW1 6914   1.094   5.206   0.235
 2005SOL    HW2 6915   1.234   5.290   0.235
 2006SOL     OW 6916   5.101   4.145   4.004
 2006SOL    HW1 6917   5.068   4.195   4.084
 2006SOL    HW2 6918   5.075   4.049   4.013
 2007SOL     OW 6919   4.786   5.877   0.928
 2007SOL    HW1 6920   4.781   5.977   0.927
 2007SOL    HW2 6921   4.741   5.840   0.847
 2008SOL     OW 6922   1.061   5.694   2.987
 2008SOL    HW1 6923   1.001   5.683   3.066
 2008SOL    HW2 6924   1.007   5.687   2.903
 2009SOL     OW 6925   6.924   0.009   1.469
 2009SOL    HW1 6926   6.953   0.034   1.561
 2009SOL    HW2 6927   6.898   0.091   1.418
 2010SOL     OW 6928   1.282   1.211   0.776
 2010SOL    HW1 6929   1.347   1.135   0.765
 2010SOL    HW2 6930   1.247   1.236   0.686
 2011SOL     OW 6931   6.669   1.752   4.800
 2011SOL    HW1 6932   6.626   1.715   4.882
 2011SOL    HW2 6933   6.640   1.847   4.787
 2012SOL     OW 6934   0.999   3.058   1.413
 2012SOL    HW1 6935   1.092   3.019   1.416
 2012SOL    HW2 6936   0.972   3.088   1.504
 2013SOL     OW 6937   5.667   0.523   3.492
 2013SOL    HW1 6938   5.742   0.572   3.448
 2013SOL    HW2 6939   5.660   0.431   3.454
 2014SOL     OW 6940   1.319   5.093   2.983
 2014SOL    HW1 6941   1.268   5.018   3.025
 2014SOL    HW2 6942   1.396   5.057   2.931
 2015SOL     OW 6943   2.569   1.347   6.892
 2015SOL    HW1 6944   2.546   1.383   6.802
 2015SOL    HW2 6945   2.665   1.368   6.914
 2016SOL     OW 6946   0.773   5.474   5.622
 2016SOL    HW1 6947   0.800   5.424   5.540
 2016SOL    HW2 6948   0.814   5.430   5.702
 2017SOL     OW 6949   3.095   6.300   4.661
 2017SOL    HW1 6950   3.084   6.235   4.737
 2017SOL    HW2 6951   3.041   6.269   4.583
 2018SOL     OW 6952   6.188   5.879   6.041
 2018SOL    HW1 6953   6.275   5.920   6.012
 2018SOL    HW2 6954   6.185   5.875   6.141
 2019SOL     OW 6955   4.765   2.759   2.175
 2019SOL    HW1 6956   4.746   2.851   2.142
 2019SOL    HW2 6957   4.841   2.720   2.123
 2020SOL     OW 6958   1.272   4.817   4.859
 2020SOL    HW1 6959   1.200   4.757   4.823
 2020SOL    HW2 6960   1.319   4.861   4.782
 2021SOL     OW 6961   2.363   6.580   3.362
 2021SOL    HW1 6962   2.290   6.634   3.404
 2021SOL    HW2 6963   2.451   6.609   3.398
 2022SOL     OW 6964   2.069   3.633   2.478
 2022SOL    HW1 6965   2.118   3.704   2.429
 2022SOL    HW2 6966   2.038   3.562   2.414
 2023SOL     OW 6967   0.044   1.712   0.177
 2023SOL    HW1 6968   0.088   1.679   0.261
 2023SOL    HW2 6969   6.965   1.717   0.191
 2024SOL     OW 6970   0.236   0.383   2.696
 2024SOL    HW1 6971   0.257   0.465   2.748
 2024SOL    HW2 6972   0.149   0.396   2.648
 2025SOL     OW 6973   1.502   2.910   2.191
 2025SOL    HW1 6974   1.528   3.007   2.189
 2025SOL    HW2 6975   1.582   2.854   2.171
 2026SOL     OW 6976   1.598   2.616   5.906
 2026SOL    HW1 6977   1.631   2.551   5.973
 2026SOL    HW2 6978   1.662   2.620   5.829
 2027SOL     OW 6979   1.738   1.604   1.363
 2027SOL    HW1 6980   1.735   1.509   1.395
 2027SOL    HW2 6981   1.645   1.641   1.358
 2028SOL     OW 6982   3.486   1.427   6.563
 2028SOL    HW1 6983   3.438   1.515   6.565
 2028SOL    HW2 6984   3.488   1.392   6.469
 2029SOL     OW 6985   0.122   0.502   0.656
 2029SOL    HW1 6986   0.102   0.408   0.681
 2029SOL    HW2 6987   0.040   0.558   0.668
 2030SOL     OW 6988   2.395   0.974   3.534
 2030SOL    HW1 6989   2.403   0.878   3.509
 2030SOL    HW2 6990   2.299   1.003   3.526
 2031SOL     OW 6991   4.921   6.155   2.347
 2031SOL    HW1 6992   4.845   6.126   2.406
 2031SOL    HW2 6993   5.001   6.176   2.403
 2032SOL     OW 6994   4.036   6.564   1.785
 2032SOL    HW1 6995   3.952   6.618   1.775
 2032SOL    HW2 6996   4.014   6.478   1.832
 2033SOL     OW 6997   3.433   5.108   6.655
 2033SOL    HW1 6998   3.445   5.022   6.704
 2033SOL    HW2 6999   3.516   5.163   6.664
 2034SOL     OW 7000   2.805   0.231   4.373
 2034SOL    HW1 7001   2.781   0.164   4.303
 2034SOL    HW2 7002   2.852   0.186   4.448
 2035SOL     OW 7003   0.559   0.910   2.133
 2035SOL    HW1 7004   0.480   0.915   2.072
 2035SOL    HW2 7005   0.529   0.921   2.227
 2036SOL     OW 7006   0.571   5.967   3.398
 2036SOL    HW1 7007   0.647   6.031   3.385
 2036SOL    HW2 7008   0.521   5.992   3.480
 2037SOL     OW 7009   0.194   2.282   6.104
 2037SOL    HW1 7010   0.136   2.231   6.039
 2037SOL    HW2 7011   0.223   2.220   6.177
 2038SOL     OW 7012   1.249   1.370   6.675
 2038SOL    HW1 7013   1.152   1.353   6.661
 2038SOL    HW2 7014   1.294   1.284   6.699
 2039SOL     OW 7015   0.069   4.857   2.373
 2039SOL    HW1 7016   7.014   4.793   2.358
 2039SOL    HW2 7017   0.037   4.950   2.354
 2040SOL     OW 7018   3.102   2.983   4.952
 2040SOL    HW1 7019   3.086   3.028   5.039
 2040SOL    HW2 7020   3.031   2.914   4.936
 2041SOL     OW 7021   6.474   6.120   6.460
 2041SOL    HW1 7022   6.570   6.125   6.485
 2041SOL    HW2 7023   6.452   6.026   6.430
 2042SOL     OW 7024   6.074   5.684   7.010
 2042SOL    HW1 7025   6.136   5.674   6.931
 2042SOL    HW2 7026   5.981   5.663   6.982
 2043SOL     OW 7027   6.606   3.984   2.409
 2043SOL    HW1 7028   6.527   3.935   2.371
 2043SOL    HW2 7029   6.659   3.922   2.467
 2044SOL     OW 7030   4.924   0.085   1.951
 2044SOL    HW1 7031   5.016   0.123   1.961
 2044SOL    HW2 7032   4.857   0.158   1.960
 2045SOL     OW 7033   2.050   4.401   5.159
 2045SOL    HW1 7034   2.120   4.344   5.203
 2045SOL    HW2 7035   1.960   4.365   5.180
 2046SOL     OW 7036   6.718   0.654   4.541
 2046SOL    HW1 7037   6.774   0.610   4.471
 2046SOL    HW2 7038   6.743   0.618   4.631
 2047SOL     OW 7039   4.243   2.200   0.272
 2047SOL    HW1 7040   4.217   2.188   0.367
 2047SOL    HW2 7041   4.343   2.200   0.264
 2048SOL     OW 7042   2.575   5.536   0.182
 2048SOL    HW1 7043   2.634   5.581   0.115
 2048SOL    HW2 7044   2.512   5.475   0.136
 2049SOL     OW 7045   4.354   1.597   6.205
 2049SOL    HW1 7046   4.374   1.649   6.288
 2049SOL    HW2 7047   4.346   1.660   6.127
 2050SOL     OW 7048   6.206   2.089   3.685
 2050SOL    HW1 7049   6.129   2.050   3.736
 2050SOL    HW2 7050   6.197   2.067   3.588
 2051SOL     OW 7051   6.872   4.761   0.565
 2051SOL    HW1 7052   6.921   4.741   0.649
 2051SOL    HW2 7053   6.787   4.810   0.586
 2052SOL     OW 7054   0.549   4.053   0.442
 2052SOL    HW1 7055   0.558   4.152   0.429
 2052SOL    HW2 7056   0.469   4.035   0.499
 2053SOL     OW 7057   5.983   0.799   0.079
 2053SOL    HW1 7058   6.062   0.765   0.028
 2053SOL    HW2 7059   5.928   0.722   0.110
 2054SOL     OW 7060   4.815   2.962   1.714
 2054SOL    HW1 7061   4.879   2.901   1.761
 2054SOL    HW2 7062   4.737   2.980   1.773
 2055SOL     OW 7063   6.162   2.823   3.005
 2055SOL    HW1 7064   6.089   2.837   2.938
 2055SOL    HW2 7065   6.230   2.896   2.996
 2056SOL     OW 7066   2.732   0.855   3.011
 2056SOL    HW1 7067   2.657   0.906   3.052
 2056SOL    HW2 7068   2.697   0.793   2.941
 2057SOL     OW 7069   5.570   2.154   3.792
 2057SOL    HW1 7070   5.566   2.226   3.721
 2057SOL    HW2 7071   5.598   2.195   3.879
 2058SOL     OW 7072   1.236   1.403   3.118
 2058SOL    HW1 7073   1.259   1.500   3.122
 2058SOL    HW2 7074   1.311   1.353   3.074
 2059SOL     OW 7075   2.944   6.417   6.240
 2059SOL    HW1 7076   2.891   6.336   6.266
 2059SOL    HW2 7077   3.003   6.396   6.162
 2060SOL     OW 7078   6.715   4.063   0.682
 2060SOL    HW1 7079   6.719   3.998   0.758
 2060SOL    HW2 7080   6.623   4.062   0.642
 2061SOL     OW 7081   0.812   1.717   3.056
 2061SOL    HW1 7082   0.722   1.760   3.047
 2061SOL    HW2 7083   0.861   1.756   3.134
 2062SOL     OW 7084   5.713   6.999   3.553
 2062SOL    HW1 7085   5.699   6.931   3.481
 2062SOL    HW2 7086   5.769   0.055   3.519
 2063SOL     OW 7087   1.560   0.667   6.177
 2063SOL    HW1 7088   1.639   0.692   6.233
 2063SOL    HW2 7089   1.569   0.709   6.086
 2064SOL     OW 7090   0.809   1.487   5.911
 2064SOL    HW1 7091   0.902   1.498   5.877
 2064SOL    HW2 7092   0.802   1.404   5.966
 2065SOL     OW 7093   6.494   3.509   2.461
 2065SOL    HW1 7094   6.589   3.525   2.488
 2065SOL    HW2 7095   6.467   3.417   2.489
 2066SOL     OW 7096   0.821   6.209   4.035
 2066SOL    HW1 7097   0.761   6.274   4.083
 2066SOL    HW2 7098   0.781   6.118   4.041
 2067SOL     OW 7099   6.278   5.662   0.419
 2067SOL    HW1 7100   6.336   5.734   0.382
 2067SOL    HW2 7101   6.335   5.591   0.461
 2068SOL     OW 7102   1.086   1.473   5.832
 2068SOL    HW1 7103   1.066   1.379   5.805
 2068SOL    HW2 7104   1.088   1.531   5.751
 2069SOL     OW 7105   0.886   2.915   3.597
 2069SOL    HW1 7106   0.941   2.997   3.579
 2069SOL    HW2 7107   0.940   2.833   3.580
 2070SOL     OW 7108   1.816   0.636   2.796
 2070SOL    HW1 7109   1.909   0.637   2.758
 2070SOL    HW2 7110   1.760   0.702   2.746
 2071SOL     OW 7111   6.849   5.641   5.482
 2071SOL    HW1 7112   6.808   5.552   5.503
 2071SOL    HW2 7113   6.786   5.714   5.512
 2072SOL     OW 7114   4.348   6.589   2.003
 2072SOL    HW1 7115   4.426   6.589   1.941
 2072SOL    HW2 7116   4.380   6.602   2.097
 2073SOL     OW 7117   3.608   0.288   4.218
 2073SOL    HW1 7118   3.570   0.238   4.295
 2073SOL    HW2 7119   3.594   0.386   4.232
 2074SOL     OW 7120   0.812   3.293   0.773
 2074SOL    HW1 7121   0.902   3.337   0.773
 2074SOL    HW2 7122   0.744   3.355   0.812
 2075SOL     OW 7123   5.458   2.792   1.695
 2075SOL    HW1 7124   5.446   2.891   1.701
 2075SOL    HW2 7125   5.392   2.754   1.630
 2076SOL     OW 7126   5.025   0.012   6.863
 2076SOL    HW1 7127   4.942   6.990   6.825
 2076SOL    HW2 7128   5.102   6.969   6.849
 2077SOL     OW 7129   4.899   2.289   2.396
 2077SOL    HW1 7130   4.848   2.233   2.461
 2077SOL    HW2 7131   4.992   2.252   2.386
 2078SOL     OW 7132   1.507   6.479   6.580
 2078SOL    HW1 7133   1.552   6.466   6.492
 2078SOL    HW2 7134   1.562   6.435   6.652
 2079SOL     OW 7135   5.655   1.207   3.438
 2079SOL    HW1 7136   5.703   1.273   3.496
 2079SOL    HW2 7137   5.656   1.117   3.482
 2080SOL     OW 7138   1.256   0.881   4.637
 2080SOL    HW1 7139   1.321   0.848   4.569
 2080SOL    HW2 7140   1.274   0.977   4.657
 2081SOL     OW 7141   1.948   5.350   5.003
 2081SOL    HW1 7142   1.888   5.407   5.058
 2081SOL    HW2 7143   1.955   5.259   5.044
 2082SOL     OW 7144   6.894   0.279   2.913
 2082SOL    HW1 7145   6.993   0.273   2.922
 2082SOL    HW2 7146   6.851   0.200   2.956
 2083SOL     OW 7147   4.798   4.719   6.649
 2083SOL    HW1 7148   4.775   4.786   6.578
 2083SOL    HW2 7149   4.808   4.766   6.737
 2084SOL     OW 7150   6.773   4.052   3.742
 2084SOL    HW1 7151   6.778   4.043   3.642
 2084SOL    HW2 7152   6.682   4.025   3.773
 2085SOL     OW 7153   4.805   1.117   6.617
 2085SOL    HW1 7154   4.768   1.053   6.550
 2085SOL    HW2 7155   4.754   1.203   6.612
 2086SOL     OW 7156   3.340   6.715   5.361
 2086SOL    HW1 7157   3.432   6.679   5.376
 2086SOL    HW2 7158   3.321   6.786   5.427
 2087SOL     OW 7159   5.420   6.970   2.054
 2087SOL    HW1 7160   5.425   6.941   2.150
 2087SOL    HW2 7161   5.328   6.953   2.019
 2088SOL     OW 7162   2.707   6.252   0.518
 2088SOL    HW1 7163   2.652   6.300   0.450
 2088SOL    HW2 7164   2.650   6.184   0.565
 2089SOL     OW 7165   5.094   2.352   6.663
 2089SOL    HW1 7166   4.998   2.339   6.640
 2089SOL    HW2 7167   5.104   2.431   6.723
 2090SOL     OW 7168   3.598   3.881   5.386
 2090SOL    HW1 7169   3.575   3.878   5.483
 2090SOL    HW2 7170   3.565   3.798   5.341
 2091SOL     OW 7171   6.594   5.401   6.970
 2091SOL    HW1 7172   6.548   5.485   7.000
 2091SOL    HW2 7173   6.538   5.322   6.993
 2092SOL     OW 7174   4.115   4.915   6.775
 2092SOL    HW1 7175   4.110   4.860   6.858
 2092SOL    HW2 7176   4.026   4.918   6.730
 2093SOL     OW 7177   2.615   2.413   1.559
 2093SOL    HW1 7178   2.670   2.353   1.618
 2093SOL    HW2 7179   2.524   2.374   1.549
 2094SOL     OW 7180   5.823   1.886   1.066
 2094SOL    HW1 7181   5.854   1.938   1.145
 2094SOL    HW2 7182   5.842   1.939   0.982
 2095SOL     OW 7183   5.203   0.272   4.974
 2095SOL    HW1 7184   5.289   0.238   5.013
 2095SOL    HW2 7185   5.222   0.354   4.919
 2096SOL     OW 7186   4.457   4.511   2.611
 2096SOL    HW1 7187   4.368   4.507   2.656
 2096SOL    HW2 7188   4.520   4.567   2.667
 2097SOL     OW 7189   1.218   3.089   6.752
 2097SOL    HW1 7190   1.192   3.150   6.827
 2097SOL    HW2 7191   1.294   3.129   6.702
 2098SOL     OW 7192   4.168   5.213   3.402
 2098SOL    HW1 7193   4.176   5.182   3.497
 2098SOL    HW2 7194   4.093   5.164   3.357
 2099SOL     OW 7195   2.728   3.095   5.343
 2099SOL    HW1 7196   2.737   3.033   5.421
 2099SOL    HW2 7197   2.650   3.066   5.287
 2100SOL     OW 7198   4.041   3.314   5.524
 2100SOL    HW1 7199   4.043   3.216   5.543
 2100SOL    HW2 7200   3.946   3.347   5.528
 2101SOL     OW 7201   1.717   5.993   2.934
 2101SOL    HW1 7202   1.691   5.930   3.007
 2101SOL    HW2 7203   1.756   6.076   2.975
 2102SOL     OW 7204   6.222   5.083   2.011
 2102SOL    HW1 7205   6.221   5.001   1.953
 2102SOL    HW2 7206   6.145   5.142   1.986
 2103SOL     OW 7207   3.008   3.582   6.042
 2103SOL    HW1 7208   3.059   3.562   6.126
 2103SOL    HW2 7209   2.997   3.681   6.033
 2104SOL     OW 7210   1.005   3.293   0.466
 2104SOL    HW1 7211   1.032   3.350   0.544
 2104SOL    HW2 7212   0.914   3.320   0.435
 2105SOL     OW 7213   5.108   5.583   4.361
 2105SOL    HW1 7214   5.179   5.545   4.421
 2105SOL    HW2 7215   5.132   5.677   4.336
 2106SOL     OW 7216   4.769   4.189   0.791
 2106SOL    HW1 7217   4.688   4.138   0.822
 2106SOL    HW2 7218   4.829   4.205   0.869
 2107SOL     OW 7219   5.163   3.201   5.467
 2107SOL    HW1 7220   5.085   3.177   5.410
 2107SOL    HW2 7221   5.165   3.300   5.481
 2108SOL     OW 7222   0.028   6.331   5.187
 2108SOL    HW1 7223   0.029   6.234   5.212
 2108SOL    HW2 7224   6.959   6.354   5.146
 2109SOL     OW 7225   4.737   6.309   3.038
 2109SOL    HW1 7226   4.760   6.220   3.077
 2109SOL    HW2 7227   4.750   6.381   3.106
 2110SOL     OW 7228   2.750   2.667   6.087
 2110SOL    HW1 7229   2.780   2.610   6.011
 2110SOL    HW2 7230   2.760   2.763   6.063
 2111SOL     OW 7231   1.586   2.131   0.221
 2111SOL    HW1 7232   1.643   2.209   0.244
 2111SOL    HW2 7233   1.643   2.052   0.200
 2112SOL     OW 7234   5.309   2.567   0.539
 2112SOL    HW1 7235   5.283   2.551   0.635
 2112SOL    HW2 7236   5.236   2.533   0.480
 2113SOL     OW 7237   0.895   0.635   5.400
 2113SOL    HW1 7238   0.885   0.551   5.452
 2113SOL    HW2 7239   0.819   0.645   5.337
 2114SOL     OW 7240   1.762   2.828   1.039
 2114SOL    HW1 7241   1.768   2.898   0.968
 2114SOL    HW2 7242   1.835   2.841   1.106
 2115SOL     OW 7243   2.103   3.461   2.705
 2115SOL    HW1 7244   2.025   3.484   2.763
 2115SOL    HW2 7245   2.093   3.505   2.616
 2116SOL     OW 7246   0.387   4.806   3.330
 2116SOL    HW1 7247   0.449   4.849   3.395
 2116SOL    HW2 7248   0.439   4.761   3.258
 2117SOL     OW 7249   6.878   4.436   1.564
 2117SOL    HW1 7250   6.840   4.386   1.486
 2117SOL    HW2 7251   6.914   4.371   1.631
 2118SOL     OW 7252   6.698   3.424   1.644
 2118SOL    HW1 7253   6.749   3.342   1.671
 2118SOL    HW2 7254   6.679   3.479   1.725
 2119SOL     OW 7255   2.532   5.895   1.207
 2119SOL    HW1 7256   2.493   5.982   1.175
 2119SOL    HW2 7257   2.481   5.864   1.288
 2120SOL     OW 7258   0.612   4.868   4.004
 2120SOL    HW1 7259   0.675   4.893   4.078
 2120SOL    HW2 7260   0.602   4.768   4.000
 2121SOL     OW 7261   1.127   4.049   5.561
 2121SOL    HW1 7262   1.077   3.985   5.504
 2121SOL    HW2 7263   1.218   4.063   5.523
 2122SOL     OW 7264   5.218   4.151   6.217
 2122SOL    HW1 7265   5.242   4.184   6.308
 2122SOL    HW2 7266   5.294   4.167   6.154
 2123SOL     OW 7267   6.643   5.591   2.084
 2123SOL    HW1 7268   6.587   5.673   2.088
 2123SOL    HW2 7269   6.628   5.543   1.997
 2124SOL     OW 7270   2.769   1.628   1.695
 2124SOL    HW1 7271   2.702   1.692   1.659
 2124SOL    HW2 7272   2.854   1.676   1.718
 2125SOL     OW 7273   2.066   0.571   1.383
 2125SOL    HW1 7274   2.145   0.623   1.414
 2125SOL    HW2 7275   2.096   0.493   1.329
 2126SOL     OW 7276   3.928   0.927   6.889
 2126SOL    HW1 7277   3.851   0.981   6.923
 2126SOL    HW2 7278   3.895   0.857   6.826
 2127SOL     OW 7279   6.694   3.267   4.373
 2127SOL    HW1 7280   6.715   3.170   4.361
 2127SOL    HW2 7281   6.650   3.280   4.462
 2128SOL     OW 7282   6.353   3.459   3.779
 2128SOL    HW1 7283   6.390   3.426   3.692
 2128SOL    HW2 7284   6.423   3.452   3.850
 2129SOL     OW 7285   4.297   3.380   5.615
 2129SOL    HW1 7286   4.202   3.373   5.587
 2129SOL    HW2 7287   4.319   3.476   5.633
 2130SOL     OW 7288   3.324   0.885   1.951
 2130SOL    HW1 7289   3.391   0.849   2.016
 2130SOL    HW2 7290   3.276   0.963   1.992
 2131SOL     OW 7291   6.366   0.295   0.130
 2131SOL    HW1 7292   6.329   0.254   0.213
 2131SOL    HW2 7293   6.344   0.237   0.051
 2132SOL     OW 7294   4.024   1.966   1.460
 2132SOL    HW1 7295   4.113   2.003   1.487
 2132SOL    HW2 7296   3.957   1.984   1.533
 2133SOL     OW 7297   2.859   3.156   6.414
 2133SOL    HW1 7298   2.952   3.168   6.451
 2133SOL    HW2 7299   2.797   3.219   6.459
 2134SOL     OW 7300   0.407   2.925   0.134
 2134SOL    HW1 7301   0.322   2.945   0.183
 2134SOL    HW2 7302   0.386   2.872   0.052
 2135SOL     OW 7303   0.332   3.963   4.188
 2135SOL    HW1 7304   0.315   3.872   4.226
 2135SOL    HW2 7305   0.248   3.999   4.148
 2136SOL     OW 7306   1.462   4.140   2.544
 2136SOL    HW1 7307   1.436   4.215   2.483
 2136SOL    HW2 7308   1.482   4.178   2.635
 2137SOL     OW 7309   2.854   5.553   5.402
 2137SOL    HW1 7310   2.890   5.538   5.494
 2137SOL    HW2 7311   2.904   5.628   5.359
 2138SOL     OW 7312   6.605   6.566   3.114
 2138SOL    HW1 7313   6.685   6.513   3.143
 2138SOL    HW2 7314   6.589   6.552   3.016
 2139SOL     OW 7315   4.366   0.608   3.549
 2139SOL    HW1 7316   4.369   0.660   3.634
 2139SOL    HW2 7317   4.420   0.525   3.559
 2140SOL     OW 7318   3.209   0.310   4.056
 2140SOL    HW1 7319   3.235   0.405   4.037
 2140SOL    HW2 7320   3.144   0.278   3.986
 2141SOL     OW 7321   6.681   2.924   2.602
 2141SOL    HW1 7322   6.713   2.833   2.576
 2141SOL    HW2 7323   6.720   2.992   2.540
 2142SOL     OW 7324   1.406   1.318   3.431
 2142SOL    HW1 7325   1.426   1.267   3.515
 2142SOL    HW2 7326   1.486   1.373   3.406
 2143SOL     OW 7327   3.302   5.078   1.291
 2143SOL    HW1 7328   3.295   5.150   1.359
 2143SOL    HW2 7329   3.255   4.996   1.324
 2144SOL     OW 7330   0.492   5.548   4.226
 2144SOL    HW1 7331   0.517   5.611   4.300
 2144SOL    HW2 7332   0.489   5.455   4.260
 2145SOL     OW 7333   3.887   6.357   4.222
 2145SOL    HW1 7334   3.895   6.317   4.130
 2145SOL    HW2 7335   3.909   6.454   4.218
 2146SOL     OW 7336   2.269   3.385   0.819
 2146SOL    HW1 7337   2.322   3.356   0.740
 2146SOL    HW2 7338   2.308   3.470   0.856
 2147SOL     OW 7339   5.958   1.608   6.226
 2147SOL    HW1 7340   6.049   1.649   6.231
 2147SOL    HW2 7341   5.888   1.680   6.226
 2148SOL     OW 7342   6.205   3.501   6.279
 2148SOL    HW1 7343   6.283   3.529   6.335
 2148SOL    HW2 7344   6.159   3.582   6.242
 2149SOL     OW 7345   2.403   1.756   0.845
 2149SOL    HW1 7346   2.448   1.676   0.804
 2149SOL    HW2 7347   2.324   1.726   0.897
 2150SOL     OW 7348   2.457   2.574   2.135
 2150SOL    HW1 7349   2.415   2.494   2.093
 2150SOL    HW2 7350   2.512   2.547   2.214
 2151SOL     OW 7351   1.927   6.784   6.256
 2151SOL    HW1 7352   2.003   6.848   6.248
 2151SOL    HW2 7353   1.844   6.833   6.280
 2152SOL     OW 7354   3.881   4.863   2.094
 2152SOL    HW1 7355   3.873   4.961   2.076
 2152SOL    HW2 7356   3.791   4.827   2.120
 2153SOL     OW 7357   4.287   1.496   2.486
 2153SOL    HW1 7358   4.339   1.424   2.531
 2153SOL    HW2 7359   4.189   1.482   2.501
 2154SOL     OW 7360   4.886   0.255   4.442
 2154SOL    HW1 7361   4.826   0.262   4.521
 2154SOL    HW2 7362   4.957   0.326   4.448
 2155SOL     OW 7363   4.171   6.805   0.987
 2155SOL    HW1 7364   4.216   6.717   1.001
 2155SOL    HW2 7365   4.124   6.805   0.898
 2156SOL     OW 7366   0.472   1.193   5.089
 2156SOL    HW1 7367   0.529   1.262   5.045
 2156SOL    HW2 7368   0.509   1.102   5.071
 2157SOL     OW 7369   6.006   6.618   3.178
 2157SOL    HW1 7370   6.068   6.671   3.121
 2157SOL    HW2 7371   5.998   6.525   3.142
 2158SOL     OW 7372   3.926   6.125   0.958
 2158SOL    HW1 7373   3.860   6.185   0.911
 2158SOL    HW2 7374   3.884   6.087   1.040
 2159SOL     OW 7375   1.556   0.933   4.813
 2159SOL    HW1 7376   1.648   0.971   4.817
 2159SOL    HW2 7377   1.504   0.977   4.740
 2160SOL     OW 7378   4.687   4.090   6.947
 2160SOL    HW1 7379   4.632   4.138   7.015
 2160SOL    HW2 7380   4.700   3.995   6.976
 2161SOL     OW 7381   5.832   4.515   2.150
 2161SOL    HW1 7382   5.863   4.436   2.097
 2161SOL    HW2 7383   5.864   4.507   2.245
 2162SOL     OW 7384   3.453   0.267   2.088
 2162SOL    HW1 7385   3.477   0.355   2.129
 2162SOL    HW2 7386   3.359   0.243   2.114
 2163SOL     OW 7387   1.486   4.374   0.544
 2163SOL    HW1 7388   1.503   4.423   0.458
 2163SOL    HW2 7389   1.572   4.341   0.581
 2164SOL     OW 7390   2.068   1.924   6.635
 2164SOL    HW1 7391   2.165   1.916   6.658
 2164SOL    HW2 7392   2.057   1.917   6.536
 2165SOL     OW 7393   6.942   2.085   3.514
 2165SOL    HW1 7394   7.007   2.045   3.449
 2165SOL    HW2 7395   6.990   2.152   3.570
 2166SOL     OW 7396   1.470   2.908   4.460
 2166SOL    HW1 7397   1.462   2.933   4.557
 2166SOL    HW2 7398   1.395   2.948   4.408
 2167SOL     OW 7399   1.860   2.152   3.818
 2167SOL    HW1 7400   1.925   2.228   3.827
 2167SOL    HW2 7401   1.797   2.153   3.895
 2168SOL     OW 7402   0.864   1.837   3.281
 2168SOL    HW1 7403   0.889   1.928   3.247
 2168SOL    HW2 7404   0.775   1.842   3.326
 2169SOL     OW 7405   5.516   2.323   0.031
 2169SOL    HW1 7406   5.585   2.345   0.100
 2169SOL    HW2 7407   5.544   2.242   6.999
 2170SOL     OW 7408   6.694   4.093   5.025
 2170SOL    HW1 7409   6.730   4.096   4.931
 2170SOL    HW2 7410   6.594   4.102   5.022
 2171SOL     OW 7411   0.239   5.635   1.664
 2171SOL    HW1 7412   0.296   5.717   1.670
 2171SOL    HW2 7413   0.194   5.619   1.752
 2172SOL     OW 7414   2.343   2.096   6.631
 2172SOL    HW1 7415   2.354   2.000   6.655
 2172SOL    HW2 7416   2.431   2.132   6.597
 2173SOL     OW 7417   4.338   0.425   5.779
 2173SOL    HW1 7418   4.250   0.422   5.731
 2173SOL    HW2 7419   4.326   0.466   5.869
 2174SOL     OW 7420   6.574   5.402   4.992
 2174SOL    HW1 7421   6.589   5.338   4.917
 2174SOL    HW2 7422   6.495   5.373   5.046
 2175SOL     OW 7423   1.597   2.851   4.233
 2175SOL    HW1 7424   1.553   2.863   4.322
 2175SOL    HW2 7425   1.629   2.940   4.200
 2176SOL     OW 7426   5.725   2.208   0.832
 2176SOL    HW1 7427   5.727   2.264   0.915
 2176SOL    HW2 7428   5.797   2.140   0.836
 2177SOL     OW 7429   6.890   1.438   2.585
 2177SOL    HW1 7430   6.921   1.483   2.669
 2177SOL    HW2 7431   6.923   1.489   2.506
 2178SOL     OW 7432   1.678   1.691   2.247
 2178SOL    HW1 7433   1.647   1.598   2.228
 2178SOL    HW2 7434   1.735   1.724   2.172
 2179SOL     OW 7435   1.894   5.020   5.707
 2179SOL    HW1 7436   1.891   5.063   5.797
 2179SOL    HW2 7437   1.860   5.084   5.638
 2180SOL     OW 7438   1.705   2.503   2.378
 2180SOL    HW1 7439   1.717   2.601   2.363
 2180SOL    HW2 7440   1.755   2.452   2.309
 2181SOL     OW 7441   4.538   4.802   4.324
 2181SOL    HW1 7442   4.624   4.757   4.348
 2181SOL    HW2 7443   4.463   4.761   4.376
 2182SOL     OW 7444   1.903   4.220   3.673
 2182SOL    HW1 7445   1.903   4.125   3.706
 2182SOL    HW2 7446   1.827   4.269   3.716
 2183SOL     OW 7447   2.372   4.300   6.856
 2183SOL    HW1 7448   2.373   4.327   6.952
 2183SOL    HW2 7449   2.465   4.306   6.818
 2184SOL     OW 7450   4.323   0.845   6.083
 2184SOL    HW1 7451   4.415   0.823   6.052
 2184SOL    HW2 7452   4.300   0.939   6.057
 2185SOL     OW 7453   0.733   0.767   0.655
 2185SOL    HW1 7454   0.687   0.690   0.611
 2185SOL    HW2 7455   0.680   0.795   0.735
 2186SOL     OW 7456   6.439   5.616   0.044
 2186SOL    HW1 7457   6.398   5.682   7.001
 2186SOL    HW2 7458   6.368   5.581   0.106
 2187SOL     OW 7459   6.987   5.921   2.390
 2187SOL    HW1 7460   6.943   5.949   2.305
 2187SOL    HW2 7461   0.067   5.930   2.380
 2188SOL     OW 7462   0.300   5.676   5.247
 2188SOL    HW1 7463   0.394   5.654   5.271
 2188SOL    HW2 7464   0.245   5.593   5.248
 2189SOL     OW 7465   2.403   7.007   1.702
 2189SOL    HW1 7466   2.331   0.049   1.734
 2189SOL    HW2 7467   2.368   6.913   1.698
 2190SOL     OW 7468   6.646   3.550   1.881
 2190SOL    HW1 7469   6.634   3.614   1.957
 2190SOL    HW2 7470   6.599   3.464   1.902
 2191SOL     OW 7471   2.519   2.077   6.098
 2191SOL    HW1 7472   2.557   2.118   6.182
 2191SOL    HW2 7473   2.550   2.130   6.019
 2192SOL     OW 7474   4.983   1.025   2.450
 2192SOL    HW1 7475   4.976   1.091   2.525
 2192SOL    HW2 7476   4.992   1.075   2.363
 2193SOL     OW 7477   5.921   6.970   6.838
 2193SOL    HW1 7478   5.885   0.039   6.865
 2193SOL    HW2 7479   6.019   6.965   6.860
 2194SOL     OW 7480   2.127   4.332   5.936
 2194SOL    HW1 7481   2.154   4.243   5.898
 2194SOL    HW2 7482   2.184   4.353   6.015
 2195SOL     OW 7483   6.835   6.818   5.198
 2195SOL    HW1 7484   6.763   6.862   5.144
 2195SOL    HW2 7485   6.917   6.874   5.197
 2196SOL     OW 7486   3.748   0.261   4.735
 2196SOL    HW1 7487   3.677   0.209   4.782
 2196SOL    HW2 7488   3.765   0.222   4.645
 2197SOL     OW 7489   2.992   3.456   6.650
 2197SOL    HW1 7490   2.990   3.553   6.674
 2197SOL    HW2 7491   2.985   3.445   6.551
 2198SOL     OW 7492   5.432   0.223   1.346
 2198SOL    HW1 7493   5.341   0.256   1.371
 2198SOL    HW2 7494   5.484   0.202   1.428
 2199SOL     OW 7495   5.135   6.130   3.721
 2199SOL    HW1 7496   5.176   6.183   3.794
 2199SOL    HW2 7497   5.038   6.154   3.713
 2200SOL     OW 7498   2.081   2.145   4.054
 2200SOL    HW1 7499   2.123   2.233   4.077
 2200SOL    HW2 7500   2.128   2.107   3.974
 2201SOL     OW 7501   6.303   2.897   3.424
 2201SOL    HW1 7502   6.316   2.892   3.523
 2201SOL    HW2 7503   6.337   2.985   3.391
 2202SOL     OW 7504   3.556   5.728   2.447
 2202SOL    HW1 7505   3.473   5.746   2.395
 2202SOL    HW2 7506   3.633   5.718   2.384
 2203SOL     OW 7507   1.906   3.216   1.174
 2203SOL    HW1 7508   1.871   3.274   1.101
 2203SOL    HW2 7509   1.993   3.252   1.207
 2204SOL     OW 7510   4.974   1.787   1.076
 2204SOL    HW1 7511   5.008   1.729   1.001
 2204SOL    HW2 7512   4.880   1.763   1.097
 2205SOL     OW 7513   0.839   6.475   6.735
 2205SOL    HW1 7514   0.933   6.499   6.711
 2205SOL    HW2 7515   0.787   6.557   6.758
 2206SOL     OW 7516   3.578   5.110   5.753
 2206SOL    HW1 7517   3.663   5.163   5.751
 2206SOL    HW2 7518   3.521   5.140   5.829
 2207SOL     OW 7519   2.597   5.240   6.516
 2207SOL    HW1 7520   2.534   5.316   6.516
 2207SOL    HW2 7521   2.685   5.269   6.477
 2208SOL     OW 7522   1.385   5.241   3.274
 2208SOL    HW1 7523   1.427   5.181   3.342
 2208SOL    HW2 7524   1.362   5.188   3.192
 2209SOL     OW 7525   1.605   0.231   5.656
 2209SOL    HW1 7526   1.646   0.167   5.591
 2209SOL    HW2 7527   1.628   0.203   5.749
 2210SOL     OW 7528   0.544   4.123   4.153
 2210SOL    HW1 7529   0.516   4.198   4.093
 2210SOL    HW2 7530   0.466   4.063   4.170
 2211SOL     OW 7531   6.615   0.404   0.567
 2211SOL    HW1 7532   6.705   0.398   0.523
 2211SOL    HW2 7533   6.554   0.457   0.509
 2212SOL     OW 7534   2.589   6.076   0.727
 2212SOL    HW1 7535   2.670   6.018   0.729
 2212SOL    HW2 7536   2.506   6.020   0.730
 2213SOL     OW 7537   3.458   1.324   5.034
 2213SOL    HW1 7538   3.429   1.231   5.012
 2213SOL    HW2 7539   3.388   1.389   5.003
 2214SOL     OW 7540   3.332   4.116   4.885
 2214SOL    HW1 7541   3.269   4.110   4.808
 2214SOL    HW2 7542   3.419   4.155   4.853
 2215SOL     OW 7543   5.783   1.588   7.014
 2215SOL    HW1 7544   5.790   1.561   0.091
 2215SOL    HW2 7545   5.784   1.688   7.008
 2216SOL     OW 7546   1.451   0.700   6.989
 2216SOL    HW1 7547   1.459   0.769   0.041
 2216SOL    HW2 7548   1.451   0.609   0.010
 2217SOL     OW 7549   3.811   6.846   2.464
 2217SOL    HW1 7550   3.784   6.941   2.443
 2217SOL    HW2 7551   3.865   6.809   2.389
 2218SOL     OW 7552   6.514   4.993   6.898
 2218SOL    HW1 7553   6.583   5.051   6.856
 2218SOL    HW2 7554   6.539   4.974   6.993
 2219SOL     OW 7555   5.561   1.275   0.582
 2219SOL    HW1 7556   5.619   1.318   0.513
 2219SOL    HW2 7557   5.596   1.296   0.673
 2220SOL     OW 7558   2.249   6.328   5.351
 2220SOL    HW1 7559   2.243   6.404   5.286
 2220SOL    HW2 7560   2.338   6.329   5.396
 2221SOL     OW 7561   5.807   1.613   5.629
 2221SOL    HW1 7562   5.842   1.667   5.706
 2221SOL    HW2 7563   5.858   1.526   5.625
 2222SOL     OW 7564   5.341   0.878   0.599
 2222SOL    HW1 7565   5.260   0.929   0.628
 2222SOL    HW2 7566   5.423   0.931   0.622
 2223SOL     OW 7567   5.496   1.231   5.768
 2223SOL    HW1 7568   5.433   1.301   5.733
 2223SOL    HW2 7569   5.576   1.224   5.708
 2224SOL     OW 7570   6.897   3.517   0.504
 2224SOL    HW1 7571   6.876   3.613   0.523
 2224SOL    HW2 7572   6.973   3.488   0.562
 2225SOL     OW 7573   5.981   6.909   3.986
 2225SOL    HW1 7574   5.939   6.926   4.075
 2225SOL    HW2 7575   5.920   6.940   3.913
 2226SOL     OW 7576   3.887   5.882   0.826
 2226SOL    HW1 7577   3.906   5.967   0.876
 2226SOL    HW2 7578   3.788   5.871   0.816
 2227SOL     OW 7579   5.643   2.918   6.865
 2227SOL    HW1 7580   5.587   3.000   6.853
 2227SOL    HW2 7581   5.654   2.899   6.963
 2228SOL     OW 7582   4.208   5.434   1.326
 2228SOL    HW1 7583   4.240   5.521   1.364
 2228SOL    HW2 7584   4.230   5.430   1.228
 2229SOL     OW 7585   4.477   2.667   5.304
 2229SOL    HW1 7586   4.508   2.725   5.229
 2229SOL    HW2 7587   4.422   2.721   5.367
 2230SOL     OW 7588   6.150   6.265   0.318
 2230SOL    HW1 7589   6.173   6.168   0.318
 2230SOL    HW2 7590   6.211   6.314   0.381
 2231SOL     OW 7591   0.370   1.065   1.582
 2231SOL    HW1 7592   0.419   1.123   1.517
 2231SOL    HW2 7593   0.386   1.098   1.675
 2232SOL     OW 7594   0.835   1.961   4.476
 2232SOL    HW1 7595   0.831   1.862   4.466
 2232SOL    HW2 7596   0.923   1.995   4.443
 2233SOL     OW 7597   2.212   3.123   0.533
 2233SOL    HW1 7598   2.224   3.057   0.607
 2233SOL    HW2 7599   2.131   3.178   0.551
 2234SOL     OW 7600   4.473   1.618   1.202
 2234SOL    HW1 7601   4.455   1.527   1.166
 2234SOL    HW2 7602   4.457   1.618   1.301
 2235SOL     OW 7603   2.995   0.495   1.706
 2235SOL    HW1 7604   2.951   0.540   1.628
 2235SOL    HW2 7605   3.069   0.553   1.740
 2236SOL     OW 7606   2.406   3.739   6.567
 2236SOL    HW1 7607   2.372   3.660   6.618
 2236SOL    HW2 7608   2.485   3.712   6.512
 2237SOL     OW 7609   6.274   4.199   3.781
 2237SOL    HW1 7610   6.192   4.252   3.801
 2237SOL    HW2 7611   6.329   4.247   3.711
 2238SOL     OW 7612   4.323   5.130   1.653
 2238SOL    HW1 7613   4.344   5.042   1.695
 2238SOL    HW2 7614   4.227   5.154   1.672
 2239SOL     OW 7615   3.837   4.865   4.154
 2239SOL    HW1 7616   3.812   4.874   4.250
 2239SOL    HW2 7617   3.756   4.880   4.097
 2240SOL     OW 7618   3.667   5.994   3.345
 2240SOL    HW1 7619   3.722   6.005   3.427
 2240SOL    HW2 7620   3.689   5.906   3.302
 2241SOL     OW 7621   0.853   5.540   3.472
 2241SOL    HW1 7622   0.767   5.508   3.432
 2241SOL    HW2 7623   0.845   5.539   3.572
 2242SOL     OW 7624   5.533   3.184   2.783
 2242SOL    HW1 7625   5.437   3.156   2.776
 2242SOL    HW2 7626   5.571   3.198   2.691
 2243SOL     OW 7627   1.889   6.695   5.788
 2243SOL    HW1 7628   1.862   6.622   5.726
 2243SOL    HW2 7629   1.973   6.669   5.836
 2244SOL     OW 7630   2.463   6.667   1.445
 2244SOL    HW1 7631   2.527   6.602   1.405
 2244SOL    HW2 7632   2.502   6.707   1.528
 2245SOL     OW 7633   0.658   1.935   1.328
 2245SOL    HW1 7634   0.576   1.878   1.331
 2245SOL    HW2 7635   0.694   1.937   1.235
 2246SOL     OW 7636   1.729   0.907   4.559
 2246SOL    HW1 7637   1.675   0.825   4.577
 2246SOL    HW2 7638   1.768   0.901   4.468
 2247SOL     OW 7639   3.282   3.117   3.568
 2247SOL    HW1 7640   3.322   3.199   3.610
 2247SOL    HW2 7641   3.277   3.044   3.636
 2248SOL     OW 7642   6.401   4.034   5.375
 2248SOL    HW1 7643   6.458   4.000   5.300
 2248SOL    HW2 7644   6.342   3.960   5.408
 2249SOL     OW 7645   5.707   6.355   3.944
 2249SOL    HW1 7646   5.776   6.283   3.951
 2249SOL    HW2 7647   5.689   6.393   4.035
 2250SOL     OW 7648   3.444   3.660   5.300
 2250SOL    HW1 7649   3.400   3.716   5.230
 2250SOL    HW2 7650   3.483   3.578   5.257
 2251SOL     OW 7651   5.221   0.310   6.584
 2251SOL    HW1 7652   5.297   0.346   6.638
 2251SOL    HW2 7653   5.142   0.295   6.643
 2252SOL     OW 7654   4.441   2.300   2.572
 2252SOL    HW1 7655   4.424   2.213   2.620
 2252SOL    HW2 7656   4.390   2.301   2.486
 2253SOL     OW 7657   6.985   3.989   6.794
 2253SOL    HW1 7658   6.994   4.009   6.696
 2253SOL    HW2 7659   0.029   4.047   6.846
 2254SOL     OW 7660   3.449   2.877   4.694
 2254SOL    HW1 7661   3.460   2.805   4.763
 2254SOL    HW2 7662   3.450   2.836   4.603
 2255SOL     OW 7663   4.078   3.269   5.980
 2255SOL    HW1 7664   4.015   3.333   5.936
 2255SOL    HW2 7665   4.074   3.282   6.079
 2256SOL     OW 7666   4.514   5.985   2.357
 2256SOL    HW1 7667   4.577   6.031   2.421
 2256SOL    HW2 7668   4.437   6.046   2.338
 2257SOL     OW 7669   0.127   2.264   4.435
 2257SOL    HW1 7670   0.084   2.332   4.376
 2257SOL    HW2 7671   0.206   2.304   4.480
 2258SOL     OW 7672   1.319   5.241   4.354
 2258SOL    HW1 7673   1.404   5.284   4.324
 2258SOL    HW2 7674   1.262   5.219   4.274
 2259SOL     OW 7675   5.191   3.594   5.827
 2259SOL    HW1 7676   5.216   3.680   5.871
 2259SOL    HW2 7677   5.107   3.559   5.869
 2260SOL     OW 7678   0.534   4.666   1.450
 2260SOL    HW1 7679   0.438   4.640   1.460
 2260SOL    HW2 7680   0.582   4.594   1.401
 2261SOL     OW 7681   5.533   4.930   0.310
 2261SOL    HW1 7682   5.573   4.900   0.224
 2261SOL    HW2 7683   5.606   4.954   0.374
 2262SOL     OW 7684   6.137   0.905   3.485
 2262SOL    HW1 7685   6.179   0.965   3.552
 2262SOL    HW2 7686   6.059   0.951   3.443
 2263SOL     OW 7687   3.182   5.883   6.700
 2263SOL    HW1 7688   3.268   5.900   6.748
 2263SOL    HW2 7689   3.134   5.969   6.686
 2264SOL     OW 7690   2.969   5.327   0.306
 2264SOL    HW1 7691   3.011   5.410   0.343
 2264SOL    HW2 7692   3.036   5.278   0.250
 2265SOL     OW 7693   1.416   0.641   4.091
 2265SOL    HW1 7694   1.420   0.737   4.063
 2265SOL    HW2 7695   1.500   0.594   4.064
 2266SOL     OW 7696   5.208   2.069   0.145
 2266SOL    HW1 7697   5.240   1.990   0.092
 2266SOL    HW2 7698   5.127   2.044   0.198
 2267SOL     OW 7699   4.788   2.337   4.777
 2267SOL    HW1 7700   4.869   2.287   4.750
 2267SOL    HW2 7701   4.807   2.435   4.775
 2268SOL     OW 7702   6.503   4.066   0.258
 2268SOL    HW1 7703   6.580   4.097   0.202
 2268SOL    HW2 7704   6.441   4.011   0.203
 2269SOL     OW 7705   0.035   4.748   5.477
 2269SOL    HW1 7706   0.096   4.808   5.424
 2269SOL    HW2 7707   6.985   4.803   5.523
 2270SOL     OW 7708   2.880   2.835   5.729
 2270SOL    HW1 7709   2.926   2.752   5.761
 2270SOL    HW2 7710   2.923   2.915   5.769
 2271SOL     OW 7711   5.154   4.242   0.447
 2271SOL    HW1 7712   5.194   4.156   0.479
 2271SOL    HW2 7713   5.220   4.316   0.459
 2272SOL     OW 7714   6.133   2.442   6.507
 2272SOL    HW1 7715   6.086   2.503   6.443
 2272SOL    HW2 7716   6.126   2.348   6.474
 2273SOL     OW 7717   1.756   1.981   2.302
 2273SOL    HW1 7718   1.795   1.970   2.393
 2273SOL    HW2 7719   1.766   1.895   2.252
 2274SOL     OW 7720   0.790   2.115   6.131
 2274SOL    HW1 7721   0.729   2.178   6.084
 2274SOL    HW2 7722   0.807   2.147   6.224
 2275SOL     OW 7723   6.350   6.597   4.349
 2275SOL    HW1 7724   6.279   6.595   4.278
 2275SOL    HW2 7725   6.438   6.622   4.307
 2276SOL     OW 7726   2.197   5.893   1.220
 2276SOL    HW1 7727   2.232   5.984   1.200
 2276SOL    HW2 7728   2.259   5.847   1.284
 2277SOL     OW 7729   4.120   3.482   4.250
 2277SOL    HW1 7730   4.126   3.542   4.330
 2277SOL    HW2 7731   4.137   3.387   4.278
 2278SOL     OW 7732   6.118   4.661   4.646
 2278SOL    HW1 7733   6.162   4.721   4.713
 2278SOL    HW2 7734   6.131   4.698   4.554
 2279SOL     OW 7735   5.749   6.793   5.285
 2279SOL    HW1 7736   5.847   6.781   5.268
 2279SOL    HW2 7737   5.731   6.887   5.313
 2280SOL     OW 7738   6.975   6.720   4.545
 2280SOL    HW1 7739   6.966   6.713   4.446
 2280SOL    HW2 7740   6.924   6.646   4.589
 2281SOL     OW 7741   3.374   1.387   2.034
 2281SOL    HW1 7742   3.409   1.439   2.112
 2281SOL    HW2 7743   3.422   1.415   1.951
 2282SOL     OW 7744   5.815   0.176   5.512
 2282SOL    HW1 7745   5.754   0.109   5.556
 2282SOL    HW2 7746   5.852   0.137   5.428
 2283SOL     OW 7747   0.920   5.191   1.246
 2283SOL    HW1 7748   0.829   5.212   1.211
 2283SOL    HW2 7749   0.950   5.264   1.307
 2284SOL     OW 7750   1.184   2.581   0.011
 2284SOL    HW1 7751   1.216   2.602   0.103
 2284SOL    HW2 7752   1.250   2.522   6.984
 2285SOL     OW 7753   2.035   2.580   1.280
 2285SOL    HW1 7754   2.118   2.524   1.285
 2285SOL    HW2 7755   1.999   2.578   1.186
 2286SOL     OW 7756   5.962   0.369   3.630
 2286SOL    HW1 7757   5.995   0.460   3.604
 2286SOL    HW2 7758   6.036   0.303   3.624
 2287SOL     OW 7759   2.019   0.179   3.362
 2287SOL    HW1 7760   1.936   0.225   3.392
 2287SOL    HW2 7761   2.017   0.084   3.392
 2288SOL     OW 7762   6.019   4.695   4.380
 2288SOL    HW1 7763   5.927   4.731   4.396
 2288SOL    HW2 7764   6.029   4.607   4.428
 2289SOL     OW 7765   0.911   4.650   1.254
 2289SOL    HW1 7766   0.836   4.710   1.281
 2289SOL    HW2 7767   0.903   4.629   1.157
 2290SOL     OW 7768   0.820   3.981   0.343
 2290SOL    HW1 7769   0.731   4.003   0.385
 2290SOL    HW2 7770   0.851   3.892   0.377
 2291SOL     OW 7771   2.263   2.646   5.797
 2291SOL    HW1 7772   2.187   2.588   5.770
 2291SOL    HW2 7773   2.329   2.592   5.850
 2292SOL     OW 7774   0.190   2.577   4.598
 2292SOL    HW1 7775   0.176   2.653   4.534
 2292SOL    HW2 7776   0.103   2.529   4.613
 2293SOL     OW 7777   4.677   6.244   1.961
 2293SOL    HW1 7778   4.766   6.289   1.976
 2293SOL    HW2 7779   4.627   6.292   1.889
 2294SOL     OW 7780   3.182   0.034   0.083
 2294SOL    HW1 7781   3.197   0.125   0.121
 2294SOL    HW2 7782   3.164   6.989   0.157
 2295SOL     OW 7783   0.489   2.111   3.203
 2295SOL    HW1 7784   0.459   2.094   3.109
 2295SOL    HW2 7785   0.425   2.172   3.248
 2296SOL     OW 7786   4.639   5.605   1.044
 2296SOL    HW1 7787   4.692   5.679   1.003
 2296SOL    HW2 7788   4.701   5.542   1.091
 2297SOL     OW 7789   3.858   4.164   5.044
 2297SOL    HW1 7790   3.936   4.203   5.093
 2297SOL    HW2 7791   3.887   4.083   4.993
 2298SOL     OW 7792   3.863   3.053   1.577
 2298SOL    HW1 7793   3.914   2.969   1.594
 2298SOL    HW2 7794   3.790   3.062   1.646
 2299SOL     OW 7795   4.713   6.103   5.307
 2299SOL    HW1 7796   4.794   6.051   5.279
 2299SOL    HW2 7797   4.704   6.184   5.249
 2300SOL     OW 7798   2.184   5.608   2.079
 2300SOL    HW1 7799   2.126   5.529   2.100
 2300SOL    HW2 7800   2.271   5.577   2.040
 2301SOL     OW 7801   3.444   2.958   2.904
 2301SOL    HW1 7802   3.366   2.934   2.848
 2301SOL    HW2 7803   3.523   2.902   2.878
 2302SOL     OW 7804   3.705   0.212   1.027
 2302SOL    HW1 7805   3.798   0.215   0.989
 2302SOL    HW2 7806   3.707   0.251   1.119
 2303SOL     OW 7807   1.988   3.079   5.909
 2303SOL    HW1 7808   2.012   2.982   5.908
 2303SOL    HW2 7809   2.056   3.132   5.858
 2304SOL     OW 7810   4.717   6.843   3.794
 2304SOL    HW1 7811   4.646   6.773   3.806
 2304SOL    HW2 7812   4.676   6.934   3.800
 2305SOL     OW 7813   2.513   6.727   3.011
 2305SOL    HW1 7814   2.519   6.715   3.110
 2305SOL    HW2 7815   2.550   6.817   2.986
 2306SOL     OW 7816   3.152   5.203   2.402
 2306SOL    HW1 7817   3.054   5.204   2.422
 2306SOL    HW2 7818   3.171   5.134   2.332
 2307SOL     OW 7819   6.620   4.260   2.416
 2307SOL    HW1 7820   6.585   4.167   2.403
 2307SOL    HW2 7821   6.718   4.262   2.397
 2308SOL     OW 7822   1.075   6.000   0.872
 2308SOL    HW1 7823   1.014   5.955   0.938
 2308SOL    HW2 7824   1.165   6.013   0.913
 2309SOL     OW 7825   1.468   0.240   6.343
 2309SOL    HW1 7826   1.566   0.233   6.362
 2309SOL    HW2 7827   1.422   0.283   6.421
 2310SOL     OW 7828   4.769   6.373   1.326
 2310SOL    HW1 7829   4.805   6.414   1.242
 2310SOL    HW2 7830   4.740   6.279   1.308
 2311SOL     OW 7831   2.200   6.052   1.856
 2311SOL    HW1 7832   2.206   5.968   1.909
 2311SOL    HW2 7833   2.109   6.092   1.866
 2312SOL     OW 7834   3.602   6.573   4.158
 2312SOL    HW1 7835   3.615   6.539   4.251
 2312SOL    HW2 7836   3.512   6.618   4.151
 2313SOL     OW 7837   5.052   5.522   1.765
 2313SOL    HW1 7838   4.991   5.554   1.692
 2313SOL    HW2 7839   5.068   5.424   1.754
 2314SOL     OW 7840   5.919   6.870   5.019
 2314SOL    HW1 7841   5.925   6.822   4.932
 2314SOL    HW2 7842   5.880   6.961   5.004
 2315SOL     OW 7843   4.532   3.344   5.421
 2315SOL    HW1 7844   4.574   3.254   5.410
 2315SOL    HW2 7845   4.465   3.339   5.496
 2316SOL     OW 7846   3.215   0.711   4.157
 2316SOL    HW1 7847   3.126   0.674   4.131
 2316SOL    HW2 7848   3.229   0.800   4.112
 2317SOL     OW 7849   0.403   6.350   3.733
 2317SOL    HW1 7850   0.349   6.424   3.693
 2317SOL    HW2 7851   0.382   6.264   3.686
 2318SOL     OW 7852   2.031   2.888   4.514
 2318SOL    HW1 7853   2.084   2.846   4.588
 2318SOL    HW2 7854   1.946   2.926   4.550
 2319SOL     OW 7855   2.229   5.111   4.277
 2319SOL    HW1 7856   2.192   5.078   4.363
 2319SOL    HW2 7857   2.221   5.040   4.207
 2320SOL     OW 7858   0.344   3.048   5.047
 2320SOL    HW1 7859   0.349   3.138   5.005
 2320SOL    HW2 7860   0.250   3.031   5.077
 2321SOL     OW 7861   2.026   6.542   0.073
 2321SOL    HW1 7862   2.100   6.609   0.073
 2321SOL    HW2 7863   1.954   6.572   0.010
 2322SOL     OW 7864   1.433   2.812   3.993
 2322SOL    HW1 7865   1.486   2.821   4.078
 2322SOL    HW2 7866   1.428   2.901   3.948
 2323SOL     OW 7867   3.185   5.178   1.897
 2323SOL    HW1 7868   3.224   5.261   1.937
 2323SOL    HW2 7869   3.228   5.098   1.938
 2324SOL     OW 7870   6.539   6.100   0.798
 2324SOL    HW1 7871   6.588   6.183   0.823
 2324SOL    HW2 7872   6.504   6.056   0.880
 2325SOL     OW 7873   0.921   4.344   1.183
 2325SOL    HW1 7874   0.998   4.385   1.133
 2325SOL    HW2 7875   0.852   4.313   1.117
 2326SOL     OW 7876   3.847   5.327   6.033
 2326SOL    HW1 7877   3.863   5.331   6.131
 2326SOL    HW2 7878   3.753   5.354   6.013
 2327SOL     OW 7879   6.551   2.097   4.049
 2327SOL    HW1 7880   6.622   2.167   4.055
 2327SOL    HW2 7881   6.540   2.069   3.954
 2328SOL     OW 7882   2.203   1.841   3.011
 2328SOL    HW1 7883   2.128   1.872   3.070
 2328SOL    HW2 7884   2.180   1.859   2.916
 2329SOL     OW 7885   1.116   4.692   4.584
 2329SOL    HW1 7886   1.136   4.626   4.511
 2329SOL    HW2 7887   1.145   4.783   4.556
 2330SOL     OW 7888   0.984   3.784   1.315
 2330SOL    HW1 7889   1.078   3.814   1.333
 2330SOL    HW2 7890   0.981   3.684   1.316
 2331SOL     OW 7891   3.964   5.867   6.594
 2331SOL    HW1 7892   4.022   5.801   6.641
 2331SOL    HW2 7893   4.003   5.888   6.504
 2332SOL     OW 7894   5.296   1.573   5.231
 2332SOL    HW1 7895   5.313   1.478   5.257
 2332SOL    HW2 7896   5.227   1.612   5.293
 2333SOL     OW 7897   6.855   4.700   2.612
 2333SOL    HW1 7898   6.915   4.679   2.690
 2333SOL    HW2 7899   6.855   4.799   2.597
 2334SOL     OW 7900   1.912   0.501   0.336
 2334SOL    HW1 7901   1.929   0.510   0.434
 2334SOL    HW2 7902   1.814   0.494   0.319
 2335SOL     OW 7903   6.883   0.874   2.911
 2335SOL    HW1 7904   6.807   0.938   2.899
 2335SOL    HW2 7905   6.967   0.926   2.928
 2336SOL     OW 7906   4.609   2.726   4.714
 2336SOL    HW1 7907   4.694   2.677   4.735
 2336SOL    HW2 7908   4.534   2.688   4.767
 2337SOL     OW 7909   4.481   1.217   1.829
 2337SOL    HW1 7910   4.535   1.159   1.769
 2337SOL    HW2 7911   4.430   1.160   1.893
 2338SOL     OW 7912   0.872   2.260   5.384
 2338SOL    HW1 7913   0.921   2.192   5.330
 2338SOL    HW2 7914   0.870   2.232   5.480
 2339SOL     OW 7915   3.518   3.902   4.624
 2339SOL    HW1 7916   3.453   3.902   4.548
 2339SOL    HW2 7917   3.470   3.927   4.708
 2340SOL     OW 7918   6.161   4.431   0.808
 2340SOL    HW1 7919   6.062   4.418   0.810
 2340SOL    HW2 7920   6.207   4.346   0.833
 2341SOL     OW 7921   4.205   4.550   1.358
 2341SOL    HW1 7922   4.169   4.581   1.270
 2341SOL    HW2 7923   4.304   4.560   1.359
 2342SOL     OW 7924   7.003   6.916   5.424
 2342SOL    HW1 7925   0.061   6.949   5.370
 2342SOL    HW2 7926   6.937   6.871   5.364
 2343SOL     OW 7927   2.620   5.337   2.714
 2343SOL    HW1 7928   2.716   5.309   2.713
 2343SOL    HW2 7929   2.580   5.322   2.624
 2344SOL     OW 7930   1.952   6.833   0.222
 2344SOL    HW1 7931   1.921   6.763   0.157
 2344SOL    HW2 7932   1.872   6.881   0.258
 2345SOL     OW 7933   3.435   5.507   4.457
 2345SOL    HW1 7934   3.347   5.544   4.425
 2345SOL    HW2 7935   3.502   5.514   4.384
 2346SOL     OW 7936   4.586   3.057   5.310
 2346SOL    HW1 7937   4.610   2.975   5.258
 2346SOL    HW2 7938   4.636   3.058   5.396
 2347SOL     OW 7939   2.637   2.985   1.672
 2347SOL    HW1 7940   2.727   3.022   1.649
 2347SOL    HW2 7941   2.636   2.887   1.652
 2348SOL     OW 7942   2.584   6.725   3.921
 2348SOL    HW1 7943   2.623   6.634   3.910
 2348SOL    HW2 7944   2.611   6.783   3.844
 2349SOL     OW 7945   0.797   3.892   6.393
 2349SOL    HW1 7946   0.744   3.953   6.333
 2349SOL    HW2 7947   0.884   3.869   6.348
 2350SOL     OW 7948   4.686   6.322   6.730
 2350SOL    HW1 7949   4.755   6.283   6.792
 2350SOL    HW2 7950   4.682   6.421   6.742
 2351SOL     OW 7951   2.797   5.313   3.456
 2351SOL    HW1 7952   2.842   5.268   3.533
 2351SOL    HW2 7953   2.698   5.296   3.461
 2352SOL     OW 7954   0.419   5.172   1.894
 2352SOL    HW1 7955   0.400   5.256   1.843
 2352SOL    HW2 7956   0.478   5.113   1.840
 2353SOL     OW 7957   3.183   4.615   5.637
 2353SOL    HW1 7958   3.134   4.692   5.595
 2353SOL    HW2 7959   3.148   4.529   5.599
 2354SOL     OW 7960   3.021   1.432   5.784
 2354SOL    HW1 7961   3.021   1.529   5.759
 2354SOL    HW2 7962   2.928   1.402   5.803
 2355SOL     OW 7963   2.352   5.433   0.428
 2355SOL    HW1 7964   2.445   5.416   0.394
 2355SOL    HW2 7965   2.332   5.370   0.503
 2356SOL     OW 7966   1.226   3.741   6.988
 2356SOL    HW1 7967   1.219   3.708   6.893
 2356SOL    HW2 7968   1.256   3.836   6.988
 2357SOL     OW 7969   4.776   6.523   3.246
 2357SOL    HW1 7970   4.841   6.475   3.306
 2357SOL    HW2 7971   4.760   6.615   3.282
 2358SOL     OW 7972   4.055   5.078   5.302
 2358SOL    HW1 7973   4.023   5.160   5.254
 2358SOL    HW2 7974   3.985   5.047   5.366
 2359SOL     OW 7975   0.038   0.780   6.120
 2359SOL    HW1 7976   0.086   0.741   6.042
 2359SOL    HW2 7977   6.976   0.727   6.140
 2360SOL     OW 7978   5.631   4.836   0.084
 2360SOL    HW1 7979   5.708   4.776   0.063
 2360SOL    HW2 7980   5.573   4.846   0.002
 2361SOL     OW 7981   2.217   0.499   4.948
 2361SOL    HW1 7982   2.185   0.589   4.977
 2361SOL    HW2 7983   2.278   0.509   4.870
 2362SOL     OW 7984   2.408   0.275   5.118
 2362SOL    HW1 7985   2.324   0.254   5.067
 2362SOL    HW2 7986   2.385   0.294   5.213
 2363SOL     OW 7987   4.220   2.201   5.294
 2363SOL    HW1 7988   4.135   2.250   5.313
 2363SOL    HW2 7989   4.210   2.147   5.210
 2364SOL     OW 7990   0.750   1.932   2.193
 2364SOL    HW1 7991   0.737   1.845   2.241
 2364SOL    HW2 7992   0.848   1.954   2.190
 2365SOL     OW 7993   6.565   2.875   6.828
 2365SOL    HW1 7994   6.524   2.784   6.824
 2365SOL    HW2 7995   6.509   2.939   6.776
 2366SOL     OW 7996   1.503   5.213   6.077
 2366SOL    HW1 7997   1.530   5.220   5.981
 2366SOL    HW2 7998   1.579   5.242   6.136
 2367SOL     OW 7999   3.031   4.594   0.781
 2367SOL    HW1 8000   3.001   4.506   0.818
 2367SOL    HW2 8001   3.127   4.588   0.752
 2368SOL     OW 8002   4.857   0.207   2.852
 2368SOL    HW1 8003   4.942   0.258   2.866
 2368SOL    HW2 8004   4.812   0.240   2.768
 2369SOL     OW 8005   0.880   2.833   5.942
 2369SOL    HW1 8006   0.953   2.800   6.002
 2369SOL    HW2 8007   0.792   2.822   5.988
 2370SOL     OW 8008   5.179   3.741   0.068
 2370SOL    HW1 8009   5.162   3.763   0.164
 2370SOL    HW2 8010   5.108   3.680   0.034
 2371SOL     OW 8011   0.723   6.650   1.799
 2371SOL    HW1 8012   0.771   6.562   1.802
 2371SOL    HW2 8013   0.627   6.638   1.823
 2372SOL     OW 8014   6.439   2.343   1.675
 2372SOL    HW1 8015   6.530   2.316   1.644
 2372SOL    HW2 8016   6.447   2.396   1.760
 2373SOL     OW 8017   0.499   1.243   0.397
 2373SOL    HW1 8018   0.557   1.258   0.317
 2373SOL    HW2 8019   0.498   1.145   0.418
 2374SOL     OW 8020   6.161   1.346   3.627
 2374SOL    HW1 8021   6.154   1.257   3.673
 2374SOL    HW2 8022   6.257   1.373   3.622
 2375SOL     OW 8023   2.562   0.082   4.663
 2375SOL    HW1 8024   2.583   7.006   4.645
 2375SOL    HW2 8025   2.646   0.135   4.669
 2376SOL     OW 8026   6.434   2.421   4.461
 2376SOL    HW1 8027   6.424   2.503   4.518
 2376SOL    HW2 8028   6.531   2.401   4.449
 2377SOL     OW 8029   3.482   4.022   2.915
 2377SOL    HW1 8030   3.420   3.965   2.970
 2377SOL    HW2 8031   3.437   4.046   2.829
 2378SOL     OW 8032   5.005   2.741   6.921
 2378SOL    HW1 8033   5.083   2.770   6.976
 2378SOL    HW2 8034   5.008   2.787   6.832
 2379SOL     OW 8035   5.266   2.597   6.863
 2379SOL    HW1 8036   5.296   2.507   6.894
 2379SOL    HW2 8037   5.271   2.662   6.938
 2380SOL     OW 8038   0.315   0.204   5.145
 2380SOL    HW1 8039   0.364   0.121   5.116
 2380SOL    HW2 8040   0.368   0.251   5.215
 2381SOL     OW 8041   1.710   3.634   4.198
 2381SOL    HW1 8042   1.697   3.728   4.168
 2381SOL    HW2 8043   1.784   3.630   4.264
 2382SOL     OW 8044   2.369   4.488   3.595
 2382SOL    HW1 8045   2.355   4.582   3.564
 2382SOL    HW2 8046   2.364   4.426   3.517
 2383SOL     OW 8047   6.097   6.634   0.951
 2383SOL    HW1 8048   6.145   6.630   1.038
 2383SOL    HW2 8049   6.122   6.719   0.903
 2384SOL     OW 8050   6.399   6.791   2.056
 2384SOL    HW1 8051   6.488   6.819   2.020
 2384SOL    HW2 8052   6.339   6.765   1.980
 2385SOL     OW 8053   0.541   6.577   0.941
 2385SOL    HW1 8054   0.637   6.571   0.915
 2385SOL    HW2 8055   0.531   6.561   1.039
 2386SOL     OW 8056   5.190   5.045   4.086
 2386SOL    HW1 8057   5.184   5.142   4.106
 2386SOL    HW2 8058   5.144   5.026   3.999
 2387SOL     OW 8059   0.801   1.155   3.516
 2387SOL    HW1 8060   0.719   1.104   3.540
 2387SOL    HW2 8061   0.882   1.104   3.545
 2388SOL     OW 8062   1.882   2.234   3.469
 2388SOL    HW1 8063   1.901   2.309   3.532
 2388SOL    HW2 8064   1.792   2.248   3.427
 2389SOL     OW 8065   5.091   3.793   2.955
 2389SOL    HW1 8066   5.012   3.745   2.994
 2389SOL    HW2 8067   5.082   3.891   2.972
 2390SOL     OW 8068   3.679   4.049   3.313
 2390SOL    HW1 8069   3.664   3.951   3.327
 2390SOL    HW2 8070   3.774   4.064   3.285
 2391SOL     OW 8071   5.032   4.711   5.897
 2391SOL    HW1 8072   4.935   4.734   5.898
 2391SOL    HW2 8073   5.043   4.613   5.884
 2392SOL     OW 8074   3.607   0.043   5.376
 2392SOL    HW1 8075   3.626   7.014   5.291
 2392SOL    HW2 8076   3.688   0.042   5.434
 2393SOL     OW 8077   4.841   3.938   6.226
 2393SOL    HW1 8078   4.842   3.855   6.282
 2393SOL    HW2 8079   4.832   4.018   6.286
 2394SOL     OW 8080   2.173   3.412   4.413
 2394SOL    HW1 8081   2.271   3.402   4.432
 2394SOL    HW2 8082   2.124   3.335   4.452
 2395SOL     OW 8083   6.534   2.774   6.448
 2395SOL    HW1 8084   6.520   2.765   6.546
 2395SOL    HW2 8085   6.521   2.869   6.421
 2396SOL     OW 8086   3.968   5.511   1.422
 2396SOL    HW1 8087   3.990   5.594   1.473
 2396SOL    HW2 8088   4.051   5.475   1.379
 2397SOL     OW 8089   0.255   4.102   6.800
 2397SOL    HW1 8090   0.283   4.096   6.704
 2397SOL    HW2 8091   0.331   4.073   6.859
 2398SOL     OW 8092   3.289   3.971   6.903
 2398SOL    HW1 8093   3.385   3.953   6.925
 2398SOL    HW2 8094   3.276   3.965   6.804
 2399SOL     OW 8095   4.671   1.204   2.297
 2399SOL    HW1 8096   4.627   1.292   2.279
 2399SOL    HW2 8097   4.671   1.187   2.396
 2400SOL     OW 8098   3.558   4.982   6.968
 2400SOL    HW1 8099   3.576   5.079   6.984
 2400SOL    HW2 8100   3.610   4.927   0.014
 2401SOL     OW 8101   4.263   6.786   6.895
 2401SOL    HW1 8102   4.202   6.707   6.881
 2401SOL    HW2 8103   4.279   6.797   6.993
 2402SOL     OW 8104   0.761   0.682   4.335
 2402SOL    HW1 8105   0.694   0.623   4.291
 2402SOL    HW2 8106   0.807   0.632   4.409
 2403SOL     OW 8107   2.408   2.408   1.076
 2403SOL    HW1 8108   2.409   2.479   1.006
 2403SOL    HW2 8109   2.485   2.346   1.062
 2404SOL     OW 8110   4.878   1.085   1.132
 2404SOL    HW1 8111   4.922   1.033   1.059
 2404SOL    HW2 8112   4.920   1.062   1.220
 2405SOL     OW 8113   3.639   3.556   2.775
 2405SOL    HW1 8114   3.735   3.583   2.760
 2405SOL    HW2 8115   3.621   3.471   2.726
 2406SOL     OW 8116   2.794   6.651   3.322
 2406SOL    HW1 8117   2.714   6.703   3.292
 2406SOL    HW2 8118   2.808   6.574   3.260
 2407SOL     OW 8119   5.500   2.238   2.717
 2407SOL    HW1 8120   5.595   2.235   2.749
 2407SOL    HW2 8121   5.498   2.267   2.621
 2408SOL     OW 8122   4.514   4.820   3.572
 2408SOL    HW1 8123   4.514   4.909   3.616
 2408SOL    HW2 8124   4.480   4.828   3.478
 2409SOL     OW 8125   1.134   3.294   1.972
 2409SOL    HW1 8126   1.158   3.355   2.048
 2409SOL    HW2 8127   1.171   3.331   1.886
 2410SOL     OW 8128   4.875   2.795   6.087
 2410SOL    HW1 8129   4.942   2.740   6.037
 2410SOL    HW2 8130   4.806   2.735   6.127
 2411SOL     OW 8131   4.226   5.310   5.852
 2411SOL    HW1 8132   4.159   5.378   5.881
 2411SOL    HW2 8133   4.222   5.300   5.752
 2412SOL     OW 8134   4.183   4.844   1.210
 2412SOL    HW1 8135   4.282   4.842   1.211
 2412SOL    HW2 8136   4.149   4.900   1.286
 2413SOL     OW 8137   6.406   2.273   0.323
 2413SOL    HW1 8138   6.329   2.306   0.267
 2413SOL    HW2 8139   6.384   2.183   0.360
 2414SOL     OW 8140   5.054   3.867   2.303
 2414SOL    HW1 8141   4.971   3.851   2.357
 2414SOL    HW2 8142   5.030   3.906   2.215
 2415SOL     OW 8143   0.230   0.153   1.925
 2415SOL    HW1 8144   0.254   0.167   1.829
 2415SOL    HW2 8145   0.187   0.236   1.961
 2416SOL     OW 8146   3.885   2.125   5.036
 2416SOL    HW1 8147   3.873   2.116   5.135
 2416SOL    HW2 8148   3.921   2.040   4.999
 2417SOL     OW 8149   4.136   3.752   5.884
 2417SOL    HW1 8150   4.110   3.848   5.896
 2417SOL    HW2 8151   4.106   3.721   5.793
 2418SOL     OW 8152   3.407   3.978   3.872
 2418SOL    HW1 8153   3.365   3.916   3.805
 2418SOL    HW2 8154   3.443   3.925   3.949
 2419SOL     OW 8155   0.730   5.847   4.695
 2419SOL    HW1 8156   0.735   5.946   4.705
 2419SOL    HW2 8157   0.705   5.806   4.782
 2420SOL     OW 8158   3.576   1.570   1.489
 2420SOL    HW1 8159   3.626   1.485   1.471
 2420SOL    HW2 8160   3.479   1.555   1.472
 2421SOL     OW 8161   3.071   1.357   5.278
 2421SOL    HW1 8162   3.032   1.310   5.357
 2421SOL    HW2 8163   3.000   1.409   5.231
 2422SOL     OW 8164   5.884   0.328   1.545
 2422SOL    HW1 8165   5.845   0.244   1.507
 2422SOL    HW2 8166   5.974   0.309   1.583
 2423SOL     OW 8167   1.383   6.490   3.796
 2423SOL    HW1 8168   1.475   6.485   3.835
 2423SOL    HW2 8169   1.321   6.529   3.864
 2424SOL     OW 8170   6.291   6.671   6.151
 2424SOL    HW1 8171   6.200   6.637   6.176
 2424SOL    HW2 8172   6.345   6.597   6.112
 2425SOL     OW 8173   6.282   0.218   3.826
 2425SOL    HW1 8174   6.219   0.252   3.895
 2425SOL    HW2 8175   6.344   0.151   3.867
 2426SOL     OW 8176   1.005   5.547   4.441
 2426SOL    HW1 8177   0.984   5.622   4.504
 2426SOL    HW2 8178   1.095   5.562   4.400
 2427SOL     OW 8179   5.463   5.290   6.300
 2427SOL    HW1 8180   5.449   5.280   6.201
 2427SOL    HW2 8181   5.422   5.376   6.331
 2428SOL     OW 8182   6.314   0.450   3.369
 2428SOL    HW1 8183   6.219   0.469   3.394
 2428SOL    HW2 8184   6.357   0.398   3.443
 2429SOL     OW 8185   6.382   5.431   4.069
 2429SOL    HW1 8186   6.438   5.476   4.138
 2429SOL    HW2 8187   6.301   5.487   4.051
 2430SOL     OW 8188   6.336   1.475   1.111
 2430SOL    HW1 8189   6.266   1.497   1.178
 2430SOL    HW2 8190   6.338   1.376   1.097
 2431SOL     OW 8191   4.325   0.711   2.287
 2431SOL    HW1 8192   4.288   0.804   2.281
 2431SOL    HW2 8193   4.251   0.648   2.311
 2432SOL     OW 8194   3.113   6.757   3.247
 2432SOL    HW1 8195   3.102   6.720   3.339
 2432SOL    HW2 8196   3.037   6.818   3.226
 2433SOL     OW 8197   3.142   0.442   1.280
 2433SOL    HW1 8198   3.199   0.381   1.334
 2433SOL    HW2 8199   3.052   0.400   1.265
 2434SOL     OW 8200   4.202   0.997   4.656
 2434SOL    HW1 8201   4.243   0.983   4.566
 2434SOL    HW2 8202   4.109   1.032   4.646
 2435SOL     OW 8203   4.199   4.631   5.694
 2435SOL    HW1 8204   4.113   4.662   5.735
 2435SOL    HW2 8205   4.274   4.690   5.725
 2436SOL     OW 8206   2.112   6.816   2.047
 2436SOL    HW1 8207   2.069   6.827   2.137
 2436SOL    HW2 8208   2.043   6.831   1.976
 2437SOL     OW 8209   4.574   6.029   0.511
 2437SOL    HW1 8210   4.536   6.006   0.422
 2437SOL    HW2 8211   4.593   5.945   0.562
 2438SOL     OW 8212   3.542   1.244   5.985
 2438SOL    HW1 8213   3.525   1.161   6.038
 2438SOL    HW2 8214   3.619   1.294   6.024
 2439SOL     OW 8215   0.670   4.427   6.489
 2439SOL    HW1 8216   0.713   4.518   6.494
 2439SOL    HW2 8217   0.604   4.417   6.563
 2440SOL     OW 8218   5.282   6.034   5.780
 2440SOL    HW1 8219   5.212   6.005   5.845
 2440SOL    HW2 8220   5.256   6.007   5.687
 2441SOL     OW 8221   7.018   0.020   0.442
 2441SOL    HW1 8222   0.000   6.940   0.456
 2441SOL    HW2 8223   6.924   0.052   0.448
 2442SOL     OW 8224   6.474   4.626   4.456
 2442SOL    HW1 8225   6.532   4.588   4.383
 2442SOL    HW2 8226   6.415   4.553   4.492
 2443SOL     OW 8227   4.360   6.345   5.806
 2443SOL    HW1 8228   4.299   6.293   5.866
 2443SOL    HW2 8229   4.309   6.376   5.725
 2444SOL     OW 8230   3.088   4.082   5.961
 2444SOL    HW1 8231   3.162   4.044   5.905
 2444SOL    HW2 8232   3.049   4.161   5.915
 2445SOL     OW 8233   0.341   0.937   1.950
 2445SOL    HW1 8234   0.322   0.873   1.875
 2445SOL    HW2 8235   0.271   0.927   2.020
 2446SOL     OW 8236   0.505   4.290   3.734
 2446SOL    HW1 8237   0.469   4.214   3.680
 2446SOL    HW2 8238   0.579   4.334   3.684
 2447SOL     OW 8239   2.821   2.068   0.847
 2447SOL    HW1 8240   2.883   1.996   0.813
 2447SOL    HW2 8241   2.854   2.157   0.816
 2448SOL     OW 8242   0.059   0.864   5.245
 2448SOL    HW1 8243   7.001   0.885   5.185
 2448SOL    HW2 8244   0.140   0.846   5.189
 2449SOL     OW 8245   0.501   5.055   1.112
 2449SOL    HW1 8246   0.413   5.102   1.104
 2449SOL    HW2 8247   0.486   4.966   1.156
 2450SOL     OW 8248   2.640   4.590   3.464
 2450SOL    HW1 8249   2.586   4.627   3.539
 2450SOL    HW2 8250   2.595   4.509   3.426
 2451SOL     OW 8251   0.472   0.047   3.608
 2451SOL    HW1 8252   0.556   0.100   3.619
 2451SOL    HW2 8253   0.393   0.106   3.623
 2452SOL     OW 8254   1.394   2.942   2.652
 2452SOL    HW1 8255   1.454   3.021   2.634
 2452SOL    HW2 8256   1.440   2.878   2.713
 2453SOL     OW 8257   6.456   3.797   0.643
 2453SOL    HW1 8258   6.535   3.782   0.702
 2453SOL    HW2 8259   6.411   3.710   0.623
 2454SOL     OW 8260   3.491   1.371   0.657
 2454SOL    HW1 8261   3.465   1.274   0.655
 2454SOL    HW2 8262   3.586   1.378   0.690
 2455SOL     OW 8263   5.571   6.306   0.887
 2455SOL    HW1 8264   5.626   6.367   0.945
 2455SOL    HW2 8265   5.474   6.325   0.902
 2456SOL     OW 8266   5.951   6.792   0.647
 2456SOL    HW1 8267   5.954   6.887   0.678
 2456SOL    HW2 8268   5.881   6.782   0.576
 2457SOL     OW 8269   6.734   6.123   0.486
 2457SOL    HW1 8270   6.640   6.135   0.520
 2457SOL    HW2 8271   6.736   6.049   0.419
 2458SOL     OW 8272   2.836   5.731   3.445
 2458SOL    HW1 8273   2.927   5.703   3.477
 2458SOL    HW2 8274   2.770   5.659   3.464
 2459SOL     OW 8275   2.540   6.957   0.438
 2459SOL    HW1 8276   2.550   0.022   0.387
 2459SOL    HW2 8277   2.613   6.894   0.413
 2460SOL     OW 8278   2.297   0.298   1.506
 2460SOL    HW1 8279   2.354   0.234   1.454
 2460SOL    HW2 8280   2.350   0.379   1.530
 2461SOL     OW 8281   4.724   0.460   2.765
 2461SOL    HW1 8282   4.794   0.525   2.733
 2461SOL    HW2 8283   4.691   0.489   2.855
 2462SOL     OW 8284   2.262   5.730   6.826
 2462SOL    HW1 8285   2.254   5.704   6.730
 2462SOL    HW2 8286   2.314   5.815   6.833
 2463SOL     OW 8287   5.834   2.468   4.041
 2463SOL    HW1 8288   5.895   2.392   4.064
 2463SOL    HW2 8289   5.874   2.521   3.966
 2464SOL     OW 8290   1.147   4.809   1.254
 2464SOL    HW1 8291   1.065   4.754   1.268
 2464SOL    HW2 8292   1.210   4.760   1.194
 2465SOL     OW 8293   0.070   5.328   1.160
 2465SOL    HW1 8294   0.017   5.297   1.081
 2465SOL    HW2 8295   0.022   5.302   1.244
 2466SOL     OW 8296   3.396   0.698   1.540
 2466SOL    HW1 8297   3.323   0.746   1.589
 2466SOL    HW2 8298   3.473   0.682   1.602
 2467SOL     OW 8299   5.634   1.681   5.421
 2467SOL    HW1 8300   5.572   1.747   5.462
 2467SOL    HW2 8301   5.685   1.633   5.492
 2468SOL     OW 8302   6.393   5.929   1.882
 2468SOL    HW1 8303   6.404   5.888   1.972
 2468SOL    HW2 8304   6.362   6.024   1.892
 2469SOL     OW 8305   3.567   4.876   5.318
 2469SOL    HW1 8306   3.478   4.832   5.305
 2469SOL    HW2 8307   3.588   4.880   5.416
 2470SOL     OW 8308   3.211   3.932   6.630
 2470SOL    HW1 8309   3.256   3.856   6.581
 2470SOL    HW2 8310   3.169   3.994   6.563
 2471SOL     OW 8311   2.219   6.520   1.460
 2471SOL    HW1 8312   2.314   6.544   1.439
 2471SOL    HW2 8313   2.218   6.442   1.523
 2472SOL     OW 8314   5.901   1.267   4.908
 2472SOL    HW1 8315   5.960   1.263   4.827
 2472SOL    HW2 8316   5.957   1.285   4.989
 2473SOL     OW 8317   2.033   3.813   4.545
 2473SOL    HW1 8318   2.032   3.850   4.638
 2473SOL    HW2 8319   2.042   3.713   4.549
 2474SOL     OW 8320   6.674   5.402   0.360
 2474SOL    HW1 8321   6.633   5.347   0.287
 2474SOL    HW2 8322   6.693   5.344   0.439
 2475SOL     OW 8323   4.461   1.788   0.915
 2475SOL    HW1 8324   4.439   1.737   0.998
 2475SOL    HW2 8325   4.390   1.856   0.897
 2476SOL     OW 8326   0.353   2.660   3.500
 2476SOL    HW1 8327   0.297   2.691   3.577
 2476SOL    HW2 8328   0.446   2.695   3.510
 2477SOL     OW 8329   6.347   0.638   2.027
 2477SOL    HW1 8330   6.363   0.731   1.995
 2477SOL    HW2 8331   6.393   0.624   2.115
 2478SOL     OW 8332   5.433   6.756   2.857
 2478SOL    HW1 8333   5.388   6.789   2.774
 2478SOL    HW2 8334   5.457   6.659   2.847
 2479SOL     OW 8335   0.815   3.503   1.495
 2479SOL    HW1 8336   0.861   3.461   1.573
 2479SOL    HW2 8337   0.716   3.496   1.507
 2480SOL     OW 8338   6.363   3.240   1.057
 2480SOL    HW1 8339   6.453   3.200   1.075
 2480SOL    HW2 8340   6.298   3.167   1.035
 2481SOL     OW 8341   3.457   6.264   0.105
 2481SOL    HW1 8342   3.531   6.218   0.154
 2481SOL    HW2 8343   3.487   6.283   0.011
 2482SOL     OW 8344   4.713   3.118   5.546
 2482SOL    HW1 8345   4.797   3.172   5.539
 2482SOL    HW2 8346   4.687   3.110   5.643
 2483SOL     OW 8347   2.142   1.525   0.785
 2483SOL    HW1 8348   2.148   1.578   0.869
 2483SOL    HW2 8349   2.070   1.456   0.793
 2484SOL     OW 8350   1.940   0.821   0.697
 2484SOL    HW1 8351   1.994   0.886   0.750
 2484SOL    HW2 8352   1.939   0.850   0.601
 2485SOL     OW 8353   4.911   5.221   2.779
 2485SOL    HW1 8354   4.992   5.165   2.760
 2485SOL    HW2 8355   4.909   5.244   2.876
 2486SOL     OW 8356   2.474   6.064   2.527
 2486SOL    HW1 8357   2.399   6.007   2.494
 2486SOL    HW2 8358   2.558   6.010   2.531
 2487SOL     OW 8359   3.820   6.236   0.498
 2487SOL    HW1 8360   3.890   6.260   0.431
 2487SOL    HW2 8361   3.833   6.142   0.529
 2488SOL     OW 8362   2.808   4.131   1.411
 2488SOL    HW1 8363   2.837   4.169   1.498
 2488SOL    HW2 8364   2.765   4.042   1.426
 2489SOL     OW 8365   2.756   4.745   4.257
 2489SOL    HW1 8366   2.753   4.844   4.253
 2489SOL    HW2 8367   2.775   4.708   4.166
 2490SOL     OW 8368   6.062   4.929   1.063
 2490SOL    HW1 8369   6.062   4.841   1.110
 2490SOL    HW2 8370   6.033   5.000   1.127
 2491SOL     OW 8371   2.543   5.850   2.813
 2491SOL    HW1 8372   2.597   5.850   2.897
 2491SOL    HW2 8373   2.512   5.757   2.793
 2492SOL     OW 8374   3.792   3.325   6.378
 2492SOL    HW1 8375   3.812   3.281   6.290
 2492SOL    HW2 8376   3.820   3.420   6.374
 2493SOL     OW 8377   5.883   0.204   2.923
 2493SOL    HW1 8378   5.941   0.123   2.925
 2493SOL    HW2 8379   5.923   0.272   2.861
 2494SOL     OW 8380   5.297   3.226   2.458
 2494SOL    HW1 8381   5.246   3.200   2.540
 2494SOL    HW2 8382   5.234   3.242   2.382
 2495SOL     OW 8383   4.901   0.700   5.319
 2495SOL    HW1 8384   4.882   0.723   5.224
 2495SOL    HW2 8385   4.932   0.782   5.368
 2496SOL     OW 8386   0.793   5.014   0.316
 2496SOL    HW1 8387   0.797   4.991   0.413
 2496SOL    HW2 8388   0.803   5.112   0.304
 2497SOL     OW 8389   0.467   1.789   6.826
 2497SOL    HW1 8390   0.414   1.829   6.902
 2497SOL    HW2 8391   0.495   1.697   6.850
 2498SOL     OW 8392   2.278   2.743   3.535
 2498SOL    HW1 8393   2.210   2.676   3.566
 2498SOL    HW2 8394   2.257   2.833   3.575
 2499SOL     OW 8395   5.437   0.402   4.491
 2499SOL    HW1 8396   5.436   0.376   4.588
 2499SOL    HW2 8397   5.443   0.319   4.435
 2500SOL     OW 8398   4.460   3.969   5.373
 2500SOL    HW1 8399   4.455   4.007   5.465
 2500SOL    HW2 8400   4.547   3.919   5.362
 2501SOL     OW 8401   6.087   4.559   6.884
 2501SOL    HW1 8402   6.095   4.573   6.786
 2501SOL    HW2 8403   6.117   4.467   6.908
 2502SOL     OW 8404   3.131   6.305   3.648
 2502SOL    HW1 8405   3.068   6.372   3.608
 2502SOL    HW2 8406   3.221   6.346   3.659
 2503SOL     OW 8407   4.130   5.972   5.711
 2503SOL    HW1 8408   4.030   5.960   5.711
 2503SOL    HW2 8409   4.157   6.031   5.787
 2504SOL     OW 8410   2.710   5.178   5.088
 2504SOL    HW1 8411   2.735   5.201   5.182
 2504SOL    HW2 8412   2.635   5.236   5.058
 2505SOL     OW 8413   3.371   5.959   4.759
 2505SOL    HW1 8414   3.292   6.006   4.799
 2505SOL    HW2 8415   3.351   5.936   4.664
 2506SOL     OW 8416   6.881   3.421   5.994
 2506SOL    HW1 8417   6.906   3.367   5.914
 2506SOL    HW2 8418   6.936   3.505   5.997
 2507SOL     OW 8419   6.093   5.069   0.343
 2507SOL    HW1 8420   6.035   5.026   0.274
 2507SOL    HW2 8421   6.057   5.160   0.365
 2508SOL     OW 8422   2.599   2.341   2.005
 2508SOL    HW1 8423   2.695   2.346   2.033
 2508SOL    HW2 8424   2.586   2.396   1.923
 2509SOL     OW 8425   5.419   1.498   2.158
 2509SOL    HW1 8426   5.340   1.437   2.156
 2509SOL    HW2 8427   5.489   1.460   2.218
 2510SOL     OW 8428   2.518   4.562   0.437
 2510SOL    HW1 8429   2.511   4.484   0.375
 2510SOL    HW2 8430   2.561   4.532   0.523
 2511SOL     OW 8431   1.405   1.775   4.953
 2511SOL    HW1 8432   1.394   1.829   4.870
 2511SOL    HW2 8433   1.381   1.679   4.934
 2512SOL     OW 8434   5.607   4.320   4.745
 2512SOL    HW1 8435   5.508   4.324   4.731
 2512SOL    HW2 8436   5.632   4.373   4.826
 2513SOL     OW 8437   0.882   2.424   6.034
 2513SOL    HW1 8438   0.931   2.486   6.095
 2513SOL    HW2 8439   0.865   2.469   5.946
 2514SOL     OW 8440   0.120   2.753   4.057
 2514SOL    HW1 8441   0.079   2.844   4.062
 2514SOL    HW2 8442   0.216   2.758   4.084
 2515SOL     OW 8443   1.146   6.670   0.915
 2515SOL    HW1 8444   1.175   6.673   0.819
 2515SOL    HW2 8445   1.126   6.762   0.947
 2516SOL     OW 8446   5.998   5.244   3.211
 2516SOL    HW1 8447   6.078   5.185   3.197
 2516SOL    HW2 8448   5.923   5.189   3.250
 2517SOL     OW 8449   2.166   4.802   6.178
 2517SOL    HW1 8450   2.067   4.797   6.168
 2517SOL    HW2 8451   2.190   4.796   6.275
 2518SOL     OW 8452   2.124   3.015   6.903
 2518SOL    HW1 8453   2.077   3.102   6.921
 2518SOL    HW2 8454   2.143   2.969   6.990
 2519SOL     OW 8455   4.449   4.958   4.078
 2519SOL    HW1 8456   4.480   5.049   4.106
 2519SOL    HW2 8457   4.455   4.896   4.156
 2520SOL     OW 8458   1.487   2.759   1.013
 2520SOL    HW1 8459   1.582   2.784   1.033
 2520SOL    HW2 8460   1.467   2.668   1.049
 2521SOL     OW 8461   1.007   0.071   5.915
 2521SOL    HW1 8462   0.975   0.140   5.979
 2521SOL    HW2 8463   0.935   0.002   5.902
 2522SOL     OW 8464   1.222   2.857   4.830
 2522SOL    HW1 8465   1.143   2.843   4.770
 2522SOL    HW2 8466   1.217   2.793   4.907
 2523SOL     OW 8467   6.883   3.201   0.949
 2523SOL    HW1 8468   6.874   3.172   0.854
 2523SOL    HW2 8469   6.905   3.122   1.006
 2524SOL     OW 8470   0.502   6.288   4.498
 2524SOL    HW1 8471   0.595   6.324   4.496
 2524SOL    HW2 8472   0.451   6.324   4.420
 2525SOL     OW 8473   1.490   3.543   4.320
 2525SOL    HW1 8474   1.520   3.449   4.338
 2525SOL    HW2 8475   1.555   3.587   4.258
 2526SOL     OW 8476   0.523   3.119   5.462
 2526SOL    HW1 8477   0.575   3.049   5.512
 2526SOL    HW2 8478   0.502   3.085   5.370
 2527SOL     OW 8479   5.992   6.958   5.367
 2527SOL    HW1 8480   6.023   6.876   5.319
 2527SOL    HW2 8481   6.000   6.944   5.466
 2528SOL     OW 8482   5.435   4.826   0.945
 2528SOL    HW1 8483   5.525   4.857   0.975
 2528SOL    HW2 8484   5.424   4.845   0.848
 2529SOL     OW 8485   4.989   4.637   6.383
 2529SOL    HW1 8486   5.032   4.552   6.414
 2529SOL    HW2 8487   4.898   4.645   6.425
 2530SOL     OW 8488   1.057   6.432   4.093
 2530SOL    HW1 8489   1.090   6.388   4.177
 2530SOL    HW2 8490   1.120   6.504   4.066
 2531SOL     OW 8491   5.655   6.414   4.806
 2531SOL    HW1 8492   5.575   6.356   4.823
 2531SOL    HW2 8493   5.681   6.408   4.710
 2532SOL     OW 8494   0.520   5.778   0.371
 2532SOL    HW1 8495   0.592   5.752   0.306
 2532SOL    HW2 8496   0.466   5.697   0.394
 2533SOL     OW 8497   5.325   6.490   4.855
 2533SOL    HW1 8498   5.341   6.448   4.765
 2533SOL    HW2 8499   5.229   6.475   4.881
 2534SOL     OW 8500   2.520   0.549   3.243
 2534SOL    HW1 8501   2.488   0.458   3.216
 2534SOL    HW2 8502   2.603   0.539   3.298
 2535SOL     OW 8503   1.839   1.948   5.990
 2535SOL    HW1 8504   1.891   1.882   6.044
 2535SOL    HW2 8505   1.834   1.918   5.895
 2536SOL     OW 8506   6.924   1.855   3.626
 2536SOL    HW1 8507   6.896   1.808   3.542
 2536SOL    HW2 8508   6.943   1.951   3.606
 2537SOL     OW 8509   5.060   6.538   0.795
 2537SOL    HW1 8510   4.972   6.502   0.762
 2537SOL    HW2 8511   5.045   6.623   0.845
 2538SOL     OW 8512   2.161   4.580   4.939
 2538SOL    HW1 8513   2.149   4.488   4.975
 2538SOL    HW2 8514   2.229   4.579   4.866
 2539SOL     OW 8515   4.283   6.998   5.370
 2539SOL    HW1 8516   4.318   6.915   5.326
 2539SOL    HW2 8517   4.338   7.019   5.451
 2540SOL     OW 8518   5.648   1.070   1.285
 2540SOL    HW1 8519   5.742   1.068   1.250
 2540SOL    HW2 8520   5.598   0.991   1.249
 2541SOL     OW 8521   1.481   0.529   5.453
 2541SOL    HW1 8522   1.482   0.591   5.374
 2541SOL    HW2 8523   1.390   0.529   5.494
 2542SOL     OW 8524   4.134   2.226   4.514
 2542SOL    HW1 8525   4.109   2.138   4.472
 2542SOL    HW2 8526   4.109   2.225   4.611
 2543SOL     OW 8527   1.299   0.486   2.820
 2543SOL    HW1 8528   1.327   0.557   2.885
 2543SOL    HW2 8529   1.200   0.473   2.825
 2544SOL     OW 8530   0.617   5.037   1.774
 2544SOL    HW1 8531   0.706   5.075   1.752
 2544SOL    HW2 8532   0.615   4.940   1.750
 2545SOL     OW 8533   1.961   1.614   1.562
 2545SOL    HW1 8534   1.885   1.631   1.499
 2545SOL    HW2 8535   1.944   1.531   1.613
 2546SOL     OW 8536   0.042   3.430   1.322
 2546SOL    HW1 8537   6.970   3.462   1.298
 2546SOL    HW2 8538   0.096   3.418   1.239
 2547SOL     OW 8539   5.411   5.163   1.016
 2547SOL    HW1 8540   5.442   5.257   1.029
 2547SOL    HW2 8541   5.485   5.099   1.037
 2548SOL     OW 8542   1.718   0.375   4.925
 2548SOL    HW1 8543   1.719   0.328   5.014
 2548SOL    HW2 8544   1.807   0.416   4.908
 2549SOL     OW 8545   2.239   2.724   1.496
 2549SOL    HW1 8546   2.244   2.671   1.412
 2549SOL    HW2 8547   2.238   2.662   1.575
 2550SOL     OW 8548   5.504   0.111   6.766
 2550SOL    HW1 8549   5.572   0.127   6.838
 2550SOL    HW2 8550   5.538   0.042   6.703
 2551SOL     OW 8551   3.762   4.839   0.109
 2551SOL    HW1 8552   3.817   4.912   0.150
 2551SOL    HW2 8553   3.795   4.750   0.140
 2552SOL     OW 8554   2.306   5.399   6.467
 2552SOL    HW1 8555   2.306   5.309   6.512
 2552SOL    HW2 8556   2.222   5.447   6.491
 2553SOL     OW 8557   3.660   2.836   6.046
 2553SOL    HW1 8558   3.595   2.837   5.969
 2553SOL    HW2 8559   3.660   2.745   6.087
 2554SOL     OW 8560   1.905   6.159   6.727
 2554SOL    HW1 8561   1.891   6.122   6.819
 2554SOL    HW2 8562   1.873   6.093   6.659
 2555SOL     OW 8563   6.233   6.102   6.309
 2555SOL    HW1 8564   6.300   6.132   6.377
 2555SOL    HW2 8565   6.222   6.003   6.315
 2556SOL     OW 8566   3.957   0.070   0.919
 2556SOL    HW1 8567   4.003   0.138   0.976
 2556SOL    HW2 8568   3.993   6.998   0.941
 2557SOL     OW 8569   2.756   1.118   6.948
 2557SOL    HW1 8570   2.845   1.083   6.922
 2557SOL    HW2 8571   2.734   1.199   6.893
 2558SOL     OW 8572   4.786   3.830   5.983
 2558SOL    HW1 8573   4.798   3.840   6.082
 2558SOL    HW2 8574   4.714   3.892   5.952
 2559SOL     OW 8575   6.782   3.431   3.677
 2559SOL    HW1 8576   6.759   3.518   3.633
 2559SOL    HW2 8577   6.720   3.360   3.644
 2560SOL     OW 8578   4.935   3.618   3.456
 2560SOL    HW1 8579   4.915   3.520   3.453
 2560SOL    HW2 8580   4.905   3.656   3.544
 2561SOL     OW 8581   3.949   1.405   3.050
 2561SOL    HW1 8582   3.851   1.426   3.044
 2561SOL    HW2 8583   3.968   1.364   3.140
 2562SOL     OW 8584   3.203   6.040   3.146
 2562SOL    HW1 8585   3.104   6.049   3.136
 2562SOL    HW2 8586   3.227   5.944   3.158
 2563SOL     OW 8587   3.678   1.599   6.627
 2563SOL    HW1 8588   3.615   1.522   6.627
 2563SOL    HW2 8589   3.644   1.670   6.565
 2564SOL     OW 8590   2.318   6.916   0.618
 2564SOL    HW1 8591   2.408   6.916   0.573
 2564SOL    HW2 8592   2.250   6.877   0.556
 2565SOL     OW 8593   0.350   1.271   6.623
 2565SOL    HW1 8594   0.275   1.325   6.583
 2565SOL    HW2 8595   0.312   1.205   6.688
 2566SOL     OW 8596   2.876   6.512   1.760
 2566SOL    HW1 8597   2.816   6.432   1.754
 2566SOL    HW2 8598   2.824   6.590   1.795
 2567SOL     OW 8599   1.709   1.354   1.445
 2567SOL    HW1 8600   1.613   1.357   1.419
 2567SOL    HW2 8601   1.743   1.260   1.434
 2568SOL     OW 8602   3.019   6.766   0.960
 2568SOL    HW1 8603   2.985   6.679   0.994
 2568SOL    HW2 8604   2.977   6.841   1.011
 2569SOL     OW 8605   2.993   2.013   1.790
 2569SOL    HW1 8606   2.922   2.053   1.732
 2569SOL    HW2 8607   2.975   2.037   1.886
 2570SOL     OW 8608   5.432   5.948   6.009
 2570SOL    HW1 8609   5.488   5.980   6.086
 2570SOL    HW2 8610   5.411   6.024   5.949
 2571SOL     OW 8611   3.906   2.953   4.693
 2571SOL    HW1 8612   3.951   3.000   4.618
 2571SOL    HW2 8613   3.964   2.877   4.724
 2572SOL     OW 8614   2.391   6.108   1.156
 2572SOL    HW1 8615   2.363   6.183   1.097
 2572SOL    HW2 8616   2.430   6.145   1.241
 2573SOL     OW 8617   6.466   2.104   3.795
 2573SOL    HW1 8618   6.496   2.199   3.784
 2573SOL    HW2 8619   6.390   2.086   3.733
 2574SOL     OW 8620   6.382   3.342   0.791
 2574SOL    HW1 8621   6.382   3.335   0.890
 2574SOL    HW2 8622   6.321   3.272   0.753
 2575SOL     OW 8623   5.265   3.565   1.241
 2575SOL    HW1 8624   5.215   3.643   1.276
 2575SOL    HW2 8625   5.299   3.510   1.317
 2576SOL     OW 8626   3.356   6.855   3.753
 2576SOL    HW1 8627   3.390   6.765   3.725
 2576SOL    HW2 8628   3.338   6.910   3.672
 2577SOL     OW 8629   4.359   0.716   3.820
 2577SOL    HW1 8630   4.360   0.623   3.857
 2577SOL    HW2 8631   4.368   0.781   3.896
 2578SOL     OW 8632   5.154   3.010   5.036
 2578SOL    HW1 8633   5.059   3.040   5.044
 2578SOL    HW2 8634   5.178   2.954   5.115
 2579SOL     OW 8635   0.678   1.337   5.376
 2579SOL    HW1 8636   0.583   1.313   5.354
 2579SOL    HW2 8637   0.679   1.415   5.438
 2580SOL     OW 8638   1.988   2.811   5.655
 2580SOL    HW1 8639   2.029   2.803   5.565
 2580SOL    HW2 8640   2.053   2.855   5.718
 2581SOL     OW 8641   5.540   4.720   1.812
 2581SOL    HW1 8642   5.584   4.657   1.749
 2581SOL    HW2 8643   5.495   4.668   1.885
 2582SOL     OW 8644   2.265   4.758   3.282
 2582SOL    HW1 8645   2.350   4.758   3.336
 2582SOL    HW2 8646   2.190   4.721   3.338
 2583SOL     OW 8647   1.391   0.836   1.137
 2583SOL    HW1 8648   1.351   0.859   1.048
 2583SOL    HW2 8649   1.426   0.742   1.134
 2584SOL     OW 8650   4.113   6.471   0.679
 2584SOL    HW1 8651   4.023   6.509   0.702
 2584SOL    HW2 8652   4.184   6.522   0.728
 2585SOL     OW 8653   3.149   0.484   0.585
 2585SOL    HW1 8654   3.114   0.501   0.493
 2585SOL    HW2 8655   3.142   0.567   0.640
 2586SOL     OW 8656   5.441   1.388   4.971
 2586SOL    HW1 8657   5.499   1.458   4.930
 2586SOL    HW2 8658   5.427   1.314   4.906
 2587SOL     OW 8659   6.776   0.159   4.304
 2587SOL    HW1 8660   6.753   0.248   4.344
 2587SOL    HW2 8661   6.798   0.094   4.376
 2588SOL     OW 8662   5.239   0.027   0.957
 2588SOL    HW1 8663   5.292   0.093   1.011
 2588SOL    HW2 8664   5.195   0.073   0.880
 2589SOL     OW 8665   0.094   6.973   5.085
 2589SOL    HW1 8666   0.052   6.904   5.027
 2589SOL    HW2 8667   0.096   0.041   5.037
 2590SOL     OW 8668   3.875   0.421   2.608
 2590SOL    HW1 8669   3.811   0.373   2.668
 2590SOL    HW2 8670   3.969   0.394   2.630
 2591SOL     OW 8671   6.179   6.296   1.647
 2591SOL    HW1 8672   6.192   6.268   1.551
 2591SOL    HW2 8673   6.260   6.347   1.677
 2592SOL     OW 8674   2.831   6.254   1.928
 2592SOL    HW1 8675   2.814   6.274   1.832
 2592SOL    HW2 8676   2.917   6.203   1.937
 2593SOL     OW 8677   3.761   6.802   2.129
 2593SOL    HW1 8678   3.832   6.828   2.194
 2593SOL    HW2 8679   3.745   6.703   2.135
 2594SOL     OW 8680   0.702   6.524   6.038
 2594SOL    HW1 8681   0.605   6.504   6.055
 2594SOL    HW2 8682   0.724   6.614   6.077
 2595SOL     OW 8683   0.217   2.268   5.565
 2595SOL    HW1 8684   0.282   2.296   5.494
 2595SOL    HW2 8685   0.235   2.322   5.648
 2596SOL     OW 8686   3.682   2.522   1.669
 2596SOL    HW1 8687   3.662   2.443   1.727
 2596SOL    HW2 8688   3.686   2.604   1.725
 2597SOL     OW 8689   2.079   3.888   0.903
 2597SOL    HW1 8690   2.145   3.960   0.882
 2597SOL    HW2 8691   1.993   3.905   0.854
 2598SOL     OW 8692   5.835   2.698   4.595
 2598SOL    HW1 8693   5.821   2.781   4.542
 2598SOL    HW2 8694   5.932   2.674   4.595
 2599SOL     OW 8695   4.101   5.843   0.137
 2599SOL    HW1 8696   4.068   5.752   0.112
 2599SOL    HW2 8697   4.053   5.911   0.082
 2600SOL     OW 8698   4.845   3.758   4.107
 2600SOL    HW1 8699   4.859   3.664   4.079
 2600SOL    HW2 8700   4.814   3.761   4.203
 2601SOL     OW 8701   3.391   2.525   6.555
 2601SOL    HW1 8702   3.401   2.600   6.490
 2601SOL    HW2 8703   3.475   2.470   6.556
 2602SOL     OW 8704   6.946   4.375   3.082
 2602SOL    HW1 8705   0.008   4.388   3.139
 2602SOL    HW2 8706   6.913   4.281   3.092
 2603SOL     OW 8707   2.682   2.134   1.387
 2603SOL    HW1 8708   2.705   2.064   1.318
 2603SOL    HW2 8709   2.730   2.219   1.365
 2604SOL     OW 8710   5.134   0.971   1.313
 2604SOL    HW1 8711   5.174   0.906   1.378
 2604SOL    HW2 8712   5.176   0.960   1.223
 2605SOL     OW 8713   4.123   4.744   3.320
 2605SOL    HW1 8714   4.163   4.697   3.399
 2605SOL    HW2 8715   4.025   4.758   3.336
 2606SOL     OW 8716   6.694   5.020   0.809
 2606SOL    HW1 8717   6.787   5.032   0.775
 2606SOL    HW2 8718   6.654   5.110   0.827
 2607SOL     OW 8719   0.597   2.049   5.429
 2607SOL    HW1 8720   0.561   2.033   5.521
 2607SOL    HW2 8721   0.661   2.126   5.430
 2608SOL     OW 8722   4.927   6.414   2.862
 2608SOL    HW1 8723   4.874   6.479   2.806
 2608SOL    HW2 8724   4.864   6.361   2.919
 2609SOL     OW 8725   0.499   2.391   1.271
 2609SOL    HW1 8726   0.566   2.329   1.310
 2609SOL    HW2 8727   0.436   2.340   1.213
 2610SOL     OW 8728   6.894   5.181   4.598
 2610SOL    HW1 8729   6.855   5.182   4.690
 2610SOL    HW2 8730   6.929   5.089   4.578
 2611SOL     OW 8731   6.487   6.848   1.044
 2611SOL    HW1 8732   6.542   6.844   0.961
 2611SOL    HW2 8733   6.394   6.874   1.021
 2612SOL     OW 8734   6.778   6.519   4.798
 2612SOL    HW1 8735   6.808   6.424   4.792
 2612SOL    HW2 8736   6.744   6.549   4.709
 2613SOL     OW 8737   3.106   6.542   2.333
 2613SOL    HW1 8738   3.013   6.578   2.328
 2613SOL    HW2 8739   3.133   6.530   2.428
 2614SOL     OW 8740   6.432   6.050   5.903
 2614SOL    HW1 8741   6.410   6.052   5.805
 2614SOL    HW2 8742   6.400   6.135   5.945
 2615SOL     OW 8743   5.720   4.864   3.259
 2615SOL    HW1 8744   5.623   4.837   3.262
 2615SOL    HW2 8745   5.766   4.810   3.189
 2616SOL     OW 8746   3.704   2.927   3.920
 2616SOL    HW1 8747   3.720   2.925   4.019
 2616SOL    HW2 8748   3.683   3.021   3.893
 2617SOL     OW 8749   3.373   6.014   1.125
 2617SOL    HW1 8750   3.441   6.057   1.067
 2617SOL    HW2 8751   3.289   5.998   1.073
 2618SOL     OW 8752   0.329   6.918   3.989
 2618SOL    HW1 8753   0.420   6.877   3.978
 2618SOL    HW2 8754   0.296   6.951   3.901
 2619SOL     OW 8755   3.156   1.431   2.772
 2619SOL    HW1 8756   3.169   1.333   2.789
 2619SOL    HW2 8757   3.241   1.480   2.793
 2620SOL     OW 8758   0.984   5.827   3.622
 2620SOL    HW1 8759   0.933   5.843   3.538
 2620SOL    HW2 8760   1.074   5.789   3.600
 2621SOL     OW 8761   1.474   5.942   3.551
 2621SOL    HW1 8762   1.558   5.994   3.564
 2621SOL    HW2 8763   1.495   5.844   3.554
 2622SOL     OW 8764   2.271   2.634   6.829
 2622SOL    HW1 8765   2.256   2.581   6.746
 2622SOL    HW2 8766   2.196   2.618   6.893
 2623SOL     OW 8767   3.911   1.995   4.677
 2623SOL    HW1 8768   3.948   2.060   4.743
 2623SOL    HW2 8769   3.819   2.024   4.648
 2624SOL     OW 8770   6.735   3.108   3.911
 2624SOL    HW1 8771   6.735   3.017   3.953
 2624SOL    HW2 8772   6.824   3.125   3.869
 2625SOL     OW 8773   2.239   2.994   5.282
 2625SOL    HW1 8774   2.264   2.996   5.185
 2625SOL    HW2 8775   2.317   3.024   5.337
 2626SOL     OW 8776   0.578   6.830   3.954
 2626SOL    HW1 8777   0.604   6.749   3.901
 2626SOL    HW2 8778   0.599   6.815   4.050
 2627SOL     OW 8779   0.469   0.915   4.265
 2627SOL    HW1 8780   0.477   0.853   4.187
 2627SOL    HW2 8781   0.531   0.885   4.338
 2628SOL     OW 8782   3.696   5.787   6.877
 2628SOL    HW1 8783   3.649   5.814   6.960
 2628SOL    HW2 8784   3.751   5.863   6.842
 2629SOL     OW 8785   3.499   3.936   2.091
 2629SOL    HW1 8786   3.582   3.978   2.130
 2629SOL    HW2 8787   3.418   3.979   2.131
 2630SOL     OW 8788   3.870   2.173   2.347
 2630SOL    HW1 8789   3.835   2.266   2.357
 2630SOL    HW2 8790   3.826   2.129   2.268
 2631SOL     OW 8791   4.471   6.728   3.577
 2631SOL    HW1 8792   4.442   6.821   3.599
 2631SOL    HW2 8793   4.484   6.677   3.662
 2632SOL     OW 8794   2.909   2.129   5.853
 2632SOL    HW1 8795   2.851   2.145   5.773
 2632SOL    HW2 8796   2.989   2.076   5.826
 2633SOL     OW 8797   6.403   2.511   6.030
 2633SOL    HW1 8798   6.433   2.602   6.059
 2633SOL    HW2 8799   6.479   2.463   5.987
 2634SOL     OW 8800   2.211   3.948   3.377
 2634SOL    HW1 8801   2.262   4.032   3.397
 2634SOL    HW2 8802   2.161   3.960   3.291
 2635SOL     OW 8803   5.727   5.702   4.266
 2635SOL    HW1 8804   5.739   5.629   4.334
 2635SOL    HW2 8805   5.634   5.737   4.272
 2636SOL     OW 8806   5.272   0.408   6.011
 2636SOL    HW1 8807   5.303   0.503   6.022
 2636SOL    HW2 8808   5.347   0.346   6.033
 2637SOL     OW 8809   6.542   0.991   3.540
 2637SOL    HW1 8810   6.634   0.950   3.539
 2637SOL    HW2 8811   6.474   0.919   3.554
 2638SOL     OW 8812   0.043   6.869   2.927
 2638SOL    HW1 8813   0.018   6.774   2.910
 2638SOL    HW2 8814   0.143   6.879   2.920
 2639SOL     OW 8815   6.958   6.805   1.770
 2639SOL    HW1 8816   6.877   6.808   1.829
 2639SOL    HW2 8817   6.949   6.730   1.704
 2640SOL     OW 8818   0.023   6.450   5.595
 2640SOL    HW1 8819   0.080   6.402   5.528
 2640SOL    HW2 8820   6.997   6.527   5.551
 2641SOL     OW 8821   5.676   3.220   1.658
 2641SOL    HW1 8822   5.646   3.245   1.566
 2641SOL    HW2 8823   5.721   3.131   1.655
 2642SOL     OW 8824   4.937   0.482   4.829
 2642SOL    HW1 8825   4.907   0.534   4.749
 2642SOL    HW2 8826   4.967   0.391   4.801
 2643SOL     OW 8827   0.972   4.817   2.894
 2643SOL    HW1 8828   0.938   4.887   2.831
 2643SOL    HW2 8829   0.944   4.726   2.862
 2644SOL     OW 8830   0.650   4.189   5.053
 2644SOL    HW1 8831   0.648   4.227   5.145
 2644SOL    HW2 8832   0.620   4.093   5.056
 2645SOL     OW 8833   4.515   6.525   5.014
 2645SOL    HW1 8834   4.515   6.545   4.917
 2645SOL    HW2 8835   4.574   6.589   5.062
 2646SOL     OW 8836   6.261   6.712   6.565
 2646SOL    HW1 8837   6.242   6.749   6.655
 2646SOL    HW2 8838   6.282   6.614   6.572
 2647SOL     OW 8839   5.552   1.023   0.676
 2647SOL    HW1 8840   5.561   1.119   0.649
 2647SOL    HW2 8841   5.625   0.999   0.740
 2648SOL     OW 8842   6.721   6.680   3.774
 2648SOL    HW1 8843   6.727   6.693   3.675
 2648SOL    HW2 8844   6.746   6.765   3.821
 2649SOL     OW 8845   4.167   2.102   6.237
 2649SOL    HW1 8846   4.107   2.068   6.165
 2649SOL    HW2 8847   4.259   2.065   6.224
 2650SOL     OW 8848   0.458   3.859   3.916
 2650SOL    HW1 8849   0.472   3.938   3.975
 2650SOL    HW2 8850   0.542   3.840   3.864
 2651SOL     OW 8851   1.458   1.780   0.345
 2651SOL    HW1 8852   1.372   1.787   0.296
 2651SOL    HW2 8853   1.463   1.691   0.391
 2652SOL     OW 8854   2.993   3.722   3.266
 2652SOL    HW1 8855   2.928   3.700   3.339
 2652SOL    HW2 8856   3.073   3.662   3.273
 2653SOL     OW 8857   5.176   6.957   5.143
 2653SOL    HW1 8858   5.258   7.005   5.111
 2653SOL    HW2 8859   5.189   6.930   5.239
 2654SOL     OW 8860   4.738   3.130   0.213
 2654SOL    HW1 8861   4.656   3.119   0.268
 2654SOL    HW2 8862   4.728   3.080   0.127
 2655SOL     OW 8863   4.556   4.482   4.467
 2655SOL    HW1 8864   4.638   4.537   4.458
 2655SOL    HW2 8865   4.475   4.541   4.462
 2656SOL     OW 8866   4.100   4.821   4.143
 2656SOL    HW1 8867   4.003   4.846   4.146
 2656SOL    HW2 8868   4.136   4.835   4.051
 2657SOL     OW 8869   2.491   4.560   6.341
 2657SOL    HW1 8870   2.513   4.656   6.321
 2657SOL    HW2 8871   2.576   4.507   6.342
 2658SOL     OW 8872   5.270   4.205   6.991
 2658SOL    HW1 8873   5.209   4.199   0.050
 2658SOL    HW2 8874   5.347   4.142   7.004
 2659SOL     OW 8875   6.197   2.392   4.294
 2659SOL    HW1 8876   6.273   2.393   4.360
 2659SOL    HW2 8877   6.224   2.338   4.214
 2660SOL     OW 8878   0.894   1.974   0.750
 2660SOL    HW1 8879   0.938   1.969   0.840
 2660SOL    HW2 8880   0.821   2.042   0.752
 2661SOL     OW 8881   2.405   6.445   1.980
 2661SOL    HW1 8882   2.393   6.542   1.961
 2661SOL    HW2 8883   2.495   6.415   1.946
 2662SOL     OW 8884   4.515   0.085   4.782
 2662SOL    HW1 8885   4.469   0.135   4.855
 2662SOL    HW2 8886   4.610   0.069   4.807
 2663SOL     OW 8887   2.588   4.839   0.979
 2663SOL    HW1 8888   2.524   4.910   1.008
 2663SOL    HW2 8889   2.542   4.750   0.977
 2664SOL     OW 8890   3.867   3.628   3.409
 2664SOL    HW1 8891   3.879   3.655   3.314
 2664SOL    HW2 8892   3.785   3.671   3.446
 2665SOL     OW 8893   3.283   1.780   4.889
 2665SOL    HW1 8894   3.246   1.735   4.970
 2665SOL    HW2 8895   3.209   1.819   4.834
 2666SOL     OW 8896   4.926   3.612   1.418
 2666SOL    HW1 8897   4.948   3.519   1.447
 2666SOL    HW2 8898   4.861   3.652   1.482
 2667SOL     OW 8899   1.713   5.562   4.714
 2667SOL    HW1 8900   1.699   5.629   4.641
 2667SOL    HW2 8901   1.653   5.483   4.699
 2668SOL     OW 8902   6.437   3.120   3.310
 2668SOL    HW1 8903   6.528   3.130   3.351
 2668SOL    HW2 8904   6.392   3.209   3.308
 2669SOL     OW 8905   2.971   5.051   5.229
 2669SOL    HW1 8906   2.978   5.151   5.234
 2669SOL    HW2 8907   2.959   5.023   5.134
 2670SOL     OW 8908   5.660   1.034   6.576
 2670SOL    HW1 8909   5.585   1.084   6.619
 2670SOL    HW2 8910   5.744   1.051   6.627
 2671SOL     OW 8911   3.093   4.863   0.568
 2671SOL    HW1 8912   3.108   4.869   0.469
 2671SOL    HW2 8913   3.086   4.955   0.606
 2672SOL     OW 8914   0.897   5.492   6.461
 2672SOL    HW1 8915   0.884   5.538   6.549
 2672SOL    HW2 8916   0.969   5.423   6.470
 2673SOL     OW 8917   5.490   2.650   3.825
 2673SOL    HW1 8918   5.503   2.747   3.847
 2673SOL    HW2 8919   5.543   2.628   3.742
 2674SOL     OW 8920   2.259   4.120   4.472
 2674SOL    HW1 8921   2.255   4.022   4.493
 2674SOL    HW2 8922   2.247   4.173   4.556
 2675SOL     OW 8923   0.712   4.382   5.423
 2675SOL    HW1 8924   0.799   4.380   5.374
 2675SOL    HW2 8925   0.718   4.446   5.500
 2676SOL     OW 8926   4.439   0.622   2.995
 2676SOL    HW1 8927   4.422   0.524   2.988
 2676SOL    HW2 8928   4.538   0.639   2.991
 2677SOL     OW 8929   3.276   5.365   1.048
 2677SOL    HW1 8930   3.284   5.442   0.984
 2677SOL    HW2 8931   3.348   5.372   1.116
 2678SOL     OW 8932   0.231   4.128   0.816
 2678SOL    HW1 8933   0.234   4.054   0.884
 2678SOL    HW2 8934   0.196   4.211   0.859
 2679SOL     OW 8935   4.325   5.474   1.089
 2679SOL    HW1 8936   4.393   5.540   1.057
 2679SOL    HW2 8937   4.241   5.483   1.035
 2680SOL     OW 8938   1.397   1.451   0.765
 2680SOL    HW1 8939   1.373   1.363   0.726
 2680SOL    HW2 8940   1.329   1.519   0.738
 2681SOL     OW 8941   1.349   2.274   4.146
 2681SOL    HW1 8942   1.342   2.257   4.244
 2681SOL    HW2 8943   1.391   2.195   4.101
 2682SOL     OW 8944   5.546   3.350   2.285
 2682SOL    HW1 8945   5.585   3.336   2.194
 2682SOL    HW2 8946   5.486   3.274   2.308
 2683SOL     OW 8947   1.552   3.603   0.217
 2683SOL    HW1 8948   1.617   3.574   0.287
 2683SOL    HW2 8949   1.536   3.528   0.153
 2684SOL     OW 8950   3.988   5.068   3.247
 2684SOL    HW1 8951   4.065   5.032   3.194
 2684SOL    HW2 8952   3.929   4.993   3.276
 2685SOL     OW 8953   6.866   6.658   5.512
 2685SOL    HW1 8954   6.769   6.669   5.532
 2685SOL    HW2 8955   6.913   6.745   5.523
 2686SOL     OW 8956   1.772   2.560   5.360
 2686SOL    HW1 8957   1.812   2.475   5.327
 2686SOL    HW2 8958   1.676   2.565   5.332
 2687SOL     OW 8959   4.293   4.665   2.914
 2687SOL    HW1 8960   4.367   4.725   2.885
 2687SOL    HW2 8961   4.322   4.614   2.996
 2688SOL     OW 8962   4.415   5.674   6.328
 2688SOL    HW1 8963   4.338   5.687   6.265
 2688SOL    HW2 8964   4.384   5.622   6.408
 2689SOL     OW 8965   2.409   2.134   3.454
 2689SOL    HW1 8966   2.349   2.061   3.485
 2689SOL    HW2 8967   2.497   2.126   3.501
 2690SOL     OW 8968   2.890   3.518   3.721
 2690SOL    HW1 8969   2.860   3.485   3.811
 2690SOL    HW2 8970   2.988   3.499   3.711
 2691SOL     OW 8971   1.583   5.299   2.217
 2691SOL    HW1 8972   1.649   5.306   2.142
 2691SOL    HW2 8973   1.610   5.361   2.291
 2692SOL     OW 8974   5.179   5.852   4.341
 2692SOL    HW1 8975   5.179   5.926   4.274
 2692SOL    HW2 8976   5.103   5.864   4.405
 2693SOL     OW 8977   1.745   4.373   2.987
 2693SOL    HW1 8978   1.745   4.304   3.060
 2693SOL    HW2 8979   1.680   4.346   2.916
 2694SOL     OW 8980   3.713   0.731   2.836
 2694SOL    HW1 8981   3.667   0.702   2.752
 2694SOL    HW2 8982   3.797   0.779   2.813
 2695SOL     OW 8983   5.615   1.723   2.813
 2695SOL    HW1 8984   5.573   1.759   2.897
 2695SOL    HW2 8985   5.687   1.784   2.783
 2696SOL     OW 8986   3.475   2.888   5.112
 2696SOL    HW1 8987   3.426   2.970   5.083
 2696SOL    HW2 8988   3.542   2.862   5.042
 2697SOL     OW 8989   4.677   2.172   3.831
 2697SOL    HW1 8990   4.701   2.207   3.921
 2697SOL    HW2 8991   4.659   2.074   3.837
 2698SOL     OW 8992   2.205   5.412   0.914
 2698SOL    HW1 8993   2.232   5.315   0.919
 2698SOL    HW2 8994   2.108   5.418   0.891
 2699SOL     OW 8995   3.329   5.658   0.513
 2699SOL    HW1 8996   3.317   5.568   0.557
 2699SOL    HW2 8997   3.271   5.725   0.558
 2700SOL     OW 8998   2.026   3.308   2.042
 2700SOL    HW1 8999   2.082   3.379   1.999
 2700SOL    HW2 9000   2.080   3.261   2.112
 2701SOL     OW 9001   4.223   0.020   6.410
 2701SOL    HW1 9002   4.149   6.998   6.463
 2701SOL    HW2 9003   4.192   0.107   6.372
 2702SOL     OW 9004   0.193   1.374   4.000
 2702SOL    HW1 9005   0.278   1.340   3.959
 2702SOL    HW2 9006   0.126   1.300   4.003
 2703SOL     OW 9007   2.338   0.963   2.846
 2703SOL    HW1 9008   2.398   0.942   2.769
 2703SOL    HW2 9009   2.320   0.880   2.899
 2704SOL     OW 9010   1.040   5.220   0.737
 2704SOL    HW1 9011   1.119   5.275   0.712
 2704SOL    HW2 9012   0.982   5.272   0.800
 2705SOL     OW 9013   1.033   5.478   4.133
 2705SOL    HW1 9014   0.978   5.555   4.165
 2705SOL    HW2 9015   1.071   5.429   4.211
 2706SOL     OW 9016   0.598   0.635   1.406
 2706SOL    HW1 9017   0.640   0.703   1.465
 2706SOL    HW2 9018   0.669   0.576   1.367
 2707SOL     OW 9019   2.428   1.121   5.680
 2707SOL    HW1 9020   2.518   1.110   5.638
 2707SOL    HW2 9021   2.439   1.160   5.771
 2708SOL     OW 9022   1.541   3.020   1.551
 2708SOL    HW1 9023   1.542   3.017   1.651
 2708SOL    HW2 9024   1.617   3.077   1.519
 2709SOL     OW 9025   5.694   6.470   1.061
 2709SOL    HW1 9026   5.694   6.568   1.039
 2709SOL    HW2 9027   5.658   6.457   1.153
 2710SOL     OW 9028   6.759   2.921   2.866
 2710SOL    HW1 9029   6.733   2.853   2.934
 2710SOL    HW2 9030   6.737   2.886   2.774
 2711SOL     OW 9031   3.248   0.710   2.877
 2711SOL    HW1 9032   3.204   0.662   2.953
 2711SOL    HW2 9033   3.314   0.776   2.914
 2712SOL     OW 9034   3.971   5.234   0.910
 2712SOL    HW1 9035   4.057   5.235   0.961
 2712SOL    HW2 9036   3.987   5.272   0.819
 2713SOL     OW 9037   1.828   2.471   4.503
 2713SOL    HW1 9038   1.737   2.430   4.514
 2713SOL    HW2 9039   1.820   2.554   4.448
 2714SOL     OW 9040   4.704   2.181   0.135
 2714SOL    HW1 9041   4.744   2.269   0.160
 2714SOL    HW2 9042   4.707   2.119   0.214
 2715SOL     OW 9043   5.829   6.977   0.346
 2715SOL    HW1 9044   5.925   6.992   0.322
 2715SOL    HW2 9045   5.798   0.028   0.409
 2716SOL     OW 9046   6.009   5.324   1.949
 2716SOL    HW1 9047   6.047   5.266   1.877
 2716SOL    HW2 9048   6.058   5.411   1.951
 2717SOL     OW 9049   1.107   5.326   1.982
 2717SOL    HW1 9050   1.190   5.316   2.038
 2717SOL    HW2 9051   1.051   5.244   1.992
 2718SOL     OW 9052   1.940   3.558   4.418
 2718SOL    HW1 9053   2.032   3.519   4.409
 2718SOL    HW2 9054   1.872   3.485   4.406
 2719SOL     OW 9055   5.045   4.943   1.660
 2719SOL    HW1 9056   4.980   4.974   1.591
 2719SOL    HW2 9057   5.093   4.862   1.626
 2720SOL     OW 9058   1.867   6.105   3.359
 2720SOL    HW1 9059   1.942   6.130   3.420
 2720SOL    HW2 9060   1.883   6.013   3.322
 2721SOL     OW 9061   2.660   0.325   5.261
 2721SOL    HW1 9062   2.571   0.310   5.218
 2721SOL    HW2 9063   2.698   0.237   5.289
 2722SOL     OW 9064   6.521   5.409   2.796
 2722SOL    HW1 9065   6.541   5.464   2.877
 2722SOL    HW2 9066   6.588   5.336   2.787
 2723SOL     OW 9067   1.737   0.035   6.154
 2723SOL    HW1 9068   1.812   0.067   6.212
 2723SOL    HW2 9069   1.664   7.018   6.212
 2724SOL     OW 9070   3.472   6.858   6.120
 2724SOL    HW1 9071   3.433   6.884   6.208
 2724SOL    HW2 9072   3.564   6.897   6.112
 2725SOL     OW 9073   6.232   5.067   3.129
 2725SOL    HW1 9074   6.282   5.135   3.076
 2725SOL    HW2 9075   6.216   4.986   3.074
 2726SOL     OW 9076   6.126   4.175   1.201
 2726SOL    HW1 9077   6.204   4.116   1.183
 2726SOL    HW2 9078   6.050   4.150   1.141
 2727SOL     OW 9079   0.090   4.824   2.661
 2727SOL    HW1 9080   0.141   4.741   2.638
 2727SOL    HW2 9081   0.079   4.880   2.579
 2728SOL     OW 9082   3.401   0.456   5.626
 2728SOL    HW1 9083   3.453   0.394   5.567
 2728SOL    HW2 9084   3.456   0.538   5.644
 2729SOL     OW 9085   6.901   5.795   1.843
 2729SOL    HW1 9086   6.988   5.828   1.808
 2729SOL    HW2 9087   6.855   5.741   1.772
 2730SOL     OW 9088   1.564   6.447   0.900
 2730SOL    HW1 9089   1.521   6.525   0.947
 2730SOL    HW2 9090   1.617   6.394   0.966
 2731SOL     OW 9091   3.592   3.717   1.700
 2731SOL    HW1 9092   3.571   3.623   1.671
 2731SOL    HW2 9093   3.626   3.716   1.794
 2732SOL     OW 9094   6.044   3.164   2.186
 2732SOL    HW1 9095   5.974   3.137   2.121
 2732SOL    HW2 9096   6.135   3.146   2.148
 2733SOL     OW 9097   0.431   6.963   4.918
 2733SOL    HW1 9098   0.426   6.866   4.897
 2733SOL    HW2 9099   0.506   6.979   4.983
 2734SOL     OW 9100   2.187   5.178   2.358
 2734SOL    HW1 9101   2.159   5.238   2.283
 2734SOL    HW2 9102   2.148   5.211   2.444
 2735SOL     OW 9103   0.665   3.683   2.898
 2735SOL    HW1 9104   0.698   3.640   2.814
 2735SOL    HW2 9105   0.567   3.666   2.908
 2736SOL     OW 9106   4.968   0.479   3.619
 2736SOL    HW1 9107   5.034   0.406   3.632
 2736SOL    HW2 9108   5.016   0.564   3.597
 2737SOL     OW 9109   3.378   3.399   5.609
 2737SOL    HW1 9110   3.445   3.369   5.542
 2737SOL    HW2 9111   3.401   3.363   5.699
 2738SOL     OW 9112   5.038   5.268   4.209
 2738SOL    HW1 9113   5.057   5.259   4.306
 2738SOL    HW2 9114   4.958   5.213   4.185
 2739SOL     OW 9115   6.219   4.687   0.392
 2739SOL    HW1 9116   6.285   4.750   0.350
 2739SOL    HW2 9117   6.221   4.699   0.492
 2740SOL     OW 9118   5.538   2.425   2.499
 2740SOL    HW1 9119   5.623   2.408   2.449
 2740SOL    HW2 9120   5.553   2.496   2.568
 2741SOL     OW 9121   6.857   1.760   6.439
 2741SOL    HW1 9122   6.856   1.859   6.450
 2741SOL    HW2 9123   6.951   1.729   6.425
 2742SOL     OW 9124   1.992   5.449   6.459
 2742SOL    HW1 9125   1.914   5.387   6.443
 2742SOL    HW2 9126   1.988   5.525   6.394
 2743SOL     OW 9127   6.150   5.422   1.560
 2743SOL    HW1 9128   6.139   5.519   1.537
 2743SOL    HW2 9129   6.239   5.391   1.529
 2744SOL     OW 9130   3.904   3.057   6.813
 2744SOL    HW1 9131   3.884   3.079   6.717
 2744SOL    HW2 9132   3.886   2.960   6.828
 2745SOL     OW 9133   1.471   0.150   6.773
 2745SOL    HW1 9134   1.420   0.109   6.697
 2745SOL    HW2 9135   1.409   0.165   6.850
 2746SOL     OW 9136   2.082   2.548   4.377
 2746SOL    HW1 9137   2.061   2.525   4.472
 2746SOL    HW2 9138   1.996   2.563   4.327
 2747SOL     OW 9139   5.655   4.062   5.277
 2747SOL    HW1 9140   5.653   4.078   5.376
 2747SOL    HW2 9141   5.741   4.018   5.252
 2748SOL     OW 9142   3.806   1.530   1.168
 2748SOL    HW1 9143   3.840   1.594   1.237
 2748SOL    HW2 9144   3.855   1.545   1.082
 2749SOL     OW 9145   5.873   4.363   4.061
 2749SOL    HW1 9146   5.846   4.308   4.140
 2749SOL    HW2 9147   5.818   4.447   4.058
 2750SOL     OW 9148   0.483   5.446   1.666
 2750SOL    HW1 9149   0.409   5.493   1.619
 2750SOL    HW2 9150   0.509   5.498   1.748
 2751SOL     OW 9151   1.892   7.004   0.537
 2751SOL    HW1 9152   1.838   7.017   0.454
 2751SOL    HW2 9153   1.966   6.939   0.520
 2752SOL     OW 9154   5.480   5.544   5.118
 2752SOL    HW1 9155   5.392   5.560   5.162
 2752SOL    HW2 9156   5.537   5.487   5.178
 2753SOL     OW 9157   1.699   6.764   5.960
 2753SOL    HW1 9158   1.613   6.751   5.910
 2753SOL    HW2 9159   1.776   6.758   5.897
 2754SOL     OW 9160   6.312   0.697   4.351
 2754SOL    HW1 9161   6.323   0.753   4.269
 2754SOL    HW2 9162   6.247   0.623   4.332
 2755SOL     OW 9163   2.909   6.790   3.003
 2755SOL    HW1 9164   2.848   6.735   3.059
 2755SOL    HW2 9165   2.887   6.887   3.015
 2756SOL     OW 9166   5.998   3.982   4.249
 2756SOL    HW1 9167   6.066   3.986   4.176
 2756SOL    HW2 9168   6.037   3.934   4.328
 2757SOL     OW 9169   2.892   1.910   6.760
 2757SOL    HW1 9170   2.838   1.922   6.843
 2757SOL    HW2 9171   2.835   1.930   6.680
 2758SOL     OW 9172   5.513   5.999   3.674
 2758SOL    HW1 9173   5.484   5.933   3.743
 2758SOL    HW2 9174   5.483   5.969   3.584
 2759SOL     OW 9175   3.576   5.229   5.040
 2759SOL    HW1 9176   3.478   5.217   5.024
 2759SOL    HW2 9177   3.623   5.143   5.021
 2760SOL     OW 9178   6.741   4.973   2.950
 2760SOL    HW1 9179   6.788   4.966   3.038
 2760SOL    HW2 9180   6.658   4.917   2.952
 2761SOL     OW 9181   2.049   3.690   3.770
 2761SOL    HW1 9182   1.981   3.763   3.770
 2761SOL    HW2 9183   2.026   3.623   3.841
 2762SOL     OW 9184   1.238   2.215   6.497
 2762SOL    HW1 9185   1.223   2.297   6.553
 2762SOL    HW2 9186   1.321   2.227   6.443
 2763SOL     OW 9187   5.133   2.089   5.513
 2763SOL    HW1 9188   5.036   2.090   5.538
 2763SOL    HW2 9189   5.143   2.127   5.421
 2764SOL     OW 9190   0.234   5.376   2.766
 2764SOL    HW1 9191   0.299   5.303   2.789
 2764SOL    HW2 9192   0.277   5.465   2.777
 2765SOL     OW 9193   0.094   0.362   1.140
 2765SOL    HW1 9194   0.062   0.275   1.105
 2765SOL    HW2 9195   0.144   0.411   1.069
 2766SOL     OW 9196   4.237   0.701   6.701
 2766SOL    HW1 9197   4.271   0.607   6.710
 2766SOL    HW2 9198   4.179   0.708   6.620
 2767SOL     OW 9199   6.027   5.929   6.681
 2767SOL    HW1 9200   5.933   5.942   6.714
 2767SOL    HW2 9201   6.026   5.901   6.586
 2768SOL     OW 9202   4.087   1.123   0.089
 2768SOL    HW1 9203   3.988   1.119   0.091
 2768SOL    HW2 9204   4.125   1.030   0.090
 2769SOL     OW 9205   2.344   4.470   6.093
 2769SOL    HW1 9206   2.320   4.526   6.014
 2769SOL    HW2 9207   2.386   4.527   6.163
 2770SOL     OW 9208   4.056   6.145   6.456
 2770SOL    HW1 9209   4.126   6.150   6.527
 2770SOL    HW2 9210   4.005   6.231   6.453
 2771SOL     OW 9211   5.373   7.010   4.812
 2771SOL    HW1 9212   5.457   6.989   4.763
 2771SOL    HW2 9213   5.330   6.925   4.843
 2772SOL     OW 9214   3.110   1.559   2.449
 2772SOL    HW1 9215   3.032   1.533   2.506
 2772SOL    HW2 9216   3.084   1.557   2.353
 2773SOL     OW 9217   0.220   3.018   3.945
 2773SOL    HW1 9218   0.319   3.014   3.933
 2773SOL    HW2 9219   0.198   3.028   4.042
 2774SOL     OW 9220   5.105   3.078   2.674
 2774SOL    HW1 9221   5.007   3.062   2.667
 2774SOL    HW2 9222   5.122   3.171   2.707
 2775SOL     OW 9223   6.555   3.703   3.825
 2775SOL    HW1 9224   6.487   3.633   3.807
 2775SOL    HW2 9225   6.625   3.667   3.887
 2776SOL     OW 9226   5.381   4.892   6.173
 2776SOL    HW1 9227   5.370   4.937   6.261
 2776SOL    HW2 9228   5.291   4.879   6.130
 2777SOL     OW 9229   2.389   1.694   6.253
 2777SOL    HW1 9230   2.324   1.630   6.294
 2777SOL    HW2 9231   2.449   1.731   6.323
 2778SOL     OW 9232   2.080   6.035   6.395
 2778SOL    HW1 9233   2.033   6.039   6.484
 2778SOL    HW2 9234   2.074   6.125   6.351
 2779SOL     OW 9235   5.855   6.781   2.004
 2779SOL    HW1 9236   5.763   6.743   1.990
 2779SOL    HW2 9237   5.920   6.707   2.020
 2780SOL     OW 9238   6.781   0.132   6.033
 2780SOL    HW1 9239   6.780   0.190   6.115
 2780SOL    HW2 9240   6.754   0.187   5.954
 2781SOL     OW 9241   5.688   0.494   2.997
 2781SOL    HW1 9242   5.717   0.415   3.051
 2781SOL    HW2 9243   5.766   0.527   2.943
 2782SOL     OW 9244   4.274   1.409   5.190
 2782SOL    HW1 9245   4.280   1.363   5.278
 2782SOL    HW2 9246   4.366   1.428   5.156
 2783SOL     OW 9247   6.254   3.659   1.288
 2783SOL    HW1 9248   6.164   3.623   1.309
 2783SOL    HW2 9249   6.271   3.742   1.341
 2784SOL     OW 9250   3.174   1.702   1.888
 2784SOL    HW1 9251   3.111   1.725   1.814
 2784SOL    HW2 9252   3.192   1.783   1.944
 2785SOL     OW 9253   5.381   2.255   0.874
 2785SOL    HW1 9254   5.295   2.217   0.910
 2785SOL    HW2 9255   5.458   2.213   0.921
 2786SOL     OW 9256   6.552   5.793   1.214
 2786SOL    HW1 9257   6.643   5.792   1.256
 2786SOL    HW2 9258   6.542   5.713   1.155
 2787SOL     OW 9259   6.770   6.027   5.899
 2787SOL    HW1 9260   6.718   6.100   5.943
 2787SOL    HW2 9261   6.804   6.059   5.811
 2788SOL     OW 9262   3.221   6.030   6.357
 2788SOL    HW1 9263   3.169   6.082   6.424
 2788SOL    HW2 9264   3.160   5.967   6.309
 2789SOL     OW 9265   1.622   2.410   3.639
 2789SOL    HW1 9266   1.603   2.506   3.620
 2789SOL    HW2 9267   1.651   2.364   3.555
 2790SOL     OW 9268   3.351   4.795   0.676
 2790SOL    HW1 9269   3.255   4.795   0.649
 2790SOL    HW2 9270   3.362   4.848   0.760
 2791SOL     OW 9271   0.228   4.311   2.252
 2791SOL    HW1 9272   0.215   4.406   2.278
 2791SOL    HW2 9273   0.325   4.292   2.240
 2792SOL     OW 9274   3.113   1.225   4.132
 2792SOL    HW1 9275   3.156   1.259   4.216
 2792SOL    HW2 9276   3.175   1.239   4.055
 2793SOL     OW 9277   5.079   3.894   1.889
 2793SOL    HW1 9278   5.153   3.924   1.829
 2793SOL    HW2 9279   5.053   3.800   1.865
 2794SOL     OW 9280   6.900   1.755   6.083
 2794SOL    HW1 9281   6.832   1.805   6.028
 2794SOL    HW2 9282   6.872   1.659   6.091
 2795SOL     OW 9283   0.543   5.041   0.848
 2795SOL    HW1 9284   0.642   5.052   0.837
 2795SOL    HW2 9285   0.518   5.066   0.941
 2796SOL     OW 9286   0.436   5.289   4.322
 2796SOL    HW1 9287   0.509   5.243   4.373
 2796SOL    HW2 9288   0.350   5.283   4.373
 2797SOL     OW 9289   5.231   5.544   5.996
 2797SOL    HW1 9290   5.154   5.569   6.054
 2797SOL    HW2 9291   5.199   5.536   5.901
 2798SOL     OW 9292   6.980   5.706   2.573
 2798SOL    HW1 9293   6.974   5.784   2.510
 2798SOL    HW2 9294   6.965   5.621   2.523
 2799SOL     OW 9295   5.084   5.417   5.411
 2799SOL    HW1 9296   5.137   5.408   5.495
 2799SOL    HW2 9297   5.011   5.349   5.411
 2800SOL     OW 9298   6.063   0.900   6.501
 2800SOL    HW1 9299   6.047   0.904   6.403
 2800SOL    HW2 9300   5.985   0.941   6.549
 2801SOL     OW 9301   1.671   5.469   5.819
 2801SOL    HW1 9302   1.589   5.414   5.800
 2801SOL    HW2 9303   1.646   5.565   5.824
 2802SOL     OW 9304   6.778   6.424   5.362
 2802SOL    HW1 9305   6.752   6.464   5.274
 2802SOL    HW2 9306   6.810   6.497   5.423
 2803SOL     OW 9307   3.373   4.293   5.678
 2803SOL    HW1 9308   3.407   4.244   5.598
 2803SOL    HW2 9309   3.368   4.391   5.658
 2804SOL     OW 9310   0.287   3.672   3.932
 2804SOL    HW1 9311   0.351   3.749   3.930
 2804SOL    HW2 9312   0.337   3.587   3.914
 2805SOL     OW 9313   5.610   3.901   2.423
 2805SOL    HW1 9314   5.685   3.879   2.362
 2805SOL    HW2 9315   5.557   3.819   2.443
 2806SOL     OW 9316   1.438   4.714   6.941
 2806SOL    HW1 9317   1.434   4.789   7.007
 2806SOL    HW2 9318   1.506   4.735   6.871
 2807SOL     OW 9319   3.803   0.303   3.191
 2807SOL    HW1 9320   3.744   0.383   3.179
 2807SOL    HW2 9321   3.840   0.302   3.284
 2808SOL     OW 9322   5.860   6.156   0.888
 2808SOL    HW1 9323   5.801   6.210   0.828
 2808SOL    HW2 9324   5.870   6.202   0.976
 2809SOL     OW 9325   5.889   2.783   2.072
 2809SOL    HW1 9326   5.796   2.748   2.082
 2809SOL    HW2 9327   5.902   2.861   2.133
 2810SOL     OW 9328   2.305   5.057   2.648
 2810SOL    HW1 9329   2.223   5.102   2.613
 2810SOL    HW2 9330   2.336   5.104   2.731
 2811SOL     OW 9331   0.836   1.160   2.629
 2811SOL    HW1 9332   0.908   1.148   2.560
 2811SOL    HW2 9333   0.871   1.218   2.703
 2812SOL     OW 9334   6.489   3.222   0.492
 2812SOL    HW1 9335   6.583   3.249   0.470
 2812SOL    HW2 9336   6.429   3.301   0.488
 2813SOL     OW 9337   0.549   1.679   0.565
 2813SOL    HW1 9338   0.526   1.759   0.619
 2813SOL    HW2 9339   0.575   1.708   0.472
 2814SOL     OW 9340   3.173   4.041   5.677
 2814SOL    HW1 9341   3.148   3.944   5.683
 2814SOL    HW2 9342   3.272   4.050   5.685
 2815SOL     OW 9343   0.248   6.257   5.652
 2815SOL    HW1 9344   0.346   6.237   5.655
 2815SOL    HW2 9345   0.204   6.197   5.585
 2816SOL     OW 9346   6.994   5.814   5.069
 2816SOL    HW1 9347   6.992   5.733   5.127
 2816SOL    HW2 9348   0.069   5.834   5.042
 2817SOL     OW 9349   3.719   1.383   2.159
 2817SOL    HW1 9350   3.733   1.445   2.082
 2817SOL    HW2 9351   3.630   1.401   2.201
 2818SOL     OW 9352   0.282   1.273   1.190
 2818SOL    HW1 9353   0.380   1.269   1.174
 2818SOL    HW2 9354   0.253   1.191   1.241
 2819SOL     OW 9355   1.326   0.116   1.005
 2819SOL    HW1 9356   1.299   0.211   1.021
 2819SOL    HW2 9357   1.410   0.115   0.951
 2820SOL     OW 9358   1.032   1.943   2.134
 2820SOL    HW1 9359   1.119   1.920   2.177
 2820SOL    HW2 9360   1.036   1.923   2.037
 2821SOL     OW 9361   3.327   5.160   5.912
 2821SOL    HW1 9362   3.259   5.209   5.857
 2821SOL    HW2 9363   3.296   5.154   6.006
 2822SOL     OW 9364   3.795   2.763   0.118
 2822SOL    HW1 9365   3.791   2.757   0.217
 2822SOL    HW2 9366   3.883   2.801   0.089
 2823SOL     OW 9367   5.224   0.868   0.103
 2823SOL    HW1 9368   5.262   0.847   0.194
 2823SOL    HW2 9369   5.129   0.838   0.100
 2824SOL     OW 9370   1.828   3.412   5.033
 2824SOL    HW1 9371   1.882   3.492   5.006
 2824SOL    HW2 9372   1.731   3.430   5.016
 2825SOL     OW 9373   5.387   0.475   6.725
 2825SOL    HW1 9374   5.467   0.417   6.742
 2825SOL    HW2 9375   5.417   0.569   6.707
 2826SOL     OW 9376   1.623   2.996   6.179
 2826SOL    HW1 9377   1.673   2.935   6.117
 2826SOL    HW2 9378   1.532   3.014   6.141
 2827SOL     OW 9379   0.346   0.880   6.397
 2827SOL    HW1 9380   0.331   0.938   6.317
 2827SOL    HW2 9381   0.401   0.928   6.464
 2828SOL     OW 9382   1.745   3.578   1.290
 2828SOL    HW1 9383   1.835   3.621   1.287
 2828SOL    HW2 9384   1.687   3.626   1.356
 2829SOL     OW 9385   3.698   3.527   3.072
 2829SOL    HW1 9386   3.753   3.603   3.108
 2829SOL    HW2 9387   3.673   3.546   2.977
 2830SOL     OW 9388   3.478   4.481   5.310
 2830SOL    HW1 9389   3.395   4.446   5.353
 2830SOL    HW2 9390   3.532   4.531   5.378
 2831SOL     OW 9391   0.163   1.914   2.594
 2831SOL    HW1 9392   0.201   1.822   2.601
 2831SOL    HW2 9393   0.219   1.969   2.532
 2832SOL     OW 9394   0.761   3.173   1.580
 2832SOL    HW1 9395   0.716   3.111   1.516
 2832SOL    HW2 9396   0.715   3.168   1.669
 2833SOL     OW 9397   2.195   1.344   2.513
 2833SOL    HW1 9398   2.271   1.294   2.553
 2833SOL    HW2 9399   2.230   1.421   2.459
 2834SOL     OW 9400   4.817   6.081   4.837
 2834SOL    HW1 9401   4.811   5.995   4.787
 2834SOL    HW2 9402   4.878   6.069   4.916
 2835SOL     OW 9403   1.238   6.421   0.331
 2835SOL    HW1 9404   1.285   6.438   0.418
 2835SOL    HW2 9405   1.293   6.458   0.256
 2836SOL     OW 9406   3.342   6.196   2.978
 2836SOL    HW1 9407   3.431   6.158   2.953
 2836SOL    HW2 9408   3.301   6.139   3.049
 2837SOL     OW 9409   5.845   4.197   2.256
 2837SOL    HW1 9410   5.870   4.221   2.350
 2837SOL    HW2 9411   5.926   4.199   2.198
 2838SOL     OW 9412   4.754   4.110   6.688
 2838SOL    HW1 9413   4.852   4.093   6.681
 2838SOL    HW2 9414   4.728   4.123   6.783
 2839SOL     OW 9415   6.836   2.311   3.348
 2839SOL    HW1 9416   6.736   2.307   3.348
 2839SOL    HW2 9417   6.871   2.240   3.410
 2840SOL     OW 9418   1.541   5.308   2.570
 2840SOL    HW1 9419   1.457   5.273   2.528
 2840SOL    HW2 9420   1.575   5.386   2.516
 2841SOL     OW 9421   6.199   2.572   0.598
 2841SOL    HW1 9422   6.195   2.659   0.549
 2841SOL    HW2 9423   6.270   2.514   0.558
 2842SOL     OW 9424   1.319   5.736   5.304
 2842SOL    HW1 9425   1.411   5.717   5.269
 2842SOL    HW2 9426   1.313   5.708   5.399
 2843SOL     OW 9427   2.545   2.502   2.378
 2843SOL    HW1 9428   2.628   2.459   2.345
 2843SOL    HW2 9429   2.475   2.433   2.395
 2844SOL     OW 9430   5.022   4.339   1.659
 2844SOL    HW1 9431   5.087   4.270   1.628
 2844SOL    HW2 9432   4.940   4.336   1.602
 2845SOL     OW 9433   5.245   2.596   3.679
 2845SOL    HW1 9434   5.319   2.628   3.737
 2845SOL    HW2 9435   5.162   2.583   3.734
 2846SOL     OW 9436   3.491   0.636   0.206
 2846SOL    HW1 9437   3.555   0.580   0.258
 2846SOL    HW2 9438   3.522   0.731   0.205
 2847SOL     OW 9439   4.758   4.198   2.022
 2847SOL    HW1 9440   4.663   4.225   2.004
 2847SOL    HW2 9441   4.779   4.213   2.119
 2848SOL     OW 9442   1.439   2.277   5.392
 2848SOL    HW1 9443   1.428   2.177   5.389
 2848SOL    HW2 9444   1.390   2.318   5.315
 2849SOL     OW 9445   3.768   1.195   1.555
 2849SOL    HW1 9446   3.768   1.248   1.640
 2849SOL    HW2 9447   3.773   1.257   1.477
 2850SOL     OW 9448   1.890   6.818   3.848
 2850SOL    HW1 9449   1.866   6.915   3.843
 2850SOL    HW2 9450   1.981   6.804   3.811
 2851SOL     OW 9451   4.134   3.255   6.736
 2851SOL    HW1 9452   4.055   3.200   6.764
 2851SOL    HW2 9453   4.194   3.270   6.815
 2852SOL     OW 9454   6.385   4.351   0.076
 2852SOL    HW1 9455   6.441   4.356   0.159
 2852SOL    HW2 9456   6.432   4.397   0.001
 2853SOL     OW 9457   0.334   3.231   6.842
 2853SOL    HW1 9458   0.267   3.189   6.904
 2853SOL    HW2 9459   0.301   3.319   6.811
 2854SOL     OW 9460   3.542   1.030   6.176
 2854SOL    HW1 9461   3.472   1.040   6.247
 2854SOL    HW2 9462   3.627   0.998   6.217
 2855SOL     OW 9463   0.907   2.592   4.307
 2855SOL    HW1 9464   0.907   2.650   4.388
 2855SOL    HW2 9465   0.979   2.523   4.316
 2856SOL     OW 9466   1.498   2.721   2.779
 2856SOL    HW1 9467   1.532   2.644   2.726
 2856SOL    HW2 9468   1.466   2.689   2.868
 2857SOL     OW 9469   0.283   3.396   0.746
 2857SOL    HW1 9470   0.363   3.454   0.762
 2857SOL    HW2 9471   0.311   3.300   0.741
 2858SOL     OW 9472   5.746   6.221   2.801
 2858SOL    HW1 9473   5.711   6.283   2.731
 2858SOL    HW2 9474   5.815   6.161   2.761
 2859SOL     OW 9475   5.404   5.241   0.634
 2859SOL    HW1 9476   5.423   5.329   0.679
 2859SOL    HW2 9477   5.331   5.194   0.683
 2860SOL     OW 9478   2.083   6.528   1.996
 2860SOL    HW1 9479   2.089   6.620   2.035
 2860SOL    HW2 9480   2.052   6.464   2.066
 2861SOL     OW 9481   3.128   5.176   5.489
 2861SOL    HW1 9482   3.176   5.088   5.485
 2861SOL    HW2 9483   3.085   5.195   5.401
 2862SOL     OW 9484   4.871   2.620   1.753
 2862SOL    HW1 9485   4.839   2.527   1.769
 2862SOL    HW2 9486   4.804   2.685   1.790
 2863SOL     OW 9487   5.354   0.923   6.326
 2863SOL    HW1 9488   5.363   0.938   6.228
 2863SOL    HW2 9489   5.376   0.828   6.347
 2864SOL     OW 9490   4.432   2.809   1.073
 2864SOL    HW1 9491   4.388   2.762   0.996
 2864SOL    HW2 9492   4.442   2.745   1.149
 2865SOL     OW 9493   4.430   6.690   4.240
 2865SOL    HW1 9494   4.399   6.652   4.327
 2865SOL    HW2 9495   4.524   6.660   4.222
 2866SOL     OW 9496   5.770   3.872   0.416
 2866SOL    HW1 9497   5.833   3.797   0.396
 2866SOL    HW2 9498   5.702   3.879   0.343
 2867SOL     OW 9499   6.521   6.425   2.355
 2867SOL    HW1 9500   6.617   6.404   2.375
 2867SOL    HW2 9501   6.503   6.521   2.377
 2868SOL     OW 9502   1.101   0.938   5.675
 2868SOL    HW1 9503   1.149   0.947   5.762
 2868SOL    HW2 9504   1.133   1.009   5.612
 2869SOL     OW 9505   5.917   0.182   4.103
 2869SOL    HW1 9506   5.855   0.249   4.143
 2869SOL    HW2 9507   5.875   0.142   4.022
 2870SOL     OW 9508   0.637   1.569   6.937
 2870SOL    HW1 9509   0.730   1.568   6.899
 2870SOL    HW2 9510   0.576   1.516   6.879
 2871SOL     OW 9511   6.743   0.876   0.531
 2871SOL    HW1 9512   6.795   0.954   0.565
 2871SOL    HW2 9513   6.651   0.876   0.572
 2872SOL     OW 9514   2.772   1.326   1.114
 2872SOL    HW1 9515   2.763   1.339   1.213
 2872SOL    HW2 9516   2.683   1.337   1.071
 2873SOL     OW 9517   6.864   5.350   1.968
 2873SOL    HW1 9518   6.786   5.403   1.934
 2873SOL    HW2 9519   6.909   5.401   2.042
 2874SOL     OW 9520   4.243   6.966   3.032
 2874SOL    HW1 9521   4.321   6.980   2.971
 2874SOL    HW2 9522   4.276   6.958   3.127
 2875SOL     OW 9523   3.434   6.880   2.910
 2875SOL    HW1 9524   3.524   6.906   2.877
 2875SOL    HW2 9525   3.379   6.962   2.928
 2876SOL     OW 9526   1.241   6.567   1.911
 2876SOL    HW1 9527   1.236   6.469   1.895
 2876SOL    HW2 9528   1.149   6.607   1.906
 2877SOL     OW 9529   2.195   1.599   6.670
 2877SOL    HW1 9530   2.190   1.586   6.571
 2877SOL    HW2 9531   2.107   1.633   6.704
 2878SOL     OW 9532   3.041   3.598   4.522
 2878SOL    HW1 9533   3.014   3.561   4.610
 2878SOL    HW2 9534   3.093   3.529   4.471
 2879SOL     OW 9535   4.349   5.272   6.081
 2879SOL    HW1 9536   4.286   5.276   6.158
 2879SOL    HW2 9537   4.297   5.266   5.995
 2880SOL     OW 9538   0.818   1.699   3.781
 2880SOL    HW1 9539   0.836   1.654   3.868
 2880SOL    HW2 9540   0.902   1.745   3.750
 2881SOL     OW 9541   3.409   5.711   0.273
 2881SOL    HW1 9542   3.367   5.712   0.364
 2881SOL    HW2 9543   3.355   5.652   0.213
 2882SOL     OW 9544   6.210   6.254   1.393
 2882SOL    HW1 9545   6.302   6.219   1.409
 2882SOL    HW2 9546   6.157   6.186   1.343
 2883SOL     OW 9547   6.403   6.546   3.739
 2883SOL    HW1 9548   6.502   6.532   3.748
 2883SOL    HW2 9549   6.369   6.594   3.820
 2884SOL     OW 9550   6.613   5.013   2.182
 2884SOL    HW1 9551   6.707   5.025   2.214
 2884SOL    HW2 9552   6.606   5.041   2.086
 2885SOL     OW 9553   1.553   2.059   4.386
 2885SOL    HW1 9554   1.535   1.964   4.411
 2885SOL    HW2 9555   1.645   2.066   4.347
 2886SOL     OW 9556   2.942   4.514   0.078
 2886SOL    HW1 9557   2.889   4.436   0.045
 2886SOL    HW2 9558   2.886   4.569   0.140
 2887SOL     OW 9559   0.104   6.569   4.026
 2887SOL    HW1 9560   0.179   6.505   4.040
 2887SOL    HW2 9561   0.053   6.543   3.944
 2888SOL     OW 9562   6.832   5.357   0.067
 2888SOL    HW1 9563   6.906   5.331   0.006
 2888SOL    HW2 9564   6.744   5.347   0.020
 2889SOL     OW 9565   3.104   6.301   2.906
 2889SOL    HW1 9566   3.189   6.262   2.942
 2889SOL    HW2 9567   3.089   6.391   2.945
 2890SOL     OW 9568   2.626   5.750   0.896
 2890SOL    HW1 9569   2.665   5.826   0.948
 2890SOL    HW2 9570   2.559   5.702   0.953
 2891SOL     OW 9571   0.747   3.460   3.014
 2891SOL    HW1 9572   0.776   3.500   3.102
 2891SOL    HW2 9573   0.704   3.531   2.959
 2892SOL     OW 9574   6.220   3.098   0.739
 2892SOL    HW1 9575   6.311   3.059   0.725
 2892SOL    HW2 9576   6.181   3.061   0.823
 2893SOL     OW 9577   1.602   5.282   4.654
 2893SOL    HW1 9578   1.523   5.221   4.652
 2893SOL    HW2 9579   1.681   5.233   4.691
 2894SOL     OW 9580   1.871   4.146   2.194
 2894SOL    HW1 9581   1.870   4.225   2.133
 2894SOL    HW2 9582   1.827   4.170   2.281
 2895SOL     OW 9583   3.648   0.975   6.521
 2895SOL    HW1 9584   3.565   0.992   6.575
 2895SOL    HW2 9585   3.710   1.054   6.530
 2896SOL     OW 9586   5.744   0.157   6.271
 2896SOL    HW1 9587   5.777   0.245   6.236
 2896SOL    HW2 9588   5.668   0.173   6.334
 2897SOL     OW 9589   4.203   4.655   2.651
 2897SOL    HW1 9590   4.105   4.643   2.635
 2897SOL    HW2 9591   4.220   4.665   2.749
 2898SOL     OW 9592   5.588   4.039   3.728
 2898SOL    HW1 9593   5.624   4.090   3.650
 2898SOL    HW2 9594   5.602   4.092   3.812
 2899SOL     OW 9595   6.338   2.376   1.425
 2899SOL    HW1 9596   6.350   2.377   1.524
 2899SOL    HW2 9597   6.242   2.392   1.403
 2900SOL     OW 9598   4.000   5.218   0.060
 2900SOL    HW1 9599   4.095   5.188   0.074
 2900SOL    HW2 9600   3.938   5.142   0.080
 2901SOL     OW 9601   1.464   4.858   3.660
 2901SOL    HW1 9602   1.398   4.786   3.682
 2901SOL    HW2 9603   1.556   4.828   3.686
 2902SOL     OW 9604   0.336   6.119   3.595
 2902SOL    HW1 9605   0.280   6.104   3.513
 2902SOL    HW2 9606   0.318   6.046   3.661
 2903SOL     OW 9607   4.734   6.165   0.939
 2903SOL    HW1 9608   4.696   6.255   0.962
 2903SOL    HW2 9609   4.833   6.174   0.926
 2904SOL     OW 9610   3.029   4.853   4.986
 2904SOL    HW1 9611   2.973   4.770   4.992
 2904SOL    HW2 9612   3.071   4.871   5.075
 2905SOL     OW 9613   1.177   3.949   3.543
 2905SOL    HW1 9614   1.185   3.853   3.571
 2905SOL    HW2 9615   1.170   4.006   3.625
 2906SOL     OW 9616   5.126   6.211   2.523
 2906SOL    HW1 9617   5.189   6.139   2.495
 2906SOL    HW2 9618   5.104   6.201   2.620
 2907SOL     OW 9619   1.009   1.392   4.004
 2907SOL    HW1 9620   1.085   1.418   3.944
 2907SOL    HW2 9621   0.994   1.293   3.998
 2908SOL     OW 9622   5.325   6.840   3.973
 2908SOL    HW1 9623   5.389   6.898   3.922
 2908SOL    HW2 9624   5.354   6.745   3.965
 2909SOL     OW 9625   1.540   6.562   2.962
 2909SOL    HW1 9626   1.570   6.491   2.899
 2909SOL    HW2 9627   1.456   6.533   3.008
 2910SOL     OW 9628   6.854   1.016   3.469
 2910SOL    HW1 9629   6.835   1.099   3.522
 2910SOL    HW2 9630   6.835   1.034   3.372
 2911SOL     OW 9631   1.045   4.938   3.763
 2911SOL    HW1 9632   1.109   4.928   3.686
 2911SOL    HW2 9633   1.015   5.034   3.769
 2912SOL     OW 9634   0.040   6.435   6.978
 2912SOL    HW1 9635   0.055   6.494   0.038
 2912SOL    HW2 9636   0.074   6.344   6.997
 2913SOL     OW 9637   2.494   4.528   2.513
 2913SOL    HW1 9638   2.537   4.510   2.601
 2913SOL    HW2 9639   2.552   4.590   2.459
 2914SOL     OW 9640   5.077   5.240   1.505
 2914SOL    HW1 9641   5.122   5.154   1.530
 2914SOL    HW2 9642   5.139   5.295   1.450
 2915SOL     OW 9643   2.756   2.235   3.495
 2915SOL    HW1 9644   2.737   2.282   3.582
 2915SOL    HW2 9645   2.839   2.180   3.505
 2916SOL     OW 9646   1.917   5.520   0.348
 2916SOL    HW1 9647   1.936   5.612   0.384
 2916SOL    HW2 9648   1.820   5.498   0.363
 2917SOL     OW 9649   2.916   0.352   3.685
 2917SOL    HW1 9650   2.971   0.279   3.725
 2917SOL    HW2 9651   2.819   0.328   3.693
 2918SOL     OW 9652   6.129   3.607   0.263
 2918SOL    HW1 9653   6.165   3.652   0.182
 2918SOL    HW2 9654   6.058   3.542   0.236
 2919SOL     OW 9655   6.754   6.283   3.540
 2919SOL    HW1 9656   6.853   6.292   3.554
 2919SOL    HW2 9657   6.736   6.229   3.457
 2920SOL     OW 9658   2.570   0.704   2.382
 2920SOL    HW1 9659   2.538   0.679   2.474
 2920SOL    HW2 9660   2.513   0.779   2.347
 2921SOL     OW 9661   7.014   0.248   5.733
 2921SOL    HW1 9662   0.003   0.276   5.829
 2921SOL    HW2 9663   6.933   0.191   5.722
 2922SOL     OW 9664   4.010   0.383   2.077
 2922SOL    HW1 9665   4.102   0.345   2.084
 2922SOL    HW2 9666   3.952   0.345   2.149
 2923SOL     OW 9667   6.627   5.120   4.436
 2923SOL    HW1 9668   6.696   5.120   4.508
 2923SOL    HW2 9669   6.572   5.203   4.442
 2924SOL     OW 9670   6.556   1.681   5.034
 2924SOL    HW1 9671   6.486   1.610   5.025
 2924SOL    HW2 9672   6.520   1.756   5.089
 2925SOL     OW 9673   5.191   1.500   6.593
 2925SOL    HW1 9674   5.098   1.536   6.592
 2925SOL    HW2 9675   5.202   1.441   6.673
 2926SOL     OW 9676   6.812   2.350   5.657
 2926SOL    HW1 9677   6.872   2.289   5.605
 2926SOL    HW2 9678   6.867   2.422   5.699
 2927SOL     OW 9679   1.964   3.760   0.617
 2927SOL    HW1 9680   1.870   3.788   0.599
 2927SOL    HW2 9681   1.965   3.688   0.687
 2928SOL     OW 9682   6.482   1.522   0.000
 2928SOL    HW1 9683   6.579   1.500   0.001
 2928SOL    HW2 9684   6.468   1.611   6.977
 2929SOL     OW 9685   1.432   2.420   4.950
 2929SOL    HW1 9686   1.460   2.514   4.969
 2929SOL    HW2 9687   1.405   2.412   4.854
 2930SOL     OW 9688   5.749   6.028   5.255
 2930SOL    HW1 9689   5.806   6.058   5.178
 2930SOL    HW2 9690   5.734   5.929   5.249
 2931SOL     OW 9691   4.254   5.043   0.514
 2931SOL    HW1 9692   4.315   5.002   0.582
 2931SOL    HW2 9693   4.275   5.140   0.504
 2932SOL     OW 9694   6.689   5.205   1.582
 2932SOL    HW1 9695   6.667   5.234   1.675
 2932SOL    HW2 9696   6.745   5.122   1.585
 2933SOL     OW 9697   0.491   0.089   1.868
 2933SOL    HW1 9698   0.402   0.118   1.904
 2933SOL    HW2 9699   0.558   0.088   1.942
 2934SOL     OW 9700   4.697   2.994   1.441
 2934SOL    HW1 9701   4.732   2.994   1.535
 2934SOL    HW2 9702   4.668   2.902   1.417
 2935SOL     OW 9703   1.166   2.459   6.606
 2935SOL    HW1 9704   1.216   2.509   6.536
 2935SOL    HW2 9705   1.144   2.521   6.681
 2936SOL     OW 9706   4.156   6.875   0.686
 2936SOL    HW1 9707   4.172   6.973   0.674
 2936SOL    HW2 9708   4.064   6.853   0.653
 2937SOL     OW 9709   4.480   4.724   1.245
 2937SOL    HW1 9710   4.482   4.736   1.344
 2937SOL    HW2 9711   4.550   4.781   1.203
 2938SOL     OW 9712   6.144   5.559   6.735
 2938SOL    HW1 9713   6.113   5.529   6.645
 2938SOL    HW2 9714   6.222   5.621   6.725
 2939SOL     OW 9715   0.620   0.225   1.347
 2939SOL    HW1 9716   0.617   0.230   1.447
 2939SOL    HW2 9717   0.548   0.282   1.309
 2940SOL     OW 9718   5.753   5.474   4.456
 2940SOL    HW1 9719   5.819   5.406   4.422
 2940SOL    HW2 9720   5.685   5.428   4.514
 2941SOL     OW 9721   2.436   2.192   3.188
 2941SOL    HW1 9722   2.500   2.250   3.138
 2941SOL    HW2 9723   2.457   2.196   3.285
 2942SOL     OW 9724   3.323   2.752   0.489
 2942SOL    HW1 9725   3.348   2.663   0.451
 2942SOL    HW2 9726   3.328   2.822   0.418
 2943SOL     OW 9727   6.539   4.641   3.517
 2943SOL    HW1 9728   6.495   4.687   3.440
 2943SOL    HW2 9729   6.575   4.709   3.580
 2944SOL     OW 9730   2.800   6.182   3.677
 2944SOL    HW1 9731   2.787   6.111   3.608
 2944SOL    HW2 9732   2.896   6.211   3.678
 2945SOL     OW 9733   5.412   3.688   1.758
 2945SOL    HW1 9734   5.400   3.731   1.848
 2945SOL    HW2 9735   5.470   3.607   1.768
 2946SOL     OW 9736   1.633   4.029   5.683
 2946SOL    HW1 9737   1.576   4.023   5.766
 2946SOL    HW2 9738   1.650   3.937   5.648
 2947SOL     OW 9739   0.506   5.663   0.064
 2947SOL    HW1 9740   0.442   5.718   0.118
 2947SOL    HW2 9741   0.469   5.571   0.051
 2948SOL     OW 9742   6.462   4.452   3.211
 2948SOL    HW1 9743   6.440   4.355   3.202
 2948SOL    HW2 9744   6.549   4.471   3.167
 2949SOL     OW 9745   0.650   6.480   6.486
 2949SOL    HW1 9746   0.614   6.477   6.580
 2949SOL    HW2 9747   0.724   6.414   6.478
 2950SOL     OW 9748   5.805   5.113   3.367
 2950SOL    HW1 9749   5.744   5.186   3.335
 2950SOL    HW2 9750   5.774   5.025   3.331
 2951SOL     OW 9751   5.206   1.076   2.068
 2951SOL    HW1 9752   5.140   1.001   2.060
 2951SOL    HW2 9753   5.294   1.039   2.098
 2952SOL     OW 9754   6.229   0.315   4.734
 2952SOL    HW1 9755   6.313   0.314   4.680
 2952SOL    HW2 9756   6.197   0.409   4.744
 2953SOL     OW 9757   6.705   4.524   3.056
 2953SOL    HW1 9758   6.800   4.496   3.068
 2953SOL    HW2 9759   6.675   4.503   2.962
 2954SOL     OW 9760   6.813   4.661   6.480
 2954SOL    HW1 9761   6.866   4.626   6.402
 2954SOL    HW2 9762   6.727   4.699   6.447
 2955SOL     OW 9763   0.910   4.394   0.244
 2955SOL    HW1 9764   0.958   4.438   0.168
 2955SOL    HW2 9765   0.940   4.299   0.252
 2956SOL     OW 9766   0.027   5.671   4.052
 2956SOL    HW1 9767   6.986   5.672   3.971
 2956SOL    HW2 9768   0.005   5.748   4.111
 2957SOL     OW 9769   4.086   4.941   1.449
 2957SOL    HW1 9770   4.004   4.989   1.419
 2957SOL    HW2 9771   4.063   4.879   1.524
 2958SOL     OW 9772   2.268   5.191   3.631
 2958SOL    HW1 9773   2.238   5.282   3.657
 2958SOL    HW2 9774   2.272   5.132   3.712
 2959SOL     OW 9775   5.315   2.705   2.945
 2959SOL    HW1 9776   5.270   2.647   2.877
 2959SOL    HW2 9777   5.312   2.800   2.915
 2960SOL     OW 9778   3.541   0.181   0.205
 2960SOL    HW1 9779   3.558   0.245   0.280
 2960SOL    HW2 9780   3.482   0.224   0.137
 2961SOL     OW 9781   6.203   4.859   2.972
 2961SOL    HW1 9782   6.241   4.788   3.031
 2961SOL    HW2 9783   6.183   4.821   2.882
 2962SOL     OW 9784   5.260   6.500   3.327
 2962SOL    HW1 9785   5.270   6.407   3.364
 2962SOL    HW2 9786   5.178   6.505   3.271
 2963SOL     OW 9787   1.344   0.826   6.656
 2963SOL    HW1 9788   1.409   0.891   6.696
 2963SOL    HW2 9789   1.340   0.743   6.711
 2964SOL     OW 9790   0.807   2.772   6.364
 2964SOL    HW1 9791   0.828   2.868   6.347
 2964SOL    HW2 9792   0.720   2.765   6.413
 2965SOL     OW 9793   1.309   0.258   4.354
 2965SOL    HW1 9794   1.406   0.275   4.372
 2965SOL    HW2 9795   1.294   0.251   4.255
 2966SOL     OW 9796   4.663   5.499   3.832
 2966SOL    HW1 9797   4.721   5.432   3.785
 2966SOL    HW2 9798   4.692   5.507   3.927
 2967SOL     OW 9799   5.708   1.367   5.900
 2967SOL    HW1 9800   5.712   1.433   5.975
 2967SOL    HW2 9801   5.636   1.392   5.837
 2968SOL     OW 9802   2.212   2.944   0.732
 2968SOL    HW1 9803   2.141   2.878   0.753
 2968SOL    HW2 9804   2.222   3.007   0.809
 2969SOL     OW 9805   4.918   3.865   4.585
 2969SOL    HW1 9806   4.913   3.847   4.683
 2969SOL    HW2 9807   4.888   3.958   4.566
 2970SOL     OW 9808   2.789   2.858   5.480
 2970SOL    HW1 9809   2.817   2.859   5.577
 2970SOL    HW2 9810   2.868   2.834   5.424
 2971SOL     OW 9811   5.821   4.174   0.384
 2971SOL    HW1 9812   5.909   4.192   0.340
 2971SOL    HW2 9813   5.811   4.076   0.401
 2972SOL     OW 9814   5.714   5.131   7.012
 2972SOL    HW1 9815   5.654   5.076   6.954
 2972SOL    HW2 9816   5.658   5.190   0.051
 2973SOL     OW 9817   4.842   6.519   2.395
 2973SOL    HW1 9818   4.771   6.465   2.349
 2973SOL    HW2 9819   4.829   6.616   2.375
 2974SOL     OW 9820   5.793   4.411   3.354
 2974SOL    HW1 9821   5.862   4.373   3.416
 2974SOL    HW2 9822   5.808   4.375   3.262
 2975SOL     OW 9823   4.774   4.548   4.185
 2975SOL    HW1 9824   4.800   4.591   4.271
 2975SOL    HW2 9825   4.788   4.613   4.110
 2976SOL     OW 9826   5.120   2.118   3.088
 2976SOL    HW1 9827   5.185   2.042   3.095
 2976SOL    HW2 9828   5.081   2.121   2.996
 2977SOL     OW 9829   1.186   0.423   2.042
 2977SOL    HW1 9830   1.109   0.361   2.033
 2977SOL    HW2 9831   1.215   0.428   2.137
 2978SOL     OW 9832   4.065   4.299   0.280
 2978SOL    HW1 9833   4.015   4.320   0.197
 2978SOL    HW2 9834   4.122   4.218   0.266
 2979SOL     OW 9835   3.280   1.503   4.171
 2979SOL    HW1 9836   3.303   1.420   4.222
 2979SOL    HW2 9837   3.328   1.503   4.083
 2980SOL     OW 9838   2.679   4.886   6.190
 2980SOL    HW1 9839   2.746   4.827   6.234
 2980SOL    HW2 9840   2.591   4.838   6.185
 2981SOL     OW 9841   2.430   1.922   0.252
 2981SOL    HW1 9842   2.492   1.997   0.228
 2981SOL    HW2 9843   2.382   1.890   0.170
 2982SOL     OW 9844   2.177   6.242   2.636
 2982SOL    HW1 9845   2.198   6.181   2.560
 2982SOL    HW2 9846   2.120   6.318   2.603
 2983SOL     OW 9847   0.013   2.454   0.557
 2983SOL    HW1 9848   6.962   2.477   0.625
 2983SOL    HW2 9849   6.988   2.422   0.473
 2984SOL     OW 9850   5.983   5.201   6.104
 2984SOL    HW1 9851   5.916   5.142   6.058
 2984SOL    HW2 9852   6.005   5.162   6.193
 2985SOL     OW 9853   0.561   1.191   4.464
 2985SOL    HW1 9854   0.660   1.206   4.471
 2985SOL    HW2 9855   0.543   1.111   4.407
 2986SOL     OW 9856   3.410   4.137   2.408
 2986SOL    HW1 9857   3.362   4.194   2.342
 2986SOL    HW2 9858   3.504   4.123   2.377
 2987SOL     OW 9859   1.807   1.641   4.193
 2987SOL    HW1 9860   1.848   1.629   4.283
 2987SOL    HW2 9861   1.714   1.678   4.204
 2988SOL     OW 9862   1.758   6.999   1.655
 2988SOL    HW1 9863   1.847   6.953   1.663
 2988SOL    HW2 9864   1.771   0.078   1.651
 2989SOL     OW 9865   5.146   4.095   5.233
 2989SOL    HW1 9866   5.235   4.137   5.249
 2989SOL    HW2 9867   5.150   4.039   5.150
 2990SOL     OW 9868   5.164   2.130   4.404
 2990SOL    HW1 9869   5.142   2.040   4.367
 2990SOL    HW2 9870   5.210   2.119   4.493
 2991SOL     OW 9871   6.458   3.252   6.652
 2991SOL    HW1 9872   6.464   3.321   6.580
 2991SOL    HW2 9873   6.523   3.179   6.633
 2992SOL     OW 9874   0.848   4.736   4.675
 2992SOL    HW1 9875   0.791   4.730   4.593
 2992SOL    HW2 9876   0.944   4.727   4.650
 2993SOL     OW 9877   6.991   4.841   0.343
 2993SOL    HW1 9878   6.945   4.817   0.428
 2993SOL    HW2 9879   0.029   4.921   0.357
 2994SOL     OW 9880   4.883   5.885   6.811
 2994SOL    HW1 9881   4.901   5.894   6.713
 2994SOL    HW2 9882   4.787   5.859   6.824
 2995SOL     OW 9883   4.837   0.043   0.402
 2995SOL    HW1 9884   4.742   0.027   0.429
 2995SOL    HW2 9885   4.887   6.976   0.403
 2996SOL     OW 9886   1.106   1.749   4.711
 2996SOL    HW1 9887   1.078   1.830   4.763
 2996SOL    HW2 9888   1.139   1.679   4.775
 2997SOL     OW 9889   4.532   0.414   3.315
 2997SOL    HW1 9890   4.504   0.500   3.272
 2997SOL    HW2 9891   4.629   0.418   3.339
 2998SOL     OW 9892   3.277   0.183   3.650
 2998SOL    HW1 9893   3.306   0.099   3.605
 2998SOL    HW2 9894   3.356   0.242   3.665
 2999SOL     OW 9895   3.024   4.411   6.133
 2999SOL    HW1 9896   2.972   4.460   6.063
 2999SOL    HW2 9897   3.091   4.472   6.174
 3000SOL     OW 9898   2.925   4.026   6.527
 3000SOL    HW1 9899   2.908   3.968   6.447
 3000SOL    HW2 9900   2.852   4.014   6.594
 3001SOL     OW 9901   6.102   2.113   0.185
 3001SOL    HW1 9902   6.175   2.055   0.150
 3001SOL    HW2 9903   6.020   2.100   0.129
 3002SOL     OW 9904   3.150   1.306   0.647
 3002SOL    HW1 9905   3.151   1.367   0.568
 3002SOL    HW2 9906   3.109   1.218   0.622
 3003SOL     OW 9907   0.977   6.261   1.344
 3003SOL    HW1 9908   1.075   6.248   1.330
 3003SOL    HW2 9909   0.929   6.244   1.258
 3004SOL     OW 9910   1.739   4.793   3.714
 3004SOL    HW1 9911   1.780   4.881   3.739
 3004SOL    HW2 9912   1.701   4.750   3.796
 3005SOL     OW 9913   1.036   3.277   5.639
 3005SOL    HW1 9914   1.000   3.185   5.620
 3005SOL    HW2 9915   1.080   3.313   5.556
 3006SOL     OW 9916   5.307   1.018   5.193
 3006SOL    HW1 9917   5.403   1.017   5.219
 3006SOL    HW2 9918   5.275   0.925   5.176
 3007SOL     OW 9919   4.565   5.401   7.016
 3007SOL    HW1 9920   4.660   5.404   0.028
 3007SOL    HW2 9921   4.530   5.308   0.003
 3008SOL     OW 9922   3.487   2.719   6.400
 3008SOL    HW1 9923   3.575   2.759   6.427
 3008SOL    HW2 9924   3.437   2.785   6.344
 3009SOL     OW 9925   0.190   2.239   3.160
 3009SOL    HW1 9926   0.197   2.223   3.062
 3009SOL    HW2 9927   0.252   2.312   3.187
 3010SOL     OW 9928   3.459   5.839   5.280
 3010SOL    HW1 9929   3.459   5.788   5.194
 3010SOL    HW2 9930   3.387   5.907   5.280
 3011SOL     OW 9931   6.650   6.946   1.500
 3011SOL    HW1 9932   6.618   6.916   1.410
 3011SOL    HW2 9933   6.749   6.962   1.496
 3012SOL     OW 9934   2.396   3.966   0.030
 3012SOL    HW1 9935   2.313   4.006   7.009
 3012SOL    HW2 9936   2.390   3.866   0.025
 3013SOL     OW 9937   6.224   4.986   3.406
 3013SOL    HW1 9938   6.248   5.017   3.314
 3013SOL    HW2 9939   6.260   4.894   3.420
 3014SOL     OW 9940   4.931   1.541   6.711
 3014SOL    HW1 9941   4.903   1.569   6.803
 3014SOL    HW2 9942   4.852   1.505   6.662
 3015SOL     OW 9943   2.355   1.397   0.661
 3015SOL    HW1 9944   2.276   1.439   0.706
 3015SOL    HW2 9945   2.351   1.413   0.563
 3016SOL     OW 9946   3.138   6.887   3.950
 3016SOL    HW1 9947   3.228   6.876   3.908
 3016SOL    HW2 9948   3.136   6.838   4.037
 3017SOL     OW 9949   6.024   4.783   2.195
 3017SOL    HW1 9950   5.925   4.783   2.206
 3017SOL    HW2 9951   6.067   4.806   2.283
 3018SOL     OW 9952   3.914   0.018   6.856
 3018SOL    HW1 9953   3.846   0.072   6.806
 3018SOL    HW2 9954   3.962   0.077   6.920
 3019SOL     OW 9955   0.755   7.015   0.397
 3019SOL    HW1 9956   0.678   0.037   0.348
 3019SOL    HW2 9957   0.720   6.966   0.477
 3020SOL     OW 9958   4.489   3.062   0.478
 3020SOL    HW1 9959   4.485   2.997   0.554
 3020SOL    HW2 9960   4.511   3.153   0.514
 3021SOL     OW 9961   2.311   6.799   4.534
 3021SOL    HW1 9962   2.348   6.856   4.460
 3021SOL    HW2 9963   2.237   6.742   4.499
 3022SOL     OW 9964   3.942   5.769   4.277
 3022SOL    HW1 9965   3.885   5.805   4.350
 3022SOL    HW2 9966   4.024   5.826   4.266
 3023SOL     OW 9967   3.949   0.068   2.662
 3023SOL    HW1 9968   3.985   0.158   2.637
 3023SOL    HW2 9969   3.950   0.058   2.761
 3024SOL     OW 9970   6.077   5.968   5.363
 3024SOL    HW1 9971   6.041   5.950   5.454
 3024SOL    HW2 9972   6.162   6.020   5.370
 3025SOL     OW 9973   3.899   6.097   1.475
 3025SOL    HW1 9974   3.966   6.136   1.411
 3025SOL    HW2 9975   3.943   6.081   1.563
 3026SOL     OW 9976   0.085   1.065   6.582
 3026SOL    HW1 9977   0.053   1.131   6.513
 3026SOL    HW2 9978   0.074   0.972   6.547
 3027SOL     OW 9979   3.953   1.456   2.257
 3027SOL    HW1 9980   4.026   1.393   2.231
 3027SOL    HW2 9981   3.865   1.417   2.231
 3028SOL     OW 9982   1.885   3.938   6.169
 3028SOL    HW1 9983   1.915   4.034   6.168
 3028SOL    HW2 9984   1.873   3.906   6.075
 3029SOL     OW 9985   0.983   2.192   3.515
 3029SOL    HW1 9986   0.908   2.257   3.525
 3029SOL    HW2 9987   1.070   2.236   3.538
 3030SOL     OW 9988   1.295   4.009   0.787
 3030SOL    HW1 9989   1.373   4.067   0.812
 3030SOL    HW2 9990   1.326   3.915   0.777
 3031SOL     OW 9991   1.303   4.858   0.932
 3031SOL    HW1 9992   1.319   4.778   0.989
 3031SOL    HW2 9993   1.206   4.885   0.939
 3032SOL     OW 9994   1.855   5.641   2.422
 3032SOL    HW1 9995   1.826   5.641   2.326
 3032SOL    HW2 9996   1.854   5.735   2.457
 3033SOL     OW 9997   5.981   1.904   3.187
 3033SOL    HW1 9998   5.893   1.946   3.210
 3033SOL    HW2 9999   5.966   1.830   3.121
 3034SOL     OW10000   1.174   5.813   3.827
 3034SOL    HW110001   1.086   5.809   3.781
 3034SOL    HW210002   1.177   5.747   3.902
 3035SOL     OW10003   1.201   3.026   6.431
 3035SOL    HW110004   1.181   3.053   6.337
 3035SOL    HW210005   1.163   3.094   6.493
 3036SOL     OW10006   1.253   1.701   5.577
 3036SOL    HW110007   1.320   1.632   5.604
 3036SOL    HW210008   1.294   1.792   5.586
 3037SOL     OW10009   0.084   5.074   5.420
 3037SOL    HW110010   0.152   5.052   5.349
 3037SOL    HW210011   0.080   5.173   5.432
 3038SOL     OW10012   5.475   4.643   6.112
 3038SOL    HW110013   5.454   4.726   6.164
 3038SOL    HW210014   5.502   4.667   6.019
 3039SOL     OW10015   0.083   2.909   6.908
 3039SOL    HW110016   7.012   2.920   6.868
 3039SOL    HW210017   0.105   2.991   6.962
 3040SOL     OW10018   3.314   4.667   5.878
 3040SOL    HW110019   3.282   4.638   5.788
 3040SOL    HW210020   3.345   4.587   5.929
 3041SOL     OW10021   0.904   4.506   5.946
 3041SOL    HW110022   0.907   4.506   6.046
 3041SOL    HW210023   0.995   4.526   5.909
 3042SOL     OW10024   6.232   5.626   2.275
 3042SOL    HW110025   6.163   5.555   2.260
 3042SOL    HW210026   6.318   5.584   2.301
 3043SOL     OW10027   3.113   3.461   0.581
 3043SOL    HW110028   3.110   3.560   0.575
 3043SOL    HW210029   3.208   3.430   0.577
 3044SOL     OW10030   2.947   4.806   5.691
 3044SOL    HW110031   2.891   4.727   5.667
 3044SOL    HW210032   2.980   4.851   5.608
 3045SOL     OW10033   4.525   6.899   3.139
 3045SOL    HW110034   4.538   6.916   3.042
 3045SOL    HW210035   4.562   6.975   3.192
 3046SOL     OW10036   3.815   6.061   6.748
 3046SOL    HW110037   3.850   5.989   6.688
 3046SOL    HW210038   3.882   6.136   6.752
 3047SOL     OW10039   5.911   0.058   0.673
 3047SOL    HW110040   5.833   0.077   0.614
 3047SOL    HW210041   5.953   0.144   0.703
 3048SOL     OW10042   4.553   2.440   0.914
 3048SOL    HW110043   4.618   2.433   0.990
 3048SOL    HW210044   4.603   2.445   0.828
 3049SOL     OW10045   1.202   1.091   3.901
 3049SOL    HW110046   1.151   1.121   3.821
 3049SOL    HW210047   1.161   1.008   3.938
 3050SOL     OW10048   2.344   2.316   1.507
 3050SOL    HW110049   2.253   2.319   1.466
 3050SOL    HW210050   2.341   2.261   1.591
 3051SOL     OW10051   2.769   6.915   6.245
 3051SOL    HW110052   2.819   6.829   6.232
 3051SOL    HW210053   2.679   6.896   6.285
 3052SOL     OW10054   5.672   6.009   2.222
 3052SOL    HW110055   5.666   6.070   2.301
 3052SOL    HW210056   5.609   5.932   2.235
 3053SOL     OW10057   0.891   4.240   0.879
 3053SOL    HW110058   0.799   4.226   0.842
 3053SOL    HW210059   0.946   4.158   0.862
 3054SOL     OW10060   5.702   0.933   2.826
 3054SOL    HW110061   5.708   0.887   2.915
 3054SOL    HW210062   5.758   0.884   2.759
 3055SOL     OW10063   5.733   6.746   5.554
 3055SOL    HW110064   5.644   6.700   5.550
 3055SOL    HW210065   5.773   6.748   5.462
 3056SOL     OW10066   6.204   1.681   5.724
 3056SOL    HW110067   6.181   1.607   5.662
 3056SOL    HW210068   6.121   1.719   5.764
 3057SOL     OW10069   5.425   5.765   3.789
 3057SOL    HW110070   5.332   5.751   3.754
 3057SOL    HW210071   5.481   5.685   3.768
 3058SOL     OW10072   6.491   3.981   1.311
 3058SOL    HW110073   6.579   3.960   1.267
 3058SOL    HW210074   6.431   4.027   1.245
 3059SOL     OW10075   2.472   1.740   4.399
 3059SOL    HW110076   2.377   1.766   4.385
 3059SOL    HW210077   2.519   1.734   4.311
 3060SOL     OW10078   2.769   5.231   6.834
 3060SOL    HW110079   2.719   5.207   6.751
 3060SOL    HW210080   2.763   5.156   6.900
 3061SOL     OW10081   6.037   5.705   5.630
 3061SOL    HW110082   6.014   5.710   5.727
 3061SOL    HW210083   6.032   5.796   5.590
 3062SOL     OW10084   3.637   5.629   1.052
 3062SOL    HW110085   3.727   5.664   1.078
 3062SOL    HW210086   3.611   5.554   1.113
 3063SOL     OW10087   0.684   4.456   0.391
 3063SOL    HW110088   0.767   4.465   0.336
 3063SOL    HW210089   0.635   4.543   0.393
 3064SOL     OW10090   4.283   2.896   6.931
 3064SOL    HW110091   4.256   2.978   6.983
 3064SOL    HW210092   4.201   2.848   6.901
 3065SOL     OW10093   1.231   1.618   6.791
 3065SOL    HW110094   1.252   1.532   6.747
 3065SOL    HW210095   1.213   1.602   6.889
 3066SOL     OW10096   4.919   5.278   6.047
 3066SOL    HW110097   4.852   5.268   5.974
 3066SOL    HW210098   4.905   5.364   6.095
 3067SOL     OW10099   2.316   1.873   0.584
 3067SOL    HW110100   2.345   1.827   0.669
 3067SOL    HW210101   2.341   1.969   0.588
 3068SOL     OW10102   0.150   1.107   1.351
 3068SOL    HW110103   0.053   1.090   1.366
 3068SOL    HW210104   0.200   1.098   1.437
 3069SOL     OW10105   6.219   6.561   3.468
 3069SOL    HW110106   6.284   6.533   3.539
 3069SOL    HW210107   6.267   6.614   3.399
 3070SOL     OW10108   2.642   0.952   6.666
 3070SOL    HW110109   2.635   1.013   6.745
 3070SOL    HW210110   2.653   1.007   6.583
 3071SOL     OW10111   6.872   4.726   3.660
 3071SOL    HW110112   6.925   4.726   3.575
 3071SOL    HW210113   6.776   4.747   3.640
 3072SOL     OW10114   1.776   5.845   0.121
 3072SOL    HW110115   1.865   5.807   0.145
 3072SOL    HW210116   1.788   5.926   0.063
 3073SOL     OW10117   0.274   4.549   1.524
 3073SOL    HW110118   0.252   4.481   1.594
 3073SOL    HW210119   0.260   4.510   1.433
 3074SOL     OW10120   1.361   4.186   1.361
 3074SOL    HW110121   1.359   4.269   1.417
 3074SOL    HW210122   1.273   4.175   1.315
 3075SOL     OW10123   2.610   5.199   4.069
 3075SOL    HW110124   2.598   5.249   3.983
 3075SOL    HW210125   2.536   5.222   4.132
 3076SOL     OW10126   6.540   1.101   4.701
 3076SOL    HW110127   6.553   1.049   4.785
 3076SOL    HW210128   6.628   1.128   4.663
 3077SOL     OW10129   5.916   3.394   1.692
 3077SOL    HW110130   5.841   3.337   1.659
 3077SOL    HW210131   6.003   3.352   1.667
 3078SOL     OW10132   6.867   2.839   1.998
 3078SOL    HW110133   6.777   2.873   1.970
 3078SOL    HW210134   6.864   2.740   2.004
 3079SOL     OW10135   3.204   2.100   3.915
 3079SOL    HW110136   3.204   2.111   4.015
 3079SOL    HW210137   3.120   2.052   3.887
 3080SOL     OW10138   4.901   4.068   1.781
 3080SOL    HW110139   4.969   4.015   1.832
 3080SOL    HW210140   4.844   4.119   1.846
 3081SOL     OW10141   0.932   4.796   6.858
 3081SOL    HW110142   0.908   4.709   6.816
 3081SOL    HW210143   1.031   4.802   6.869
 3082SOL     OW10144   2.808   5.443   4.425
 3082SOL    HW110145   2.768   5.523   4.471
 3082SOL    HW210146   2.896   5.421   4.468
 3083SOL     OW10147   3.061   5.547   2.695
 3083SOL    HW110148   2.987   5.488   2.666
 3083SOL    HW210149   3.104   5.590   2.615
 3084SOL     OW10150   0.139   4.070   2.399
 3084SOL    HW110151   0.050   4.042   2.361
 3084SOL    HW210152   0.188   4.125   2.331
 3085SOL     OW10153   4.935   4.728   1.029
 3085SOL    HW110154   5.026   4.770   1.033
 3085SOL    HW210155   4.940   4.642   0.979
 3086SOL     OW10156   4.554   1.211   6.748
 3086SOL    HW110157   4.546   1.115   6.776
 3086SOL    HW210158   4.565   1.268   6.830
 3087SOL     OW10159   2.295   6.133   2.306
 3087SOL    HW110160   2.268   6.178   2.221
 3087SOL    HW210161   2.376   6.178   2.343
 3088SOL     OW10162   1.389   2.987   5.581
 3088SOL    HW110163   1.408   3.082   5.557
 3088SOL    HW210164   1.469   2.931   5.562
 3089SOL     OW10165   4.511   1.484   5.132
 3089SOL    HW110166   4.545   1.546   5.061
 3089SOL    HW210167   4.526   1.524   5.222
 3090SOL     OW10168   1.741   1.165   1.912
 3090SOL    HW110169   1.806   1.149   1.986
 3090SOL    HW210170   1.785   1.216   1.839
 3091SOL     OW10171   1.175   0.940   0.568
 3091SOL    HW110172   1.079   0.947   0.541
 3091SOL    HW210173   1.232   0.984   0.498
 3092SOL     OW10174   5.040   6.459   1.444
 3092SOL    HW110175   4.962   6.459   1.381
 3092SOL    HW210176   5.007   6.465   1.539
 3093SOL     OW10177   5.511   6.465   5.646
 3093SOL    HW110178   5.504   6.508   5.556
 3093SOL    HW210179   5.465   6.377   5.644
 3094SOL     OW10180   2.981   0.604   4.080
 3094SOL    HW110181   2.930   0.662   4.144
 3094SOL    HW210182   2.932   0.518   4.066
 3095SOL     OW10183   2.184   3.405   5.598
 3095SOL    HW110184   2.100   3.458   5.607
 3095SOL    HW210185   2.205   3.392   5.500
 3096SOL     OW10186   0.639   3.538   4.724
 3096SOL    HW110187   0.673   3.604   4.656
 3096SOL    HW210188   0.552   3.570   4.760
 3097SOL     OW10189   5.676   2.751   0.543
 3097SOL    HW110190   5.737   2.826   0.567
 3097SOL    HW210191   5.597   2.786   0.493
 3098SOL     OW10192   1.480   3.166   2.037
 3098SOL    HW110193   1.519   3.258   2.042
 3098SOL    HW210194   1.488   3.131   1.944
 3099SOL     OW10195   0.938   5.899   3.966
 3099SOL    HW110196   0.850   5.941   3.988
 3099SOL    HW210197   1.007   5.971   3.955
 3100SOL     OW10198   6.901   6.687   2.559
 3100SOL    HW110199   6.822   6.704   2.501
 3100SOL    HW210200   6.983   6.680   2.503
 3101SOL     OW10201   4.691   6.354   6.174
 3101SOL    HW110202   4.680   6.332   6.271
 3101SOL    HW210203   4.753   6.432   6.164
 3102SOL     OW10204   6.713   5.865   0.410
 3102SOL    HW110205   6.664   5.791   0.364
 3102SOL    HW210206   6.794   5.828   0.456
 3103SOL     OW10207   5.163   0.777   0.873
 3103SOL    HW110208   5.069   0.744   0.864
 3103SOL    HW210209   5.227   0.700   0.865
 3104SOL     OW10210   4.569   6.804   0.112
 3104SOL    HW110211   4.611   6.719   0.081
 3104SOL    HW210212   4.485   6.784   0.163
 3105SOL     OW10213   4.708   3.208   1.015
 3105SOL    HW110214   4.655   3.192   0.932
 3105SOL    HW210215   4.647   3.206   1.095
 3106SOL     OW10216   5.425   0.197   5.367
 3106SOL    HW110217   5.342   0.198   5.311
 3106SOL    HW210218   5.410   0.251   5.450
 3107SOL     OW10219   4.294   1.717   4.343
 3107SOL    HW110220   4.388   1.685   4.335
 3107SOL    HW210221   4.282   1.799   4.288
 3108SOL     OW10222   1.854   5.099   4.763
 3108SOL    HW110223   1.866   5.130   4.857
 3108SOL    HW210224   1.938   5.117   4.711
 3109SOL     OW10225   6.518   0.473   4.351
 3109SOL    HW110226   6.610   0.493   4.318
 3109SOL    HW210227   6.472   0.558   4.377
 3110SOL     OW10228   2.350   4.367   3.323
 3110SOL    HW110229   2.256   4.346   3.295
 3110SOL    HW210230   2.400   4.406   3.245
 3111SOL     OW10231   6.974   4.736   3.425
 3111SOL    HW110232   0.019   4.774   3.358
 3111SOL    HW210233   6.882   4.740   3.387
 3112SOL     OW10234   3.297   3.621   6.841
 3112SOL    HW110235   3.219   3.659   6.891
 3112SOL    HW210236   3.266   3.586   6.753
 3113SOL     OW10237   3.272   5.916   2.605
 3113SOL    HW110238   3.359   5.893   2.648
 3113SOL    HW210239   3.267   6.015   2.590
 3114SOL     OW10240   4.173   1.391   0.215
 3114SOL    HW110241   4.125   1.394   0.302
 3114SOL    HW210242   4.154   1.304   0.169
 3115SOL     OW10243   3.864   4.730   5.519
 3115SOL    HW110244   3.784   4.781   5.549
 3115SOL    HW210245   3.849   4.632   5.534
 3116SOL     OW10246   0.561   2.037   0.339
 3116SOL    HW110247   0.483   2.044   0.276
 3116SOL    HW210248   0.611   2.123   0.341
 3117SOL     OW10249   4.802   2.695   5.417
 3117SOL    HW110250   4.797   2.664   5.322
 3117SOL    HW210251   4.895   2.679   5.452
 3118SOL     OW10252   1.125   0.121   2.368
 3118SOL    HW110253   1.162   0.108   2.460
 3118SOL    HW210254   1.199   0.144   2.305
 3119SOL     OW10255   3.006   2.776   5.329
 3119SOL    HW110256   3.035   2.688   5.368
 3119SOL    HW210257   3.084   2.838   5.325
 3120SOL     OW10258   3.140   0.516   5.903
 3120SOL    HW110259   3.173   0.422   5.916
 3120SOL    HW210260   3.051   0.513   5.857
 3121SOL     OW10261   5.380   1.703   4.278
 3121SOL    HW110262   5.378   1.713   4.178
 3121SOL    HW210263   5.295   1.660   4.309
 3122SOL     OW10264   4.407   4.751   5.105
 3122SOL    HW110265   4.312   4.781   5.113
 3122SOL    HW210266   4.410   4.666   5.053
 3123SOL     OW10267   1.569   0.791   3.495
 3123SOL    HW110268   1.488   0.805   3.552
 3123SOL    HW210269   1.602   0.880   3.462
 3124SOL     OW10270   5.461   6.596   3.987
 3124SOL    HW110271   5.396   6.549   4.047
 3124SOL    HW210272   5.452   6.561   3.894
 3125SOL     OW10273   0.955   2.882   5.352
 3125SOL    HW110274   0.965   2.962   5.293
 3125SOL    HW210275   1.040   2.868   5.403
 3126SOL     OW10276   5.413   4.644   6.454
 3126SOL    HW110277   5.484   4.711   6.476
 3126SOL    HW210278   5.431   4.604   6.364
 3127SOL     OW10279   1.505   2.650   5.057
 3127SOL    HW110280   1.598   2.670   5.026
 3127SOL    HW210281   1.506   2.631   5.155
 3128SOL     OW10282   3.832   0.948   0.303
 3128SOL    HW110283   3.924   0.979   0.325
 3128SOL    HW210284   3.820   0.854   0.333
 3129SOL     OW10285   4.875   3.402   1.088
 3129SOL    HW110286   4.822   3.320   1.067
 3129SOL    HW210287   4.962   3.377   1.130
 3130SOL     OW10288   1.531   3.993   1.470
 3130SOL    HW110289   1.471   4.053   1.417
 3130SOL    HW210290   1.599   4.048   1.519
 3131SOL     OW10291   0.286   3.173   2.560
 3131SOL    HW110292   0.361   3.191   2.496
 3131SOL    HW210293   0.302   3.086   2.606
 3132SOL     OW10294   4.364   5.186   6.654
 3132SOL    HW110295   4.392   5.092   6.634
 3132SOL    HW210296   4.438   5.233   6.702
 3133SOL     OW10297   3.683   1.387   3.085
 3133SOL    HW110298   3.655   1.480   3.108
 3133SOL    HW210299   3.674   1.328   3.165
 3134SOL     OW10300   3.863   5.124   1.820
 3134SOL    HW110301   3.801   5.049   1.796
 3134SOL    HW210302   3.855   5.145   1.917
 3135SOL     OW10303   5.072   6.662   6.296
 3135SOL    HW110304   5.065   6.753   6.256
 3135SOL    HW210305   5.155   6.617   6.263
 3136SOL     OW10306   5.824   0.484   1.875
 3136SOL    HW110307   5.755   0.517   1.811
 3136SOL    HW210308   5.813   0.531   1.963
 3137SOL     OW10309   6.710   0.037   2.281
 3137SOL    HW110310   6.805   0.011   2.260
 3137SOL    HW210311   6.648   6.993   2.234
 3138SOL     OW10312   6.298   5.245   3.493
 3138SOL    HW110313   6.280   5.150   3.468
 3138SOL    HW210314   6.369   5.248   3.564
 3139SOL     OW10315   3.354   5.045   1.696
 3139SOL    HW110316   3.366   4.946   1.681
 3139SOL    HW210317   3.372   5.066   1.792
 3140SOL     OW10318   6.859   6.156   5.359
 3140SOL    HW110319   6.951   6.129   5.331
 3140SOL    HW210320   6.847   6.254   5.346
 3141SOL     OW10321   0.015   0.516   6.707
 3141SOL    HW110322   0.072   0.572   6.768
 3141SOL    HW210323   0.043   0.531   6.612
 3142SOL     OW10324   3.750   1.035   2.826
 3142SOL    HW110325   3.760   1.062   2.922
 3142SOL    HW210326   3.827   0.977   2.800
 3143SOL     OW10327   6.072   2.035   6.565
 3143SOL    HW110328   6.094   2.106   6.499
 3143SOL    HW210329   5.976   2.043   6.593
 3144SOL     OW10330   4.116   3.637   0.357
 3144SOL    HW110331   4.053   3.645   0.434
 3144SOL    HW210332   4.073   3.583   0.284
 3145SOL     OW10333   1.798   6.627   2.753
 3145SOL    HW110334   1.822   6.613   2.849
 3145SOL    HW210335   1.726   6.563   2.727
 3146SOL     OW10336   0.693   0.818   5.045
 3146SOL    HW110337   0.751   0.900   5.045
 3146SOL    HW210338   0.697   0.774   4.955
 3147SOL     OW10339   3.129   5.213   6.765
 3147SOL    HW110340   3.052   5.272   6.739
 3147SOL    HW210341   3.204   5.226   6.701
 3148SOL     OW10342   0.444   0.496   4.234
 3148SOL    HW110343   0.353   0.522   4.267
 3148SOL    HW210344   0.471   0.556   4.159
 3149SOL     OW10345   3.279   1.562   6.852
 3149SOL    HW110346   3.369   1.520   6.865
 3149SOL    HW210347   3.289   1.661   6.849
 3150SOL     OW10348   6.559   5.680   5.408
 3150SOL    HW110349   6.518   5.672   5.317
 3150SOL    HW210350   6.509   5.621   5.471
 3151SOL     OW10351   0.068   2.157   5.887
 3151SOL    HW110352   0.012   2.158   5.804
 3151SOL    HW210353   0.162   2.131   5.863
 3152SOL     OW10354   1.051   4.515   0.016
 3152SOL    HW110355   1.145   4.541   7.015
 3152SOL    HW210356   1.006   4.481   6.953
 3153SOL     OW10357   5.906   4.958   0.162
 3153SOL    HW110358   5.848   4.984   0.084
 3153SOL    HW210359   5.854   4.969   0.247
 3154SOL     OW10360   6.066   0.832   1.271
 3154SOL    HW110361   6.070   0.732   1.266
 3154SOL    HW210362   6.046   0.869   1.181
 3155SOL     OW10363   6.473   4.327   0.345
 3155SOL    HW110364   6.428   4.341   0.433
 3155SOL    HW210365   6.470   4.230   0.320
 3156SOL     OW10366   3.242   3.990   2.141
 3156SOL    HW110367   3.245   3.921   2.213
 3156SOL    HW210368   3.151   4.029   2.136
 3157SOL     OW10369   1.799   1.833   5.223
 3157SOL    HW110370   1.845   1.814   5.309
 3157SOL    HW210371   1.704   1.802   5.228
 3158SOL     OW10372   2.833   1.489   4.625
 3158SOL    HW110373   2.866   1.531   4.710
 3158SOL    HW210374   2.742   1.524   4.604
 3159SOL     OW10375   5.816   0.237   6.568
 3159SOL    HW110376   5.912   0.223   6.593
 3159SOL    HW210377   5.773   0.149   6.548
 3160SOL     OW10378   1.829   6.468   5.646
 3160SOL    HW110379   1.737   6.484   5.610
 3160SOL    HW210380   1.878   6.405   5.586
 3161SOL     OW10381   2.157   2.610   2.719
 3161SOL    HW110382   2.201   2.625   2.630
 3161SOL    HW210383   2.221   2.631   2.792
 3162SOL     OW10384   1.538   5.836   0.901
 3162SOL    HW110385   1.625   5.839   0.950
 3162SOL    HW210386   1.476   5.905   0.938
 3163SOL     OW10387   3.421   3.496   0.071
 3163SOL    HW110388   3.397   3.547   7.008
 3163SOL    HW210389   3.356   3.518   0.143
 3164SOL     OW10390   3.499   5.813   2.698
 3164SOL    HW110391   3.499   5.791   2.600
 3164SOL    HW210392   3.591   5.837   2.727
 3165SOL     OW10393   0.954   5.588   1.384
 3165SOL    HW110394   0.955   5.612   1.287
 3165SOL    HW210395   0.933   5.491   1.394
 3166SOL     OW10396   4.675   1.397   4.428
 3166SOL    HW110397   4.725   1.475   4.390
 3166SOL    HW210398   4.718   1.312   4.400
 3167SOL     OW10399   5.526   4.593   0.558
 3167SOL    HW110400   5.594   4.665   0.542
 3167SOL    HW210401   5.542   4.552   0.648
 3168SOL     OW10402   5.670   2.377   0.628
 3168SOL    HW110403   5.683   2.299   0.690
 3168SOL    HW210404   5.706   2.460   0.670
 3169SOL     OW10405   1.714   4.024   3.474
 3169SOL    HW110406   1.619   4.053   3.461
 3169SOL    HW210407   1.717   3.925   3.486
 3170SOL     OW10408   4.234   5.986   2.886
 3170SOL    HW110409   4.279   6.064   2.843
 3170SOL    HW210410   4.246   5.905   2.828
 3171SOL     OW10411   5.745   2.378   1.780
 3171SOL    HW110412   5.808   2.415   1.848
 3171SOL    HW210413   5.793   2.313   1.722
 3172SOL     OW10414   0.230   5.362   0.143
 3172SOL    HW110415   0.261   5.315   0.226
 3172SOL    HW210416   0.185   5.447   0.168
 3173SOL     OW10417   3.309   2.828   6.692
 3173SOL    HW110418   3.409   2.830   6.683
 3173SOL    HW210419   3.268   2.875   6.614
 3174SOL     OW10420   2.490   2.922   6.064
 3174SOL    HW110421   2.568   2.922   6.127
 3174SOL    HW210422   2.409   2.958   6.110
 3175SOL     OW10423   6.013   1.333   1.725
 3175SOL    HW110424   6.075   1.266   1.684
 3175SOL    HW210425   5.918   1.309   1.703
 3176SOL     OW10426   0.894   3.062   5.583
 3176SOL    HW110427   0.923   2.995   5.515
 3176SOL    HW210428   0.802   3.039   5.615
 3177SOL     OW10429   5.382   4.303   4.071
 3177SOL    HW110430   5.367   4.252   4.156
 3177SOL    HW210431   5.423   4.391   4.092
 3178SOL     OW10432   6.101   2.443   0.181
 3178SOL    HW110433   6.038   2.388   0.235
 3178SOL    HW210434   6.134   2.390   0.103
 3179SOL     OW10435   1.495   1.457   1.708
 3179SOL    HW110436   1.497   1.405   1.622
 3179SOL    HW210437   1.454   1.547   1.692
 3180SOL     OW10438   5.616   6.719   0.703
 3180SOL    HW110439   5.601   6.746   0.608
 3180SOL    HW210440   5.702   6.668   0.710
 3181SOL     OW10441   6.942   2.228   4.053
 3181SOL    HW110442   0.021   2.241   4.047
 3181SOL    HW210443   6.922   2.153   4.116
 3182SOL     OW10444   2.811   0.638   6.568
 3182SOL    HW110445   2.727   0.661   6.520
 3182SOL    HW210446   2.825   0.701   6.644
 3183SOL     OW10447   4.299   4.634   1.987
 3183SOL    HW110448   4.317   4.690   1.906
 3183SOL    HW210449   4.228   4.677   2.042
 3184SOL     OW10450   0.652   1.893   2.804
 3184SOL    HW110451   0.666   1.848   2.715
 3184SOL    HW210452   0.728   1.956   2.822
 3185SOL     OW10453   5.387   6.541   6.250
 3185SOL    HW110454   5.384   6.471   6.178
 3185SOL    HW210455   5.448   6.510   6.323
 3186SOL     OW10456   2.863   1.579   0.214
 3186SOL    HW110457   2.840   1.561   0.310
 3186SOL    HW210458   2.946   1.529   0.190
 3187SOL     OW10459   3.679   5.217   2.305
 3187SOL    HW110460   3.667   5.278   2.383
 3187SOL    HW210461   3.591   5.179   2.277
 3188SOL     OW10462   1.659   5.942   4.458
 3188SOL    HW110463   1.655   5.945   4.358
 3188SOL    HW210464   1.696   6.028   4.492
 3189SOL     OW10465   1.771   1.476   0.558
 3189SOL    HW110466   1.725   1.387   0.568
 3189SOL    HW210467   1.866   1.461   0.533
 3190SOL     OW10468   0.215   5.907   6.859
 3190SOL    HW110469   0.309   5.875   6.871
 3190SOL    HW210470   0.152   5.829   6.863
 3191SOL     OW10471   4.707   5.082   1.669
 3191SOL    HW110472   4.730   4.986   1.652
 3191SOL    HW210473   4.664   5.090   1.759
 3192SOL     OW10474   0.291   2.735   0.863
 3192SOL    HW110475   0.320   2.783   0.780
 3192SOL    HW210476   0.192   2.740   0.872
 3193SOL     OW10477   3.984   1.745   4.751
 3193SOL    HW110478   4.060   1.721   4.690
 3193SOL    HW210479   3.946   1.833   4.723
 3194SOL     OW10480   0.700   1.483   5.611
 3194SOL    HW110481   0.785   1.486   5.663
 3194SOL    HW210482   0.627   1.447   5.669
 3195SOL     OW10483   1.060   1.100   1.398
 3195SOL    HW110484   1.060   1.172   1.328
 3195SOL    HW210485   1.079   1.012   1.354
 3196SOL     OW10486   6.575   0.592   6.650
 3196SOL    HW110487   6.556   0.497   6.628
 3196SOL    HW210488   6.673   0.605   6.661
 3197SOL     OW10489   2.453   6.929   5.296
 3197SOL    HW110490   2.542   6.889   5.273
 3197SOL    HW210491   2.462   6.984   5.379
 3198SOL     OW10492   6.429   2.697   3.250
 3198SOL    HW110493   6.394   2.764   3.315
 3198SOL    HW210494   6.360   2.681   3.179
 3199SOL     OW10495   5.357   4.487   2.871
 3199SOL    HW110496   5.399   4.425   2.937
 3199SOL    HW210497   5.427   4.545   2.831
 3200SOL     OW10498   5.926   2.863   2.859
 3200SOL    HW110499   5.881   2.808   2.788
 3200SOL    HW210500   5.877   2.949   2.869
 3201SOL     OW10501   6.456   4.751   3.245
 3201SOL    HW110502   6.373   4.695   3.243
 3201SOL    HW210503   6.484   4.773   3.152
 3202SOL     OW10504   0.830   5.105   0.587
 3202SOL    HW110505   0.891   5.176   0.623
 3202SOL    HW210506   0.879   5.018   0.581
 3203SOL     OW10507   5.794   1.629   1.203
 3203SOL    HW110508   5.883   1.585   1.207
 3203SOL    HW210509   5.806   1.728   1.191
 3204SOL     OW10510   3.543   0.450   3.283
 3204SOL    HW110511   3.511   0.357   3.302
 3204SOL    HW210512   3.523   0.474   3.188
 3205SOL     OW10513   4.997   2.927   5.788
 3205SOL    HW110514   5.024   3.023   5.790
 3205SOL    HW210515   4.897   2.920   5.790
 3206SOL     OW10516   1.804   3.958   0.876
 3206SOL    HW110517   1.724   3.964   0.815
 3206SOL    HW210518   1.790   4.019   0.954
 3207SOL     OW10519   1.572   0.543   6.749
 3207SOL    HW110520   1.629   0.523   6.828
 3207SOL    HW210521   1.489   0.591   6.778
 3208SOL     OW10522   5.263   5.976   6.416
 3208SOL    HW110523   5.263   5.999   6.319
 3208SOL    HW210524   5.356   5.979   6.452
 3209SOL     OW10525   3.025   5.315   4.551
 3209SOL    HW110526   2.996   5.238   4.495
 3209SOL    HW210527   3.122   5.332   4.537
 3210SOL     OW10528   1.114   5.037   1.104
 3210SOL    HW110529   1.145   4.951   1.146
 3210SOL    HW210530   1.048   5.081   1.164
 3211SOL     OW10531   2.124   4.326   0.486
 3211SOL    HW110532   2.132   4.231   0.455
 3211SOL    HW210533   2.170   4.335   0.574
 3212SOL     OW10534   3.077   6.962   2.595
 3212SOL    HW110535   3.101   0.029   2.640
 3212SOL    HW210536   3.054   6.894   2.665
 3213SOL     OW10537   1.386   0.347   6.587
 3213SOL    HW110538   1.403   0.442   6.610
 3213SOL    HW210539   1.413   0.288   6.663
 3214SOL     OW10540   4.960   5.704   2.407
 3214SOL    HW110541   4.957   5.604   2.402
 3214SOL    HW210542   4.960   5.742   2.314
 3215SOL     OW10543   0.387   3.908   0.729
 3215SOL    HW110544   0.292   3.883   0.711
 3215SOL    HW210545   0.391   3.973   0.805
 3216SOL     OW10546   5.721   5.402   0.791
 3216SOL    HW110547   5.634   5.448   0.773
 3216SOL    HW210548   5.723   5.316   0.740
 3217SOL     OW10549   0.392   5.122   2.637
 3217SOL    HW110550   0.467   5.107   2.701
 3217SOL    HW210551   0.373   5.037   2.587
 3218SOL     OW10552   5.830   2.491   3.339
 3218SOL    HW110553   5.809   2.545   3.258
 3218SOL    HW210554   5.927   2.501   3.362
 3219SOL     OW10555   6.767   0.551   4.244
 3219SOL    HW110556   6.818   0.509   4.169
 3219SOL    HW210557   6.724   0.636   4.212
 3220SOL     OW10558   0.323   5.753   6.345
 3220SOL    HW110559   0.294   5.783   6.255
 3220SOL    HW210560   0.257   5.783   6.414
 3221SOL     OW10561   3.340   0.148   2.448
 3221SOL    HW110562   3.405   0.077   2.421
 3221SOL    HW210563   3.293   0.120   2.532
 3222SOL     OW10564   2.895   1.482   2.613
 3222SOL    HW110565   2.852   1.572   2.609
 3222SOL    HW210566   2.912   1.456   2.708
 3223SOL     OW10567   2.446   6.706   0.076
 3223SOL    HW110568   2.461   6.611   0.049
 3223SOL    HW210569   2.519   6.763   0.039
 3224SOL     OW10570   4.891   2.847   5.025
 3224SOL    HW110571   4.965   2.780   5.016
 3224SOL    HW210572   4.888   2.905   4.944
 3225SOL     OW10573   4.612   1.588   5.401
 3225SOL    HW110574   4.622   1.683   5.430
 3225SOL    HW210575   4.559   1.538   5.468
 3226SOL     OW10576   2.291   0.945   2.273
 3226SOL    HW110577   2.196   0.916   2.263
 3226SOL    HW210578   2.299   1.042   2.254
 3227SOL     OW10579   3.635   3.669   6.831
 3227SOL    HW110580   3.537   3.649   6.832
 3227SOL    HW210581   3.680   3.613   6.762
 3228SOL     OW10582   6.832   3.598   0.862
 3228SOL    HW110583   6.920   3.562   0.831
 3228SOL    HW210584   6.758   3.557   0.808
 3229SOL     OW10585   3.638   1.101   5.718
 3229SOL    HW110586   3.736   1.090   5.734
 3229SOL    HW210587   3.621   1.119   5.622
 3230SOL     OW10588   2.034   5.606   5.838
 3230SOL    HW110589   2.116   5.563   5.877
 3230SOL    HW210590   2.024   5.576   5.743
 3231SOL     OW10591   2.810   0.552   2.733
 3231SOL    HW110592   2.840   0.536   2.639
 3231SOL    HW210593   2.786   0.649   2.744
 3232SOL     OW10594   4.161   5.961   4.225
 3232SOL    HW110595   4.169   6.031   4.296
 3232SOL    HW210596   4.177   6.002   4.135
 3233SOL     OW10597   6.798   2.354   0.360
 3233SOL    HW110598   6.820   2.448   0.337
 3233SOL    HW210599   6.743   2.313   0.287
 3234SOL     OW10600   0.682   2.798   0.115
 3234SOL    HW110601   0.609   2.863   0.090
 3234SOL    HW210602   0.755   2.803   0.047
 3235SOL     OW10603   6.648   0.357   1.701
 3235SOL    HW110604   6.742   0.368   1.668
 3235SOL    HW210605   6.645   0.371   1.800
 3236SOL     OW10606   0.627   4.227   0.247
 3236SOL    HW110607   0.659   4.287   0.320
 3236SOL    HW210608   0.692   4.151   0.235
 3237SOL     OW10609   5.835   1.509   2.505
 3237SOL    HW110610   5.904   1.527   2.435
 3237SOL    HW210611   5.879   1.468   2.585
 3238SOL     OW10612   5.942   5.284   0.037
 3238SOL    HW110613   5.864   5.226   0.015
 3238SOL    HW210614   5.949   5.294   0.136
 3239SOL     OW10615   0.439   0.629   2.913
 3239SOL    HW110616   0.483   0.673   2.835
 3239SOL    HW210617   0.371   0.691   2.953
 3240SOL     OW10618   0.054   0.304   6.264
 3240SOL    HW110619   0.067   0.388   6.316
 3240SOL    HW210620   6.976   0.280   6.262
 3241SOL     OW10621   5.053   1.393   5.825
 3241SOL    HW110622   5.102   1.469   5.868
 3241SOL    HW210623   5.052   1.314   5.887
 3242SOL     OW10624   4.439   3.870   6.020
 3242SOL    HW110625   4.512   3.896   5.956
 3242SOL    HW210626   4.464   3.786   6.067
 3243SOL     OW10627   4.449   5.367   0.258
 3243SOL    HW110628   4.511   5.294   0.286
 3243SOL    HW210629   4.475   5.400   0.167
 3244SOL     OW10630   5.460   5.989   6.981
 3244SOL    HW110631   5.383   5.942   6.938
 3244SOL    HW210632   5.531   5.922   7.005
 3245SOL     OW10633   4.879   1.909   4.161
 3245SOL    HW110634   4.963   1.906   4.214
 3245SOL    HW210635   4.899   1.940   4.068
 3246SOL     OW10636   6.809   6.990   2.936
 3246SOL    HW110637   6.749   6.997   2.856
 3246SOL    HW210638   6.901   6.963   2.907
 3247SOL     OW10639   5.911   4.282   1.909
 3247SOL    HW110640   5.930   4.184   1.912
 3247SOL    HW210641   5.813   4.297   1.902
 3248SOL     OW10642   5.776   2.666   2.610
 3248SOL    HW110643   5.760   2.725   2.530
 3248SOL    HW210644   5.853   2.606   2.592
 3249SOL     OW10645   3.118   4.060   3.554
 3249SOL    HW110646   3.090   3.993   3.485
 3249SOL    HW210647   3.166   4.135   3.509
 3250SOL     OW10648   5.634   0.356   2.512
 3250SOL    HW110649   5.693   0.337   2.434
 3250SOL    HW210650   5.591   0.272   2.544
 3251SOL     OW10651   3.476   0.836   3.946
 3251SOL    HW110652   3.378   0.852   3.934
 3251SOL    HW210653   3.503   0.863   4.038
 3252SOL     OW10654   2.976   1.063   2.499
 3252SOL    HW110655   3.025   1.040   2.415
 3252SOL    HW210656   2.960   0.980   2.553
 3253SOL     OW10657   4.277   3.506   0.533
 3253SOL    HW110658   4.207   3.549   0.476
 3253SOL    HW210659   4.234   3.460   0.610
 3254SOL     OW10660   5.202   6.339   6.978
 3254SOL    HW110661   5.246   6.304   6.895
 3254SOL    HW210662   5.104   6.321   6.974
 3255SOL     OW10663   4.709   6.810   1.351
 3255SOL    HW110664   4.749   6.777   1.436
 3255SOL    HW210665   4.781   6.819   1.282
 3256SOL     OW10666   3.627   1.768   1.048
 3256SOL    HW110667   3.622   1.758   1.147
 3256SOL    HW210668   3.684   1.846   1.025
 3257SOL     OW10669   1.395   1.695   1.694
 3257SOL    HW110670   1.316   1.735   1.648
 3257SOL    HW210671   1.468   1.763   1.700
 3258SOL     OW10672   4.124   5.532   3.479
 3258SOL    HW110673   4.029   5.514   3.455
 3258SOL    HW210674   4.184   5.502   3.404
 3259SOL     OW10675   4.776   4.669   4.487
 3259SOL    HW110676   4.843   4.744   4.493
 3259SOL    HW210677   4.808   4.591   4.541
 3260SOL     OW10678   1.794   3.109   1.476
 3260SOL    HW110679   1.837   3.134   1.562
 3260SOL    HW210680   1.862   3.071   1.414
 3261SOL     OW10681   5.483   0.853   1.203
 3261SOL    HW110682   5.387   0.866   1.182
 3261SOL    HW210683   5.525   0.795   1.134
 3262SOL     OW10684   3.891   2.044   2.033
 3262SOL    HW110685   3.926   2.089   1.951
 3262SOL    HW210686   3.795   2.067   2.046
 3263SOL     OW10687   2.958   1.533   3.040
 3263SOL    HW110688   3.009   1.498   2.961
 3263SOL    HW210689   2.900   1.459   3.076
 3264SOL     OW10690   2.400   5.633   0.985
 3264SOL    HW110691   2.370   5.561   0.923
 3264SOL    HW210692   2.327   5.700   0.996
 3265SOL     OW10693   5.400   6.889   6.437
 3265SOL    HW110694   5.362   6.895   6.345
 3265SOL    HW210695   5.337   6.837   6.495
 3266SOL     OW10696   2.809   4.941   6.951
 3266SOL    HW110697   2.736   4.889   6.906
 3266SOL    HW210698   2.826   4.904   0.022
 3267SOL     OW10699   3.135   6.702   2.111
 3267SOL    HW110700   3.127   6.641   2.190
 3267SOL    HW210701   3.124   6.649   2.027
 3268SOL     OW10702   2.106   3.956   1.207
 3268SOL    HW110703   2.195   3.935   1.247
 3268SOL    HW210704   2.115   3.959   1.107
 3269SOL     OW10705   6.419   5.773   2.116
 3269SOL    HW110706   6.356   5.723   2.176
 3269SOL    HW210707   6.442   5.860   2.158
 3270SOL     OW10708   1.710   3.879   6.366
 3270SOL    HW110709   1.754   3.875   6.455
 3270SOL    HW210710   1.779   3.891   6.295
 3271SOL     OW10711   6.974   3.133   1.440
 3271SOL    HW110712   6.993   3.167   1.348
 3271SOL    HW210713   7.000   3.202   1.508
 3272SOL     OW10714   3.110   4.024   6.235
 3272SOL    HW110715   3.093   4.076   6.151
 3272SOL    HW210716   3.138   4.086   6.308
 3273SOL     OW10717   6.319   4.748   6.945
 3273SOL    HW110718   6.227   4.717   6.920
 3273SOL    HW210719   6.317   4.846   6.966
 3274SOL     OW10720   5.761   0.423   0.576
 3274SOL    HW110721   5.673   0.459   0.544
 3274SOL    HW210722   5.763   0.427   0.676
 3275SOL     OW10723   4.938   0.804   6.889
 3275SOL    HW110724   4.963   0.808   6.986
 3275SOL    HW210725   4.850   0.848   6.876
 3276SOL     OW10726   4.346   6.469   6.639
 3276SOL    HW110727   4.370   6.379   6.603
 3276SOL    HW210728   4.345   6.536   6.565
 3277SOL     OW10729   3.706   0.845   1.099
 3277SOL    HW110730   3.774   0.837   1.026
 3277SOL    HW210731   3.619   0.875   1.060
 3278SOL     OW10732   1.314   0.783   5.841
 3278SOL    HW110733   1.281   0.698   5.800
 3278SOL    HW210734   1.262   0.801   5.925
 3279SOL     OW10735   5.444   0.096   0.605
 3279SOL    HW110736   5.354   0.110   0.564
 3279SOL    HW210737   5.438   0.024   0.674
 3280SOL     OW10738   4.928   4.870   5.179
 3280SOL    HW110739   4.836   4.876   5.140
 3280SOL    HW210740   4.995   4.877   5.106
 3281SOL     OW10741   0.814   5.084   0.895
 3281SOL    HW110742   0.891   5.036   0.853
 3281SOL    HW210743   0.835   5.182   0.900
 3282SOL     OW10744   6.774   5.038   5.187
 3282SOL    HW110745   6.775   5.116   5.250
 3282SOL    HW210746   6.737   4.958   5.234
 3283SOL     OW10747   3.245   1.281   1.213
 3283SOL    HW110748   3.269   1.285   1.116
 3283SOL    HW210749   3.162   1.333   1.229
 3284SOL     OW10750   1.339   6.009   5.666
 3284SOL    HW110751   1.422   5.989   5.717
 3284SOL    HW210752   1.260   6.008   5.728
 3285SOL     OW10753   4.446   2.267   4.706
 3285SOL    HW110754   4.397   2.269   4.619
 3285SOL    HW210755   4.539   2.301   4.692
 3286SOL     OW10756   3.339   2.871   1.975
 3286SOL    HW110757   3.348   2.804   1.901
 3286SOL    HW210758   3.425   2.875   2.026
 3287SOL     OW10759   0.356   6.986   0.314
 3287SOL    HW110760   0.282   6.964   0.250
 3287SOL    HW210761   0.331   6.954   0.406
 3288SOL     OW10762   2.073   6.810   0.495
 3288SOL    HW110763   2.048   6.718   0.526
 3288SOL    HW210764   2.063   6.815   0.395
 3289SOL     OW10765   2.852   1.415   6.220
 3289SOL    HW110766   2.758   1.431   6.190
 3289SOL    HW210767   2.914   1.425   6.142
 3290SOL     OW10768   6.643   4.898   0.546
 3290SOL    HW110769   6.593   4.831   0.490
 3290SOL    HW210770   6.583   4.931   0.619
 3291SOL     OW10771   2.228   1.277   6.039
 3291SOL    HW110772   2.315   1.258   6.084
 3291SOL    HW210773   2.159   1.299   6.108
 3292SOL     OW10774   0.122   1.230   0.720
 3292SOL    HW110775   0.090   1.323   0.736
 3292SOL    HW210776   0.155   1.221   0.626
 3293SOL     OW10777   6.635   4.569   1.503
 3293SOL    HW110778   6.721   4.534   1.541
 3293SOL    HW210779   6.595   4.634   1.566
 3294SOL     OW10780   5.045   2.951   6.224
 3294SOL    HW110781   5.128   2.896   6.231
 3294SOL    HW210782   4.972   2.897   6.183
 3295SOL     OW10783   0.891   2.877   2.008
 3295SOL    HW110784   0.890   2.800   1.945
 3295SOL    HW210785   0.975   2.929   1.995
 3296SOL     OW10786   1.315   0.744   2.944
 3296SOL    HW110787   1.225   0.786   2.954
 3296SOL    HW210788   1.375   0.776   3.017
 3297SOL     OW10789   2.830   1.480   5.162
 3297SOL    HW110790   2.791   1.408   5.105
 3297SOL    HW210791   2.764   1.554   5.172
 3298SOL     OW10792   6.672   2.574   5.875
 3298SOL    HW110793   6.626   2.584   5.787
 3298SOL    HW210794   6.695   2.665   5.911
 3299SOL     OW10795   3.968   6.015   2.736
 3299SOL    HW110796   3.987   6.109   2.764
 3299SOL    HW210797   4.054   5.968   2.716
 3300SOL     OW10798   1.094   0.445   5.984
 3300SOL    HW110799   1.194   0.436   5.979
 3300SOL    HW210800   1.069   0.541   5.967
 3301SOL     OW10801   1.709   2.804   3.412
 3301SOL    HW110802   1.720   2.818   3.510
 3301SOL    HW210803   1.711   2.893   3.365
 3302SOL     OW10804   0.704   4.555   5.042
 3302SOL    HW110805   0.643   4.576   5.118
 3302SOL    HW210806   0.653   4.504   4.972
 3303SOL     OW10807   3.232   3.570   0.274
 3303SOL    HW110808   3.169   3.616   0.211
 3303SOL    HW210809   3.235   3.619   0.361
 3304SOL     OW10810   1.737   5.353   6.205
 3304SOL    HW110811   1.714   5.446   6.232
 3304SOL    HW210812   1.795   5.354   6.124
 3305SOL     OW10813   2.276   1.569   2.390
 3305SOL    HW110814   2.328   1.582   2.305
 3305SOL    HW210815   2.312   1.631   2.460
 3306SOL     OW10816   1.313   5.194   4.648
 3306SOL    HW110817   1.247   5.187   4.574
 3306SOL    HW210818   1.287   5.270   4.708
 3307SOL     OW10819   0.808   6.823   5.642
 3307SOL    HW110820   0.844   6.874   5.564
 3307SOL    HW210821   0.805   6.882   5.723
 3308SOL     OW10822   3.017   5.522   1.408
 3308SOL    HW110823   3.112   5.514   1.436
 3308SOL    HW210824   2.957   5.486   1.480
 3309SOL     OW10825   6.911   5.238   3.600
 3309SOL    HW110826   6.921   5.330   3.562
 3309SOL    HW210827   6.947   5.236   3.693
 3310SOL     OW10828   6.870   4.133   4.820
 3310SOL    HW110829   6.901   4.196   4.749
 3310SOL    HW210830   6.948   4.103   4.874
 3311SOL     OW10831   3.509   4.244   0.644
 3311SOL    HW110832   3.592   4.255   0.590
 3311SOL    HW210833   3.520   4.290   0.732
 3312SOL     OW10834   3.859   3.854   5.750
 3312SOL    HW110835   3.937   3.882   5.694
 3312SOL    HW210836   3.874   3.885   5.844
 3313SOL     OW10837   0.991   6.843   3.899
 3313SOL    HW110838   0.911   6.902   3.895
 3313SOL    HW210839   1.019   6.817   3.807
 3314SOL     OW10840   2.408   1.214   2.610
 3314SOL    HW110841   2.429   1.117   2.605
 3314SOL    HW210842   2.488   1.268   2.582
 3315SOL     OW10843   0.334   3.914   4.542
 3315SOL    HW110844   0.345   3.837   4.480
 3315SOL    HW210845   0.265   3.976   4.505
 3316SOL     OW10846   4.325   1.008   4.890
 3316SOL    HW110847   4.391   0.935   4.909
 3316SOL    HW210848   4.286   0.994   4.799
 3317SOL     OW10849   5.024   2.637   2.091
 3317SOL    HW110850   4.985   2.620   2.181
 3317SOL    HW210851   5.082   2.560   2.065
 3318SOL     OW10852   1.614   1.609   0.804
 3318SOL    HW110853   1.662   1.583   0.720
 3318SOL    HW210854   1.531   1.554   0.813
 3319SOL     OW10855   5.514   1.089   3.916
 3319SOL    HW110856   5.608   1.056   3.921
 3319SOL    HW210857   5.463   1.057   3.995
 3320SOL     OW10858   6.035   0.941   0.312
 3320SOL    HW110859   5.937   0.940   0.330
 3320SOL    HW210860   6.051   0.924   0.214
 3321SOL     OW10861   5.448   1.717   0.496
 3321SOL    HW110862   5.501   1.802   0.492
 3321SOL    HW210863   5.350   1.738   0.497
 3322SOL     OW10864   6.669   2.694   1.416
 3322SOL    HW110865   6.686   2.774   1.474
 3322SOL    HW210866   6.755   2.662   1.378
 3323SOL     OW10867   2.540   3.082   0.120
 3323SOL    HW110868   2.446   3.099   0.151
 3323SOL    HW210869   2.567   2.990   0.145
 3324SOL     OW10870   4.012   4.951   6.311
 3324SOL    HW110871   3.925   4.904   6.300
 3324SOL    HW210872   4.072   4.898   6.370
 3325SOL     OW10873   0.200   3.975   0.176
 3325SOL    HW110874   0.132   4.048   0.175
 3325SOL    HW210875   0.155   3.888   0.193
 3326SOL     OW10876   4.795   1.772   1.727
 3326SOL    HW110877   4.782   1.695   1.665
 3326SOL    HW210878   4.878   1.758   1.780
 3327SOL     OW10879   3.146   5.414   2.068
 3327SOL    HW110880   3.227   5.444   2.118
 3327SOL    HW210881   3.108   5.491   2.017
 3328SOL     OW10882   3.871   1.845   0.762
 3328SOL    HW110883   3.966   1.815   0.773
 3328SOL    HW210884   3.863   1.900   0.679
 3329SOL     OW10885   5.669   0.405   5.572
 3329SOL    HW110886   5.729   0.325   5.570
 3329SOL    HW210887   5.678   0.451   5.661
 3330SOL     OW10888   6.439   3.655   1.661
 3330SOL    HW110889   6.481   3.640   1.572
 3330SOL    HW210890   6.505   3.634   1.734
 3331SOL     OW10891   2.321   3.022   1.623
 3331SOL    HW110892   2.319   2.933   1.578
 3331SOL    HW210893   2.416   3.051   1.635
 3332SOL     OW10894   5.941   5.910   0.095
 3332SOL    HW110895   6.019   5.876   0.042
 3332SOL    HW210896   5.916   5.843   0.165
 3333SOL     OW10897   3.809   5.945   6.207
 3333SOL    HW110898   3.860   5.973   6.125
 3333SOL    HW210899   3.831   6.007   6.282
 3334SOL     OW10900   3.302   3.579   1.330
 3334SOL    HW110901   3.217   3.539   1.363
 3334SOL    HW210902   3.282   3.657   1.270
 3335SOL     OW10903   4.685   5.016   5.711
 3335SOL    HW110904   4.609   5.051   5.766
 3335SOL    HW210905   4.732   4.944   5.762
 3336SOL     OW10906   3.017   5.640   4.817
 3336SOL    HW110907   2.966   5.554   4.803
 3336SOL    HW210908   3.115   5.621   4.819
 3337SOL     OW10909   3.092   3.228   2.016
 3337SOL    HW110910   3.001   3.210   1.978
 3337SOL    HW210911   3.123   3.149   2.068
 3338SOL     OW10912   5.888   2.927   0.901
 3338SOL    HW110913   5.796   2.920   0.939
 3338SOL    HW210914   5.950   2.866   0.950
 3339SOL     OW10915   6.436   0.361   6.548
 3339SOL    HW110916   6.365   0.336   6.614
 3339SOL    HW210917   6.500   0.286   6.538
 3340SOL     OW10918   3.863   0.521   0.995
 3340SOL    HW110919   3.856   0.505   0.897
 3340SOL    HW210920   3.776   0.559   1.028
 3341SOL     OW10921   1.086   6.119   4.123
 3341SOL    HW110922   1.166   6.137   4.066
 3341SOL    HW210923   1.003   6.147   4.074
 3342SOL     OW10924   2.839   6.401   4.342
 3342SOL    HW110925   2.934   6.410   4.313
 3342SOL    HW210926   2.829   6.436   4.435
 3343SOL     OW10927   4.895   2.889   0.773
 3343SOL    HW110928   4.836   2.869   0.851
 3343SOL    HW210929   4.885   2.816   0.704
 3344SOL     OW10930   6.311   3.607   4.498
 3344SOL    HW110931   6.329   3.544   4.423
 3344SOL    HW210932   6.235   3.572   4.553
 3345SOL     OW10933   1.325   3.828   5.393
 3345SOL    HW110934   1.268   3.841   5.312
 3345SOL    HW210935   1.366   3.916   5.419
 3346SOL     OW10936   1.637   1.099   1.016
 3346SOL    HW110937   1.608   1.022   0.958
 3346SOL    HW210938   1.729   1.081   1.050
 3347SOL     OW10939   0.716   4.408   3.611
 3347SOL    HW110940   0.711   4.508   3.613
 3347SOL    HW210941   0.753   4.379   3.523
 3348SOL     OW10942   3.108   3.052   3.080
 3348SOL    HW110943   3.066   2.961   3.080
 3348SOL    HW210944   3.158   3.065   3.165
 3349SOL     OW10945   0.704   4.946   4.317
 3349SOL    HW110946   0.691   4.847   4.322
 3349SOL    HW210947   0.793   4.965   4.276
 3350SOL     OW10948   1.021   2.249   5.890
 3350SOL    HW110949   1.073   2.330   5.863
 3350SOL    HW210950   0.942   2.277   5.945
 3351SOL     OW10951   5.561   0.099   2.563
 3351SOL    HW110952   5.494   0.081   2.491
 3351SOL    HW210953   5.516   0.099   2.652
 3352SOL     OW10954   0.215   3.367   0.425
 3352SOL    HW110955   0.287   3.406   0.367
 3352SOL    HW210956   0.245   3.370   0.521
 3353SOL     OW10957   1.560   6.476   2.214
 3353SOL    HW110958   1.619   6.547   2.175
 3353SOL    HW210959   1.470   6.480   2.171
 3354SOL     OW10960   5.313   2.634   4.113
 3354SOL    HW110961   5.300   2.733   4.119
 3354SOL    HW210962   5.323   2.596   4.204
 3355SOL     OW10963   1.457   1.610   0.087
 3355SOL    HW110964   1.502   1.679   0.143
 3355SOL    HW210965   1.521   1.578   0.016
 3356SOL     OW10966   2.124   3.563   6.598
 3356SOL    HW110967   2.081   3.620   6.668
 3356SOL    HW210968   2.058   3.544   6.525
 3357SOL     OW10969   2.742   4.765   1.771
 3357SOL    HW110970   2.762   4.706   1.850
 3357SOL    HW210971   2.693   4.846   1.802
 3358SOL     OW10972   4.747   0.353   1.276
 3358SOL    HW110973   4.652   0.327   1.259
 3358SOL    HW210974   4.774   0.423   1.210
 3359SOL     OW10975   6.602   0.133   3.737
 3359SOL    HW110976   6.536   0.089   3.798
 3359SOL    HW210977   6.646   0.209   3.786
 3360SOL     OW10978   0.052   0.811   0.238
 3360SOL    HW110979   0.101   0.730   0.270
 3360SOL    HW210980   0.087   0.838   0.148
 3361SOL     OW10981   0.506   5.330   2.463
 3361SOL    HW110982   0.550   5.287   2.384
 3361SOL    HW210983   0.451   5.262   2.512
 3362SOL     OW10984   4.086   1.582   3.964
 3362SOL    HW110985   4.153   1.649   3.994
 3362SOL    HW210986   4.018   1.627   3.906
 3363SOL     OW10987   0.693   0.083   0.007
 3363SOL    HW110988   0.689   7.005   7.004
 3363SOL    HW210989   0.786   0.108   0.032
 3364SOL     OW10990   1.281   4.256   4.481
 3364SOL    HW110991   1.378   4.266   4.459
 3364SOL    HW210992   1.244   4.176   4.435
 3365SOL     OW10993   0.255   2.452   5.025
 3365SOL    HW110994   0.231   2.549   5.039
 3365SOL    HW210995   0.222   2.398   5.102
 3366SOL     OW10996   6.050   0.471   6.233
 3366SOL    HW110997   6.145   0.470   6.202
 3366SOL    HW210998   5.999   0.399   6.187
 3367SOL     OW10999   2.415   3.127   1.314
 3367SOL    HW111000   2.436   3.031   1.336
 3367SOL    HW211001   2.440   3.184   1.392
 3368SOL     OW11002   0.759   5.827   6.406
 3368SOL    HW111003   0.727   5.868   6.492
 3368SOL    HW211004   0.859   5.823   6.406
 3369SOL     OW11005   3.700   2.268   5.903
 3369SOL    HW111006   3.652   2.325   5.837
 3369SOL    HW211007   3.767   2.324   5.953
 3370SOL     OW11008   6.764   6.298   5.816
 3370SOL    HW111009   6.810   6.382   5.790
 3370SOL    HW211010   6.775   6.230   5.744
 3371SOL     OW11011   0.483   4.143   2.453
 3371SOL    HW111012   0.478   4.177   2.359
 3371SOL    HW211013   0.451   4.213   2.517
 3372SOL     OW11014   1.019   1.644   1.747
 3372SOL    HW111015   0.925   1.672   1.770
 3372SOL    HW211016   1.058   1.593   1.823
 3373SOL     OW11017   6.143   1.461   3.065
 3373SOL    HW111018   6.070   1.425   3.123
 3373SOL    HW211019   6.157   1.400   2.987
 3374SOL     OW11020   2.385   5.758   4.844
 3374SOL    HW111021   2.378   5.660   4.861
 3374SOL    HW211022   2.469   5.793   4.884
 3375SOL     OW11023   4.757   5.005   6.161
 3375SOL    HW111024   4.852   5.013   6.193
 3375SOL    HW211025   4.696   5.048   6.228
 3376SOL     OW11026   3.911   3.653   2.822
 3376SOL    HW111027   3.979   3.585   2.847
 3376SOL    HW211028   3.928   3.738   2.871
 3377SOL     OW11029   0.213   6.262   4.583
 3377SOL    HW111030   0.181   6.328   4.652
 3377SOL    HW211031   0.313   6.264   4.579
 3378SOL     OW11032   6.313   0.544   0.662
 3378SOL    HW111033   6.370   0.556   0.582
 3378SOL    HW211034   6.233   0.489   0.638
 3379SOL     OW11035   6.997   5.308   6.063
 3379SOL    HW111036   6.970   5.319   5.967
 3379SOL    HW211037   6.977   5.214   6.092
 3380SOL     OW11038   6.078   6.410   5.965
 3380SOL    HW111039   6.108   6.411   6.060
 3380SOL    HW211040   6.064   6.503   5.933
 3381SOL     OW11041   1.198   2.668   0.960
 3381SOL    HW111042   1.258   2.595   0.994
 3381SOL    HW211043   1.251   2.730   0.902
 3382SOL     OW11044   0.937   0.938   0.230
 3382SOL    HW111045   0.994   0.926   0.149
 3382SOL    HW211046   0.993   0.975   0.304
 3383SOL     OW11047   4.512   5.545   3.258
 3383SOL    HW111048   4.467   5.585   3.178
 3383SOL    HW211049   4.478   5.452   3.272
 3384SOL     OW11050   2.834   3.381   5.333
 3384SOL    HW111051   2.749   3.431   5.348
 3384SOL    HW211052   2.814   3.287   5.303
 3385SOL     OW11053   0.280   3.955   3.699
 3385SOL    HW111054   0.182   3.967   3.717
 3385SOL    HW211055   0.327   3.932   3.785
 3386SOL     OW11056   6.714   3.586   6.251
 3386SOL    HW111057   6.733   3.488   6.248
 3386SOL    HW211058   6.783   3.632   6.307
 3387SOL     OW11059   3.112   1.145   2.758
 3387SOL    HW111060   3.044   1.166   2.688
 3387SOL    HW211061   3.068   1.101   2.836
 3388SOL     OW11062   6.206   3.113   1.781
 3388SOL    HW111063   6.195   3.189   1.717
 3388SOL    HW211064   6.140   3.041   1.760
 3389SOL     OW11065   4.620   5.318   4.711
 3389SOL    HW111066   4.548   5.248   4.718
 3389SOL    HW211067   4.659   5.334   4.801
 3390SOL     OW11068   5.690   4.753   5.817
 3390SOL    HW111069   5.592   4.751   5.833
 3390SOL    HW211070   5.717   4.843   5.783
 3391SOL     OW11071   5.462   2.706   4.527
 3391SOL    HW111072   5.432   2.636   4.462
 3391SOL    HW211073   5.523   2.771   4.482
 3392SOL     OW11074   2.656   0.281   3.707
 3392SOL    HW111075   2.613   0.304   3.620
 3392SOL    HW211076   2.595   0.303   3.782
 3393SOL     OW11077   0.164   6.324   0.558
 3393SOL    HW111078   0.231   6.270   0.609
 3393SOL    HW211079   0.092   6.264   0.524
 3394SOL     OW11080   5.878   3.215   0.942
 3394SOL    HW111081   5.903   3.235   1.037
 3394SOL    HW211082   5.885   3.117   0.925
 3395SOL     OW11083   6.016   3.320   3.462
 3395SOL    HW111084   6.022   3.229   3.421
 3395SOL    HW211085   5.962   3.315   3.546
 3396SOL     OW11086   6.151   1.918   3.405
 3396SOL    HW111087   6.124   1.850   3.473
 3396SOL    HW211088   6.110   1.893   3.317
 3397SOL     OW11089   2.937   1.283   5.520
 3397SOL    HW111090   2.839   1.288   5.504
 3397SOL    HW211091   2.963   1.350   5.589
 3398SOL     OW11092   1.504   6.882   3.888
 3398SOL    HW111093   1.457   6.829   3.817
 3398SOL    HW211094   1.485   6.842   3.978
 3399SOL     OW11095   5.370   4.635   5.030
 3399SOL    HW111096   5.300   4.595   5.090
 3399SOL    HW211097   5.343   4.624   4.935
 3400SOL     OW11098   4.469   1.772   5.750
 3400SOL    HW111099   4.529   1.845   5.715
 3400SOL    HW211100   4.382   1.775   5.702
 3401SOL     OW11101   6.797   3.504   1.230
 3401SOL    HW111102   6.813   3.586   1.175
 3401SOL    HW211103   6.758   3.432   1.172
 3402SOL     OW11104   4.153   6.192   0.622
 3402SOL    HW111105   4.102   6.277   0.633
 3402SOL    HW211106   4.250   6.213   0.612
 3403SOL     OW11107   4.130   0.107   4.988
 3403SOL    HW111108   4.112   0.113   4.890
 3403SOL    HW211109   4.042   0.105   5.037
 3404SOL     OW11110   5.428   1.620   6.699
 3404SOL    HW111111   5.368   1.563   6.642
 3404SOL    HW211112   5.491   1.562   6.749
 3405SOL     OW11113   6.426   4.097   4.216
 3405SOL    HW111114   6.422   4.124   4.312
 3405SOL    HW211115   6.467   4.006   4.207
 3406SOL     OW11116   0.638   4.021   2.235
 3406SOL    HW111117   0.699   3.973   2.172
 3406SOL    HW211118   0.638   4.119   2.214
 3407SOL     OW11119   1.526   5.373   6.972
 3407SOL    HW111120   1.543   5.344   6.878
 3407SOL    HW211121   1.600   5.432   7.003
 3408SOL     OW11122   5.006   4.285   4.842
 3408SOL    HW111123   4.912   4.263   4.866
 3408SOL    HW211124   5.046   4.209   4.790
 3409SOL     OW11125   3.554   6.481   6.259
 3409SOL    HW111126   3.618   6.522   6.324
 3409SOL    HW211127   3.542   6.384   6.282
 3410SOL     OW11128   6.687   6.032   0.049
 3410SOL    HW111129   6.782   6.063   0.042
 3410SOL    HW211130   6.628   6.111   0.064
 3411SOL     OW11131   0.473   2.568   2.408
 3411SOL    HW111132   0.485   2.605   2.316
 3411SOL    HW211133   0.557   2.523   2.438
 3412SOL     OW11134   4.410   2.714   6.194
 3412SOL    HW111135   4.324   2.741   6.239
 3412SOL    HW211136   4.390   2.648   6.121
 3413SOL     OW11137   5.143   0.623   2.512
 3413SOL    HW111138   5.177   0.716   2.523
 3413SOL    HW211139   5.062   0.609   2.569
 3414SOL     OW11140   1.941   0.979   6.048
 3414SOL    HW111141   1.965   0.883   6.062
 3414SOL    HW211142   2.004   1.020   5.981
 3415SOL     OW11143   1.586   4.627   4.663
 3415SOL    HW111144   1.677   4.663   4.647
 3415SOL    HW211145   1.550   4.663   4.749
 3416SOL     OW11146   0.053   5.649   6.893
 3416SOL    HW111147   0.081   5.655   6.989
 3416SOL    HW211148   0.049   5.553   6.865
 3417SOL     OW11149   0.713   5.879   3.711
 3417SOL    HW111150   0.812   5.868   3.720
 3417SOL    HW211151   0.690   5.976   3.705
 3418SOL     OW11152   3.862   0.133   5.451
 3418SOL    HW111153   3.795   0.183   5.507
 3418SOL    HW211154   3.950   0.134   5.497
 3419SOL     OW11155   3.941   5.263   4.889
 3419SOL    HW111156   3.853   5.231   4.853
 3419SOL    HW211157   3.979   5.332   4.828
 3420SOL     OW11158   5.345   3.142   3.580
 3420SOL    HW111159   5.248   3.157   3.561
 3420SOL    HW211160   5.381   3.074   3.516
 3421SOL     OW11161   5.903   0.915   6.250
 3421SOL    HW111162   5.907   0.821   6.282
 3421SOL    HW211163   5.873   0.917   6.154
 3422SOL     OW11164   1.953   6.524   1.143
 3422SOL    HW111165   2.002   6.500   1.059
 3422SOL    HW211166   1.861   6.484   1.140
 3423SOL     OW11167   2.282   6.561   0.496
 3423SOL    HW111168   2.309   6.578   0.591
 3423SOL    HW211169   2.303   6.641   0.440
 3424SOL     OW11170   2.911   6.910   2.394
 3424SOL    HW111171   2.952   6.899   2.485
 3424SOL    HW211172   2.952   6.844   2.331
 3425SOL     OW11173   5.624   4.060   2.633
 3425SOL    HW111174   5.600   4.000   2.557
 3425SOL    HW211175   5.548   4.065   2.697
 3426SOL     OW11176   2.821   3.272   0.112
 3426SOL    HW111177   2.775   3.201   0.165
 3426SOL    HW211178   2.753   3.333   0.072
 3427SOL     OW11179   6.763   6.713   6.612
 3427SOL    HW111180   6.746   6.725   6.710
 3427SOL    HW211181   6.859   6.692   6.597
 3428SOL     OW11182   3.488   5.039   1.081
 3428SOL    HW111183   3.506   4.942   1.093
 3428SOL    HW211184   3.407   5.065   1.134
 3429SOL     OW11185   0.931   0.962   6.821
 3429SOL    HW111186   1.018   1.003   6.847
 3429SOL    HW211187   0.858   0.998   6.878
 3430SOL     OW11188   0.251   6.468   5.013
 3430SOL    HW111189   0.264   6.400   4.941
 3430SOL    HW211190   0.192   6.430   5.084
 3431SOL     OW11191   1.935   6.809   1.072
 3431SOL    HW111192   1.939   6.831   0.974
 3431SOL    HW211193   1.921   6.711   1.084
 3432SOL     OW11194   2.533   2.732   6.862
 3432SOL    HW111195   2.437   2.709   6.848
 3432SOL    HW211196   2.583   2.650   6.891
 3433SOL     OW11197   0.948   6.836   6.445
 3433SOL    HW111198   0.967   6.931   6.422
 3433SOL    HW211199   0.955   6.824   6.545
 3434SOL     OW11200   3.639   2.263   0.788
 3434SOL    HW111201   3.539   2.253   0.793
 3434SOL    HW211202   3.679   2.243   0.878
 3435SOL     OW11203   1.307   1.573   1.050
 3435SOL    HW111204   1.392   1.599   1.096
 3435SOL    HW211205   1.303   1.473   1.041
 3436SOL     OW11206   3.494   6.602   5.710
 3436SOL    HW111207   3.554   6.666   5.663
 3436SOL    HW211208   3.506   6.610   5.809
 3437SOL     OW11209   3.397   0.554   6.385
 3437SOL    HW111210   3.443   0.554   6.474
 3437SOL    HW211211   3.300   0.536   6.398
 3438SOL     OW11212   1.577   2.793   0.464
 3438SOL    HW111213   1.600   2.730   0.390
 3438SOL    HW211214   1.595   2.750   0.552
 3439SOL     OW11215   2.318   6.567   5.689
 3439SOL    HW111216   2.280   6.477   5.670
 3439SOL    HW211217   2.306   6.626   5.609
 3440SOL     OW11218   4.040   3.243   1.718
 3440SOL    HW111219   4.017   3.258   1.814
 3440SOL    HW211220   3.956   3.223   1.667
 3441SOL     OW11221   4.766   0.353   3.752
 3441SOL    HW111222   4.796   0.386   3.842
 3441SOL    HW211223   4.825   0.391   3.681
 3442SOL     OW11224   2.829   4.828   2.718
 3442SOL    HW111225   2.900   4.788   2.775
 3442SOL    HW211226   2.741   4.786   2.740
 3443SOL     OW11227   5.476   0.184   1.897
 3443SOL    HW111228   5.570   0.208   1.873
 3443SOL    HW211229   5.476   0.098   1.949
 3444SOL     OW11230   4.830   5.363   0.152
 3444SOL    HW111231   4.796   5.339   0.242
 3444SOL    HW211232   4.861   5.280   0.105
 3445SOL     OW11233   6.112   5.314   4.368
 3445SOL    HW111234   6.137   5.254   4.292
 3445SOL    HW211235   6.180   5.387   4.377
 3446SOL     OW11236   6.036   0.921   2.647
 3446SOL    HW111237   5.971   0.847   2.663
 3446SOL    HW211238   6.005   1.003   2.695
 3447SOL     OW11239   5.217   5.098   1.222
 3447SOL    HW111240   5.276   5.127   1.146
 3447SOL    HW211241   5.274   5.077   1.302
 3448SOL     OW11242   3.077   0.202   0.650
 3448SOL    HW111243   3.103   0.156   0.735
 3448SOL    HW211244   3.083   0.301   0.663
 3449SOL     OW11245   6.423   6.714   3.956
 3449SOL    HW111246   6.373   6.758   4.031
 3449SOL    HW211247   6.481   6.641   3.993
 3450SOL     OW11248   0.409   2.843   6.641
 3450SOL    HW111249   0.354   2.926   6.636
 3450SOL    HW211250   0.371   2.774   6.580
 3451SOL     OW11251   1.537   5.643   3.081
 3451SOL    HW111252   1.579   5.733   3.072
 3451SOL    HW211253   1.445   5.653   3.118
 3452SOL     OW11254   5.786   2.144   6.643
 3452SOL    HW111255   5.759   2.240   6.641
 3452SOL    HW211256   5.733   2.096   6.713
 3453SOL     OW11257   0.184   6.658   6.063
 3453SOL    HW111258   0.094   6.630   6.030
 3453SOL    HW211259   0.214   6.738   6.011
 3454SOL     OW11260   1.634   0.884   6.877
 3454SOL    HW111261   1.583   0.804   6.909
 3454SOL    HW211262   1.699   0.856   6.807
 3455SOL     OW11263   2.037   3.065   4.040
 3455SOL    HW111264   2.025   2.986   4.100
 3455SOL    HW211265   2.055   3.146   4.096
 3456SOL     OW11266   5.321   5.985   2.419
 3456SOL    HW111267   5.371   5.905   2.388
 3456SOL    HW211268   5.244   5.957   2.477
 3457SOL     OW11269   2.389   5.529   4.153
 3457SOL    HW111270   2.477   5.565   4.125
 3457SOL    HW211271   2.400   5.435   4.185
 3458SOL     OW11272   4.754   6.855   0.607
 3458SOL    HW111273   4.693   6.904   0.545
 3458SOL    HW211274   4.847   6.854   0.568
 3459SOL     OW11275   6.396   3.969   2.645
 3459SOL    HW111276   6.320   3.976   2.580
 3459SOL    HW211277   6.409   3.874   2.672
 3460SOL     OW11278   2.494   3.355   0.323
 3460SOL    HW111279   2.563   3.283   0.321
 3460SOL    HW211280   2.452   3.359   0.413
 3461SOL     OW11281   4.446   5.910   4.421
 3461SOL    HW111282   4.412   5.827   4.376
 3461SOL    HW211283   4.469   5.979   4.352
 3462SOL     OW11284   0.252   3.311   2.236
 3462SOL    HW111285   0.346   3.345   2.238
 3462SOL    HW211286   0.189   3.388   2.245
 3463SOL     OW11287   1.147   3.379   3.379
 3463SOL    HW111288   1.062   3.327   3.392
 3463SOL    HW211289   1.186   3.403   3.469
 3464SOL     OW11290   6.730   2.569   6.558
 3464SOL    HW111291   6.790   2.559   6.638
 3464SOL    HW211292   6.640   2.529   6.579
 3465SOL     OW11293   0.484   2.600   2.143
 3465SOL    HW111294   0.387   2.622   2.154
 3465SOL    HW211295   0.532   2.678   2.103
 3466SOL     OW11296   6.503   4.682   6.628
 3466SOL    HW111297   6.548   4.710   6.543
 3466SOL    HW211298   6.462   4.762   6.671
 3467SOL     OW11299   2.136   1.687   0.997
 3467SOL    HW111300   2.037   1.694   1.011
 3467SOL    HW211301   2.184   1.738   1.068
 3468SOL     OW11302   5.354   0.755   2.970
 3468SOL    HW111303   5.345   0.712   3.060
 3468SOL    HW211304   5.449   0.783   2.956
 3469SOL     OW11305   4.799   0.689   4.227
 3469SOL    HW111306   4.867   0.735   4.285
 3469SOL    HW211307   4.729   0.648   4.285
 3470SOL     OW11308   0.060   2.279   1.866
 3470SOL    HW111309   0.093   2.245   1.778
 3470SOL    HW211310   0.049   2.202   1.930
 3471SOL     OW11311   4.680   4.247   4.388
 3471SOL    HW111312   4.615   4.311   4.427
 3471SOL    HW211313   4.685   4.259   4.289
 3472SOL     OW11314   2.766   1.090   2.225
 3472SOL    HW111315   2.786   1.186   2.246
 3472SOL    HW211316   2.691   1.086   2.158
 3473SOL     OW11317   0.089   2.618   2.336
 3473SOL    HW111318   0.154   2.554   2.293
 3473SOL    HW211319   0.139   2.698   2.369
 3474SOL     OW11320   0.261   4.613   2.613
 3474SOL    HW111321   0.214   4.540   2.662
 3474SOL    HW211322   0.260   4.594   2.515
 3475SOL     OW11323   1.127   4.172   3.759
 3475SOL    HW111324   1.105   4.240   3.690
 3475SOL    HW211325   1.045   4.149   3.811
 3476SOL     OW11326   2.069   1.858   2.765
 3476SOL    HW111327   1.993   1.858   2.829
 3476SOL    HW211328   2.049   1.798   2.688
 3477SOL     OW11329   1.962   5.050   1.049
 3477SOL    HW111330   1.863   5.040   1.050
 3477SOL    HW211331   1.997   5.057   1.142
 3478SOL     OW11332   2.353   5.685   6.040
 3478SOL    HW111333   2.322   5.595   6.010
 3478SOL    HW211334   2.382   5.680   6.135
 3479SOL     OW11335   1.012   0.793   2.545
 3479SOL    HW111336   0.982   0.865   2.482
 3479SOL    HW211337   1.095   0.750   2.509
 3480SOL     OW11338   6.694   5.471   4.666
 3480SOL    HW111339   6.791   5.459   4.686
 3480SOL    HW211340   6.655   5.538   4.729
 3481SOL     OW11341   5.266   0.462   0.168
 3481SOL    HW111342   5.216   0.424   0.090
 3481SOL    HW211343   5.350   0.505   0.136
 3482SOL     OW11344   6.539   1.110   2.369
 3482SOL    HW111345   6.515   1.196   2.324
 3482SOL    HW211346   6.638   1.097   2.365
 3483SOL     OW11347   5.055   1.834   1.627
 3483SOL    HW111348   5.075   1.777   1.548
 3483SOL    HW211349   4.958   1.824   1.652
 3484SOL     OW11350   0.768   2.541   0.479
 3484SOL    HW111351   0.719   2.609   0.424
 3484SOL    HW211352   0.864   2.568   0.487
 3485SOL     OW11353   1.484   1.813   4.409
 3485SOL    HW111354   1.438   1.808   4.321
 3485SOL    HW211355   1.572   1.765   4.404
 3486SOL     OW11356   2.625   0.379   3.456
 3486SOL    HW111357   2.703   0.345   3.402
 3486SOL    HW211358   2.541   0.342   3.417
 3487SOL     OW11359   6.983   2.056   0.420
 3487SOL    HW111360   6.933   2.065   0.333
 3487SOL    HW211361   6.923   2.080   0.496
 3488SOL     OW11362   6.079   0.545   4.803
 3488SOL    HW111363   6.106   0.639   4.825
 3488SOL    HW211364   5.985   0.529   4.833
 3489SOL     OW11365   4.088   0.645   2.014
 3489SOL    HW111366   4.056   0.553   2.038
 3489SOL    HW211367   4.034   0.713   2.064
 3490SOL     OW11368   4.235   3.730   1.269
 3490SOL    HW111369   4.187   3.690   1.191
 3490SOL    HW211370   4.270   3.820   1.244
 3491SOL     OW11371   4.741   2.455   5.621
 3491SOL    HW111372   4.694   2.519   5.560
 3491SOL    HW211373   4.742   2.492   5.714
 3492SOL     OW11374   6.516   4.489   0.790
 3492SOL    HW111375   6.538   4.572   0.740
 3492SOL    HW211376   6.460   4.429   0.732
 3493SOL     OW11377   4.750   4.210   4.837
 3493SOL    HW111378   4.694   4.291   4.854
 3493SOL    HW211379   4.749   4.152   4.918
 3494SOL     OW11380   3.078   1.043   1.980
 3494SOL    HW111381   3.059   0.955   1.937
 3494SOL    HW211382   3.038   1.116   1.924
 3495SOL     OW11383   5.944   4.757   1.414
 3495SOL    HW111384   6.011   4.724   1.347
 3495SOL    HW211385   5.929   4.687   1.483
 3496SOL     OW11386   6.217   5.197   0.647
 3496SOL    HW111387   6.228   5.262   0.723
 3496SOL    HW211388   6.204   5.249   0.562
 3497SOL     OW11389   2.319   1.030   3.836
 3497SOL    HW111390   2.355   1.059   3.747
 3497SOL    HW211391   2.355   1.090   3.907
 3498SOL     OW11392   3.109   1.549   1.146
 3498SOL    HW111393   3.116   1.550   1.046
 3498SOL    HW211394   3.013   1.560   1.173
 3499SOL     OW11395   5.758   3.803   4.304
 3499SOL    HW111396   5.841   3.859   4.300
 3499SOL    HW211397   5.677   3.862   4.305
 3500SOL     OW11398   2.062   3.335   4.177
 3500SOL    HW111399   2.090   3.380   4.262
 3500SOL    HW211400   1.962   3.336   4.172
 3501SOL     OW11401   2.668   5.531   5.813
 3501SOL    HW111402   2.619   5.598   5.869
 3501SOL    HW211403   2.634   5.439   5.833
 3502SOL     OW11404   6.736   2.130   1.854
 3502SOL    HW111405   6.692   2.192   1.789
 3502SOL    HW211406   6.798   2.068   1.805
 3503SOL     OW11407   5.960   5.867   4.654
 3503SOL    HW111408   5.938   5.927   4.730
 3503SOL    HW211409   5.971   5.921   4.571
 3504SOL     OW11410   2.580   0.587   1.899
 3504SOL    HW111411   2.568   0.488   1.902
 3504SOL    HW211412   2.593   0.622   1.991
 3505SOL     OW11413   5.372   4.281   6.044
 3505SOL    HW111414   5.467   4.307   6.065
 3505SOL    HW211415   5.325   4.359   6.005
 3506SOL     OW11416   5.322   4.873   5.456
 3506SOL    HW111417   5.337   4.939   5.529
 3506SOL    HW211418   5.272   4.795   5.492
 3507SOL     OW11419   2.574   0.850   0.961
 3507SOL    HW111420   2.529   0.929   1.001
 3507SOL    HW211421   2.638   0.811   1.027
 3508SOL     OW11422   2.163   2.316   6.026
 3508SOL    HW111423   2.076   2.301   5.979
 3508SOL    HW211424   2.238   2.289   5.966
 3509SOL     OW11425   4.904   0.422   6.683
 3509SOL    HW111426   4.968   0.496   6.703
 3509SOL    HW211427   4.895   0.362   6.762
 3510SOL     OW11428   1.513   1.041   1.958
 3510SOL    HW111429   1.458   1.107   1.907
 3510SOL    HW211430   1.608   1.071   1.958
 3511SOL     OW11431   2.016   4.847   1.663
 3511SOL    HW111432   1.949   4.793   1.612
 3511SOL    HW211433   1.967   4.913   1.721
 3512SOL     OW11434   0.581   4.694   0.341
 3512SOL    HW111435   0.482   4.684   0.326
 3512SOL    HW211436   0.627   4.703   0.253
 3513SOL     OW11437   5.312   2.273   0.301
 3513SOL    HW111438   5.288   2.200   0.237
 3513SOL    HW211439   5.401   2.311   0.275
 3514SOL     OW11440   0.317   1.415   1.802
 3514SOL    HW111441   0.222   1.429   1.831
 3514SOL    HW211442   0.342   1.484   1.734
 3515SOL     OW11443   4.211   5.798   3.252
 3515SOL    HW111444   4.138   5.818   3.317
 3515SOL    HW211445   4.198   5.852   3.169
 3516SOL     OW11446   5.122   6.802   0.918
 3516SOL    HW111447   5.161   6.894   0.923
 3516SOL    HW211448   5.022   6.808   0.925
 3517SOL     OW11449   0.998   2.094   1.011
 3517SOL    HW111450   0.991   2.167   0.943
 3517SOL    HW211451   1.050   2.127   1.090
 3518SOL     OW11452   4.978   2.849   4.229
 3518SOL    HW111453   4.960   2.804   4.316
 3518SOL    HW211454   4.897   2.842   4.170
 3519SOL     OW11455   1.525   1.016   6.344
 3519SOL    HW111456   1.452   0.948   6.350
 3519SOL    HW211457   1.613   0.972   6.360
 3520SOL     OW11458   3.135   5.450   0.047
 3520SOL    HW111459   3.186   5.536   0.046
 3520SOL    HW211460   3.049   5.461   7.016
 3521SOL     OW11461   4.824   2.405   0.193
 3521SOL    HW111462   4.791   2.490   0.235
 3521SOL    HW211463   4.891   2.427   0.123
 3522SOL     OW11464   0.170   4.694   1.264
 3522SOL    HW111465   0.108   4.746   1.205
 3522SOL    HW211466   0.144   4.597   1.262
 3523SOL     OW11467   1.202   4.571   6.147
 3523SOL    HW111468   1.128   4.505   6.157
 3523SOL    HW211469   1.220   4.615   6.235
 3524SOL     OW11470   4.724   1.597   2.006
 3524SOL    HW111471   4.699   1.543   1.926
 3524SOL    HW211472   4.643   1.615   2.061
 3525SOL     OW11473   0.142   4.421   3.231
 3525SOL    HW111474   0.170   4.494   3.293
 3525SOL    HW211475   0.175   4.333   3.265
 3526SOL     OW11476   2.343   6.647   4.038
 3526SOL    HW111477   2.306   6.595   3.962
 3526SOL    HW211478   2.426   6.695   4.009
 3527SOL     OW11479   5.709   3.522   6.399
 3527SOL    HW111480   5.772   3.543   6.474
 3527SOL    HW211481   5.637   3.591   6.396
 3528SOL     OW11482   1.320   6.067   5.321
 3528SOL    HW111483   1.387   6.140   5.315
 3528SOL    HW211484   1.321   6.028   5.413
 3529SOL     OW11485   3.757   0.492   0.013
 3529SOL    HW111486   3.774   0.520   0.107
 3529SOL    HW211487   3.726   0.572   6.980
 3530SOL     OW11488   6.439   5.202   2.340
 3530SOL    HW111489   6.503   5.138   2.298
 3530SOL    HW211490   6.466   5.296   2.317
 3531SOL     OW11491   5.268   3.264   0.743
 3531SOL    HW111492   5.325   3.290   0.665
 3531SOL    HW211493   5.174   3.295   0.727
 3532SOL     OW11494   2.933   0.446   2.082
 3532SOL    HW111495   2.978   0.446   1.992
 3532SOL    HW211496   3.002   0.451   2.154
 3533SOL     OW11497   1.282   1.653   2.890
 3533SOL    HW111498   1.302   1.742   2.850
 3533SOL    HW211499   1.183   1.643   2.901
 3534SOL     OW11500   6.577   1.901   0.858
 3534SOL    HW111501   6.523   1.847   0.923
 3534SOL    HW211502   6.642   1.841   0.812
 3535SOL     OW11503   1.564   5.722   0.489
 3535SOL    HW111504   1.484   5.769   0.526
 3535SOL    HW211505   1.608   5.668   0.561
 3536SOL     OW11506   2.816   1.671   3.299
 3536SOL    HW111507   2.748   1.744   3.297
 3536SOL    HW211508   2.895   1.698   3.245
 3537SOL     OW11509   3.258   6.786   2.466
 3537SOL    HW111510   3.212   6.707   2.505
 3537SOL    HW211511   3.216   6.870   2.501
 3538SOL     OW11512   1.591   6.819   6.231
 3538SOL    HW111513   1.497   6.830   6.198
 3538SOL    HW211514   1.649   6.790   6.155
 3539SOL     OW11515   4.428   3.135   5.700
 3539SOL    HW111516   4.383   3.208   5.649
 3539SOL    HW211517   4.359   3.076   5.742
 3540SOL     OW11518   2.481   2.254   5.430
 3540SOL    HW111519   2.571   2.215   5.447
 3540SOL    HW211520   2.491   2.344   5.388
 3541SOL     OW11521   1.790   2.847   6.027
 3541SOL    HW111522   1.839   2.803   6.102
 3541SOL    HW211523   1.769   2.780   5.957
 3542SOL     OW11524   1.863   5.392   2.892
 3542SOL    HW111525   1.932   5.447   2.940
 3542SOL    HW211526   1.877   5.402   2.793
 3543SOL     OW11527   1.076   2.508   4.646
 3543SOL    HW111528   1.140   2.531   4.573
 3543SOL    HW211529   1.119   2.526   4.734
 3544SOL     OW11530   2.578   4.076   6.397
 3544SOL    HW111531   2.552   4.001   6.337
 3544SOL    HW211532   2.671   4.107   6.375
 3545SOL     OW11533   4.395   5.723   0.662
 3545SOL    HW111534   4.332   5.801   0.655
 3545SOL    HW211535   4.378   5.660   0.587
 3546SOL     OW11536   1.528   4.292   4.395
 3546SOL    HW111537   1.524   4.379   4.346
 3546SOL    HW211538   1.596   4.232   4.351
 3547SOL     OW11539   6.817   4.563   3.945
 3547SOL    HW111540   6.762   4.485   3.914
 3547SOL    HW211541   6.901   4.569   3.891
 3548SOL     OW11542   5.591   1.634   5.801
 3548SOL    HW111543   5.616   1.617   5.896
 3548SOL    HW211544   5.656   1.699   5.760
 3549SOL     OW11545   6.945   5.221   5.807
 3549SOL    HW111546   6.997   5.222   5.722
 3549SOL    HW211547   6.944   5.129   5.845
 3550SOL     OW11548   6.516   2.075   2.846
 3550SOL    HW111549   6.453   2.152   2.853
 3550SOL    HW211550   6.594   2.090   2.907
 3551SOL     OW11551   3.717   0.887   1.911
 3551SOL    HW111552   3.664   0.923   1.834
 3551SOL    HW211553   3.764   0.962   1.957
 3552SOL     OW11554   5.449   6.354   2.076
 3552SOL    HW111555   5.488   6.281   2.020
 3552SOL    HW211556   5.416   6.315   2.162
 3553SOL     OW11557   4.618   4.310   1.134
 3553SOL    HW111558   4.708   4.302   1.092
 3553SOL    HW211559   4.570   4.390   1.096
 3554SOL     OW11560   4.772   2.406   0.753
 3554SOL    HW111561   4.829   2.386   0.674
 3554SOL    HW211562   4.762   2.323   0.808
 3555SOL     OW11563   1.276   4.265   3.974
 3555SOL    HW111564   1.231   4.233   3.891
 3555SOL    HW211565   1.372   4.235   3.973
 3556SOL     OW11566   4.128   1.537   3.517
 3556SOL    HW111567   4.083   1.449   3.504
 3556SOL    HW211568   4.190   1.533   3.595
 3557SOL     OW11569   0.910   0.208   4.126
 3557SOL    HW111570   0.819   0.228   4.092
 3557SOL    HW211571   0.964   0.292   4.130
 3558SOL     OW11572   1.739   6.307   1.446
 3558SOL    HW111573   1.696   6.397   1.432
 3558SOL    HW211574   1.838   6.319   1.454
 3559SOL     OW11575   0.083   6.060   5.278
 3559SOL    HW111576   0.161   6.063   5.341
 3559SOL    HW211577   0.051   5.966   5.270
 3560SOL     OW11578   0.633   5.942   1.551
 3560SOL    HW111579   0.703   5.877   1.580
 3560SOL    HW211580   0.598   5.916   1.461
 3561SOL     OW11581   3.935   4.689   5.214
 3561SOL    HW111582   3.887   4.729   5.292
 3561SOL    HW211583   3.973   4.600   5.241
 3562SOL     OW11584   4.939   1.012   3.144
 3562SOL    HW111585   4.950   0.913   3.158
 3562SOL    HW211586   4.910   1.029   3.050
 3563SOL     OW11587   5.646   1.840   0.002
 3563SOL    HW111588   5.615   1.810   0.092
 3563SOL    HW211589   5.569   1.840   6.957
 3564SOL     OW11590   1.287   4.481   4.161
 3564SOL    HW111591   1.260   4.390   4.130
 3564SOL    HW211592   1.225   4.511   4.234
 3565SOL     OW11593   3.440   5.741   5.006
 3565SOL    HW111594   3.417   5.715   4.912
 3565SOL    HW211595   3.472   5.661   5.056
 3566SOL     OW11596   6.726   3.708   5.997
 3566SOL    HW111597   6.700   3.650   6.074
 3566SOL    HW211598   6.685   3.672   5.913
 3567SOL     OW11599   0.343   3.291   0.183
 3567SOL    HW111600   0.417   3.223   0.174
 3567SOL    HW211601   0.383   3.383   0.186
 3568SOL     OW11602   4.735   5.418   4.125
 3568SOL    HW111603   4.823   5.463   4.109
 3568SOL    HW211604   4.685   5.467   4.196
 3569SOL     OW11605   2.615   2.208   5.880
 3569SOL    HW111606   2.699   2.216   5.935
 3569SOL    HW211607   2.607   2.288   5.820
 3570SOL     OW11608   5.037   0.384   5.196
 3570SOL    HW111609   4.989   0.468   5.172
 3570SOL    HW211610   5.078   0.344   5.114
 3571SOL     OW11611   1.379   0.412   5.180
 3571SOL    HW111612   1.435   0.359   5.116
 3571SOL    HW211613   1.390   0.375   5.272
 3572SOL     OW11614   5.639   3.238   3.044
 3572SOL    HW111615   5.596   3.198   2.962
 3572SOL    HW211616   5.608   3.332   3.054
 3573SOL     OW11617   6.446   4.177   3.132
 3573SOL    HW111618   6.355   4.169   3.172
 3573SOL    HW211619   6.473   4.089   3.093
 3574SOL     OW11620   0.353   2.791   1.147
 3574SOL    HW111621   0.396   2.746   1.225
 3574SOL    HW211622   0.341   2.725   1.073
 3575SOL     OW11623   5.277   5.682   3.048
 3575SOL    HW111624   5.232   5.600   3.084
 3575SOL    HW211625   5.247   5.762   3.100
 3576SOL     OW11626   0.662   1.908   6.630
 3576SOL    HW111627   0.624   1.859   6.708
 3576SOL    HW211628   0.673   1.845   6.553
 3577SOL     OW11629   1.529   2.722   6.935
 3577SOL    HW111630   1.436   2.737   6.902
 3577SOL    HW211631   1.592   2.720   6.857
 3578SOL     OW11632   4.722   1.671   0.785
 3578SOL    HW111633   4.762   1.743   0.727
 3578SOL    HW211634   4.628   1.695   0.807
 3579SOL     OW11635   6.829   2.053   2.673
 3579SOL    HW111636   6.822   1.954   2.657
 3579SOL    HW211637   6.815   2.072   2.770
 3580SOL     OW11638   6.130   3.719   0.728
 3580SOL    HW111639   6.190   3.641   0.711
 3580SOL    HW211640   6.092   3.712   0.820
 3581SOL     OW11641   0.588   5.468   3.340
 3581SOL    HW111642   0.604   5.393   3.276
 3581SOL    HW211643   0.538   5.541   3.293
 3582SOL     OW11644   1.148   3.945   5.826
 3582SOL    HW111645   1.177   3.861   5.780
 3582SOL    HW211646   1.124   4.014   5.758
 3583SOL     OW11647   1.681   4.517   6.773
 3583SOL    HW111648   1.685   4.439   6.711
 3583SOL    HW211649   1.770   4.561   6.778
 3584SOL     OW11650   5.548   4.474   5.662
 3584SOL    HW111651   5.550   4.524   5.749
 3584SOL    HW211652   5.532   4.538   5.587
 3585SOL     OW11653   2.864   2.265   4.539
 3585SOL    HW111654   2.953   2.219   4.536
 3585SOL    HW211655   2.852   2.308   4.629
 3586SOL     OW11656   6.371   1.587   4.817
 3586SOL    HW111657   6.416   1.505   4.782
 3586SOL    HW211658   6.375   1.659   4.747
 3587SOL     OW11659   2.089   5.497   5.596
 3587SOL    HW111660   2.169   5.477   5.540
 3587SOL    HW211661   2.073   5.421   5.660
 3588SOL     OW11662   0.076   3.014   5.121
 3588SOL    HW111663   0.017   2.938   5.148
 3588SOL    HW211664   0.026   3.077   5.063
 3589SOL     OW11665   5.502   0.940   5.652
 3589SOL    HW111666   5.479   0.884   5.732
 3589SOL    HW211667   5.495   1.037   5.676
 3590SOL     OW11668   6.572   3.536   0.450
 3590SOL    HW111669   6.610   3.598   0.381
 3590SOL    HW211670   6.489   3.494   0.414
 3591SOL     OW11671   5.727   3.551   0.500
 3591SOL    HW111672   5.827   3.561   0.507
 3591SOL    HW211673   5.703   3.528   0.406
 3592SOL     OW11674   0.483   6.798   2.673
 3592SOL    HW111675   0.502   6.817   2.577
 3592SOL    HW211676   0.454   6.703   2.683
 3593SOL     OW11677   0.564   4.228   5.699
 3593SOL    HW111678   0.586   4.182   5.614
 3593SOL    HW211679   0.644   4.228   5.759
 3594SOL     OW11680   4.510   0.366   3.585
 3594SOL    HW111681   4.592   0.406   3.628
 3594SOL    HW211682   4.523   0.362   3.486
 3595SOL     OW11683   5.521   5.741   6.632
 3595SOL    HW111684   5.547   5.660   6.683
 3595SOL    HW211685   5.435   5.777   6.668
 3596SOL     OW11686   4.883   3.220   3.137
 3596SOL    HW111687   4.895   3.299   3.077
 3596SOL    HW211688   4.914   3.137   3.090
 3597SOL     OW11689   2.185   2.448   5.475
 3597SOL    HW111690   2.271   2.405   5.445
 3597SOL    HW211691   2.187   2.546   5.454
 3598SOL     OW11692   2.185   6.684   5.883
 3598SOL    HW111693   2.211   6.669   5.978
 3598SOL    HW211694   2.242   6.628   5.823
 3599SOL     OW11695   4.964   2.031   0.322
 3599SOL    HW111696   4.967   1.981   0.408
 3599SOL    HW211697   4.903   2.110   0.332
 3600SOL     OW11698   0.937   2.576   2.571
 3600SOL    HW111699   1.027   2.619   2.564
 3600SOL    HW211700   0.873   2.640   2.613
 3601SOL     OW11701   5.310   2.663   5.949
 3601SOL    HW111702   5.336   2.715   6.031
 3601SOL    HW211703   5.216   2.686   5.924
 3602SOL     OW11704   1.443   3.887   1.179
 3602SOL    HW111705   1.502   3.962   1.206
 3602SOL    HW211706   1.498   3.806   1.158
 3603SOL     OW11707   3.593   0.778   4.367
 3603SOL    HW111708   3.582   0.854   4.302
 3603SOL    HW211709   3.583   0.813   4.460
 3604SOL     OW11710   6.787   6.721   3.524
 3604SOL    HW111711   6.721   6.797   3.527
 3604SOL    HW211712   6.784   6.678   3.434
 3605SOL     OW11713   0.846   4.394   3.356
 3605SOL    HW111714   0.827   4.344   3.271
 3605SOL    HW211715   0.896   4.478   3.334
 3606SOL     OW11716   0.876   6.850   4.239
 3606SOL    HW111717   0.837   6.943   4.239
 3606SOL    HW211718   0.802   6.783   4.229
 3607SOL     OW11719   5.637   4.714   2.139
 3607SOL    HW111720   5.685   4.627   2.153
 3607SOL    HW211721   5.688   4.770   2.074
 3608SOL     OW11722   4.922   1.611   4.520
 3608SOL    HW111723   4.844   1.657   4.563
 3608SOL    HW211724   4.995   1.599   4.588
 3609SOL     OW11725   1.873   0.253   4.492
 3609SOL    HW111726   1.794   0.266   4.552
 3609SOL    HW211727   1.880   0.156   4.467
 3610SOL     OW11728   1.727   0.825   6.360
 3610SOL    HW111729   1.813   0.821   6.309
 3610SOL    HW211730   1.711   0.738   6.405
 3611SOL     OW11731   4.235   5.028   3.815
 3611SOL    HW111732   4.231   4.942   3.866
 3611SOL    HW211733   4.288   5.095   3.868
 3612SOL     OW11734   0.764   0.615   6.451
 3612SOL    HW111735   0.798   0.633   6.543
 3612SOL    HW211736   0.665   0.608   6.452
 3613SOL     OW11737   4.624   4.712   2.313
 3613SOL    HW111738   4.677   4.777   2.259
 3613SOL    HW211739   4.580   4.646   2.252
 3614SOL     OW11740   3.588   3.559   0.766
 3614SOL    HW111741   3.502   3.536   0.811
 3614SOL    HW211742   3.651   3.481   0.771
 3615SOL     OW11743   5.313   2.807   6.214
 3615SOL    HW111744   5.360   2.737   6.269
 3615SOL    HW211745   5.350   2.897   6.236
 3616SOL     OW11746   0.963   0.718   6.259
 3616SOL    HW111747   1.010   0.788   6.312
 3616SOL    HW211748   0.913   0.658   6.321
 3617SOL     OW11749   3.977   0.575   6.036
 3617SOL    HW111750   4.069   0.567   6.075
 3617SOL    HW211751   3.956   0.672   6.020
 3618SOL     OW11752   2.417   3.246   5.337
 3618SOL    HW111753   2.464   3.186   5.273
 3618SOL    HW211754   2.466   3.334   5.342
 3619SOL     OW11755   5.730   3.085   6.280
 3619SOL    HW111756   5.665   3.152   6.245
 3619SOL    HW211757   5.787   3.127   6.351
 3620SOL     OW11758   5.742   5.729   5.292
 3620SOL    HW111759   5.695   5.676   5.222
 3620SOL    HW211760   5.699   5.711   5.381
 3621SOL     OW11761   2.976   3.220   4.600
 3621SOL    HW111762   3.024   3.149   4.653
 3621SOL    HW211763   2.954   3.297   4.660
 3622SOL     OW11764   1.975   1.205   0.344
 3622SOL    HW111765   1.877   1.198   0.362
 3622SOL    HW211766   2.012   1.282   0.396
 3623SOL     OW11767   6.412   5.884   4.489
 3623SOL    HW111768   6.480   5.922   4.552
 3623SOL    HW211769   6.363   5.809   4.533
 3624SOL     OW11770   1.300   0.136   2.635
 3624SOL    HW111771   1.294   0.191   2.718
 3624SOL    HW211772   1.307   0.039   2.660
 3625SOL     OW11773   0.254   3.438   6.479
 3625SOL    HW111774   0.308   3.459   6.397
 3625SOL    HW211775   0.222   3.523   6.520
 3626SOL     OW11776   0.593   3.328   5.608
 3626SOL    HW111777   0.564   3.240   5.569
 3626SOL    HW211778   0.582   3.326   5.707
 3627SOL     OW11779   4.284   3.121   1.431
 3627SOL    HW111780   4.342   3.115   1.512
 3627SOL    HW211781   4.232   3.206   1.433
 3628SOL     OW11782   1.134   1.511   1.940
 3628SOL    HW111783   1.192   1.579   1.986
 3628SOL    HW211784   1.137   1.425   1.991
 3629SOL     OW11785   0.552   0.005   5.240
 3629SOL    HW111786   0.613   6.984   5.173
 3629SOL    HW211787   0.573   0.103   5.250
 3630SOL     OW11788   6.269   2.387   3.790
 3630SOL    HW111789   6.281   2.486   3.782
 3630SOL    HW211790   6.268   2.361   3.886
 3631SOL     OW11791   1.770   0.228   3.094
 3631SOL    HW111792   1.719   0.312   3.074
 3631SOL    HW211793   1.745   0.195   3.185
 3632SOL     OW11794   5.061   4.847   0.606
 3632SOL    HW111795   5.134   4.881   0.546
 3632SOL    HW211796   4.973   4.860   0.562
 3633SOL     OW11797   4.373   2.722   5.789
 3633SOL    HW111798   4.456   2.695   5.739
 3633SOL    HW211799   4.398   2.783   5.863
 3634SOL     OW11800   2.220   5.847   6.268
 3634SOL    HW111801   2.199   5.865   6.172
 3634SOL    HW211802   2.178   5.917   6.325
 3635SOL     OW11803   2.822   1.050   1.061
 3635SOL    HW111804   2.753   0.994   1.016
 3635SOL    HW211805   2.783   1.138   1.086
 3636SOL     OW11806   6.750   5.488   0.688
 3636SOL    HW111807   6.688   5.539   0.628
 3636SOL    HW211808   6.706   5.403   0.717
 3637SOL     OW11809   0.419   2.638   1.353
 3637SOL    HW111810   0.454   2.553   1.314
 3637SOL    HW211811   0.350   2.616   1.423
 3638SOL     OW11812   6.703   3.934   2.813
 3638SOL    HW111813   6.709   3.873   2.734
 3638SOL    HW211814   6.725   4.027   2.786
 3639SOL     OW11815   3.921   5.028   6.588
 3639SOL    HW111816   3.919   5.015   6.489
 3639SOL    HW211817   3.836   5.070   6.619
 3640SOL     OW11818   5.018   1.837   0.008
 3640SOL    HW111819   5.035   1.817   0.104
 3640SOL    HW211820   5.091   1.799   6.971
 3641SOL     OW11821   6.052   3.747   1.579
 3641SOL    HW111822   6.090   3.673   1.634
 3641SOL    HW211823   6.061   3.834   1.627
 3642SOL     OW11824   4.523   2.194   6.712
 3642SOL    HW111825   4.539   2.280   6.664
 3642SOL    HW211826   4.574   2.121   6.668
 3643SOL     OW11827   4.172   5.929   5.431
 3643SOL    HW111828   4.100   5.958   5.368
 3643SOL    HW211829   4.147   5.953   5.525
 3644SOL     OW11830   2.094   1.190   1.446
 3644SOL    HW111831   2.078   1.093   1.425
 3644SOL    HW211832   2.120   1.238   1.362
 3645SOL     OW11833   1.480   3.276   4.328
 3645SOL    HW111834   1.391   3.256   4.287
 3645SOL    HW211835   1.470   3.282   4.428
 3646SOL     OW11836   1.425   4.092   5.460
 3646SOL    HW111837   1.454   4.150   5.384
 3646SOL    HW211838   1.495   4.091   5.531
 3647SOL     OW11839   2.399   5.994   6.808
 3647SOL    HW111840   2.333   6.068   6.794
 3647SOL    HW211841   2.487   6.020   6.770
 3648SOL     OW11842   5.164   5.850   3.693
 3648SOL    HW111843   5.186   5.947   3.689
 3648SOL    HW211844   5.065   5.839   3.707
 3649SOL     OW11845   6.247   3.227   0.203
 3649SOL    HW111846   6.270   3.130   0.201
 3649SOL    HW211847   6.279   3.270   0.118
 3650SOL     OW11848   6.261   4.876   0.873
 3650SOL    HW111849   6.186   4.912   0.929
 3650SOL    HW211850   6.330   4.834   0.932
 3651SOL     OW11851   1.957   0.517   4.841
 3651SOL    HW111852   1.963   0.560   4.751
 3651SOL    HW211853   2.046   0.522   4.886
 3652SOL     OW11854   5.992   6.716   3.484
 3652SOL    HW111855   5.918   6.680   3.426
 3652SOL    HW211856   6.073   6.658   3.473
 3653SOL     OW11857   1.582   1.121   3.012
 3653SOL    HW111858   1.574   1.215   3.047
 3653SOL    HW211859   1.668   1.111   2.963
 3654SOL     OW11860   4.661   5.775   0.674
 3654SOL    HW111861   4.563   5.764   0.656
 3654SOL    HW211862   4.709   5.691   0.650
 3655SOL     OW11863   3.602   0.956   4.173
 3655SOL    HW111864   3.559   1.047   4.169
 3655SOL    HW211865   3.702   0.967   4.171
 3656SOL     OW11866   0.812   5.749   1.601
 3656SOL    HW111867   0.849   5.729   1.692
 3656SOL    HW211868   0.862   5.695   1.533
 3657SOL     OW11869   4.682   5.538   4.526
 3657SOL    HW111870   4.775   5.556   4.561
 3657SOL    HW211871   4.656   5.444   4.548
 3658SOL     OW11872   2.254   5.170   6.710
 3658SOL    HW111873   2.261   5.071   6.694
 3658SOL    HW211874   2.318   5.196   6.782
 3659SOL     OW11875   1.317   2.275   5.993
 3659SOL    HW111876   1.320   2.253   5.896
 3659SOL    HW211877   1.266   2.204   6.042
 3660SOL     OW11878   6.055   5.723   4.306
 3660SOL    HW111879   5.977   5.661   4.310
 3660SOL    HW211880   6.134   5.682   4.352
 3661SOL     OW11881   0.651   0.465   5.104
 3661SOL    HW111882   0.652   0.560   5.135
 3661SOL    HW211883   0.579   0.452   5.037
 3662SOL     OW11884   3.893   1.008   4.541
 3662SOL    HW111885   3.798   1.009   4.573
 3662SOL    HW211886   3.939   1.092   4.570
 3663SOL     OW11887   1.692   2.738   6.722
 3663SOL    HW111888   1.669   2.790   6.640
 3663SOL    HW211889   1.782   2.766   6.755
 3664SOL     OW11890   5.132   2.573   1.777
 3664SOL    HW111891   5.032   2.578   1.769
 3664SOL    HW211892   5.159   2.585   1.872
 3665SOL     OW11893   0.786   6.002   5.631
 3665SOL    HW111894   0.730   6.014   5.549
 3665SOL    HW211895   0.774   5.909   5.666
 3666SOL     OW11896   0.774   3.543   3.252
 3666SOL    HW111897   0.766   3.467   3.316
 3666SOL    HW211898   0.776   3.630   3.303
 3667SOL     OW11899   0.487   1.339   3.408
 3667SOL    HW111900   0.575   1.382   3.393
 3667SOL    HW211901   0.500   1.244   3.436
 3668SOL     OW11902   1.470   0.633   1.401
 3668SOL    HW111903   1.495   0.684   1.484
 3668SOL    HW211904   1.383   0.668   1.366
 3669SOL     OW11905   5.483   1.360   3.862
 3669SOL    HW111906   5.489   1.261   3.875
 3669SOL    HW211907   5.496   1.382   3.766
 3670SOL     OW11908   2.816   5.611   0.564
 3670SOL    HW111909   2.878   5.641   0.637
 3670SOL    HW211910   2.768   5.528   0.592
 3671SOL     OW11911   6.775   1.839   4.121
 3671SOL    HW111912   6.744   1.866   4.030
 3671SOL    HW211913   6.862   1.790   4.114
 3672SOL     OW11914   4.732   2.121   2.548
 3672SOL    HW111915   4.670   2.144   2.622
 3672SOL    HW211916   4.760   2.025   2.556
 3673SOL     OW11917   3.821   5.437   6.776
 3673SOL    HW111918   3.809   5.510   6.844
 3673SOL    HW211919   3.913   5.444   6.736
 3674SOL     OW11920   1.659   5.825   5.271
 3674SOL    HW111921   1.597   5.873   5.209
 3674SOL    HW211922   1.734   5.885   5.297
 3675SOL     OW11923   0.936   2.417   4.048
 3675SOL    HW111924   0.878   2.427   4.129
 3675SOL    HW211925   1.024   2.461   4.064
 3676SOL     OW11926   5.677   3.335   2.594
 3676SOL    HW111927   5.612   3.406   2.566
 3676SOL    HW211928   5.717   3.293   2.512
 3677SOL     OW11929   2.552   0.451   4.934
 3677SOL    HW111930   2.555   0.351   4.937
 3677SOL    HW211931   2.468   0.483   4.979
 3678SOL     OW11932   1.848   1.326   4.201
 3678SOL    HW111933   1.857   1.281   4.112
 3678SOL    HW211934   1.771   1.389   4.200
 3679SOL     OW11935   0.037   0.289   3.238
 3679SOL    HW111936   0.069   0.366   3.183
 3679SOL    HW211937   6.958   0.297   3.254
 3680SOL     OW11938   4.697   2.828   4.407
 3680SOL    HW111939   4.661   2.736   4.396
 3680SOL    HW211940   4.635   2.881   4.464
 3681SOL     OW11941   1.060   0.763   6.622
 3681SOL    HW111942   1.123   0.791   6.550
 3681SOL    HW211943   1.030   0.843   6.673
 3682SOL     OW11944   5.595   2.715   0.241
 3682SOL    HW111945   5.602   2.628   0.291
 3682SOL    HW211946   5.531   2.775   0.287
 3683SOL     OW11947   0.101   0.708   3.667
 3683SOL    HW111948   0.005   0.696   3.692
 3683SOL    HW211949   0.134   0.625   3.623
 3684SOL     OW11950   1.274   5.364   6.902
 3684SOL    HW111951   1.217   5.346   6.982
 3684SOL    HW211952   1.370   5.346   6.923
 3685SOL     OW11953   2.331   6.052   5.671
 3685SOL    HW111954   2.321   6.019   5.577
 3685SOL    HW211955   2.347   5.975   5.732
 3686SOL     OW11956   6.580   4.840   3.687
 3686SOL    HW111957   6.625   4.921   3.649
 3686SOL    HW211958   6.563   4.854   3.784
 3687SOL     OW11959   4.879   0.026   3.579
 3687SOL    HW111960   4.821   7.000   3.647
 3687SOL    HW211961   4.822   0.061   3.505
 3688SOL     OW11962   6.358   2.978   6.660
 3688SOL    HW111963   6.297   3.008   6.587
 3688SOL    HW211964   6.340   3.032   6.742
 3689SOL     OW11965   2.280   2.106   5.362
 3689SOL    HW111966   2.358   2.162   5.389
 3689SOL    HW211967   2.202   2.165   5.341
 3690SOL     OW11968   4.896   5.818   1.152
 3690SOL    HW111969   4.911   5.722   1.176
 3690SOL    HW211970   4.852   5.824   1.063
 3691SOL     OW11971   2.749   1.937   6.517
 3691SOL    HW111972   2.670   1.885   6.483
 3691SOL    HW211973   2.799   1.975   6.439
 3692SOL     OW11974   6.575   4.698   5.975
 3692SOL    HW111975   6.667   4.659   5.973
 3692SOL    HW211976   6.508   4.625   5.990
 3693SOL     OW11977   1.680   1.686   2.985
 3693SOL    HW111978   1.596   1.638   2.958
 3693SOL    HW211979   1.759   1.626   2.970
 3694SOL     OW11980   1.641   6.802   2.479
 3694SOL    HW111981   1.662   6.853   2.395
 3694SOL    HW211982   1.671   6.707   2.468
 3695SOL     OW11983   5.617   1.665   1.856
 3695SOL    HW111984   5.646   1.593   1.918
 3695SOL    HW211985   5.629   1.754   1.901
 3696SOL     OW11986   4.028   6.854   5.390
 3696SOL    HW111987   4.057   6.880   5.298
 3696SOL    HW211988   4.073   6.912   5.458
 3697SOL     OW11989   6.773   6.220   3.014
 3697SOL    HW111990   6.823   6.299   3.050
 3697SOL    HW211991   6.737   6.241   2.923
 3698SOL     OW11992   1.805   1.197   3.518
 3698SOL    HW111993   1.785   1.104   3.548
 3698SOL    HW211994   1.885   1.195   3.458
 3699SOL     OW11995   1.606   1.626   3.694
 3699SOL    HW111996   1.582   1.711   3.647
 3699SOL    HW211997   1.689   1.588   3.655
 3700SOL     OW11998   1.676   4.942   4.935
 3700SOL    HW111999   1.738   4.975   4.864
 3700SOL    HW212000   1.651   4.847   4.915
 3701SOL     OW12001   1.023   6.369   2.793
 3701SOL    HW112002   1.050   6.379   2.889
 3701SOL    HW212003   0.990   6.276   2.778
 3702SOL     OW12004   5.483   6.526   3.130
 3702SOL    HW112005   5.534   6.442   3.147
 3702SOL    HW212006   5.386   6.510   3.149
 3703SOL     OW12007   0.896   0.229   6.820
 3703SOL    HW112008   0.836   0.235   6.741
 3703SOL    HW212009   0.975   0.171   6.798
 3704SOL     OW12010   5.121   2.783   0.863
 3704SOL    HW112011   5.028   2.817   0.849
 3704SOL    HW212012   5.182   2.821   0.794
 3705SOL     OW12013   4.842   4.728   3.958
 3705SOL    HW112014   4.942   4.732   3.967
 3705SOL    HW212015   4.818   4.659   3.890
 3706SOL     OW12016   0.350   4.541   6.859
 3706SOL    HW112017   0.315   4.633   6.841
 3706SOL    HW212018   0.291   4.496   6.926
 3707SOL     OW12019   4.401   6.077   3.969
 3707SOL    HW112020   4.449   5.995   3.936
 3707SOL    HW212021   4.330   6.103   3.903
 3708SOL     OW12022   4.199   6.784   1.289
 3708SOL    HW112023   4.179   6.784   1.191
 3708SOL    HW212024   4.280   6.727   1.306
 3709SOL     OW12025   2.722   0.279   1.718
 3709SOL    HW112026   2.747   0.224   1.639
 3709SOL    HW212027   2.756   0.372   1.707
 3710SOL     OW12028   0.569   5.472   4.925
 3710SOL    HW112029   0.513   5.478   4.842
 3710SOL    HW212030   0.576   5.376   4.953
 3711SOL     OW12031   1.151   5.777   4.916
 3711SOL    HW112032   1.053   5.786   4.934
 3711SOL    HW212033   1.168   5.698   4.858
 3712SOL     OW12034   1.503   6.247   0.090
 3712SOL    HW112035   1.408   6.274   0.073
 3712SOL    HW212036   1.538   6.197   0.011
 3713SOL     OW12037   0.574   0.274   5.289
 3713SOL    HW112038   0.499   0.327   5.330
 3713SOL    HW212039   0.627   0.333   5.228
 3714SOL     OW12040   6.026   5.060   6.336
 3714SOL    HW112041   5.953   5.065   6.404
 3714SOL    HW212042   6.048   4.965   6.316
 3715SOL     OW12043   1.127   4.983   2.127
 3715SOL    HW112044   1.089   5.031   2.047
 3715SOL    HW212045   1.053   4.961   2.191
 3716SOL     OW12046   6.054   5.627   4.747
 3716SOL    HW112047   6.040   5.713   4.698
 3716SOL    HW212048   6.021   5.551   4.690
 3717SOL     OW12049   5.899   1.315   0.546
 3717SOL    HW112050   5.832   1.359   0.487
 3717SOL    HW212051   5.977   1.284   0.492
 3718SOL     OW12052   6.936   0.258   6.654
 3718SOL    HW112053   7.002   0.325   6.686
 3718SOL    HW212054   6.887   0.294   6.575
 3719SOL     OW12055   4.123   3.279   6.281
 3719SOL    HW112056   4.146   3.194   6.327
 3719SOL    HW212057   4.114   3.353   6.348
 3720SOL     OW12058   5.656   4.009   0.615
 3720SOL    HW112059   5.685   3.971   0.528
 3720SOL    HW212060   5.609   4.096   0.600
 3721SOL     OW12061   6.999   5.157   0.712
 3721SOL    HW112062   6.938   5.165   0.633
 3721SOL    HW212063   0.056   5.221   0.701
 3722SOL     OW12064   5.717   5.923   1.770
 3722SOL    HW112065   5.778   5.847   1.795
 3722SOL    HW212066   5.635   5.919   1.826
 3723SOL     OW12067   4.715   5.530   0.554
 3723SOL    HW112068   4.804   5.489   0.574
 3723SOL    HW212069   4.642   5.464   0.574
 3724SOL     OW12070   1.276   4.240   5.832
 3724SOL    HW112071   1.304   4.327   5.792
 3724SOL    HW212072   1.351   4.204   5.888
 3725SOL     OW12073   0.630   5.921   6.622
 3725SOL    HW112074   0.565   5.997   6.622
 3725SOL    HW212075   0.657   5.900   6.716
 3726SOL     OW12076   5.113   3.918   6.148
 3726SOL    HW112077   5.014   3.924   6.162
 3726SOL    HW212078   5.155   4.007   6.167
 3727SOL     OW12079   6.240   3.241   5.043
 3727SOL    HW112080   6.159   3.184   5.029
 3727SOL    HW212081   6.319   3.183   5.061
 3728SOL     OW12082   2.015   3.740   6.787
 3728SOL    HW112083   1.997   3.703   6.878
 3728SOL    HW212084   1.931   3.740   6.733
 3729SOL     OW12085   0.814   1.029   4.245
 3729SOL    HW112086   0.897   1.003   4.294
 3729SOL    HW212087   0.737   1.029   4.308
 3730SOL     OW12088   3.989   6.407   5.697
 3730SOL    HW112089   3.946   6.497   5.700
 3730SOL    HW212090   4.070   6.411   5.639
 3731SOL     OW12091   0.211   1.301   0.205
 3731SOL    HW112092   0.306   1.271   0.197
 3731SOL    HW212093   0.205   1.376   0.271
 3732SOL     OW12094   2.240   2.434   0.644
 3732SOL    HW112095   2.319   2.374   0.642
 3732SOL    HW212096   2.270   2.528   0.663
 3733SOL     OW12097   2.112   2.169   3.326
 3733SOL    HW112098   2.029   2.202   3.371
 3733SOL    HW212099   2.138   2.233   3.254
 3734SOL     OW12100   4.366   0.590   1.474
 3734SOL    HW112101   4.307   0.521   1.517
 3734SOL    HW212102   4.346   0.595   1.376
 3735SOL     OW12103   4.084   0.546   2.337
 3735SOL    HW112104   4.065   0.591   2.425
 3735SOL    HW212105   4.045   0.454   2.338
 3736SOL     OW12106   6.824   1.099   0.898
 3736SOL    HW112107   6.884   1.179   0.897
 3736SOL    HW212108   6.831   1.053   0.987
 3737SOL     OW12109   5.873   1.385   3.554
 3737SOL    HW112110   5.848   1.467   3.503
 3737SOL    HW212111   5.971   1.383   3.569
 3738SOL     OW12112   6.583   0.178   1.193
 3738SOL    HW112113   6.580   0.179   1.293
 3738SOL    HW212114   6.656   0.240   1.161
 3739SOL     OW12115   2.586   4.364   1.501
 3739SOL    HW112116   2.553   4.280   1.544
 3739SOL    HW212117   2.521   4.395   1.432
 3740SOL     OW12118   6.191   5.453   0.164
 3740SOL    HW112119   6.186   5.363   0.120
 3740SOL    HW212120   6.163   5.523   0.099
 3741SOL     OW12121   4.238   2.808   6.621
 3741SOL    HW112122   4.232   2.764   6.710
 3741SOL    HW212123   4.229   2.907   6.631
 3742SOL     OW12124   4.391   0.300   0.568
 3742SOL    HW112125   4.365   0.393   0.544
 3742SOL    HW212126   4.319   0.236   0.540
 3743SOL     OW12127   5.280   3.883   1.139
 3743SOL    HW112128   5.240   3.838   1.219
 3743SOL    HW212129   5.352   3.946   1.169
 3744SOL     OW12130   1.105   6.050   2.107
 3744SOL    HW112131   1.077   6.056   2.011
 3744SOL    HW212132   1.126   6.142   2.141
 3745SOL     OW12133   5.446   3.809   3.000
 3745SOL    HW112134   5.460   3.748   2.922
 3745SOL    HW212135   5.386   3.765   3.066
 3746SOL     OW12136   5.838   0.069   3.815
 3746SOL    HW112137   5.923   0.078   3.764
 3746SOL    HW212138   5.761   0.087   3.754
 3747SOL     OW12139   4.803   6.276   5.515
 3747SOL    HW112140   4.727   6.281   5.580
 3747SOL    HW212141   4.778   6.219   5.438
 3748SOL     OW12142   5.188   0.634   1.769
 3748SOL    HW112143   5.149   0.721   1.739
 3748SOL    HW212144   5.288   0.642   1.773
 3749SOL     OW12145   1.996   4.697   3.881
 3749SOL    HW112146   2.031   4.628   3.944
 3749SOL    HW212147   1.973   4.654   3.794
 3750SOL     OW12148   5.873   4.114   0.734
 3750SOL    HW112149   5.892   4.204   0.693
 3750SOL    HW212150   5.791   4.076   0.691
 3751SOL     OW12151   6.688   2.874   0.813
 3751SOL    HW112152   6.703   2.833   0.903
 3751SOL    HW212153   6.751   2.833   0.747
 3752SOL     OW12154   1.096   6.967   0.723
 3752SOL    HW112155   1.088   6.976   0.822
 3752SOL    HW212156   1.074   6.873   0.696
 3753SOL     OW12157   0.013   0.719   4.183
 3753SOL    HW112158   6.971   0.760   4.251
 3753SOL    HW212159   0.020   0.781   4.104
 3754SOL     OW12160   4.292   6.317   1.866
 3754SOL    HW112161   4.365   6.288   1.805
 3754SOL    HW212162   4.303   6.414   1.887
 3755SOL     OW12163   5.258   5.400   4.570
 3755SOL    HW112164   5.274   5.443   4.659
 3755SOL    HW212165   5.346   5.370   4.532
 3756SOL     OW12166   1.942   0.149   6.256
 3756SOL    HW112167   2.004   0.203   6.314
 3756SOL    HW212168   1.960   0.169   6.160
 3757SOL     OW12169   4.262   6.125   0.103
 3757SOL    HW112170   4.211   6.079   0.030
 3757SOL    HW212171   4.215   6.111   0.190
 3758SOL     OW12172   1.813   0.991   4.285
 3758SOL    HW112173   1.731   0.990   4.228
 3758SOL    HW212174   1.829   1.083   4.319
 3759SOL     OW12175   4.163   5.033   6.096
 3759SOL    HW112176   4.096   4.995   6.160
 3759SOL    HW212177   4.239   5.072   6.147
 3760SOL     OW12178   1.266   3.020   4.292
 3760SOL    HW112179   1.242   3.080   4.368
 3760SOL    HW212180   1.267   3.073   4.207
 3761SOL     OW12181   0.693   6.937   5.007
 3761SOL    HW112182   0.696   7.015   4.945
 3761SOL    HW212183   0.786   6.914   5.037
 3762SOL     OW12184   0.853   5.650   6.693
 3762SOL    HW112185   0.793   5.729   6.706
 3762SOL    HW212186   0.840   5.586   6.769
 3763SOL     OW12187   6.538   4.938   0.144
 3763SOL    HW112188   6.616   4.880   0.168
 3763SOL    HW212189   6.470   4.935   0.217
 3764SOL     OW12190   1.439   0.422   3.647
 3764SOL    HW112191   1.450   0.397   3.743
 3764SOL    HW212192   1.463   0.345   3.589
 3765SOL     OW12193   5.252   1.444   1.145
 3765SOL    HW112194   5.294   1.364   1.187
 3765SOL    HW212195   5.159   1.422   1.115
 3766SOL     OW12196   1.317   1.068   4.380
 3766SOL    HW112197   1.330   1.161   4.348
 3766SOL    HW212198   1.375   1.051   4.459
 3767SOL     OW12199   2.174   5.475   0.228
 3767SOL    HW112200   2.246   5.469   0.297
 3767SOL    HW212201   2.085   5.476   0.274
 3768SOL     OW12202   2.536   5.823   5.453
 3768SOL    HW112203   2.529   5.760   5.530
 3768SOL    HW212204   2.455   5.882   5.451
 3769SOL     OW12205   5.585   5.793   5.038
 3769SOL    HW112206   5.554   5.700   5.057
 3769SOL    HW212207   5.679   5.790   5.003
 3770SOL     OW12208   1.919   0.304   6.635
 3770SOL    HW112209   1.956   0.380   6.689
 3770SOL    HW212210   1.877   0.237   6.695
 3771SOL     OW12211   5.753   2.866   0.092
 3771SOL    HW112212   5.674   2.823   0.137
 3771SOL    HW212213   5.826   2.877   0.159
 3772SOL     OW12214   6.949   1.527   7.003
 3772SOL    HW112215   7.012   1.550   0.057
 3772SOL    HW212216   6.881   1.599   6.993
 3773SOL     OW12217   6.209   3.006   6.421
 3773SOL    HW112218   6.168   3.041   6.337
 3773SOL    HW212219   6.148   2.939   6.463
 3774SOL     OW12220   0.485   6.460   6.983
 3774SOL    HW112221   0.477   6.422   6.890
 3774SOL    HW212222   0.432   6.545   6.989
 3775SOL     OW12223   5.249   4.417   2.101
 3775SOL    HW112224   5.281   4.472   2.179
 3775SOL    HW212225   5.237   4.322   2.130
 3776SOL     OW12226   3.689   0.967   0.731
 3776SOL    HW112227   3.639   0.882   0.749
 3776SOL    HW212228   3.787   0.946   0.720
 3777SOL     OW12229   2.978   4.810   4.450
 3777SOL    HW112230   2.947   4.797   4.544
 3777SOL    HW212231   2.922   4.755   4.388
 3778SOL     OW12232   2.642   5.246   3.005
 3778SOL    HW112233   2.643   5.298   2.920
 3778SOL    HW212234   2.733   5.209   3.023
 3779SOL     OW12235   1.652   4.718   0.945
 3779SOL    HW112236   1.573   4.666   0.911
 3779SOL    HW212237   1.729   4.706   0.882
 3780SOL     OW12238   4.431   4.783   5.747
 3780SOL    HW112239   4.475   4.835   5.820
 3780SOL    HW212240   4.490   4.784   5.666
 3781SOL     OW12241   1.533   6.756   4.855
 3781SOL    HW112242   1.542   6.678   4.794
 3781SOL    HW212243   1.583   6.834   4.818
 3782SOL     OW12244   2.707   1.890   4.465
 3782SOL    HW112245   2.798   1.878   4.425
 3782SOL    HW212246   2.643   1.827   4.421
 3783SOL     OW12247   5.489   6.186   5.177
 3783SOL    HW112248   5.486   6.232   5.088
 3783SOL    HW212249   5.582   6.153   5.194
 3784SOL     OW12250   5.316   2.050   3.713
 3784SOL    HW112251   5.268   2.109   3.647
 3784SOL    HW212252   5.407   2.086   3.730
 3785SOL     OW12253   1.193   1.054   6.563
 3785SOL    HW112254   1.246   1.026   6.643
 3785SOL    HW212255   1.136   1.133   6.586
 3786SOL     OW12256   2.407   6.687   2.611
 3786SOL    HW112257   2.446   6.641   2.691
 3786SOL    HW212258   2.308   6.692   2.621
 3787SOL     OW12259   5.864   6.310   3.291
 3787SOL    HW112260   5.872   6.362   3.206
 3787SOL    HW212261   5.791   6.350   3.347
 3788SOL     OW12262   0.670   3.155   3.792
 3788SOL    HW112263   0.769   3.146   3.786
 3788SOL    HW212264   0.634   3.190   3.706
 3789SOL     OW12265   0.663   2.804   4.081
 3789SOL    HW112266   0.754   2.819   4.043
 3789SOL    HW212267   0.671   2.776   4.177
 3790SOL     OW12268   1.673   3.785   5.609
 3790SOL    HW112269   1.640   3.785   5.515
 3790SOL    HW212270   1.760   3.735   5.614
 3791SOL     OW12271   6.072   0.373   0.583
 3791SOL    HW112272   6.049   0.354   0.679
 3791SOL    HW212273   5.988   0.375   0.528
 3792SOL     OW12274   6.977   1.007   3.889
 3792SOL    HW112275   0.037   0.984   3.945
 3792SOL    HW212276   6.956   1.104   3.899
 3793SOL     OW12277   3.576   0.117   3.056
 3793SOL    HW112278   3.618   0.052   2.993
 3793SOL    HW212279   3.647   0.174   3.097
 3794SOL     OW12280   2.734   4.257   1.180
 3794SOL    HW112281   2.761   4.220   1.269
 3794SOL    HW212282   2.680   4.189   1.131
 3795SOL     OW12283   3.944   6.313   6.827
 3795SOL    HW112284   3.881   6.350   6.895
 3795SOL    HW212285   4.021   6.375   6.815
 3796SOL     OW12286   2.648   1.794   1.073
 3796SOL    HW112287   2.556   1.789   1.033
 3796SOL    HW212288   2.644   1.772   1.170
 3797SOL     OW12289   5.883   4.513   2.504
 3797SOL    HW112290   5.823   4.434   2.494
 3797SOL    HW212291   5.973   4.491   2.467
 3798SOL     OW12292   3.448   5.533   3.306
 3798SOL    HW112293   3.470   5.555   3.402
 3798SOL    HW212294   3.443   5.618   3.253
 3799SOL     OW12295   0.048   2.491   4.279
 3799SOL    HW112296   6.968   2.491   4.267
 3799SOL    HW212297   0.075   2.574   4.328
 3800SOL     OW12298   5.151   2.993   4.408
 3800SOL    HW112299   5.144   2.932   4.487
 3800SOL    HW212300   5.092   2.960   4.334
 3801SOL     OW12301   6.729   6.202   3.294
 3801SOL    HW112302   6.757   6.106   3.304
 3801SOL    HW212303   6.691   6.216   3.203
 3802SOL     OW12304   0.608   2.495   3.972
 3802SOL    HW112305   0.636   2.464   4.063
 3802SOL    HW212306   0.573   2.588   3.977
 3803SOL     OW12307   3.749   2.291   1.060
 3803SOL    HW112308   3.796   2.376   1.034
 3803SOL    HW212309   3.693   2.307   1.141
 3804SOL     OW12310   5.539   1.899   3.882
 3804SOL    HW112311   5.523   1.986   3.835
 3804SOL    HW212312   5.515   1.823   3.822
 3805SOL     OW12313   2.778   3.550   1.560
 3805SOL    HW112314   2.704   3.591   1.507
 3805SOL    HW212315   2.814   3.470   1.511
 3806SOL     OW12316   2.920   3.986   0.258
 3806SOL    HW112317   2.913   3.886   0.259
 3806SOL    HW212318   2.985   4.015   0.328
 3807SOL     OW12319   2.247   0.252   3.984
 3807SOL    HW112320   2.183   0.327   3.999
 3807SOL    HW212321   2.335   0.289   3.954
 3808SOL     OW12322   4.295   0.864   1.228
 3808SOL    HW112323   4.335   0.773   1.225
 3808SOL    HW212324   4.321   0.909   1.314
 3809SOL     OW12325   6.284   2.830   0.531
 3809SOL    HW112326   6.317   2.879   0.611
 3809SOL    HW212327   6.218   2.887   0.481
 3810SOL     OW12328   4.519   2.363   5.177
 3810SOL    HW112329   4.541   2.314   5.093
 3810SOL    HW212330   4.561   2.317   5.255
 3811SOL     OW12331   0.838   4.323   3.851
 3811SOL    HW112332   0.833   4.383   3.771
 3811SOL    HW212333   0.770   4.249   3.841
 3812SOL     OW12334   5.201   0.764   5.144
 3812SOL    HW112335   5.105   0.742   5.124
 3812SOL    HW212336   5.259   0.726   5.072
 3813SOL     OW12337   4.020   4.339   0.540
 3813SOL    HW112338   4.040   4.253   0.587
 3813SOL    HW212339   4.032   4.327   0.442
 3814SOL     OW12340   0.659   6.505   1.179
 3814SOL    HW112341   0.690   6.413   1.155
 3814SOL    HW212342   0.738   6.564   1.194
 3815SOL     OW12343   4.814   2.662   0.354
 3815SOL    HW112344   4.808   2.690   0.450
 3815SOL    HW212345   4.725   2.673   0.311
 3816SOL     OW12346   6.869   5.748   0.607
 3816SOL    HW112347   6.874   5.651   0.630
 3816SOL    HW212348   6.784   5.786   0.644
 3817SOL     OW12349   5.160   3.325   3.320
 3817SOL    HW112350   5.076   3.349   3.368
 3817SOL    HW212351   5.239   3.344   3.379
 3818SOL     OW12352   5.175   0.405   0.400
 3818SOL    HW112353   5.213   0.432   0.312
 3818SOL    HW212354   5.083   0.367   0.387
 3819SOL     OW12355   5.595   5.694   1.123
 3819SOL    HW112356   5.658   5.636   1.071
 3819SOL    HW212357   5.619   5.790   1.109
 3820SOL     OW12358   6.791   6.819   4.208
 3820SOL    HW112359   6.834   6.879   4.275
 3820SOL    HW212360   6.794   6.862   4.117
 3821SOL     OW12361   2.107   2.772   1.068
 3821SOL    HW112362   2.206   2.770   1.059
 3821SOL    HW212363   2.083   2.803   1.160
 3822SOL     OW12364   1.578   5.981   2.405
 3822SOL    HW112365   1.562   6.065   2.456
 3822SOL    HW212366   1.507   5.970   2.335
 3823SOL     OW12367   4.397   2.333   5.566
 3823SOL    HW112368   4.367   2.426   5.545
 3823SOL    HW212369   4.342   2.296   5.641
 3824SOL     OW12370   6.005   2.206   5.773
 3824SOL    HW112371   6.101   2.224   5.796
 3824SOL    HW212372   5.966   2.143   5.840
 3825SOL     OW12373   0.333   6.696   1.221
 3825SOL    HW112374   0.262   6.753   1.262
 3825SOL    HW212375   0.324   6.602   1.254
 3826SOL     OW12376   1.049   3.790   6.653
 3826SOL    HW112377   0.967   3.847   6.647
 3826SOL    HW212378   1.022   3.697   6.678
 3827SOL     OW12379   3.123   3.281   0.831
 3827SOL    HW112380   3.024   3.268   0.825
 3827SOL    HW212381   3.143   3.379   0.837
 3828SOL     OW12382   4.432   2.334   1.172
 3828SOL    HW112383   4.517   2.387   1.173
 3828SOL    HW212384   4.443   2.254   1.113
 3829SOL     OW12385   1.750   4.775   4.309
 3829SOL    HW112386   1.803   4.832   4.247
 3829SOL    HW212387   1.661   4.818   4.326
 3830SOL     OW12388   1.237   0.485   4.483
 3830SOL    HW112389   1.305   0.413   4.469
 3830SOL    HW212390   1.197   0.477   4.574
 3831SOL     OW12391   4.441   2.166   2.011
 3831SOL    HW112392   4.517   2.143   2.072
 3831SOL    HW212393   4.409   2.083   1.965
 3832SOL     OW12394   5.995   0.643   2.411
 3832SOL    HW112395   6.033   0.649   2.319
 3832SOL    HW212396   5.930   0.567   2.415
 3833SOL     OW12397   1.253   6.132   6.112
 3833SOL    HW112398   1.270   6.052   6.053
 3833SOL    HW212399   1.322   6.202   6.092
 3834SOL     OW12400   3.446   2.691   0.723
 3834SOL    HW112401   3.387   2.706   0.643
 3834SOL    HW212402   3.391   2.655   0.798
 3835SOL     OW12403   3.255   5.471   4.842
 3835SOL    HW112404   3.239   5.372   4.840
 3835SOL    HW212405   3.343   5.491   4.798
 3836SOL     OW12406   1.921   3.806   4.830
 3836SOL    HW112407   1.999   3.785   4.889
 3836SOL    HW212408   1.876   3.889   4.863
 3837SOL     OW12409   5.002   3.545   6.950
 3837SOL    HW112410   5.064   3.467   6.959
 3837SOL    HW212411   4.919   3.516   6.901
 3838SOL     OW12412   6.531   4.259   4.607
 3838SOL    HW112413   6.463   4.218   4.547
 3838SOL    HW212414   6.491   4.335   4.657
 3839SOL     OW12415   4.246   0.294   4.519
 3839SOL    HW112416   4.339   0.293   4.555
 3839SOL    HW212417   4.241   0.234   4.438
 3840SOL     OW12418   1.678   1.367   5.535
 3840SOL    HW112419   1.755   1.416   5.494
 3840SOL    HW212420   1.710   1.281   5.574
 3841SOL     OW12421   6.969   3.278   4.536
 3841SOL    HW112422   6.993   3.372   4.557
 3841SOL    HW212423   6.870   3.265   4.550
 3842SOL     OW12424   1.341   4.969   0.223
 3842SOL    HW112425   1.250   5.003   0.197
 3842SOL    HW212426   1.404   4.979   0.146
 3843SOL     OW12427   6.919   4.192   1.722
 3843SOL    HW112428   6.833   4.140   1.719
 3843SOL    HW212429   6.917   4.254   1.801
 3844SOL     OW12430   0.130   4.476   5.452
 3844SOL    HW112431   0.104   4.486   5.548
 3844SOL    HW212432   0.132   4.566   5.408
 3845SOL     OW12433   3.713   2.890   2.936
 3845SOL    HW112434   3.669   2.888   3.026
 3845SOL    HW212435   3.798   2.941   2.942
 3846SOL     OW12436   0.574   4.593   3.989
 3846SOL    HW112437   0.568   4.601   3.889
 3846SOL    HW212438   0.487   4.560   4.025
 3847SOL     OW12439   6.206   1.430   5.598
 3847SOL    HW112440   6.288   1.411   5.652
 3847SOL    HW212441   6.209   1.376   5.514
 3848SOL     OW12442   2.816   5.565   3.049
 3848SOL    HW112443   2.836   5.483   3.103
 3848SOL    HW212444   2.899   5.597   3.004
 3849SOL     OW12445   0.391   1.453   5.711
 3849SOL    HW112446   0.391   1.427   5.614
 3849SOL    HW212447   0.312   1.512   5.729
 3850SOL     OW12448   2.399   3.546   1.600
 3850SOL    HW112449   2.421   3.637   1.562
 3850SOL    HW212450   2.360   3.557   1.691
 3851SOL     OW12451   0.990   4.380   2.579
 3851SOL    HW112452   0.994   4.327   2.664
 3851SOL    HW212453   0.923   4.339   2.517
 3852SOL     OW12454   4.750   6.938   4.827
 3852SOL    HW112455   4.810   6.867   4.790
 3852SOL    HW212456   4.770   6.950   4.924
 3853SOL     OW12457   1.512   3.177   2.542
 3853SOL    HW112458   1.574   3.101   2.522
 3853SOL    HW212459   1.468   3.206   2.457
 3854SOL     OW12460   0.374   4.023   3.057
 3854SOL    HW112461   0.287   4.009   3.103
 3854SOL    HW212462   0.423   3.936   3.049
 3855SOL     OW12463   5.549   5.544   6.809
 3855SOL    HW112464   5.571   5.573   6.902
 3855SOL    HW212465   5.548   5.445   6.804
 3856SOL     OW12466   6.831   6.221   4.786
 3856SOL    HW112467   6.844   6.121   4.786
 3856SOL    HW212468   6.920   6.266   4.782
 3857SOL     OW12469   0.978   6.291   5.178
 3857SOL    HW112470   1.041   6.237   5.121
 3857SOL    HW212471   0.923   6.230   5.234
 3858SOL     OW12472   1.587   5.904   6.040
 3858SOL    HW112473   1.565   5.892   6.137
 3858SOL    HW212474   1.627   5.995   6.027
 3859SOL     OW12475   0.223   1.754   2.998
 3859SOL    HW112476   0.158   1.692   3.043
 3859SOL    HW212477   0.173   1.825   2.948
 3860SOL     OW12478   1.838   6.133   4.526
 3860SOL    HW112479   1.913   6.071   4.550
 3860SOL    HW212480   1.870   6.201   4.461
 3861SOL     OW12481   5.455   4.563   1.989
 3861SOL    HW112482   5.373   4.520   2.027
 3861SOL    HW212483   5.503   4.614   2.060
 3862SOL     OW12484   6.554   6.781   5.112
 3862SOL    HW112485   6.516   6.695   5.078
 3862SOL    HW212486   6.498   6.814   5.189
 3863SOL     OW12487   3.852   4.211   6.639
 3863SOL    HW112488   3.856   4.187   6.736
 3863SOL    HW212489   3.772   4.268   6.623
 3864SOL     OW12490   4.038   1.954   6.008
 3864SOL    HW112491   3.956   1.896   6.017
 3864SOL    HW212492   4.038   1.996   5.918
 3865SOL     OW12493   4.025   0.734   1.738
 3865SOL    HW112494   3.958   0.696   1.674
 3865SOL    HW212495   4.015   0.690   1.827
 3866SOL     OW12496   4.104   0.829   0.079
 3866SOL    HW112497   4.190   0.803   0.035
 3866SOL    HW212498   4.034   0.846   0.010
 3867SOL     OW12499   1.979   3.524   3.961
 3867SOL    HW112500   1.987   3.426   3.946
 3867SOL    HW212501   1.997   3.545   4.057
 3868SOL     OW12502   2.245   6.259   2.069
 3868SOL    HW112503   2.263   6.175   2.017
 3868SOL    HW212504   2.308   6.331   2.040
 3869SOL     OW12505   0.396   2.760   4.167
 3869SOL    HW112506   0.386   2.835   4.232
 3869SOL    HW212507   0.464   2.784   4.098
 3870SOL     OW12508   3.986   5.321   0.363
 3870SOL    HW112509   3.980   5.256   0.287
 3870SOL    HW212510   3.941   5.406   0.338
 3871SOL     OW12511   3.585   0.368   2.762
 3871SOL    HW112512   3.527   0.418   2.698
 3871SOL    HW212513   3.615   0.283   2.720
 3872SOL     OW12514   3.842   2.823   1.321
 3872SOL    HW112515   3.922   2.883   1.317
 3872SOL    HW212516   3.871   2.728   1.320
 3873SOL     OW12517   5.632   5.680   1.387
 3873SOL    HW112518   5.609   5.669   1.291
 3873SOL    HW212519   5.720   5.636   1.405
 3874SOL     OW12520   4.234   6.528   0.429
 3874SOL    HW112521   4.187   6.607   0.390
 3874SOL    HW212522   4.207   6.517   0.525
 3875SOL     OW12523   1.364   3.930   2.839
 3875SOL    HW112524   1.336   3.848   2.789
 3875SOL    HW212525   1.391   4.001   2.774
 3876SOL     OW12526   4.769   4.938   6.479
 3876SOL    HW112527   4.698   4.996   6.440
 3876SOL    HW212528   4.849   4.937   6.419
 3877SOL     OW12529   6.679   1.568   1.173
 3877SOL    HW112530   6.670   1.658   1.214
 3877SOL    HW212531   6.723   1.576   1.083
 3878SOL     OW12532   2.487   6.267   6.096
 3878SOL    HW112533   2.555   6.194   6.096
 3878SOL    HW212534   2.510   6.334   6.025
 3879SOL     OW12535   4.987   5.745   1.545
 3879SOL    HW112536   4.967   5.647   1.535
 3879SOL    HW212537   5.082   5.762   1.519
 3880SOL     OW12538   6.051   3.821   2.783
 3880SOL    HW112539   5.951   3.817   2.784
 3880SOL    HW212540   6.083   3.892   2.846
 3881SOL     OW12541   1.679   5.530   0.953
 3881SOL    HW112542   1.690   5.502   1.048
 3881SOL    HW212543   1.582   5.542   0.933
 3882SOL     OW12544   6.591   0.634   5.595
 3882SOL    HW112545   6.640   0.548   5.598
 3882SOL    HW212546   6.635   0.701   5.655
 3883SOL     OW12547   4.871   1.547   4.001
 3883SOL    HW112548   4.947   1.612   4.001
 3883SOL    HW212549   4.831   1.542   3.910
 3884SOL     OW12550   1.368   6.207   4.465
 3884SOL    HW112551   1.396   6.303   4.474
 3884SOL    HW212552   1.355   6.185   4.369
 3885SOL     OW12553   6.347   0.953   4.521
 3885SOL    HW112554   6.405   0.982   4.597
 3885SOL    HW212555   6.404   0.918   4.447
 3886SOL     OW12556   6.267   6.994   5.700
 3886SOL    HW112557   6.287   6.965   5.794
 3886SOL    HW212558   6.178   6.958   5.673
 3887SOL     OW12559   4.662   1.843   5.481
 3887SOL    HW112560   4.687   1.852   5.384
 3887SOL    HW212561   4.577   1.894   5.497
 3888SOL     OW12562   6.701   1.561   6.577
 3888SOL    HW112563   6.636   1.503   6.528
 3888SOL    HW212564   6.739   1.629   6.514
 3889SOL     OW12565   0.607   5.186   6.938
 3889SOL    HW112566   0.607   5.132   6.854
 3889SOL    HW212567   0.603   5.125   7.017
 3890SOL     OW12568   6.339   6.323   2.999
 3890SOL    HW112569   6.374   6.252   3.060
 3890SOL    HW212570   6.398   6.403   3.003
 3891SOL     OW12571   5.064   4.987   4.717
 3891SOL    HW112572   5.080   4.956   4.811
 3891SOL    HW212573   5.075   5.086   4.712
 3892SOL     OW12574   0.904   0.205   2.696
 3892SOL    HW112575   0.968   0.132   2.721
 3892SOL    HW212576   0.916   0.283   2.758
 3893SOL     OW12577   3.486   5.755   3.153
 3893SOL    HW112578   3.478   5.707   3.066
 3893SOL    HW212579   3.582   5.773   3.172
 3894SOL     OW12580   3.759   2.368   0.328
 3894SOL    HW112581   3.714   2.457   0.325
 3894SOL    HW212582   3.856   2.379   0.308
 3895SOL     OW12583   1.479   1.529   5.570
 3895SOL    HW112584   1.534   1.601   5.613
 3895SOL    HW212585   1.531   1.444   5.568
 3896SOL     OW12586   0.610   1.670   5.972
 3896SOL    HW112587   0.689   1.610   5.962
 3896SOL    HW212588   0.528   1.615   5.985
 3897SOL     OW12589   2.568   6.375   2.267
 3897SOL    HW112590   2.601   6.401   2.358
 3897SOL    HW212591   2.480   6.419   2.249
 3898SOL     OW12592   3.039   3.135   3.874
 3898SOL    HW112593   2.983   3.105   3.798
 3898SOL    HW212594   3.003   3.222   3.910
 3899SOL     OW12595   5.341   1.183   4.798
 3899SOL    HW112596   5.363   1.121   4.722
 3899SOL    HW212597   5.334   1.131   4.883
 3900SOL     OW12598   6.557   2.506   3.440
 3900SOL    HW112599   6.487   2.565   3.401
 3900SOL    HW212600   6.566   2.424   3.384
 3901SOL     OW12601   1.530   6.259   5.236
 3901SOL    HW112602   1.553   6.355   5.252
 3901SOL    HW212603   1.505   6.246   5.140
 3902SOL     OW12604   5.578   5.116   2.584
 3902SOL    HW112605   5.550   5.025   2.614
 3902SOL    HW212606   5.673   5.133   2.611
 3903SOL     OW12607   4.099   2.810   0.153
 3903SOL    HW112608   4.073   2.744   0.223
 3903SOL    HW212609   4.172   2.772   0.096
 3904SOL     OW12610   0.931   6.776   0.385
 3904SOL    HW112611   0.856   6.720   0.350
 3904SOL    HW212612   0.902   6.871   0.389
 3905SOL     OW12613   6.844   6.431   6.329
 3905SOL    HW112614   6.787   6.512   6.320
 3905SOL    HW212615   6.835   6.374   6.248
 3906SOL     OW12616   1.398   5.023   3.953
 3906SOL    HW112617   1.380   4.925   3.942
 3906SOL    HW212618   1.435   5.060   3.868
 3907SOL     OW12619   6.866   0.878   4.590
 3907SOL    HW112620   6.788   0.941   4.589
 3907SOL    HW212621   6.841   0.793   4.543
 3908SOL     OW12622   1.457   0.856   5.609
 3908SOL    HW112623   1.398   0.853   5.528
 3908SOL    HW212624   1.402   0.839   5.690
 3909SOL     OW12625   5.669   3.555   5.765
 3909SOL    HW112626   5.653   3.587   5.671
 3909SOL    HW212627   5.597   3.492   5.792
 3910SOL     OW12628   3.616   3.715   1.976
 3910SOL    HW112629   3.574   3.624   1.975
 3910SOL    HW212630   3.558   3.778   2.028
 3911SOL     OW12631   5.606   0.700   1.023
 3911SOL    HW112632   5.526   0.643   1.002
 3911SOL    HW212633   5.632   0.752   0.942
 3912SOL     OW12634   3.158   2.335   6.178
 3912SOL    HW112635   3.147   2.388   6.094
 3912SOL    HW212636   3.143   2.395   6.257
 3913SOL     OW12637   3.865   6.620   0.527
 3913SOL    HW112638   3.876   6.718   0.541
 3913SOL    HW212639   3.856   6.574   0.615
 3914SOL     OW12640   6.021   1.616   0.934
 3914SOL    HW112641   6.059   1.639   1.023
 3914SOL    HW212642   5.958   1.689   0.905
 3915SOL     OW12643   4.120   6.038   0.329
 3915SOL    HW112644   4.174   6.032   0.413
 3915SOL    HW212645   4.117   5.948   0.285
 3916SOL     OW12646   2.928   0.766   3.212
 3916SOL    HW112647   2.874   0.821   3.149
 3916SOL    HW212648   3.000   0.822   3.253
 3917SOL     OW12649   2.454   5.475   0.708
 3917SOL    HW112650   2.383   5.541   0.684
 3917SOL    HW212651   2.412   5.385   0.722
 3918SOL     OW12652   5.353   1.178   0.204
 3918SOL    HW112653   5.352   1.082   0.175
 3918SOL    HW212654   5.372   1.182   0.302
 3919SOL     OW12655   4.633   1.353   1.347
 3919SOL    HW112656   4.673   1.412   1.277
 3919SOL    HW212657   4.652   1.392   1.438
 3920SOL     OW12658   2.944   1.571   6.427
 3920SOL    HW112659   2.987   1.655   6.392
 3920SOL    HW212660   2.936   1.505   6.353
 3921SOL     OW12661   0.374   2.569   6.343
 3921SOL    HW112662   0.434   2.568   6.423
 3921SOL    HW212663   0.296   2.630   6.360
 3922SOL     OW12664   4.715   4.800   1.751
 3922SOL    HW112665   4.655   4.804   1.671
 3922SOL    HW212666   4.809   4.781   1.721
 3923SOL     OW12667   6.056   0.913   2.007
 3923SOL    HW112668   6.112   0.930   1.926
 3923SOL    HW212669   5.960   0.934   1.986
 3924SOL     OW12670   0.293   4.565   4.081
 3924SOL    HW112671   0.288   4.633   4.154
 3924SOL    HW212672   0.228   4.588   4.008
 3925SOL     OW12673   4.962   3.807   0.522
 3925SOL    HW112674   5.024   3.832   0.448
 3925SOL    HW212675   4.967   3.876   0.594
 3926SOL     OW12676   1.601   0.801   5.951
 3926SOL    HW112677   1.515   0.815   5.903
 3926SOL    HW212678   1.629   0.886   5.996
 3927SOL     OW12679   0.384   2.300   4.516
 3927SOL    HW112680   0.473   2.265   4.487
 3927SOL    HW212681   0.395   2.355   4.599
 3928SOL     OW12682   2.149   6.836   3.762
 3928SOL    HW112683   2.175   6.933   3.757
 3928SOL    HW212684   2.201   6.785   3.694
 3929SOL     OW12685   6.872   1.960   5.470
 3929SOL    HW112686   6.776   1.933   5.473
 3929SOL    HW212687   6.897   1.984   5.376
 3930SOL     OW12688   1.345   2.582   3.880
 3930SOL    HW112689   1.406   2.503   3.876
 3930SOL    HW212690   1.395   2.661   3.916
 3931SOL     OW12691   1.351   2.463   1.710
 3931SOL    HW112692   1.406   2.527   1.764
 3931SOL    HW212693   1.302   2.401   1.771
 3932SOL     OW12694   2.029   5.634   3.974
 3932SOL    HW112695   1.974   5.680   4.044
 3932SOL    HW212696   2.126   5.639   4.000
 3933SOL     OW12697   1.822   5.162   0.387
 3933SOL    HW112698   1.780   5.253   0.393
 3933SOL    HW212699   1.902   5.166   0.328
 3934SOL     OW12700   0.950   1.391   2.737
 3934SOL    HW112701   1.020   1.332   2.777
 3934SOL    HW212702   0.948   1.478   2.785
 3935SOL     OW12703   6.114   3.333   6.529
 3935SOL    HW112704   6.180   3.278   6.478
 3935SOL    HW212705   6.122   3.429   6.500
 3936SOL     OW12706   6.305   5.339   5.064
 3936SOL    HW112707   6.273   5.254   5.024
 3936SOL    HW212708   6.271   5.347   5.158
 3937SOL     OW12709   6.900   5.443   2.473
 3937SOL    HW112710   6.956   5.363   2.491
 3937SOL    HW212711   6.818   5.440   2.530
 3938SOL     OW12712   6.746   3.689   3.597
 3938SOL    HW112713   6.671   3.706   3.533
 3938SOL    HW212714   6.724   3.730   3.685
 3939SOL     OW12715   0.597   1.394   2.014
 3939SOL    HW112716   0.520   1.348   1.971
 3939SOL    HW212717   0.601   1.489   1.983
 3940SOL     OW12718   3.035   4.758   1.918
 3940SOL    HW112719   3.078   4.705   1.845
 3940SOL    HW212720   2.964   4.702   1.962
 3941SOL     OW12721   5.792   6.734   4.240
 3941SOL    HW112722   5.835   6.821   4.262
 3941SOL    HW212723   5.751   6.738   4.150
 3942SOL     OW12724   1.061   6.247   6.290
 3942SOL    HW112725   1.056   6.213   6.384
 3942SOL    HW212726   1.140   6.206   6.244
 3943SOL     OW12727   0.891   3.667   1.818
 3943SOL    HW112728   0.910   3.726   1.739
 3943SOL    HW212729   0.796   3.678   1.845
 3944SOL     OW12730   6.442   2.640   6.853
 3944SOL    HW112731   6.441   2.629   6.953
 3944SOL    HW212732   6.349   2.649   6.819
 3945SOL     OW12733   0.945   0.963   3.222
 3945SOL    HW112734   0.949   1.060   3.244
 3945SOL    HW212735   0.979   0.909   3.299
 3946SOL     OW12736   6.733   3.074   0.328
 3946SOL    HW112737   6.765   3.100   0.236
 3946SOL    HW212738   6.754   3.148   0.392
 3947SOL     OW12739   5.707   5.784   0.764
 3947SOL    HW112740   5.696   5.869   0.816
 3947SOL    HW212741   5.801   5.752   0.770
 3948SOL     OW12742   1.705   2.483   6.128
 3948SOL    HW112743   1.703   2.392   6.086
 3948SOL    HW212744   1.636   2.489   6.199
 3949SOL     OW12745   6.406   6.328   2.722
 3949SOL    HW112746   6.346   6.307   2.645
 3949SOL    HW212747   6.360   6.304   2.808
 3950SOL     OW12748   3.918   4.623   1.394
 3950SOL    HW112749   3.992   4.654   1.454
 3950SOL    HW212750   3.847   4.694   1.388
 3951SOL     OW12751   0.228   1.866   5.597
 3951SOL    HW112752   0.324   1.851   5.622
 3951SOL    HW212753   0.223   1.916   5.511
 3952SOL     OW12754   6.008   2.633   5.102
 3952SOL    HW112755   5.910   2.647   5.089
 3952SOL    HW212756   6.036   2.671   5.190
 3953SOL     OW12757   2.989   3.838   5.968
 3953SOL    HW112758   3.035   3.925   5.955
 3953SOL    HW212759   2.908   3.834   5.909
 3954SOL     OW12760   0.194   3.754   4.727
 3954SOL    HW112761   0.106   3.787   4.761
 3954SOL    HW212762   0.241   3.829   4.680
 3955SOL     OW12763   5.234   5.808   0.028
 3955SOL    HW112764   5.182   5.751   6.984
 3955SOL    HW212765   5.172   5.876   0.070
 3956SOL     OW12766   0.656   2.943   5.638
 3956SOL    HW112767   0.675   2.868   5.575
 3956SOL    HW212768   0.604   2.908   5.716
 3957SOL     OW12769   2.719   0.056   4.170
 3957SOL    HW112770   2.767   0.087   4.087
 3957SOL    HW212771   2.621   0.069   4.158
 3958SOL     OW12772   6.496   5.852   6.640
 3958SOL    HW112773   6.478   5.838   6.542
 3958SOL    HW212774   6.592   5.879   6.652
 3959SOL     OW12775   2.597   5.968   0.262
 3959SOL    HW112776   2.624   5.894   0.323
 3959SOL    HW212777   2.534   5.933   0.193
 3960SOL     OW12778   3.965   3.240   7.016
 3960SOL    HW112779   3.994   3.189   0.077
 3960SOL    HW212780   3.929   3.177   6.947
 3961SOL     OW12781   4.938   1.422   2.031
 3961SOL    HW112782   4.870   1.491   2.060
 3961SOL    HW212783   4.999   1.463   1.964
 3962SOL     OW12784   1.006   6.476   0.090
 3962SOL    HW112785   1.026   6.476   0.187
 3962SOL    HW212786   0.908   6.465   0.076
 3963SOL     OW12787   5.031   4.884   4.227
 3963SOL    HW112788   5.065   4.958   4.168
 3963SOL    HW212789   5.101   4.812   4.233
 3964SOL     OW12790   4.927   5.949   5.242
 3964SOL    HW112791   4.861   5.901   5.184
 3964SOL    HW212792   4.963   5.885   5.310
 3965SOL     OW12793   3.858   4.512   6.837
 3965SOL    HW112794   3.876   4.506   6.739
 3965SOL    HW212795   3.761   4.496   6.855
 3966SOL     OW12796   6.128   5.065   5.719
 3966SOL    HW112797   6.096   5.153   5.755
 3966SOL    HW212798   6.149   5.004   5.795
 3967SOL     OW12799   0.477   6.089   4.675
 3967SOL    HW112800   0.488   6.171   4.618
 3967SOL    HW212801   0.405   6.031   4.635
 3968SOL     OW12802   5.306   0.284   2.250
 3968SOL    HW112803   5.210   0.295   2.225
 3968SOL    HW212804   5.358   0.256   2.169
 3969SOL     OW12805   1.144   4.967   2.649
 3969SOL    HW112806   1.173   5.046   2.702
 3969SOL    HW212807   1.046   4.952   2.662
 3970SOL     OW12808   5.083   5.062   3.827
 3970SOL    HW112809   5.139   5.144   3.829
 3970SOL    HW212810   5.042   5.052   3.736
 3971SOL     OW12811   2.120   5.767   3.100
 3971SOL    HW112812   2.114   5.763   3.200
 3971SOL    HW212813   2.091   5.858   3.069
 3972SOL     OW12814   0.382   6.117   0.655
 3972SOL    HW112815   0.404   6.192   0.717
 3972SOL    HW212816   0.453   6.108   0.586
 3973SOL     OW12817   3.615   3.722   3.831
 3973SOL    HW112818   3.669   3.660   3.888
 3973SOL    HW212819   3.544   3.765   3.887
 3974SOL     OW12820   6.824   1.258   6.170
 3974SOL    HW112821   6.856   1.200   6.245
 3974SOL    HW212822   6.827   1.207   6.084
 3975SOL     OW12823   6.822   1.125   6.451
 3975SOL    HW112824   6.841   1.071   6.532
 3975SOL    HW212825   6.756   1.197   6.473
 3976SOL     OW12826   1.581   4.318   0.955
 3976SOL    HW112827   1.574   4.240   0.892
 3976SOL    HW212828   1.676   4.328   0.985
 3977SOL     OW12829   2.457   6.421   6.326
 3977SOL    HW112830   2.493   6.356   6.260
 3977SOL    HW212831   2.513   6.419   6.409
 3978SOL     OW12832   5.809   1.993   5.785
 3978SOL    HW112833   5.787   2.034   5.697
 3978SOL    HW212834   5.735   2.012   5.850
 3979SOL     OW12835   1.250   6.751   2.102
 3979SOL    HW112836   1.240   6.833   2.046
 3979SOL    HW212837   1.257   6.671   2.042
 3980SOL     OW12838   5.015   3.479   4.415
 3980SOL    HW112839   5.078   3.430   4.475
 3980SOL    HW212840   5.060   3.561   4.379
 3981SOL     OW12841   0.047   1.928   6.936
 3981SOL    HW112842   0.005   1.872   7.007
 3981SOL    HW212843   0.034   1.885   6.847
 3982SOL     OW12844   2.470   1.172   4.039
 3982SOL    HW112845   2.493   1.108   4.112
 3982SOL    HW212846   2.467   1.265   4.077
 3983SOL     OW12847   3.093   6.396   4.262
 3983SOL    HW112848   3.140   6.361   4.343
 3983SOL    HW212849   3.155   6.391   4.183
 3984SOL     OW12850   1.618   6.712   2.047
 3984SOL    HW112851   1.618   6.790   2.111
 3984SOL    HW212852   1.574   6.739   1.962
 3985SOL     OW12853   1.520   3.603   6.744
 3985SOL    HW112854   1.424   3.616   6.770
 3985SOL    HW212855   1.524   3.551   6.658
 3986SOL     OW12856   0.030   1.889   1.439
 3986SOL    HW112857   0.032   1.968   1.378
 3986SOL    HW212858   7.004   1.913   1.525
 3987SOL     OW12859   2.403   5.167   5.726
 3987SOL    HW112860   2.394   5.182   5.627
 3987SOL    HW212861   2.321   5.122   5.760
 3988SOL     OW12862   3.716   2.070   6.937
 3988SOL    HW112863   3.798   2.128   6.940
 3988SOL    HW212864   3.739   1.981   6.898
 3989SOL     OW12865   5.958   0.159   0.062
 3989SOL    HW112866   6.017   0.239   0.069
 3989SOL    HW212867   5.996   0.085   0.116
 3990SOL     OW12868   0.103   2.744   4.412
 3990SOL    HW112869   0.010   2.759   4.379
 3990SOL    HW212870   0.164   2.812   4.371
 3991SOL     OW12871   0.390   1.999   3.598
 3991SOL    HW112872   0.476   1.984   3.648
 3991SOL    HW212873   0.365   1.915   3.549
 3992SOL     OW12874   4.138   3.421   6.503
 3992SOL    HW112875   4.137   3.370   6.589
 3992SOL    HW212876   4.163   3.516   6.520
 3993SOL     OW12877   3.141   2.144   2.696
 3993SOL    HW112878   3.146   2.198   2.612
 3993SOL    HW212879   3.233   2.116   2.723
 3994SOL     OW12880   2.427   2.609   4.680
 3994SOL    HW112881   2.421   2.670   4.601
 3994SOL    HW212882   2.449   2.662   4.762
 3995SOL     OW12883   1.909   4.200   3.419
 3995SOL    HW112884   1.929   4.220   3.515
 3995SOL    HW212885   1.829   4.140   3.413
 3996SOL     OW12886   1.029   1.028   4.439
 3996SOL    HW112887   1.124   1.002   4.428
 3996SOL    HW212888   0.985   0.968   4.505
 3997SOL     OW12889   4.768   3.978   3.091
 3997SOL    HW112890   4.830   4.007   3.019
 3997SOL    HW212891   4.820   3.941   3.168
 3998SOL     OW12892   6.535   2.057   2.553
 3998SOL    HW112893   6.513   2.073   2.650
 3998SOL    HW212894   6.618   2.107   2.529
 3999SOL     OW12895   5.915   3.837   3.146
 3999SOL    HW112896   5.819   3.862   3.162
 3999SOL    HW212897   5.966   3.847   3.232
 4000SOL     OW12898   2.845   5.692   2.510
 4000SOL    HW112899   2.943   5.695   2.488
 4000SOL    HW212900   2.798   5.631   2.447
 4001SOL     OW12901   2.950   3.422   5.806
 4001SOL    HW112902   2.948   3.476   5.890
 4001SOL    HW212903   3.035   3.441   5.757
 4002SOL     OW12904   3.846   3.070   5.149
 4002SOL    HW112905   3.892   3.090   5.063
 4002SOL    HW212906   3.829   3.155   5.199
 4003SOL     OW12907   2.878   1.352   6.810
 4003SOL    HW112908   2.864   1.450   6.801
 4003SOL    HW212909   2.968   1.334   6.849
 4004SOL     OW12910   6.234   3.384   3.070
 4004SOL    HW112911   6.136   3.373   3.085
 4004SOL    HW212912   6.250   3.457   3.004
 4005SOL     OW12913   3.981   3.997   1.320
 4005SOL    HW112914   4.023   4.088   1.324
 4005SOL    HW212915   3.940   3.976   1.409
 4006SOL     OW12916   5.423   4.962   1.947
 4006SOL    HW112917   5.336   4.935   1.986
 4006SOL    HW212918   5.451   4.896   1.877
 4007SOL     OW12919   0.492   1.736   2.952
 4007SOL    HW112920   0.525   1.809   2.891
 4007SOL    HW212921   0.395   1.750   2.972
 4008SOL     OW12922   2.917   6.889   0.436
 4008SOL    HW112923   2.847   6.821   0.415
 4008SOL    HW212924   2.910   6.916   0.532
 4009SOL     OW12925   5.108   2.008   1.382
 4009SOL    HW112926   5.144   1.948   1.453
 4009SOL    HW212927   5.117   1.964   1.293
 4010SOL     OW12928   3.054   4.385   1.379
 4010SOL    HW112929   3.036   4.379   1.281
 4010SOL    HW212930   3.122   4.317   1.405
 4011SOL     OW12931   6.843   5.911   1.319
 4011SOL    HW112932   6.782   5.986   1.295
 4011SOL    HW212933   6.905   5.893   1.242
 4012SOL     OW12934   4.196   6.963   2.034
 4012SOL    HW112935   4.109   6.950   1.986
 4012SOL    HW212936   4.208   6.890   2.101
 4013SOL     OW12937   2.195   6.910   1.408
 4013SOL    HW112938   2.107   6.867   1.387
 4013SOL    HW212939   2.253   6.846   1.457
 4014SOL     OW12940   3.750   6.163   3.954
 4014SOL    HW112941   3.745   6.261   3.935
 4014SOL    HW212942   3.748   6.112   3.868
 4015SOL     OW12943   4.738   4.509   6.407
 4015SOL    HW112944   4.708   4.420   6.440
 4015SOL    HW212945   4.660   4.572   6.403
 4016SOL     OW12946   3.119   5.118   0.644
 4016SOL    HW112947   3.113   5.152   0.738
 4016SOL    HW212948   3.163   5.187   0.587
 4017SOL     OW12949   0.211   4.746   5.206
 4017SOL    HW112950   0.282   4.677   5.217
 4017SOL    HW212951   0.245   4.834   5.239
 4018SOL     OW12952   4.245   0.318   1.849
 4018SOL    HW112953   4.245   0.247   1.779
 4018SOL    HW212954   4.263   0.277   1.938
 4019SOL     OW12955   5.462   3.693   2.521
 4019SOL    HW112956   5.372   3.651   2.509
 4019SOL    HW212957   5.501   3.661   2.607
 4020SOL     OW12958   6.460   3.585   5.077
 4020SOL    HW112959   6.541   3.549   5.031
 4020SOL    HW212960   6.488   3.639   5.157
 4021SOL     OW12961   3.359   4.080   5.153
 4021SOL    HW112962   3.440   4.138   5.168
 4021SOL    HW212963   3.330   4.089   5.058
 4022SOL     OW12964   4.067   6.730   0.341
 4022SOL    HW112965   4.014   6.674   0.405
 4022SOL    HW212966   4.005   6.786   0.287
 4023SOL     OW12967   6.605   0.820   5.810
 4023SOL    HW112968   6.580   0.886   5.881
 4023SOL    HW212969   6.697   0.841   5.776
 4024SOL     OW12970   2.277   5.217   4.731
 4024SOL    HW112971   2.203   5.187   4.791
 4024SOL    HW212972   2.353   5.152   4.737
 4025SOL     OW12973   0.788   6.412   4.512
 4025SOL    HW112974   0.877   6.414   4.467
 4025SOL    HW212975   0.754   6.505   4.522
 4026SOL     OW12976   6.420   6.161   4.331
 4026SOL    HW112977   6.441   6.241   4.387
 4026SOL    HW212978   6.431   6.078   4.386
 4027SOL     OW12979   3.072   1.933   0.184
 4027SOL    HW112980   3.120   2.021   0.183
 4027SOL    HW212981   2.991   1.941   0.243
 4028SOL     OW12982   3.965   1.926   3.614
 4028SOL    HW112983   4.007   1.907   3.703
 4028SOL    HW212984   4.017   1.880   3.542
 4029SOL     OW12985   2.743   4.128   6.078
 4029SOL    HW112986   2.770   4.174   5.993
 4029SOL    HW212987   2.795   4.044   6.089
 4030SOL     OW12988   6.876   1.199   1.386
 4030SOL    HW112989   6.866   1.291   1.424
 4030SOL    HW212990   6.863   1.203   1.287
 4031SOL     OW12991   5.255   6.283   3.525
 4031SOL    HW112992   5.201   6.237   3.595
 4031SOL    HW212993   5.352   6.268   3.543
 4032SOL     OW12994   0.330   7.007   2.155
 4032SOL    HW112995   0.331   0.084   2.130
 4032SOL    HW212996   0.249   6.963   2.117
 4033SOL     OW12997   1.722   2.801   2.049
 4033SOL    HW112998   1.776   2.865   1.994
 4033SOL    HW212999   1.757   2.708   2.035
 4034SOL     OW13000   5.759   1.942   5.520
 4034SOL    HW113001   5.774   2.015   5.454
 4034SOL    HW213002   5.765   1.854   5.474
 4035SOL     OW13003   6.416   0.964   1.153
 4035SOL    HW113004   6.428   0.967   1.252
 4035SOL    HW213005   6.370   1.047   1.122
 4036SOL     OW13006   4.189   4.980   2.568
 4036SOL    HW113007   4.096   4.943   2.568
 4036SOL    HW213008   4.252   4.909   2.538
 4037SOL     OW13009   2.195   1.558   6.402
 4037SOL    HW113010   2.104   1.582   6.368
 4037SOL    HW213011   2.223   1.470   6.364
 4038SOL     OW13012   4.306   2.845   0.800
 4038SOL    HW113013   4.259   2.802   0.723
 4038SOL    HW213014   4.251   2.833   0.883
 4039SOL     OW13015   4.687   5.823   2.205
 4039SOL    HW113016   4.603   5.869   2.233
 4039SOL    HW213017   4.681   5.726   2.225
 4040SOL     OW13018   2.620   6.846   4.852
 4040SOL    HW113019   2.570   6.776   4.802
 4040SOL    HW213020   2.591   6.846   4.948
 4041SOL     OW13021   2.089   5.493   1.172
 4041SOL    HW113022   2.124   5.414   1.221
 4041SOL    HW213023   2.145   5.510   1.090
 4042SOL     OW13024   5.924   6.025   4.407
 4042SOL    HW113025   5.960   6.096   4.346
 4042SOL    HW213026   5.854   5.973   4.359
 4043SOL     OW13027   0.252   2.133   6.334
 4043SOL    HW113028   0.223   2.187   6.413
 4043SOL    HW213029   0.174   2.080   6.300
 4044SOL     OW13030   5.354   5.937   3.460
 4044SOL    HW113031   5.277   5.879   3.487
 4044SOL    HW213032   5.345   5.963   3.364
 4045SOL     OW13033   4.532   6.467   5.979
 4045SOL    HW113034   4.484   6.397   5.925
 4045SOL    HW213035   4.578   6.423   6.055
 4046SOL     OW13036   0.900   2.040   2.850
 4046SOL    HW113037   0.997   2.043   2.874
 4046SOL    HW213038   0.890   1.999   2.759
 4047SOL     OW13039   2.689   2.533   6.944
 4047SOL    HW113040   2.735   2.477   6.875
 4047SOL    HW213041   2.631   2.475   7.000
 4048SOL     OW13042   5.524   1.388   1.692
 4048SOL    HW113043   5.488   1.411   1.782
 4048SOL    HW213044   5.510   1.464   1.629
 4049SOL     OW13045   5.123   5.150   6.553
 4049SOL    HW113046   5.069   5.142   6.637
 4049SOL    HW213047   5.104   5.238   6.510
 4050SOL     OW13048   0.737   6.243   1.930
 4050SOL    HW113049   0.684   6.248   2.015
 4050SOL    HW213050   0.802   6.319   1.928
 4051SOL     OW13051   4.198   1.359   6.294
 4051SOL    HW113052   4.226   1.429   6.229
 4051SOL    HW213053   4.235   1.382   6.385
 4052SOL     OW13054   5.819   1.670   3.418
 4052SOL    HW113055   5.845   1.688   3.513
 4052SOL    HW213056   5.778   1.752   3.378
 4053SOL     OW13057   2.619   6.384   4.798
 4053SOL    HW113058   2.635   6.288   4.821
 4053SOL    HW213059   2.521   6.399   4.784
 4054SOL     OW13060   4.964   4.245   0.986
 4054SOL    HW113061   5.037   4.246   0.919
 4054SOL    HW213062   4.989   4.186   1.063
 4055SOL     OW13063   2.816   3.987   0.595
 4055SOL    HW113064   2.852   4.057   0.533
 4055SOL    HW213065   2.828   4.018   0.689
 4056SOL     OW13066   5.357   4.377   1.098
 4056SOL    HW113067   5.441   4.431   1.098
 4056SOL    HW213068   5.280   4.436   1.124
 4057SOL     OW13069   0.384   2.811   0.620
 4057SOL    HW113070   0.425   2.728   0.583
 4057SOL    HW213071   0.410   2.889   0.563
 4058SOL     OW13072   3.406   6.826   4.793
 4058SOL    HW113073   3.445   6.796   4.881
 4058SOL    HW213074   3.322   6.878   4.810
 4059SOL     OW13075   0.663   1.732   2.580
 4059SOL    HW113076   0.706   1.644   2.559
 4059SOL    HW213077   0.602   1.757   2.506
 4060SOL     OW13078   5.464   5.034   5.636
 4060SOL    HW113079   5.480   5.037   5.735
 4060SOL    HW213080   5.551   5.046   5.588
 4061SOL     OW13081   2.089   4.787   1.944
 4061SOL    HW113082   2.117   4.697   1.977
 4061SOL    HW213083   2.065   4.781   1.847
 4062SOL     OW13084   2.251   0.481   1.921
 4062SOL    HW113085   2.176   0.452   1.862
 4062SOL    HW213086   2.336   0.439   1.890
 4063SOL     OW13087   6.209   6.517   0.162
 4063SOL    HW113088   6.152   6.453   0.214
 4063SOL    HW213089   6.149   6.579   0.110
 4064SOL     OW13090   2.176   0.680   4.186
 4064SOL    HW113091   2.269   0.686   4.224
 4064SOL    HW213092   2.120   0.754   4.223
 4065SOL     OW13093   1.382   6.563   1.556
 4065SOL    HW113094   1.451   6.547   1.485
 4065SOL    HW213095   1.414   6.636   1.617
 4066SOL     OW13096   6.088   4.277   3.246
 4066SOL    HW113097   6.076   4.359   3.191
 4066SOL    HW213098   6.138   4.300   3.330
 4067SOL     OW13099   6.464   3.206   2.590
 4067SOL    HW113100   6.498   3.264   2.664
 4067SOL    HW213101   6.430   3.120   2.627
 4068SOL     OW13102   1.969   1.636   4.591
 4068SOL    HW113103   2.059   1.678   4.594
 4068SOL    HW213104   1.974   1.550   4.540
 4069SOL     OW13105   3.279   5.423   6.580
 4069SOL    HW113106   3.355   5.486   6.567
 4069SOL    HW213107   3.304   5.333   6.547
 4070SOL     OW13108   0.233   2.606   3.070
 4070SOL    HW113109   0.144   2.639   3.039
 4070SOL    HW213110   0.290   2.583   2.991
 4071SOL     OW13111   0.929   1.503   4.874
 4071SOL    HW113112   0.890   1.475   4.962
 4071SOL    HW213113   1.004   1.567   4.891
 4072SOL     OW13114   0.726   5.569   4.397
 4072SOL    HW113115   0.819   5.604   4.408
 4072SOL    HW213116   0.724   5.470   4.415
 4073SOL     OW13117   3.118   6.147   6.595
 4073SOL    HW113118   3.200   6.157   6.652
 4073SOL    HW213119   3.048   6.210   6.628
 4074SOL     OW13120   0.444   4.800   1.201
 4074SOL    HW113121   0.360   4.746   1.209
 4074SOL    HW213122   0.490   4.803   1.290
 4075SOL     OW13123   4.847   1.741   1.397
 4075SOL    HW113124   4.911   1.670   1.367
 4075SOL    HW213125   4.790   1.768   1.319
 4076SOL     OW13126   2.459   3.197   6.306
 4076SOL    HW113127   2.543   3.151   6.277
 4076SOL    HW213128   2.421   3.249   6.229
 4077SOL     OW13129   4.006   1.544   0.076
 4077SOL    HW113130   3.923   1.543   0.131
 4077SOL    HW213131   4.078   1.492   0.123
 4078SOL     OW13132   1.679   5.218   1.560
 4078SOL    HW113133   1.740   5.298   1.552
 4078SOL    HW213134   1.587   5.249   1.583
 4079SOL     OW13135   1.771   0.941   3.643
 4079SOL    HW113136   1.819   0.889   3.714
 4079SOL    HW213137   1.706   0.880   3.597
 4080SOL     OW13138   4.764   3.153   6.118
 4080SOL    HW113139   4.750   3.069   6.169
 4080SOL    HW213140   4.860   3.180   6.124
 4081SOL     OW13141   2.040   2.626   4.041
 4081SOL    HW113142   2.048   2.686   3.961
 4081SOL    HW213143   1.948   2.634   4.079
 4082SOL     OW13144   0.869   4.147   6.977
 4082SOL    HW113145   0.813   4.225   6.951
 4082SOL    HW213146   0.922   4.170   0.039
 4083SOL     OW13147   6.842   3.144   2.735
 4083SOL    HW113148   6.795   3.071   2.784
 4083SOL    HW213149   6.802   3.155   2.644
 4084SOL     OW13150   5.566   2.460   4.074
 4084SOL    HW113151   5.521   2.536   4.027
 4084SOL    HW213152   5.659   2.448   4.037
 4085SOL     OW13153   3.280   5.529   1.492
 4085SOL    HW113154   3.313   5.551   1.584
 4085SOL    HW213155   3.291   5.431   1.475
 4086SOL     OW13156   1.784   6.090   1.651
 4086SOL    HW113157   1.747   6.125   1.737
 4086SOL    HW213158   1.717   6.031   1.606
 4087SOL     OW13159   2.451   2.040   3.862
 4087SOL    HW113160   2.403   1.962   3.904
 4087SOL    HW213161   2.384   2.099   3.817
 4088SOL     OW13162   0.149   1.855   0.573
 4088SOL    HW113163   0.237   1.899   0.589
 4088SOL    HW213164   0.086   1.921   0.531
 4089SOL     OW13165   5.953   6.315   4.144
 4089SOL    HW113166   5.873   6.374   4.147
 4089SOL    HW213167   5.933   6.235   4.087
 4090SOL     OW13168   1.049   4.211   6.002
 4090SOL    HW113169   1.128   4.230   5.944
 4090SOL    HW213170   0.990   4.143   5.959
 4091SOL     OW13171   0.079   5.969   0.329
 4091SOL    HW113172   0.170   5.931   0.319
 4091SOL    HW213173   0.028   5.958   0.243
 4092SOL     OW13174   6.648   2.644   5.444
 4092SOL    HW113175   6.621   2.671   5.351
 4092SOL    HW213176   6.668   2.725   5.498
 4093SOL     OW13177   4.458   0.375   2.715
 4093SOL    HW113178   4.551   0.382   2.752
 4093SOL    HW213179   4.458   0.406   2.620
 4094SOL     OW13180   2.771   6.085   4.206
 4094SOL    HW113181   2.702   6.154   4.228
 4094SOL    HW213182   2.727   6.007   4.163
 4095SOL     OW13183   0.501   3.525   6.904
 4095SOL    HW113184   0.536   3.616   6.928
 4095SOL    HW213185   0.402   3.524   6.915
 4096SOL     OW13186   4.755   5.905   6.293
 4096SOL    HW113187   4.708   5.856   6.219
 4096SOL    HW213188   4.827   5.961   6.254
 4097SOL     OW13189   3.329   4.917   5.759
 4097SOL    HW113190   3.336   4.841   5.824
 4097SOL    HW213191   3.349   5.003   5.807
 4098SOL     OW13192   0.741   3.068   1.854
 4098SOL    HW113193   0.688   3.121   1.920
 4098SOL    HW213194   0.803   3.006   1.903
 4099SOL     OW13195   2.870   5.070   1.246
 4099SOL    HW113196   2.776   5.083   1.213
 4099SOL    HW213197   2.926   5.148   1.219
 4100SOL     OW13198   6.898   5.369   4.837
 4100SOL    HW113199   6.859   5.282   4.869
 4100SOL    HW213200   6.888   5.438   4.909
 4101SOL     OW13201   5.935   1.553   0.315
 4101SOL    HW113202   5.911   1.631   0.257
 4101SOL    HW213203   6.035   1.542   0.317
 4102SOL     OW13204   6.412   0.492   1.003
 4102SOL    HW113205   6.492   0.457   0.953
 4102SOL    HW213206   6.364   0.559   0.947
 4103SOL     OW13207   0.339   0.708   0.639
 4103SOL    HW113208   0.272   0.637   0.663
 4103SOL    HW213209   0.304   0.762   0.563
 4104SOL     OW13210   0.586   4.568   2.235
 4104SOL    HW113211   0.556   4.587   2.328
 4104SOL    HW213212   0.671   4.617   2.216
 4105SOL     OW13213   4.100   6.678   2.066
 4105SOL    HW113214   4.057   6.677   1.976
 4105SOL    HW213215   4.191   6.638   2.059
 4106SOL     OW13216   6.733   2.365   3.960
 4106SOL    HW113217   6.749   2.386   3.863
 4106SOL    HW213218   6.818   2.330   4.000
 4107SOL     OW13219   1.269   6.146   1.417
 4107SOL    HW113220   1.340   6.170   1.484
 4107SOL    HW213221   1.280   6.204   1.335
 4108SOL     OW13222   6.618   4.354   5.880
 4108SOL    HW113223   6.557   4.365   5.958
 4108SOL    HW213224   6.564   4.354   5.795
 4109SOL     OW13225   5.497   6.600   5.391
 4109SOL    HW113226   5.461   6.564   5.305
 4109SOL    HW213227   5.471   6.696   5.400
 4110SOL     OW13228   4.482   3.470   6.219
 4110SOL    HW113229   4.503   3.564   6.248
 4110SOL    HW213230   4.405   3.472   6.155
 4111SOL     OW13231   3.636   3.321   6.622
 4111SOL    HW113232   3.651   3.417   6.646
 4111SOL    HW213233   3.692   3.297   6.543
 4112SOL     OW13234   4.996   0.219   5.419
 4112SOL    HW113235   4.985   0.285   5.494
 4112SOL    HW213236   4.998   0.268   5.332
 4113SOL     OW13237   5.053   6.503   4.602
 4113SOL    HW113238   5.027   6.414   4.638
 4113SOL    HW213239   4.980   6.537   4.542
 4114SOL     OW13240   3.103   2.133   4.507
 4114SOL    HW113241   3.071   2.065   4.441
 4114SOL    HW213242   3.202   2.142   4.499
 4115SOL     OW13243   4.094   5.190   2.346
 4115SOL    HW113244   4.033   5.250   2.398
 4115SOL    HW213245   4.084   5.096   2.380
 4116SOL     OW13246   3.734   2.202   1.621
 4116SOL    HW113247   3.813   2.147   1.646
 4116SOL    HW213248   3.699   2.250   1.701
 4117SOL     OW13249   0.843   4.868   1.858
 4117SOL    HW113250   0.784   4.813   1.798
 4117SOL    HW213251   0.932   4.881   1.814
 4118SOL     OW13252   2.935   6.476   0.383
 4118SOL    HW113253   2.859   6.501   0.323
 4118SOL    HW213254   2.922   6.383   0.416
 4119SOL     OW13255   3.557   1.688   3.674
 4119SOL    HW113256   3.507   1.724   3.754
 4119SOL    HW213257   3.578   1.591   3.689
 4120SOL     OW13258   4.147   0.157   0.614
 4120SOL    HW113259   4.052   0.137   0.590
 4120SOL    HW213260   4.151   0.233   0.678
 4121SOL     OW13261   6.035   0.772   5.140
 4121SOL    HW113262   5.958   0.712   5.119
 4121SOL    HW213263   6.100   0.724   5.198
 4122SOL     OW13264   0.820   5.549   5.164
 4122SOL    HW113265   0.898   5.603   5.196
 4122SOL    HW213266   0.806   5.471   5.224
 4123SOL     OW13267   4.332   4.804   6.085
 4123SOL    HW113268   4.292   4.895   6.074
 4123SOL    HW213269   4.417   4.810   6.136
 4124SOL     OW13270   5.679   5.044   6.318
 4124SOL    HW113271   5.741   5.034   6.396
 4124SOL    HW213272   5.605   5.108   6.343
 4125SOL     OW13273   4.544   1.662   2.463
 4125SOL    HW113274   4.555   1.724   2.540
 4125SOL    HW213275   4.462   1.606   2.477
 4126SOL     OW13276   1.484   3.520   3.417
 4126SOL    HW113277   1.512   3.576   3.495
 4126SOL    HW213278   1.385   3.504   3.421
 4127SOL     OW13279   4.356   4.677   4.475
 4127SOL    HW113280   4.273   4.726   4.450
 4127SOL    HW213281   4.361   4.667   4.575
 4128SOL     OW13282   1.379   3.252   2.325
 4128SOL    HW113283   1.398   3.228   2.230
 4128SOL    HW213284   1.321   3.333   2.329
 4129SOL     OW13285   4.632   1.962   6.594
 4129SOL    HW113286   4.617   1.891   6.663
 4129SOL    HW213287   4.608   1.927   6.504
 4130SOL     OW13288   6.400   2.667   5.701
 4130SOL    HW113289   6.345   2.674   5.784
 4130SOL    HW213290   6.413   2.570   5.678
 4131SOL     OW13291   1.805   6.551   3.413
 4131SOL    HW113292   1.738   6.537   3.340
 4131SOL    HW213293   1.887   6.498   3.394
 4132SOL     OW13294   5.310   4.049   3.749
 4132SOL    HW113295   5.269   3.963   3.778
 4132SOL    HW213296   5.408   4.036   3.735
 4133SOL     OW13297   2.913   0.229   1.510
 4133SOL    HW113298   2.949   0.149   1.461
 4133SOL    HW213299   2.984   0.266   1.570
 4134SOL     OW13300   2.241   3.103   0.206
 4134SOL    HW113301   2.177   3.028   0.184
 4134SOL    HW213302   2.240   3.120   0.304
 4135SOL     OW13303   1.580   1.519   3.375
 4135SOL    HW113304   1.571   1.599   3.316
 4135SOL    HW213305   1.672   1.515   3.412
 4136SOL     OW13306   1.248   2.285   3.235
 4136SOL    HW113307   1.158   2.319   3.208
 4136SOL    HW213308   1.303   2.268   3.153
 4137SOL     OW13309   1.473   4.533   0.770
 4137SOL    HW113310   1.457   4.466   0.697
 4137SOL    HW213311   1.518   4.488   0.847
 4138SOL     OW13312   3.620   4.944   2.958
 4138SOL    HW113313   3.536   4.993   2.934
 4138SOL    HW213314   3.634   4.949   3.056
 4139SOL     OW13315   2.534   2.363   4.709
 4139SOL    HW113316   2.513   2.454   4.673
 4139SOL    HW213317   2.555   2.301   4.634
 4140SOL     OW13318   3.188   0.777   5.775
 4140SOL    HW113319   3.270   0.797   5.828
 4140SOL    HW213320   3.170   0.679   5.776
 4141SOL     OW13321   5.956   6.625   1.409
 4141SOL    HW113322   6.029   6.603   1.344
 4141SOL    HW213323   5.876   6.659   1.360
 4142SOL     OW13324   6.453   5.510   0.580
 4142SOL    HW113325   6.417   5.458   0.656
 4142SOL    HW213326   6.443   5.458   0.495
 4143SOL     OW13327   0.386   3.025   0.452
 4143SOL    HW113328   0.400   3.123   0.470
 4143SOL    HW213329   0.320   3.014   0.378
 4144SOL     OW13330   4.828   3.712   6.387
 4144SOL    HW113331   4.863   3.731   6.479
 4144SOL    HW213332   4.870   3.629   6.351
 4145SOL     OW13333   6.795   5.587   0.962
 4145SOL    HW113334   6.809   5.685   0.952
 4145SOL    HW213335   6.797   5.543   0.872
 4146SOL     OW13336   6.789   1.345   5.372
 4146SOL    HW113337   6.859   1.415   5.380
 4146SOL    HW213338   6.700   1.383   5.397
 4147SOL     OW13339   4.792   3.494   5.689
 4147SOL    HW113340   4.727   3.449   5.750
 4147SOL    HW213341   4.810   3.435   5.610
 4148SOL     OW13342   0.953   0.057   4.827
 4148SOL    HW113343   0.944   0.054   4.926
 4148SOL    HW213344   0.942   6.984   4.790
 4149SOL     OW13345   0.231   2.419   0.730
 4149SOL    HW113346   0.141   2.435   0.690
 4149SOL    HW213347   0.298   2.478   0.686
 4150SOL     OW13348   0.316   1.071   5.592
 4150SOL    HW113349   0.373   1.107   5.518
 4150SOL    HW213350   0.344   0.977   5.613
 4151SOL     OW13351   3.901   6.323   6.132
 4151SOL    HW113352   3.845   6.292   6.208
 4151SOL    HW213353   3.955   6.402   6.160
 4152SOL     OW13354   2.817   6.268   1.355
 4152SOL    HW113355   2.793   6.252   1.259
 4152SOL    HW213356   2.807   6.183   1.406
 4153SOL     OW13357   4.287   4.449   6.769
 4153SOL    HW113358   4.264   4.528   6.825
 4153SOL    HW213359   4.209   4.424   6.712
 4154SOL     OW13360   0.443   4.614   4.497
 4154SOL    HW113361   0.371   4.628   4.428
 4154SOL    HW213362   0.411   4.646   4.586
 4155SOL     OW13363   6.607   1.823   2.455
 4155SOL    HW113364   6.546   1.755   2.496
 4155SOL    HW213365   6.583   1.914   2.488
 4156SOL     OW13366   5.078   6.465   4.922
 4156SOL    HW113367   5.023   6.452   4.840
 4156SOL    HW213368   5.070   6.384   4.980
 4157SOL     OW13369   4.366   6.329   4.146
 4157SOL    HW113370   4.308   6.345   4.226
 4157SOL    HW213371   4.350   6.237   4.110
 4158SOL     OW13372   1.492   5.103   3.524
 4158SOL    HW113373   1.585   5.076   3.501
 4158SOL    HW213374   1.437   5.021   3.541
 4159SOL     OW13375   2.175   2.855   3.919
 4159SOL    HW113376   2.114   2.923   3.961
 4159SOL    HW213377   2.247   2.832   3.984
 4160SOL     OW13378   6.297   0.728   0.866
 4160SOL    HW113379   6.390   0.764   0.873
 4160SOL    HW213380   6.285   0.684   0.777
 4161SOL     OW13381   1.252   0.590   6.774
 4161SOL    HW113382   1.214   0.521   6.836
 4161SOL    HW213383   1.181   0.621   6.711
 4162SOL     OW13384   6.322   6.307   5.852
 4162SOL    HW113385   6.254   6.368   5.892
 4162SOL    HW213386   6.277   6.241   5.791
 4163SOL     OW13387   6.231   0.176   3.111
 4163SOL    HW113388   6.327   0.160   3.137
 4163SOL    HW213389   6.224   0.174   3.011
 4164SOL     OW13390   1.231   6.567   6.513
 4164SOL    HW113391   1.202   6.586   6.419
 4164SOL    HW213392   1.307   6.502   6.512
 4165SOL     OW13393   4.501   0.048   0.041
 4165SOL    HW113394   4.532   6.973   0.055
 4165SOL    HW213395   4.451   0.079   0.122
 4166SOL     OW13396   5.942   4.055   1.034
 4166SOL    HW113397   5.965   3.957   1.041
 4166SOL    HW213398   5.873   4.068   0.964
 4167SOL     OW13399   1.359   4.392   1.111
 4167SOL    HW113400   1.320   4.328   1.176
 4167SOL    HW213401   1.432   4.347   1.059
 4168SOL     OW13402   6.819   5.067   1.354
 4168SOL    HW113403   6.814   5.165   1.370
 4168SOL    HW213404   6.830   5.019   1.441
 4169SOL     OW13405   5.878   3.924   4.000
 4169SOL    HW113406   5.944   3.992   4.029
 4169SOL    HW213407   5.896   3.838   4.047
 4170SOL     OW13408   2.930   3.714   4.975
 4170SOL    HW113409   2.978   3.687   5.058
 4170SOL    HW213410   2.836   3.680   4.978
 4171SOL     OW13411   4.894   5.020   1.416
 4171SOL    HW113412   4.946   5.104   1.404
 4171SOL    HW213413   4.809   5.025   1.364
 4172SOL     OW13414   0.357   1.553   6.012
 4172SOL    HW113415   0.312   1.593   5.933
 4172SOL    HW213416   0.335   1.607   6.094
 4173SOL     OW13417   5.475   3.749   5.305
 4173SOL    HW113418   5.529   3.820   5.260
 4173SOL    HW213419   5.469   3.668   5.246
 4174SOL     OW13420   5.343   0.605   3.463
 4174SOL    HW113421   5.274   0.549   3.417
 4174SOL    HW213422   5.434   0.581   3.429
 4175SOL     OW13423   1.967   5.828   4.981
 4175SOL    HW113424   1.868   5.815   4.968
 4175SOL    HW213425   2.001   5.759   5.045
 4176SOL     OW13426   2.794   6.473   2.112
 4176SOL    HW113427   2.716   6.428   2.155
 4176SOL    HW213428   2.847   6.406   2.061
 4177SOL     OW13429   6.755   4.253   4.442
 4177SOL    HW113430   6.749   4.175   4.380
 4177SOL    HW213431   6.664   4.278   4.474
 4178SOL     OW13432   4.457   1.314   4.112
 4178SOL    HW113433   4.359   1.332   4.123
 4178SOL    HW213434   4.509   1.370   4.177
 4179SOL     OW13435   5.513   2.319   3.582
 4179SOL    HW113436   5.421   2.343   3.551
 4179SOL    HW213437   5.580   2.364   3.523
 4180SOL     OW13438   5.462   3.447   1.411
 4180SOL    HW113439   5.508   3.450   1.322
 4180SOL    HW213440   5.494   3.524   1.466
 4181SOL     OW13441   1.877   2.271   6.281
 4181SOL    HW113442   1.935   2.332   6.335
 4181SOL    HW213443   1.833   2.205   6.342
 4182SOL     OW13444   0.192   6.506   2.761
 4182SOL    HW113445   0.113   6.565   2.773
 4182SOL    HW213446   0.162   6.417   2.725
 4183SOL     OW13447   4.542   0.550   0.801
 4183SOL    HW113448   4.641   0.556   0.793
 4183SOL    HW213449   4.516   0.458   0.833
 4184SOL     OW13450   4.698   5.291   1.488
 4184SOL    HW113451   4.606   5.305   1.451
 4184SOL    HW213452   4.706   5.197   1.521
 4185SOL     OW13453   0.978   5.853   2.290
 4185SOL    HW113454   1.039   5.913   2.239
 4185SOL    HW213455   0.885   5.861   2.253
 4186SOL     OW13456   1.631   4.665   1.216
 4186SOL    HW113457   1.725   4.680   1.248
 4186SOL    HW213458   1.628   4.676   1.117
 4187SOL     OW13459   3.463   4.179   6.110
 4187SOL    HW113460   3.427   4.085   6.112
 4187SOL    HW213461   3.491   4.202   6.017
 4188SOL     OW13462   4.937   6.829   4.142
 4188SOL    HW113463   4.842   6.856   4.156
 4188SOL    HW213464   4.986   6.833   4.229
 4189SOL     OW13465   3.446   0.854   5.418
 4189SOL    HW113466   3.361   0.802   5.418
 4189SOL    HW213467   3.478   0.867   5.324
 4190SOL     OW13468   1.155   0.383   6.881
 4190SOL    HW113469   1.153   0.386   6.981
 4190SOL    HW213470   1.097   0.308   6.849
 4191SOL     OW13471   5.837   3.575   3.134
 4191SOL    HW113472   5.825   3.562   3.036
 4191SOL    HW213473   5.882   3.663   3.151
 4192SOL     OW13474   0.049   0.816   3.234
 4192SOL    HW113475   0.137   0.795   3.191
 4192SOL    HW213476   0.063   0.873   3.314
 4193SOL     OW13477   2.479   6.831   2.197
 4193SOL    HW113478   2.487   6.826   2.296
 4193SOL    HW213479   2.560   6.876   2.159
 4194SOL     OW13480   6.364   1.129   5.548
 4194SOL    HW113481   6.270   1.136   5.581
 4194SOL    HW213482   6.384   1.207   5.488
 4195SOL     OW13483   3.315   0.870   1.306
 4195SOL    HW113484   3.333   0.958   1.349
 4195SOL    HW213485   3.356   0.797   1.360
 4196SOL     OW13486   5.956   2.036   3.820
 4196SOL    HW113487   5.948   2.123   3.868
 4196SOL    HW213488   5.968   1.962   3.886
 4197SOL     OW13489   4.597   5.228   5.529
 4197SOL    HW113490   4.595   5.141   5.577
 4197SOL    HW213491   4.657   5.221   5.449
 4198SOL     OW13492   5.409   3.055   6.310
 4198SOL    HW113493   5.445   3.119   6.241
 4198SOL    HW213494   5.392   3.105   6.395
 4199SOL     OW13495   2.016   3.704   6.231
 4199SOL    HW113496   2.107   3.730   6.265
 4199SOL    HW213497   1.969   3.786   6.198
 4200SOL     OW13498   3.395   6.830   5.060
 4200SOL    HW113499   3.479   6.882   5.078
 4200SOL    HW213500   3.324   6.858   5.124
 4201SOL     OW13501   5.907   5.893   4.104
 4201SOL    HW113502   5.994   5.923   4.142
 4201SOL    HW213503   5.875   5.811   4.152
 4202SOL     OW13504   4.362   5.787   5.699
 4202SOL    HW113505   4.414   5.810   5.617
 4202SOL    HW213506   4.277   5.840   5.701
 4203SOL     OW13507   4.823   5.402   2.224
 4203SOL    HW113508   4.797   5.308   2.244
 4203SOL    HW213509   4.742   5.453   2.195
 4204SOL     OW13510   3.821   3.041   2.108
 4204SOL    HW113511   3.868   3.025   2.195
 4204SOL    HW213512   3.735   3.088   2.125
 4205SOL     OW13513   3.759   5.219   4.436
 4205SOL    HW113514   3.847   5.265   4.445
 4205SOL    HW213515   3.771   5.121   4.449
 4206SOL     OW13516   5.867   0.731   5.840
 4206SOL    HW113517   5.813   0.730   5.756
 4206SOL    HW213518   5.923   0.649   5.846
 4207SOL     OW13519   2.357   1.693   1.491
 4207SOL    HW113520   2.368   1.594   1.500
 4207SOL    HW213521   2.270   1.721   1.532
 4208SOL     OW13522   0.834   2.202   6.382
 4208SOL    HW113523   0.735   2.208   6.393
 4208SOL    HW213524   0.875   2.292   6.400
 4209SOL     OW13525   1.078   1.285   4.757
 4209SOL    HW113526   1.021   1.346   4.811
 4209SOL    HW213527   1.024   1.207   4.725
 4210SOL     OW13528   2.866   3.305   1.745
 4210SOL    HW113529   2.932   3.380   1.747
 4210SOL    HW213530   2.775   3.341   1.765
 4211SOL     OW13531   4.465   6.061   5.198
 4211SOL    HW113532   4.553   6.070   5.246
 4211SOL    HW213533   4.482   6.062   5.099
 4212SOL     OW13534   5.931   2.131   2.262
 4212SOL    HW113535   5.857   2.085   2.311
 4212SOL    HW213536   5.893   2.188   2.190
 4213SOL     OW13537   2.146   1.099   2.971
 4213SOL    HW113538   2.199   1.041   2.908
 4213SOL    HW213539   2.053   1.063   2.978
 4214SOL     OW13540   0.297   4.068   5.595
 4214SOL    HW113541   0.228   4.118   5.543
 4214SOL    HW213542   0.381   4.122   5.600
 4215SOL     OW13543   6.543   5.400   4.446
 4215SOL    HW113544   6.585   5.437   4.528
 4215SOL    HW213545   6.560   5.462   4.369
 4216SOL     OW13546   1.622   1.746   2.573
 4216SOL    HW113547   1.598   1.673   2.637
 4216SOL    HW213548   1.607   1.714   2.479
 4217SOL     OW13549   5.917   6.947   2.676
 4217SOL    HW113550   5.906   6.848   2.680
 4217SOL    HW213551   5.954   6.980   2.763
 4218SOL     OW13552   5.149   0.186   1.286
 4218SOL    HW113553   5.066   0.132   1.301
 4218SOL    HW213554   5.154   0.212   1.189
 4219SOL     OW13555   2.861   5.699   5.054
 4219SOL    HW113556   2.927   5.664   4.989
 4219SOL    HW213557   2.904   5.708   5.144
 4220SOL     OW13558   6.457   2.604   3.726
 4220SOL    HW113559   6.431   2.700   3.712
 4220SOL    HW213560   6.511   2.573   3.648
 4221SOL     OW13561   6.098   5.429   6.493
 4221SOL    HW113562   6.026   5.434   6.423
 4221SOL    HW213563   6.146   5.342   6.484
 4222SOL     OW13564   5.984   2.510   2.439
 4222SOL    HW113565   6.077   2.498   2.474
 4222SOL    HW213566   5.982   2.588   2.376
 4223SOL     OW13567   2.957   3.271   4.312
 4223SOL    HW113568   2.904   3.355   4.312
 4223SOL    HW213569   2.953   3.229   4.403
 4224SOL     OW13570   4.866   3.229   3.665
 4224SOL    HW113571   4.798   3.157   3.654
 4224SOL    HW213572   4.870   3.258   3.761
 4225SOL     OW13573   4.821   0.470   5.477
 4225SOL    HW113574   4.838   0.513   5.388
 4225SOL    HW213575   4.819   0.540   5.548
 4226SOL     OW13576   1.476   0.505   3.094
 4226SOL    HW113577   1.470   0.405   3.102
 4226SOL    HW213578   1.397   0.547   3.140
 4227SOL     OW13579   3.325   4.862   6.801
 4227SOL    HW113580   3.370   4.891   6.885
 4227SOL    HW213581   3.234   4.904   6.796
 4228SOL     OW13582   6.323   4.341   2.941
 4228SOL    HW113583   6.392   4.327   3.011
 4228SOL    HW213584   6.289   4.252   2.910
 4229SOL     OW13585   4.147   4.572   6.024
 4229SOL    HW113586   4.204   4.490   6.024
 4229SOL    HW213587   4.206   4.653   6.019
 4230SOL     OW13588   2.795   0.711   4.235
 4230SOL    HW113589   2.766   0.666   4.319
 4230SOL    HW213590   2.806   0.809   4.252
 4231SOL     OW13591   5.351   6.747   4.907
 4231SOL    HW113592   5.397   6.769   4.993
 4231SOL    HW213593   5.360   6.649   4.889
 4232SOL     OW13594   0.520   5.187   1.560
 4232SOL    HW113595   0.535   5.285   1.572
 4232SOL    HW213596   0.560   5.138   1.637
 4233SOL     OW13597   6.800   0.327   6.911
 4233SOL    HW113598   6.857   0.355   6.834
 4233SOL    HW213599   6.754   0.406   6.950
 4234SOL     OW13600   1.355   0.214   5.577
 4234SOL    HW113601   1.454   0.218   5.589
 4234SOL    HW213602   1.317   0.306   5.583
 4235SOL     OW13603   6.249   4.128   5.127
 4235SOL    HW113604   6.228   4.057   5.059
 4235SOL    HW213605   6.284   4.084   5.210
 4236SOL     OW13606   6.843   3.128   3.097
 4236SOL    HW113607   6.908   3.202   3.115
 4236SOL    HW213608   6.864   3.086   3.008
 4237SOL     OW13609   6.227   4.447   4.198
 4237SOL    HW113610   6.173   4.506   4.139
 4237SOL    HW213611   6.323   4.453   4.173
 4238SOL     OW13612   4.288   4.789   3.933
 4238SOL    HW113613   4.332   4.700   3.943
 4238SOL    HW213614   4.340   4.858   3.983
 4239SOL     OW13615   5.343   0.191   4.112
 4239SOL    HW113616   5.251   0.151   4.114
 4239SOL    HW213617   5.337   0.290   4.123
 4240SOL     OW13618   2.091   6.626   6.615
 4240SOL    HW113619   2.141   6.577   6.543
 4240SOL    HW213620   2.155   6.651   6.687
 4241SOL     OW13621   5.382   0.538   0.916
 4241SOL    HW113622   5.307   0.496   0.865
 4241SOL    HW213623   5.371   0.517   1.013
 4242SOL     OW13624   2.006   6.914   3.442
 4242SOL    HW113625   1.917   6.889   3.480
 4242SOL    HW213626   2.076   6.904   3.512
 4243SOL     OW13627   0.893   3.957   2.941
 4243SOL    HW113628   0.825   3.920   2.877
 4243SOL    HW213629   0.947   3.882   2.979
 4244SOL     OW13630   4.641   5.804   1.295
 4244SOL    HW113631   4.615   5.723   1.241
 4244SOL    HW213632   4.740   5.806   1.306
 4245SOL     OW13633   6.885   2.136   6.884
 4245SOL    HW113634   6.937   2.051   6.887
 4245SOL    HW213635   6.928   2.199   6.819
 4246SOL     OW13636   5.687   3.047   3.287
 4246SOL    HW113637   5.680   3.105   3.368
 4246SOL    HW213638   5.677   3.103   3.204
 4247SOL     OW13639   2.113   5.096   4.583
 4247SOL    HW113640   2.169   5.154   4.642
 4247SOL    HW213641   2.138   5.000   4.598
 4248SOL     OW13642   1.675   1.011   3.328
 4248SOL    HW113643   1.729   1.048   3.253
 4248SOL    HW213644   1.662   1.082   3.397
 4249SOL     OW13645   6.571   1.691   3.257
 4249SOL    HW113646   6.583   1.706   3.355
 4249SOL    HW213647   6.473   1.695   3.235
 4250SOL     OW13648   0.685   5.943   4.017
 4250SOL    HW113649   0.605   5.939   4.077
 4250SOL    HW213650   0.675   5.875   3.944
 4251SOL     OW13651   6.130   2.715   0.104
 4251SOL    HW113652   6.118   2.617   0.118
 4251SOL    HW213653   6.142   2.734   0.007
 4252SOL     OW13654   5.898   5.881   6.117
 4252SOL    HW113655   5.922   5.953   6.052
 4252SOL    HW213656   5.923   5.911   6.209
 4253SOL     OW13657   3.732   6.241   2.474
 4253SOL    HW113658   3.755   6.144   2.463
 4253SOL    HW213659   3.652   6.262   2.419
 4254SOL     OW13660   2.419   4.673   1.722
 4254SOL    HW113661   2.448   4.739   1.792
 4254SOL    HW213662   2.483   4.596   1.720
 4255SOL     OW13663   0.261   3.324   4.263
 4255SOL    HW113664   0.350   3.300   4.224
 4255SOL    HW213665   0.195   3.340   4.190
 4256SOL     OW13666   1.277   5.664   1.998
 4256SOL    HW113667   1.198   5.612   2.029
 4256SOL    HW213668   1.274   5.674   1.899
 4257SOL     OW13669   5.942   0.550   4.528
 4257SOL    HW113670   5.952   0.619   4.457
 4257SOL    HW213671   6.012   0.563   4.598
 4258SOL     OW13672   3.610   5.825   1.311
 4258SOL    HW113673   3.518   5.798   1.281
 4258SOL    HW213674   3.605   5.914   1.355
 4259SOL     OW13675   2.012   6.661   1.375
 4259SOL    HW113676   1.984   6.623   1.287
 4259SOL    HW213677   2.099   6.620   1.403
 4260SOL     OW13678   5.052   6.946   3.946
 4260SOL    HW113679   4.999   6.890   4.010
 4260SOL    HW213680   5.132   6.894   3.916
 4261SOL     OW13681   1.721   0.137   3.334
 4261SOL    HW113682   1.647   0.162   3.397
 4261SOL    HW213683   1.741   0.040   3.345
 4262SOL     OW13684   1.454   4.028   5.885
 4262SOL    HW113685   1.453   4.073   5.974
 4262SOL    HW213686   1.361   4.016   5.851
 4263SOL     OW13687   2.830   1.072   3.451
 4263SOL    HW113688   2.861   1.159   3.490
 4263SOL    HW213689   2.893   1.000   3.480
 4264SOL     OW13690   5.830   1.519   4.313
 4264SOL    HW113691   5.868   1.426   4.313
 4264SOL    HW213692   5.784   1.535   4.226
 4265SOL     OW13693   3.558   0.748   0.864
 4265SOL    HW113694   3.586   0.690   0.940
 4265SOL    HW213695   3.508   0.827   0.899
 4266SOL     OW13696   1.291   0.149   0.015
 4266SOL    HW113697   1.291   0.169   0.113
 4266SOL    HW213698   1.210   0.096   7.011
 4267SOL     OW13699   2.036   4.047   4.031
 4267SOL    HW113700   1.970   3.987   4.077
 4267SOL    HW213701   2.089   4.096   4.099
 4268SOL     OW13702   1.960   5.440   6.966
 4268SOL    HW113703   1.995   5.392   6.885
 4268SOL    HW213704   1.995   5.534   6.966
 4269SOL     OW13705   3.322   1.300   3.891
 4269SOL    HW113706   3.371   1.387   3.881
 4269SOL    HW213707   3.376   1.227   3.849
 4270SOL     OW13708   3.299   3.034   1.637
 4270SOL    HW113709   3.261   3.101   1.700
 4270SOL    HW213710   3.321   2.950   1.686
 4271SOL     OW13711   6.798   0.768   0.283
 4271SOL    HW113712   6.895   0.780   0.263
 4271SOL    HW213713   6.781   0.792   0.379
 4272SOL     OW13714   6.928   3.090   4.912
 4272SOL    HW113715   6.879   3.087   4.825
 4272SOL    HW213716   6.865   3.065   4.986
 4273SOL     OW13717   5.028   6.020   4.999
 4273SOL    HW113718   4.988   5.965   5.073
 4273SOL    HW213719   5.075   6.099   5.038
 4274SOL     OW13720   1.011   0.051   1.600
 4274SOL    HW113721   0.914   0.035   1.586
 4274SOL    HW213722   1.058   0.052   1.511
 4275SOL     OW13723   0.386   1.981   4.362
 4275SOL    HW113724   0.417   2.076   4.370
 4275SOL    HW213725   0.369   1.959   4.266
 4276SOL     OW13726   2.649   5.527   3.523
 4276SOL    HW113727   2.686   5.434   3.528
 4276SOL    HW213728   2.570   5.528   3.461
 4277SOL     OW13729   6.840   4.114   3.110
 4277SOL    HW113730   6.836   4.043   3.181
 4277SOL    HW213731   6.810   4.075   3.023
 4278SOL     OW13732   0.403   6.796   3.352
 4278SOL    HW113733   0.467   6.863   3.314
 4278SOL    HW213734   0.316   6.841   3.373
 4279SOL     OW13735   1.307   1.066   2.154
 4279SOL    HW113736   1.367   1.059   2.075
 4279SOL    HW213737   1.214   1.041   2.128
 4280SOL     OW13738   6.314   6.649   5.792
 4280SOL    HW113739   6.340   6.730   5.843
 4280SOL    HW213740   6.392   6.586   5.788
 4281SOL     OW13741   5.162   4.692   3.753
 4281SOL    HW113742   5.125   4.696   3.846
 4281SOL    HW213743   5.262   4.688   3.757
 4282SOL     OW13744   3.284   4.686   0.987
 4282SOL    HW113745   3.344   4.729   1.054
 4282SOL    HW213746   3.261   4.751   0.915
 4283SOL     OW13747   4.607   1.313   3.382
 4283SOL    HW113748   4.538   1.303   3.453
 4283SOL    HW213749   4.685   1.253   3.402
 4284SOL     OW13750   4.349   5.750   0.176
 4284SOL    HW113751   4.372   5.675   0.113
 4284SOL    HW213752   4.255   5.779   0.160
 4285SOL     OW13753   2.593   1.177   5.940
 4285SOL    HW113754   2.544   1.215   6.019
 4285SOL    HW213755   2.616   1.081   5.958
 4286SOL     OW13756   6.781   0.277   6.267
 4286SOL    HW113757   6.749   0.372   6.266
 4286SOL    HW213758   6.729   0.225   6.334
 4287SOL     OW13759   4.692   1.476   5.918
 4287SOL    HW113760   4.743   1.556   5.887
 4287SOL    HW213761   4.717   1.397   5.862
 4288SOL     OW13762   0.506   5.962   2.893
 4288SOL    HW113763   0.490   6.059   2.875
 4288SOL    HW213764   0.475   5.939   2.985
 4289SOL     OW13765   1.583   2.215   6.055
 4289SOL    HW113766   1.560   2.119   6.073
 4289SOL    HW213767   1.499   2.268   6.044
 4290SOL     OW13768   0.443   6.469   4.741
 4290SOL    HW113769   0.492   6.556   4.748
 4290SOL    HW213770   0.508   6.395   4.723
 4291SOL     OW13771   5.001   3.504   6.332
 4291SOL    HW113772   4.935   3.488   6.259
 4291SOL    HW213773   5.078   3.441   6.322
 4292SOL     OW13774   6.366   3.306   6.986
 4292SOL    HW113775   6.404   3.376   6.926
 4292SOL    HW213776   6.312   3.241   6.932
 4293SOL     OW13777   3.963   3.912   6.624
 4293SOL    HW113778   4.021   3.917   6.706
 4293SOL    HW213779   3.940   4.005   6.595
 4294SOL     OW13780   2.151   2.121   6.254
 4294SOL    HW113781   2.130   2.197   6.192
 4294SOL    HW213782   2.128   2.034   6.211
 4295SOL     OW13783   4.590   6.618   2.945
 4295SOL    HW113784   4.528   6.541   2.966
 4295SOL    HW213785   4.663   6.586   2.885
 4296SOL     OW13786   3.130   0.081   0.875
 4296SOL    HW113787   3.078   0.128   0.947
 4296SOL    HW213788   3.227   0.080   0.899
 4297SOL     OW13789   6.801   6.402   2.388
 4297SOL    HW113790   6.896   6.376   2.403
 4297SOL    HW213791   6.792   6.501   2.395
 4298SOL     OW13792   3.687   6.536   2.211
 4298SOL    HW113793   3.590   6.537   2.234
 4298SOL    HW213794   3.741   6.532   2.296
 4299SOL     OW13795   0.689   3.282   0.375
 4299SOL    HW113796   0.702   3.348   0.302
 4299SOL    HW213797   0.685   3.189   0.337
 4300SOL     OW13798   2.937   0.413   0.400
 4300SOL    HW113799   2.847   0.425   0.442
 4300SOL    HW213800   2.956   0.315   0.389
 4301SOL     OW13801   3.705   0.212   1.507
 4301SOL    HW113802   3.650   0.173   1.581
 4301SOL    HW213803   3.801   0.186   1.520
 4302SOL     OW13804   6.079   0.395   0.048
 4302SOL    HW113805   6.129   0.391   6.981
 4302SOL    HW213806   6.137   0.436   0.118
 4303SOL     OW13807   0.201   4.597   3.409
 4303SOL    HW113808   0.279   4.659   3.405
 4303SOL    HW213809   0.121   4.646   3.444
 4304SOL     OW13810   3.737   3.992   1.887
 4304SOL    HW113811   3.827   3.949   1.876
 4304SOL    HW213812   3.674   3.928   1.930
 4305SOL     OW13813   0.905   6.539   5.084
 4305SOL    HW113814   0.876   6.597   5.160
 4305SOL    HW213815   0.935   6.450   5.118
 4306SOL     OW13816   4.865   4.647   4.912
 4306SOL    HW113817   4.880   4.678   4.818
 4306SOL    HW213818   4.806   4.711   4.959
 4307SOL     OW13819   5.665   3.191   5.632
 4307SOL    HW113820   5.759   3.192   5.596
 4307SOL    HW213821   5.655   3.115   5.697
 4308SOL     OW13822   5.798   4.973   1.625
 4308SOL    HW113823   5.880   5.020   1.593
 4308SOL    HW213824   5.825   4.894   1.681
 4309SOL     OW13825   0.991   3.064   0.625
 4309SOL    HW113826   0.996   3.139   0.559
 4309SOL    HW213827   1.014   3.099   0.716
 4310SOL     OW13828   1.227   2.901   2.176
 4310SOL    HW113829   1.192   2.977   2.122
 4310SOL    HW213830   1.326   2.912   2.189
 4311SOL     OW13831   1.028   6.861   2.254
 4311SOL    HW113832   1.007   6.908   2.340
 4311SOL    HW213833   1.126   6.871   2.234
 4312SOL     OW13834   1.476   5.744   2.497
 4312SOL    HW113835   1.530   5.825   2.475
 4312SOL    HW213836   1.378   5.767   2.493
 4313SOL     OW13837   3.393   2.351   0.170
 4313SOL    HW113838   3.409   2.401   0.085
 4313SOL    HW213839   3.333   2.404   0.230
 4314SOL     OW13840   6.134   2.030   5.260
 4314SOL    HW113841   6.095   1.986   5.341
 4314SOL    HW213842   6.087   1.997   5.178
 4315SOL     OW13843   1.986   1.775   4.014
 4315SOL    HW113844   1.924   1.717   4.067
 4315SOL    HW213845   1.937   1.815   3.937
 4316SOL     OW13846   5.293   6.845   2.656
 4316SOL    HW113847   5.331   6.891   2.576
 4316SOL    HW213848   5.199   6.875   2.670
 4317SOL     OW13849   4.485   0.635   5.546
 4317SOL    HW113850   4.470   0.686   5.461
 4317SOL    HW213851   4.414   0.565   5.556
 4318SOL     OW13852   0.684   0.902   4.476
 4318SOL    HW113853   0.723   0.824   4.426
 4318SOL    HW213854   0.745   0.927   4.551
 4319SOL     OW13855   1.785   2.118   1.165
 4319SOL    HW113856   1.848   2.186   1.128
 4319SOL    HW213857   1.751   2.149   1.254
 4320SOL     OW13858   4.124   6.216   1.304
 4320SOL    HW113859   4.094   6.300   1.260
 4320SOL    HW213860   4.161   6.153   1.235
 4321SOL     OW13861   6.877   4.980   3.194
 4321SOL    HW113862   6.818   4.902   3.212
 4321SOL    HW213863   6.967   4.963   3.233
 4322SOL     OW13864   6.736   3.685   5.487
 4322SOL    HW113865   6.775   3.614   5.428
 4322SOL    HW213866   6.688   3.641   5.564
 4323SOL     OW13867   4.113   5.410   6.876
 4323SOL    HW113868   4.085   5.343   6.944
 4323SOL    HW213869   4.127   5.365   6.788
 4324SOL     OW13870   6.783   3.969   5.463
 4324SOL    HW113871   6.763   3.874   5.487
 4324SOL    HW213872   6.761   4.028   5.541
 4325SOL     OW13873   2.708   1.975   2.240
 4325SOL    HW113874   2.755   1.952   2.325
 4325SOL    HW213875   2.644   1.902   2.217
 4326SOL     OW13876   5.868   3.224   2.426
 4326SOL    HW113877   5.922   3.220   2.509
 4326SOL    HW213878   5.928   3.234   2.347
 4327SOL     OW13879   3.793   5.500   3.388
 4327SOL    HW113880   3.714   5.473   3.442
 4327SOL    HW213881   3.830   5.420   3.341
 4328SOL     OW13882   6.095   4.347   4.704
 4328SOL    HW113883   6.063   4.391   4.620
 4328SOL    HW213884   6.090   4.248   4.694
 4329SOL     OW13885   6.226   3.525   5.473
 4329SOL    HW113886   6.195   3.508   5.379
 4329SOL    HW213887   6.165   3.478   5.537
 4330SOL     OW13888   2.061   6.252   4.708
 4330SOL    HW113889   2.077   6.173   4.649
 4330SOL    HW213890   2.114   6.242   4.792
 4331SOL     OW13891   0.250   0.224   1.306
 4331SOL    HW113892   0.195   0.277   1.242
 4331SOL    HW213893   0.314   0.285   1.354
 4332SOL     OW13894   6.056   3.595   2.624
 4332SOL    HW113895   6.057   3.677   2.681
 4332SOL    HW213896   6.072   3.620   2.529
 4333SOL     OW13897   4.272   2.031   5.039
 4333SOL    HW113898   4.301   2.113   4.990
 4333SOL    HW213899   4.343   1.961   5.032
 4334SOL     OW13900   1.217   2.661   2.544
 4334SOL    HW113901   1.218   2.623   2.637
 4334SOL    HW213902   1.311   2.676   2.513
 4335SOL     OW13903   3.698   3.089   1.325
 4335SOL    HW113904   3.783   3.083   1.377
 4335SOL    HW213905   3.632   3.023   1.361
 4336SOL     OW13906   1.859   4.539   4.831
 4336SOL    HW113907   1.856   4.608   4.758
 4336SOL    HW213908   1.947   4.545   4.878
 4337SOL     OW13909   1.525   6.018   1.994
 4337SOL    HW113910   1.605   5.963   2.016
 4337SOL    HW213911   1.553   6.104   1.952
 4338SOL     OW13912   5.853   0.646   6.320
 4338SOL    HW113913   5.802   0.588   6.384
 4338SOL    HW213914   5.931   0.595   6.284
 4339SOL     OW13915   3.387   2.921   6.264
 4339SOL    HW113916   3.418   3.008   6.302
 4339SOL    HW213917   3.287   2.922   6.256
 4340SOL     OW13918   5.729   3.227   1.348
 4340SOL    HW113919   5.667   3.241   1.270
 4340SOL    HW213920   5.778   3.141   1.336
 4341SOL     OW13921   1.112   4.917   1.776
 4341SOL    HW113922   1.116   4.896   1.679
 4341SOL    HW213923   1.204   4.929   1.812
 4342SOL     OW13924   4.855   3.675   3.060
 4342SOL    HW113925   4.773   3.731   3.073
 4342SOL    HW213926   4.900   3.660   3.148
 4343SOL     OW13927   3.293   6.548   6.203
 4343SOL    HW113928   3.375   6.568   6.258
 4343SOL    HW213929   3.228   6.624   6.212
 4344SOL     OW13930   0.599   2.968   3.387
 4344SOL    HW113931   0.507   2.971   3.347
 4344SOL    HW213932   0.660   2.916   3.326
 4345SOL     OW13933   2.945   3.285   3.084
 4345SOL    HW113934   3.009   3.210   3.069
 4345SOL    HW213935   2.948   3.313   3.180
 4346SOL     OW13936   2.472   2.685   1.868
 4346SOL    HW113937   2.387   2.738   1.865
 4346SOL    HW213938   2.489   2.653   1.961
 4347SOL     OW13939   6.495   5.950   2.327
 4347SOL    HW113940   6.420   5.941   2.392
 4347SOL    HW213941   6.556   6.024   2.355
 4348SOL     OW13942   0.312   5.651   4.553
 4348SOL    HW113943   0.252   5.681   4.479
 4348SOL    HW213944   0.405   5.684   4.536
 4349SOL     OW13945   0.022   3.379   3.753
 4349SOL    HW113946   0.080   3.460   3.743
 4349SOL    HW213947   6.948   3.402   3.724
 4350SOL     OW13948   4.995   2.186   4.704
 4350SOL    HW113949   4.980   2.135   4.620
 4350SOL    HW213950   5.044   2.129   4.770
 4351SOL     OW13951   1.763   6.030   1.347
 4351SOL    HW113952   1.719   6.118   1.364
 4351SOL    HW213953   1.722   5.961   1.406
 4352SOL     OW13954   5.666   3.686   1.514
 4352SOL    HW113955   5.713   3.696   1.601
 4352SOL    HW213956   5.711   3.614   1.460
 4353SOL     OW13957   2.954   3.827   6.948
 4353SOL    HW113958   2.967   3.770   6.867
 4353SOL    HW213959   2.872   3.882   6.938
 4354SOL     OW13960   0.798   1.263   6.074
 4354SOL    HW113961   0.767   1.274   6.169
 4354SOL    HW213962   0.835   1.171   6.062
 4355SOL     OW13963   1.203   6.925   3.173
 4355SOL    HW113964   1.104   6.936   3.184
 4355SOL    HW213965   1.226   6.828   3.172
 4356SOL     OW13966   4.069   3.649   5.619
 4356SOL    HW113967   3.987   3.618   5.572
 4356SOL    HW213968   4.142   3.663   5.552
 4357SOL     OW13969   0.239   1.668   1.168
 4357SOL    HW113970   0.174   1.596   1.192
 4357SOL    HW213971   0.198   1.730   1.102
 4358SOL     OW13972   0.066   0.177   0.237
 4358SOL    HW113973   0.043   0.148   0.330
 4358SOL    HW213974   0.008   0.254   0.210
 4359SOL     OW13975   1.690   0.351   6.919
 4359SOL    HW113976   1.672   0.277   6.854
 4359SOL    HW213977   1.604   0.393   6.947
 4360SOL     OW13978   1.030   2.088   4.291
 4360SOL    HW113979   1.123   2.084   4.255
 4360SOL    HW213980   0.968   2.037   4.231
 4361SOL     OW13981   2.136   2.967   1.429
 4361SOL    HW113982   2.178   3.030   1.494
 4361SOL    HW213983   2.148   2.873   1.461
 4362SOL     OW13984   0.520   5.984   4.366
 4362SOL    HW113985   0.553   6.078   4.376
 4362SOL    HW213986   0.541   5.933   4.449
 4363SOL     OW13987   4.144   1.232   1.676
 4363SOL    HW113988   4.117   1.328   1.683
 4363SOL    HW213989   4.117   1.184   1.760
 4364SOL     OW13990   3.185   3.455   2.695
 4364SOL    HW113991   3.185   3.382   2.763
 4364SOL    HW213992   3.252   3.525   2.721
 4365SOL     OW13993   3.034   1.627   2.199
 4365SOL    HW113994   2.956   1.578   2.161
 4365SOL    HW213995   3.091   1.661   2.124
 4366SOL     OW13996   6.222   6.360   6.208
 4366SOL    HW113997   6.317   6.357   6.238
 4366SOL    HW213998   6.189   6.267   6.191
 4367SOL     OW13999   3.207   5.143   2.662
 4367SOL    HW114000   3.178   5.181   2.574
 4367SOL    HW214001   3.201   5.043   2.658
 4368SOL     OW14002   4.259   5.543   3.069
 4368SOL    HW114003   4.176   5.491   3.052
 4368SOL    HW214004   4.236   5.629   3.116
 4369SOL     OW14005   5.116   5.549   3.457
 4369SOL    HW114006   5.035   5.606   3.473
 4369SOL    HW214007   5.109   5.466   3.513
 4370SOL     OW14008   3.373   3.881   1.648
 4370SOL    HW114009   3.458   3.832   1.665
 4370SOL    HW214010   3.363   3.953   1.717
 4371SOL     OW14011   2.049   1.612   2.591
 4371SOL    HW114012   1.983   1.557   2.541
 4371SOL    HW214013   2.126   1.556   2.618
 4372SOL     OW14014   1.893   3.232   3.861
 4372SOL    HW114015   1.920   3.152   3.914
 4372SOL    HW214016   1.839   3.203   3.781
 4373SOL     OW14017   4.240   1.144   6.096
 4373SOL    HW114018   4.326   1.173   6.055
 4373SOL    HW214019   4.218   1.204   6.173
 4374SOL     OW14020   1.872   1.966   1.525
 4374SOL    HW114021   1.803   2.036   1.511
 4374SOL    HW214022   1.916   1.944   1.438
 4375SOL     OW14023   3.971   6.434   3.166
 4375SOL    HW114024   4.066   6.462   3.156
 4375SOL    HW214025   3.953   6.412   3.262
 4376SOL     OW14026   6.380   0.381   1.655
 4376SOL    HW114027   6.358   0.393   1.559
 4376SOL    HW214028   6.480   0.377   1.667
 4377SOL     OW14029   6.360   5.198   7.017
 4377SOL    HW114030   6.389   5.135   6.945
 4377SOL    HW214031   6.269   5.234   6.995
 4378SOL     OW14032   0.808   4.738   2.128
 4378SOL    HW114033   0.865   4.673   2.178
 4378SOL    HW214034   0.843   4.749   2.035
 4379SOL     OW14035   2.431   0.930   2.582
 4379SOL    HW114036   2.371   0.948   2.503
 4379SOL    HW214037   2.526   0.944   2.555
 4380SOL     OW14038   2.256   5.470   5.140
 4380SOL    HW114039   2.287   5.499   5.049
 4380SOL    HW214040   2.299   5.383   5.163
 4381SOL     OW14041   2.623   4.690   4.668
 4381SOL    HW114042   2.624   4.648   4.759
 4381SOL    HW214043   2.659   4.783   4.674
 4382SOL     OW14044   5.804   4.325   5.622
 4382SOL    HW114045   5.886   4.382   5.616
 4382SOL    HW214046   5.724   4.384   5.637
 4383SOL     OW14047   0.510   1.813   5.773
 4383SOL    HW114048   0.521   1.766   5.686
 4383SOL    HW214049   0.531   1.750   5.848
 4384SOL     OW14050   5.125   0.914   6.568
 4384SOL    HW114051   5.208   0.866   6.596
 4384SOL    HW214052   5.146   1.011   6.556
 4385SOL     OW14053   0.170   2.360   4.054
 4385SOL    HW114054   0.151   2.407   4.141
 4385SOL    HW214055   0.194   2.428   3.985
 4386SOL     OW14056   1.090   3.940   6.294
 4386SOL    HW114057   1.104   4.027   6.341
 4386SOL    HW214058   1.167   3.879   6.311
 4387SOL     OW14059   0.368   2.145   2.090
 4387SOL    HW114060   0.448   2.097   2.052
 4387SOL    HW214061   0.399   2.220   2.148
 4388SOL     OW14062   4.359   0.927   6.397
 4388SOL    HW114063   4.330   0.946   6.304
 4388SOL    HW214064   4.400   1.009   6.437
 4389SOL     OW14065   5.783   2.616   0.769
 4389SOL    HW114066   5.752   2.663   0.686
 4389SOL    HW214067   5.722   2.639   0.845
 4390SOL     OW14068   4.065   2.203   1.833
 4390SOL    HW114069   4.096   2.277   1.773
 4390SOL    HW214070   4.107   2.213   1.923
 4391SOL     OW14071   1.558   6.201   6.472
 4391SOL    HW114072   1.611   6.227   6.391
 4391SOL    HW214073   1.602   6.239   6.553
 4392SOL     OW14074   5.741   4.344   5.174
 4392SOL    HW114075   5.728   4.266   5.234
 4392SOL    HW214076   5.812   4.323   5.107
 4393SOL     OW14077   4.692   6.127   2.521
 4393SOL    HW114078   4.650   6.118   2.611
 4393SOL    HW214079   4.723   6.222   2.508
 4394SOL     OW14080   5.845   5.635   2.518
 4394SOL    HW114081   5.778   5.567   2.488
 4394SOL    HW214082   5.892   5.602   2.599
 4395SOL     OW14083   3.971   2.510   0.997
 4395SOL    HW114084   3.939   2.604   0.993
 4395SOL    HW214085   3.983   2.483   1.093
 4396SOL     OW14086   2.329   1.841   4.024
 4396SOL    HW114087   2.342   1.742   4.014
 4396SOL    HW214088   2.312   1.863   4.120
 4397SOL     OW14089   0.006   1.738   4.056
 4397SOL    HW114090   0.050   1.719   3.967
 4397SOL    HW214091   0.069   1.792   4.112
 4398SOL     OW14092   1.488   4.726   4.422
 4398SOL    HW114093   1.498   4.675   4.508
 4398SOL    HW214094   1.502   4.664   4.345
 4399SOL     OW14095   2.267   0.742   1.464
 4399SOL    HW114096   2.327   0.795   1.523
 4399SOL    HW214097   2.267   0.783   1.372
 4400SOL     OW14098   2.161   6.809   4.971
 4400SOL    HW114099   2.171   6.856   4.883
 4400SOL    HW214100   2.200   6.865   5.044
 4401SOL     OW14101   5.777   5.627   6.120
 4401SOL    HW114102   5.680   5.627   6.143
 4401SOL    HW214103   5.814   5.719   6.133
 4402SOL     OW14104   1.819   6.191   3.113
 4402SOL    HW114105   1.822   6.152   3.205
 4402SOL    HW214106   1.777   6.282   3.116
 4403SOL     OW14107   0.142   6.922   3.401
 4403SOL    HW114108   0.055   6.923   3.353
 4403SOL    HW214109   0.150   7.003   3.459
 4404SOL     OW14110   1.109   3.643   4.969
 4404SOL    HW114111   1.112   3.736   5.006
 4404SOL    HW214112   1.030   3.634   4.908
 4405SOL     OW14113   2.981   4.647   6.858
 4405SOL    HW114114   2.973   4.595   6.943
 4405SOL    HW214115   3.046   4.722   6.870
 4406SOL     OW14116   4.977   4.511   0.836
 4406SOL    HW114117   5.052   4.497   0.770
 4406SOL    HW214118   4.963   4.428   0.888
 4407SOL     OW14119   0.310   5.213   1.033
 4407SOL    HW114120   0.256   5.272   1.093
 4407SOL    HW214121   0.277   5.223   0.939
 4408SOL     OW14122   4.891   0.905   0.519
 4408SOL    HW114123   4.918   0.968   0.447
 4408SOL    HW214124   4.886   0.812   0.482
 4409SOL     OW14125   3.659   0.956   1.649
 4409SOL    HW114126   3.681   1.047   1.613
 4409SOL    HW214127   3.680   0.887   1.580
 4410SOL     OW14128   2.124   4.452   0.230
 4410SOL    HW114129   2.099   4.395   0.308
 4410SOL    HW214130   2.055   4.443   0.158
 4411SOL     OW14131   4.130   3.392   3.256
 4411SOL    HW114132   4.104   3.297   3.234
 4411SOL    HW214133   4.117   3.408   3.353
 4412SOL     OW14134   3.620   1.737   4.537
 4412SOL    HW114135   3.658   1.826   4.561
 4412SOL    HW214136   3.545   1.714   4.599
 4413SOL     OW14137   4.733   5.820   5.092
 4413SOL    HW114138   4.724   5.721   5.089
 4413SOL    HW214139   4.662   5.862   5.034
 4414SOL     OW14140   4.626   4.769   2.002
 4414SOL    HW114141   4.667   4.783   1.912
 4414SOL    HW214142   4.626   4.671   2.025
 4415SOL     OW14143   4.191   3.589   6.781
 4415SOL    HW114144   4.136   3.622   6.705
 4415SOL    HW214145   4.271   3.648   6.792
 4416SOL     OW14146   2.945   1.245   4.377
 4416SOL    HW114147   2.895   1.159   4.376
 4416SOL    HW214148   3.003   1.251   4.296
 4417SOL     OW14149   6.438   4.306   2.209
 4417SOL    HW114150   6.507   4.310   2.282
 4417SOL    HW214151   6.383   4.390   2.212
 4418SOL     OW14152   4.848   6.613   4.428
 4418SOL    HW114153   4.789   6.623   4.348
 4418SOL    HW214154   4.908   6.692   4.434
 4419SOL     OW14155   5.499   5.485   0.648
 4419SOL    HW114156   5.458   5.507   0.560
 4419SOL    HW214157   5.501   5.567   0.706
 4420SOL     OW14158   5.218   1.817   0.669
 4420SOL    HW114159   5.271   1.884   0.721
 4420SOL    HW214160   5.201   1.853   0.577
 4421SOL     OW14161   1.898   1.117   3.193
 4421SOL    HW114162   1.981   1.123   3.248
 4421SOL    HW214163   1.884   1.204   3.144
 4422SOL     OW14164   2.398   3.801   5.617
 4422SOL    HW114165   2.301   3.784   5.606
 4422SOL    HW214166   2.442   3.721   5.658
 4423SOL     OW14167   1.285   2.556   5.551
 4423SOL    HW114168   1.225   2.531   5.474
 4423SOL    HW214169   1.243   2.525   5.637
 4424SOL     OW14170   5.716   6.484   3.694
 4424SOL    HW114171   5.812   6.487   3.665
 4424SOL    HW214172   5.710   6.445   3.786
 4425SOL     OW14173   3.457   5.494   5.777
 4425SOL    HW114174   3.523   5.564   5.749
 4425SOL    HW214175   3.433   5.437   5.698
 4426SOL     OW14176   6.507   1.476   4.501
 4426SOL    HW114177   6.455   1.431   4.574
 4426SOL    HW214178   6.492   1.575   4.506
 4427SOL     OW14179   0.097   0.102   2.443
 4427SOL    HW114180   0.195   0.103   2.463
 4427SOL    HW214181   0.045   0.101   2.529
 4428SOL     OW14182   2.866   5.104   3.096
 4428SOL    HW114183   2.905   5.018   3.131
 4428SOL    HW214184   2.909   5.181   3.143
 4429SOL     OW14185   2.767   0.443   3.996
 4429SOL    HW114186   2.699   0.461   4.067
 4429SOL    HW214187   2.750   0.503   3.918
 4430SOL     OW14188   5.071   3.094   3.540
 4430SOL    HW114189   5.008   3.164   3.571
 4430SOL    HW214190   5.026   3.035   3.473
 4431SOL     OW14191   1.747   1.783   1.997
 4431SOL    HW114192   1.821   1.850   1.995
 4431SOL    HW214193   1.661   1.829   2.019
 4432SOL     OW14194   2.989   3.914   4.013
 4432SOL    HW114195   3.044   3.953   3.940
 4432SOL    HW214196   2.893   3.938   3.999
 4433SOL     OW14197   6.122   0.283   4.397
 4433SOL    HW114198   6.069   0.205   4.428
 4433SOL    HW214199   6.200   0.298   4.459
 4434SOL     OW14200   4.842   1.298   4.097
 4434SOL    HW114201   4.840   1.393   4.064
 4434SOL    HW214202   4.800   1.239   4.029
 4435SOL     OW14203   4.383   3.499   0.984
 4435SOL    HW114204   4.317   3.486   1.058
 4435SOL    HW214205   4.457   3.560   1.015
 4436SOL     OW14206   2.901   2.416   0.345
 4436SOL    HW114207   2.951   2.336   0.380
 4436SOL    HW214208   2.839   2.450   0.416
 4437SOL     OW14209   5.078   1.364   3.566
 4437SOL    HW114210   5.174   1.390   3.548
 4437SOL    HW214211   5.075   1.271   3.602
 4438SOL     OW14212   3.809   2.026   6.612
 4438SOL    HW114213   3.862   2.053   6.532
 4438SOL    HW214214   3.763   2.107   6.650
 4439SOL     OW14215   0.600   5.608   1.436
 4439SOL    HW114216   0.693   5.645   1.442
 4439SOL    HW214217   0.576   5.563   1.522
 4440SOL     OW14218   1.631   5.021   6.767
 4440SOL    HW114219   1.617   5.107   6.719
 4440SOL    HW214220   1.729   5.003   6.776
 4441SOL     OW14221   6.808   1.400   2.240
 4441SOL    HW114222   6.815   1.342   2.158
 4441SOL    HW214223   6.758   1.483   2.217
 4442SOL     OW14224   3.089   5.825   3.957
 4442SOL    HW114225   3.065   5.855   4.049
 4442SOL    HW214226   3.047   5.885   3.889
 4443SOL     OW14227   0.924   2.815   6.949
 4443SOL    HW114228   0.867   2.871   6.888
 4443SOL    HW214229   0.982   2.755   6.894
 4444SOL     OW14230   3.440   5.924   6.488
 4444SOL    HW114231   3.354   5.952   6.445
 4444SOL    HW214232   3.441   5.824   6.497
 4445SOL     OW14233   0.039   0.179   0.704
 4445SOL    HW114234   0.137   0.160   0.708
 4445SOL    HW214235   0.003   0.149   0.616
 4446SOL     OW14236   5.850   1.277   1.466
 4446SOL    HW114237   5.796   1.193   1.458
 4446SOL    HW214238   5.802   1.352   1.420
 4447SOL     OW14239   5.548   3.887   6.141
 4447SOL    HW114240   5.539   3.800   6.190
 4447SOL    HW214241   5.609   3.876   6.063
 4448SOL     OW14242   3.367   3.907   0.774
 4448SOL    HW114243   3.315   3.924   0.691
 4448SOL    HW214244   3.463   3.933   0.760
 4449SOL     OW14245   4.480   0.389   6.094
 4449SOL    HW114246   4.550   0.457   6.116
 4449SOL    HW214247   4.470   0.325   6.170
 4450SOL     OW14248   3.265   2.986   3.824
 4450SOL    HW114249   3.176   3.025   3.846
 4450SOL    HW214250   3.334   3.059   3.823
 4451SOL     OW14251   5.470   4.063   2.878
 4451SOL    HW114252   5.455   4.102   2.969
 4451SOL    HW214253   5.470   3.963   2.885
 4452SOL     OW14254   5.470   6.234   4.907
 4452SOL    HW114255   5.377   6.269   4.896
 4452SOL    HW214256   5.481   6.150   4.854
 4453SOL     OW14257   6.839   2.590   0.266
 4453SOL    HW114258   6.792   2.561   0.183
 4453SOL    HW214259   6.776   2.642   0.324
 4454SOL     OW14260   5.087   2.726   0.308
 4454SOL    HW114261   4.988   2.737   0.316
 4454SOL    HW214262   5.115   2.640   0.351
 4455SOL     OW14263   3.149   6.918   6.864
 4455SOL    HW114264   3.210   6.839   6.861
 4455SOL    HW214265   3.174   6.978   6.940
 4456SOL     OW14266   2.469   4.926   2.469
 4456SOL    HW114267   2.468   4.970   2.380
 4456SOL    HW214268   2.417   4.981   2.535
 4457SOL     OW14269   4.021   2.410   0.223
 4457SOL    HW114270   4.050   2.447   0.135
 4457SOL    HW214271   4.066   2.321   0.238
 4458SOL     OW14272   1.492   4.142   6.674
 4458SOL    HW114273   1.439   4.067   6.635
 4458SOL    HW214274   1.455   4.165   6.764
 4459SOL     OW14275   5.450   6.964   3.675
 4459SOL    HW114276   5.531   6.973   3.617
 4459SOL    HW214277   5.471   6.996   3.767
 4460SOL     OW14278   2.536   2.575   5.664
 4460SOL    HW114279   2.445   2.580   5.623
 4460SOL    HW214280   2.544   2.645   5.736
 4461SOL     OW14281   0.866   0.517   2.184
 4461SOL    HW114282   0.942   0.576   2.213
 4461SOL    HW214283   0.859   0.438   2.245
 4462SOL     OW14284   6.907   3.740   1.084
 4462SOL    HW114285   6.895   3.712   0.988
 4462SOL    HW214286   7.005   3.746   1.105
 4463SOL     OW14287   2.565   2.822   0.102
 4463SOL    HW114288   2.655   2.779   0.114
 4463SOL    HW214289   2.539   2.820   0.006
 4464SOL     OW14290   6.178   5.340   6.902
 4464SOL    HW114291   6.173   5.425   6.849
 4464SOL    HW214292   6.086   5.311   6.928
 4465SOL     OW14293   2.465   5.911   3.488
 4465SOL    HW114294   2.428   5.997   3.523
 4465SOL    HW214295   2.404   5.836   3.512
 4466SOL     OW14296   1.299   0.656   2.572
 4466SOL    HW114297   1.317   0.562   2.544
 4466SOL    HW214298   1.286   0.660   2.671
 4467SOL     OW14299   1.018   6.153   3.661
 4467SOL    HW114300   1.090   6.214   3.628
 4467SOL    HW214301   1.019   6.069   3.608
 4468SOL     OW14302   0.797   1.788   0.056
 4468SOL    HW114303   0.752   1.698   0.056
 4468SOL    HW214304   0.741   1.854   0.006
 4469SOL     OW14305   3.431   0.095   1.224
 4469SOL    HW114306   3.464   0.187   1.246
 4469SOL    HW214307   3.369   0.063   1.296
 4470SOL     OW14308   6.015   3.567   1.361
 4470SOL    HW114309   5.919   3.553   1.341
 4470SOL    HW214310   6.024   3.615   1.448
 4471SOL     OW14311   0.506   2.561   0.626
 4471SOL    HW114312   0.588   2.559   0.683
 4471SOL    HW214313   0.518   2.501   0.547
 4472SOL     OW14314   1.547   3.402   3.724
 4472SOL    HW114315   1.640   3.403   3.687
 4472SOL    HW214316   1.489   3.344   3.668
 4473SOL     OW14317   6.661   1.674   4.292
 4473SOL    HW114318   6.623   1.593   4.247
 4473SOL    HW214319   6.709   1.730   4.225
 4474SOL     OW14320   2.948   1.295   1.882
 4474SOL    HW114321   2.878   1.321   1.817
 4474SOL    HW214322   3.026   1.357   1.874
 4475SOL     OW14323   1.764   4.165   2.420
 4475SOL    HW114324   1.722   4.252   2.447
 4475SOL    HW214325   1.704   4.090   2.445
 4476SOL     OW14326   5.113   6.235   4.240
 4476SOL    HW114327   5.128   6.152   4.187
 4476SOL    HW214328   5.108   6.314   4.178
 4477SOL     OW14329   1.783   6.991   6.480
 4477SOL    HW114330   1.805   0.065   6.454
 4477SOL    HW214331   1.862   6.949   6.525
 4478SOL     OW14332   3.056   6.241   2.639
 4478SOL    HW114333   2.964   6.205   2.626
 4478SOL    HW214334   3.079   6.240   2.737
 4479SOL     OW14335   0.967   0.651   0.389
 4479SOL    HW114336   0.890   0.709   0.417
 4479SOL    HW214337   0.956   0.626   0.293
 4480SOL     OW14338   2.170   4.044   4.740
 4480SOL    HW114339   2.234   4.032   4.816
 4480SOL    HW214340   2.107   4.118   4.761
 4481SOL     OW14341   2.774   0.258   4.762
 4481SOL    HW114342   2.701   0.238   4.826
 4481SOL    HW214343   2.860   0.218   4.795
 4482SOL     OW14344   0.855   3.865   4.378
 4482SOL    HW114345   0.892   3.939   4.434
 4482SOL    HW214346   0.812   3.903   4.296
 4483SOL     OW14347   6.016   3.258   1.178
 4483SOL    HW114348   6.018   3.231   1.274
 4483SOL    HW214349   6.047   3.353   1.169
 4484SOL     OW14350   3.123   2.132   5.299
 4484SOL    HW114351   3.161   2.064   5.236
 4484SOL    HW214352   3.110   2.218   5.250
 4485SOL     OW14353   5.504   2.467   6.104
 4485SOL    HW114354   5.589   2.519   6.116
 4485SOL    HW214355   5.451   2.507   6.030
 4486SOL     OW14356   5.702   3.423   4.276
 4486SOL    HW114357   5.644   3.417   4.195
 4486SOL    HW214358   5.720   3.331   4.310
 4487SOL     OW14359   2.350   3.049   6.714
 4487SOL    HW114360   2.328   3.066   6.618
 4487SOL    HW214361   2.272   3.006   6.760
 4488SOL     OW14362   5.560   2.673   5.593
 4488SOL    HW114363   5.480   2.620   5.621
 4488SOL    HW214364   5.531   2.754   5.542
 4489SOL     OW14365   4.954   6.144   4.449
 4489SOL    HW114366   5.006   6.071   4.492
 4489SOL    HW214367   5.009   6.187   4.378
 4490SOL     OW14368   5.544   2.241   1.938
 4490SOL    HW114369   5.594   2.255   1.853
 4490SOL    HW214370   5.485   2.161   1.929
 4491SOL     OW14371   0.614   2.719   3.523
 4491SOL    HW114372   0.652   2.646   3.466
 4491SOL    HW214373   0.653   2.807   3.494
 4492SOL     OW14374   5.420   4.188   0.873
 4492SOL    HW114375   5.476   4.106   0.886
 4492SOL    HW214376   5.395   4.225   0.963
 4493SOL     OW14377   4.429   5.431   5.582
 4493SOL    HW114378   4.338   5.421   5.541
 4493SOL    HW214379   4.488   5.356   5.552
 4494SOL     OW14380   0.286   1.802   6.159
 4494SOL    HW114381   0.382   1.827   6.142
 4494SOL    HW214382   0.236   1.881   6.194
 4495SOL     OW14383   5.107   6.557   3.624
 4495SOL    HW114384   5.111   6.471   3.573
 4495SOL    HW214385   5.150   6.629   3.570
 4496SOL     OW14386   4.973   5.736   0.773
 4496SOL    HW114387   5.042   5.671   0.807
 4496SOL    HW214388   4.975   5.819   0.828
 4497SOL     OW14389   4.805   0.006   0.101
 4497SOL    HW114390   4.751   0.045   0.176
 4497SOL    HW214391   4.744   6.986   0.033
 4498SOL     OW14392   0.359   3.243   6.116
 4498SOL    HW114393   0.292   3.280   6.181
 4498SOL    HW214394   0.313   3.181   6.053
 4499SOL     OW14395   0.014   3.759   3.962
 4499SOL    HW114396   0.034   3.787   4.055
 4499SOL    HW214397   0.086   3.698   3.929
 4500SOL     OW14398   3.224   3.459   4.054
 4500SOL    HW114399   3.185   3.551   4.050
 4500SOL    HW214400   3.265   3.436   3.966
 4501SOL     OW14401   6.977   3.204   5.871
 4501SOL    HW114402   6.956   3.111   5.902
 4501SOL    HW214403   0.047   3.204   5.827
 4502SOL     OW14404   1.937   2.616   6.456
 4502SOL    HW114405   1.979   2.612   6.365
 4502SOL    HW214406   1.915   2.711   6.478
 4503SOL     OW14407   3.119   0.550   2.603
 4503SOL    HW114408   3.124   0.642   2.641
 4503SOL    HW214409   3.044   0.546   2.536
 4504SOL     OW14410   6.433   1.920   5.197
 4504SOL    HW114411   6.363   1.958   5.257
 4504SOL    HW214412   6.523   1.935   5.237
 4505SOL     OW14413   6.623   5.698   3.858
 4505SOL    HW114414   6.550   5.707   3.790
 4505SOL    HW214415   6.641   5.787   3.900
 4506SOL     OW14416   4.867   2.607   4.770
 4506SOL    HW114417   4.905   2.631   4.680
 4506SOL    HW214418   4.917   2.655   4.841
 4507SOL     OW14419   5.146   3.769   1.436
 4507SOL    HW114420   5.069   3.705   1.428
 4507SOL    HW214421   5.123   3.841   1.501
 4508SOL     OW14422   0.364   4.969   6.246
 4508SOL    HW114423   0.393   4.884   6.290
 4508SOL    HW214424   0.266   4.966   6.229
 4509SOL     OW14425   4.872   2.315   3.699
 4509SOL    HW114426   4.856   2.401   3.749
 4509SOL    HW214427   4.817   2.242   3.740
 4510SOL     OW14428   5.725   6.404   5.300
 4510SOL    HW114429   5.735   6.326   5.362
 4510SOL    HW214430   5.647   6.460   5.329
 4511SOL     OW14431   7.006   2.976   6.560
 4511SOL    HW114432   6.943   2.906   6.528
 4511SOL    HW214433   6.990   2.993   6.658
 4512SOL     OW14434   2.300   6.615   6.180
 4512SOL    HW114435   2.210   6.573   6.171
 4512SOL    HW214436   2.359   6.557   6.236
 4513SOL     OW14437   5.330   6.404   0.567
 4513SOL    HW114438   5.364   6.342   0.637
 4513SOL    HW214439   5.321   6.496   0.606
 4514SOL     OW14440   4.468   0.363   4.686
 4514SOL    HW114441   4.445   0.414   4.769
 4514SOL    HW214442   4.513   0.278   4.709
 4515SOL     OW14443   6.812   4.264   6.056
 4515SOL    HW114444   6.810   4.164   6.045
 4515SOL    HW214445   6.762   4.307   5.981
 4516SOL     OW14446   1.582   1.381   5.915
 4516SOL    HW114447   1.645   1.447   5.874
 4516SOL    HW214448   1.497   1.427   5.938
 4517SOL     OW14449   2.315   0.406   6.854
 4517SOL    HW114450   2.283   0.499   6.836
 4517SOL    HW214451   2.240   0.350   6.887
 4518SOL     OW14452   6.615   1.436   3.420
 4518SOL    HW114453   6.675   1.507   3.382
 4518SOL    HW214454   6.555   1.401   3.348
 4519SOL     OW14455   6.047   0.603   1.703
 4519SOL    HW114456   6.014   0.529   1.761
 4519SOL    HW214457   5.973   0.668   1.684
 4520SOL     OW14458   5.520   5.602   3.156
 4520SOL    HW114459   5.455   5.652   3.098
 4520SOL    HW214460   5.485   5.599   3.250
 4521SOL     OW14461   4.974   2.239   5.084
 4521SOL    HW114462   5.023   2.191   5.011
 4521SOL    HW214463   4.968   2.179   5.164
 4522SOL     OW14464   5.244   0.302   3.695
 4522SOL    HW114465   5.193   0.219   3.718
 4522SOL    HW214466   5.312   0.281   3.625
 4523SOL     OW14467   0.990   4.736   0.184
 4523SOL    HW114468   1.023   4.659   0.129
 4523SOL    HW214469   1.055   4.812   0.176
 4524SOL     OW14470   5.266   2.422   5.284
 4524SOL    HW114471   5.303   2.509   5.251
 4524SOL    HW214472   5.309   2.347   5.235
 4525SOL     OW14473   6.288   1.679   3.177
 4525SOL    HW114474   6.249   1.648   3.264
 4525SOL    HW214475   6.241   1.633   3.102
 4526SOL     OW14476   4.957   0.620   0.533
 4526SOL    HW114477   4.954   0.521   0.538
 4526SOL    HW214478   5.037   0.649   0.480
 4527SOL     OW14479   4.140   1.215   4.237
 4527SOL    HW114480   4.167   1.293   4.293
 4527SOL    HW214481   4.144   1.240   4.140
 4528SOL     OW14482   5.167   6.371   0.358
 4528SOL    HW114483   5.151   6.273   0.360
 4528SOL    HW214484   5.218   6.398   0.440
 4529SOL     OW14485   3.571   1.396   3.711
 4529SOL    HW114486   3.626   1.399   3.795
 4529SOL    HW214487   3.606   1.323   3.652
 4530SOL     OW14488   6.961   3.524   5.691
 4530SOL    HW114489   6.877   3.471   5.706
 4530SOL    HW214490   0.003   3.472   5.632
 4531SOL     OW14491   0.058   3.220   3.495
 4531SOL    HW114492   0.117   3.141   3.508
 4531SOL    HW214493   0.064   3.280   3.575
 4532SOL     OW14494   0.319   1.168   2.144
 4532SOL    HW114495   0.291   1.102   2.074
 4532SOL    HW214496   0.243   1.228   2.166
 4533SOL     OW14497   1.423   0.251   3.166
 4533SOL    HW114498   1.326   0.269   3.152
 4533SOL    HW214499   1.434   0.173   3.228
 4534SOL     OW14500   5.960   3.299   4.025
 4534SOL    HW114501   6.011   3.263   4.103
 4534SOL    HW214502   6.017   3.364   3.975
 4535SOL     OW14503   4.468   2.063   2.734
 4535SOL    HW114504   4.454   2.135   2.802
 4535SOL    HW214505   4.471   1.974   2.779
 4536SOL     OW14506   4.373   2.385   4.440
 4536SOL    HW114507   4.277   2.358   4.451
 4536SOL    HW214508   4.424   2.310   4.400
 4537SOL     OW14509   3.703   3.593   6.110
 4537SOL    HW114510   3.754   3.573   6.194
 4537SOL    HW214511   3.614   3.547   6.114
 4538SOL     OW14512   2.638   1.723   4.174
 4538SOL    HW114513   2.641   1.794   4.104
 4538SOL    HW214514   2.713   1.658   4.160
 4539SOL     OW14515   2.488   1.416   4.128
 4539SOL    HW114516   2.587   1.396   4.126
 4539SOL    HW214517   2.474   1.512   4.152
 4540SOL     OW14518   3.067   3.090   4.136
 4540SOL    HW114519   3.022   3.156   4.196
 4540SOL    HW214520   3.043   3.110   4.041
 4541SOL     OW14521   5.564   1.289   6.691
 4541SOL    HW114522   5.534   1.205   6.735
 4541SOL    HW214523   5.513   1.302   6.606
 4542SOL     OW14524   5.861   6.963   1.790
 4542SOL    HW114525   5.872   6.894   1.861
 4542SOL    HW214526   5.895   0.032   1.824
 4543SOL     OW14527   4.313   1.859   0.035
 4543SOL    HW114528   4.216   1.849   0.017
 4543SOL    HW214529   4.356   1.912   6.981
 4544SOL     OW14530   2.737   6.068   5.588
 4544SOL    HW114531   2.786   6.154   5.603
 4544SOL    HW214532   2.642   6.087   5.563
 4545SOL     OW14533   5.196   2.407   4.971
 4545SOL    HW114534   5.294   2.421   4.983
 4545SOL    HW214535   5.167   2.327   5.024
 4546SOL     OW14536   0.927   0.359   6.378
 4546SOL    HW114537   0.875   0.444   6.386
 4546SOL    HW214538   1.021   0.374   6.408
 4547SOL     OW14539   6.566   2.273   3.300
 4547SOL    HW114540   6.532   2.304   3.211
 4547SOL    HW214541   6.494   2.222   3.348
 4548SOL     OW14542   1.241   4.479   4.723
 4548SOL    HW114543   1.181   4.546   4.679
 4548SOL    HW214544   1.301   4.439   4.654
 4549SOL     OW14545   6.151   3.338   2.569
 4549SOL    HW114546   6.096   3.420   2.585
 4549SOL    HW214547   6.231   3.362   2.514
 4550SOL     OW14548   0.620   6.462   2.940
 4550SOL    HW114549   0.527   6.449   2.974
 4550SOL    HW214550   0.679   6.492   3.015
 4551SOL     OW14551   0.433   2.332   5.334
 4551SOL    HW114552   0.361   2.374   5.280
 4551SOL    HW214553   0.438   2.234   5.314
 4552SOL     OW14554   6.990   2.437   6.226
 4552SOL    HW114555   0.049   2.384   6.194
 4552SOL    HW214556   6.936   2.383   6.290
 4553SOL     OW14557   3.739   4.311   0.540
 4553SOL    HW114558   3.723   4.396   0.591
 4553SOL    HW214559   3.837   4.291   0.538
 4554SOL     OW14560   3.971   1.047   1.409
 4554SOL    HW114561   4.065   1.070   1.434
 4554SOL    HW214562   3.908   1.091   1.473
 4555SOL     OW14563   3.441   2.054   6.063
 4555SOL    HW114564   3.541   2.053   6.065
 4555SOL    HW214565   3.406   2.042   6.156
 4556SOL     OW14566   4.630   2.235   3.561
 4556SOL    HW114567   4.680   2.302   3.507
 4556SOL    HW214568   4.628   2.264   3.656
 4557SOL     OW14569   5.067   6.528   5.264
 4557SOL    HW114570   5.028   6.611   5.223
 4557SOL    HW214571   5.133   6.488   5.201
 4558SOL     OW14572   6.553   4.056   6.050
 4558SOL    HW114573   6.534   4.083   6.144
 4558SOL    HW214574   6.471   4.072   5.994
 4559SOL     OW14575   1.259   5.309   1.401
 4559SOL    HW114576   1.285   5.274   1.312
 4559SOL    HW214577   1.337   5.305   1.463
 4560SOL     OW14578   5.614   4.593   3.506
 4560SOL    HW114579   5.671   4.533   3.451
 4560SOL    HW214580   5.650   4.598   3.599
 4561SOL     OW14581   3.023   0.900   1.482
 4561SOL    HW114582   3.078   0.929   1.403
 4561SOL    HW214583   2.927   0.919   1.464
 4562SOL     OW14584   3.104   5.973   5.083
 4562SOL    HW114585   3.181   5.982   5.146
 4562SOL    HW214586   3.029   5.924   5.128
 4563SOL     OW14587   6.589   3.809   6.979
 4563SOL    HW114588   6.663   3.875   6.967
 4563SOL    HW214589   6.519   3.848   0.019
 4564SOL     OW14590   0.675   6.095   0.783
 4564SOL    HW114591   0.763   6.130   0.752
 4564SOL    HW214592   0.601   6.155   0.752
 4565SOL     OW14593   0.370   1.394   5.445
 4565SOL    HW114594   0.316   1.475   5.420
 4565SOL    HW214595   0.315   1.312   5.435
 4566SOL     OW14596   6.952   0.795   1.068
 4566SOL    HW114597   7.012   0.851   1.011
 4566SOL    HW214598   6.873   0.849   1.098
 4567SOL     OW14599   0.597   0.639   0.121
 4567SOL    HW114600   0.599   0.539   0.123
 4567SOL    HW214601   0.652   0.675   0.196
 4568SOL     OW14602   1.645   4.428   5.232
 4568SOL    HW114603   1.556   4.436   5.276
 4568SOL    HW214604   1.685   4.519   5.222
 4569SOL     OW14605   2.117   1.282   3.450
 4569SOL    HW114606   2.168   1.231   3.380
 4569SOL    HW214607   2.109   1.226   3.532
 4570SOL     OW14608   0.285   4.919   3.003
 4570SOL    HW114609   0.220   4.917   3.078
 4570SOL    HW214610   0.249   4.977   2.929
 4571SOL     OW14611   3.777   3.326   5.230
 4571SOL    HW114612   3.697   3.386   5.227
 4571SOL    HW214613   3.840   3.358   5.300
 4572SOL     OW14614   0.680   6.116   6.412
 4572SOL    HW114615   0.713   6.154   6.499
 4572SOL    HW214616   0.753   6.064   6.368
 4573SOL     OW14617   6.186   5.994   0.408
 4573SOL    HW114618   6.225   5.959   0.493
 4573SOL    HW214619   6.087   5.979   0.408
 4574SOL     OW14620   6.851   4.184   1.143
 4574SOL    HW114621   6.946   4.208   1.162
 4574SOL    HW214622   6.826   4.218   1.052
 4575SOL     OW14623   6.531   2.051   6.875
 4575SOL    HW114624   6.625   2.020   6.857
 4575SOL    HW214625   6.496   2.098   6.794
 4576SOL     OW14626   2.853   6.354   6.544
 4576SOL    HW114627   2.939   6.388   6.506
 4576SOL    HW214628   2.808   6.296   6.476
 4577SOL     OW14629   0.150   2.966   3.503
 4577SOL    HW114630   0.167   2.946   3.600
 4577SOL    HW214631   0.135   2.880   3.455
 4578SOL     OW14632   0.474   3.814   3.545
 4578SOL    HW114633   0.429   3.731   3.512
 4578SOL    HW214634   0.404   3.878   3.577
 4579SOL     OW14635   5.192   1.383   2.926
 4579SOL    HW114636   5.276   1.432   2.902
 4579SOL    HW214637   5.213   1.311   2.992
 4580SOL     OW14638   5.665   5.582   0.079
 4580SOL    HW114639   5.589   5.607   0.140
 4580SOL    HW214640   5.750   5.584   0.131
 4581SOL     OW14641   3.204   5.333   2.885
 4581SOL    HW114642   3.140   5.403   2.854
 4581SOL    HW214643   3.215   5.264   2.815
 4582SOL     OW14644   6.338   6.715   4.754
 4582SOL    HW114645   6.320   6.743   4.848
 4582SOL    HW214646   6.310   6.620   4.740
 4583SOL     OW14647   2.457   1.302   4.761
 4583SOL    HW114648   2.550   1.324   4.792
 4583SOL    HW214649   2.397   1.294   4.841
 4584SOL     OW14650   0.520   5.537   5.676
 4584SOL    HW114651   0.609   5.493   5.661
 4584SOL    HW214652   0.451   5.493   5.619
 4585SOL     OW14653   3.089   6.521   3.115
 4585SOL    HW114654   3.142   6.454   3.166
 4585SOL    HW214655   3.092   6.609   3.162
 4586SOL     OW14656   3.811   5.027   0.792
 4586SOL    HW114657   3.858   5.104   0.835
 4586SOL    HW214658   3.862   4.999   0.711
 4587SOL     OW14659   4.305   3.309   1.740
 4587SOL    HW114660   4.331   3.213   1.729
 4587SOL    HW214661   4.206   3.318   1.729
 4588SOL     OW14662   3.830   3.934   5.236
 4588SOL    HW114663   3.823   4.018   5.181
 4588SOL    HW214664   3.741   3.915   5.278
 4589SOL     OW14665   5.699   1.340   2.005
 4589SOL    HW114666   5.689   1.299   1.914
 4589SOL    HW214667   5.653   1.283   2.073
 4590SOL     OW14668   4.339   6.346   2.293
 4590SOL    HW114669   4.255   6.341   2.238
 4590SOL    HW214670   4.326   6.292   2.377
 4591SOL     OW14671   0.876   6.139   4.937
 4591SOL    HW114672   0.832   6.163   5.024
 4591SOL    HW214673   0.970   6.110   4.955
 4592SOL     OW14674   4.069   2.804   1.681
 4592SOL    HW114675   4.162   2.826   1.710
 4592SOL    HW214676   4.003   2.841   1.747
 4593SOL     OW14677   4.221   5.537   4.035
 4593SOL    HW114678   4.290   5.500   3.972
 4593SOL    HW214679   4.175   5.615   3.991
 4594SOL     OW14680   3.398   2.189   1.247
 4594SOL    HW114681   3.406   2.113   1.183
 4594SOL    HW214682   3.452   2.170   1.329
 4595SOL     OW14683   3.678   2.569   5.719
 4595SOL    HW114684   3.628   2.482   5.708
 4595SOL    HW214685   3.727   2.590   5.635
 4596SOL     OW14686   6.209   6.559   2.437
 4596SOL    HW114687   6.251   6.539   2.349
 4596SOL    HW214688   6.129   6.619   2.423
 4597SOL     OW14689   4.485   4.609   0.139
 4597SOL    HW114690   4.574   4.642   0.107
 4597SOL    HW214691   4.498   4.554   0.221
 4598SOL     OW14692   1.690   5.585   0.036
 4598SOL    HW114693   1.778   5.540   0.048
 4598SOL    HW214694   1.688   5.670   0.089
 4599SOL     OW14695   1.778   4.360   1.188
 4599SOL    HW114696   1.716   4.421   1.237
 4599SOL    HW214697   1.865   4.406   1.172
 4600SOL     OW14698   2.142   5.913   5.974
 4600SOL    HW114699   2.045   5.901   5.955
 4600SOL    HW214700   2.196   5.882   5.895
 4601SOL     OW14701   1.607   1.050   5.264
 4601SOL    HW114702   1.693   0.998   5.266
 4601SOL    HW214703   1.537   0.997   5.217
 4602SOL     OW14704   1.198   5.640   0.691
 4602SOL    HW114705   1.112   5.651   0.640
 4602SOL    HW214706   1.197   5.552   0.737
 4603SOL     OW14707   3.964   0.125   1.583
 4603SOL    HW114708   3.926   0.167   1.666
 4603SOL    HW214709   3.951   0.026   1.587
 4604SOL     OW14710   4.868   0.726   1.220
 4604SOL    HW114711   4.954   0.767   1.251
 4604SOL    HW214712   4.793   0.757   1.279
 4605SOL     OW14713   4.965   0.969   2.834
 4605SOL    HW114714   4.945   1.045   2.772
 4605SOL    HW214715   4.879   0.929   2.866
 4606SOL     OW14716   6.987   0.532   2.246
 4606SOL    HW114717   6.932   0.464   2.294
 4606SOL    HW214718   7.006   0.502   2.153
 4607SOL     OW14719   2.632   3.185   0.826
 4607SOL    HW114720   2.642   3.087   0.807
 4607SOL    HW214721   2.636   3.201   0.925
 4608SOL     OW14722   1.708   5.613   3.766
 4608SOL    HW114723   1.746   5.593   3.857
 4608SOL    HW214724   1.635   5.548   3.745
 4609SOL     OW14725   4.233   5.623   5.971
 4609SOL    HW114726   4.305   5.623   5.903
 4609SOL    HW214727   4.165   5.553   5.949
 4610SOL     OW14728   6.725   2.317   0.608
 4610SOL    HW114729   6.758   2.315   0.513
 4610SOL    HW214730   6.629   2.344   0.609
 4611SOL     OW14731   6.078   5.304   5.850
 4611SOL    HW114732   6.166   5.350   5.839
 4611SOL    HW214733   6.063   5.282   5.946
 4612SOL     OW14734   1.446   6.125   0.379
 4612SOL    HW114735   1.475   6.176   0.298
 4612SOL    HW214736   1.380   6.180   0.431
 4613SOL     OW14737   2.552   5.260   2.467
 4613SOL    HW114738   2.532   5.162   2.467
 4613SOL    HW214739   2.506   5.304   2.390
 4614SOL     OW14740   1.220   4.568   5.397
 4614SOL    HW114741   1.184   4.514   5.473
 4614SOL    HW214742   1.160   4.645   5.379
 4615SOL     OW14743   2.205   0.711   0.388
 4615SOL    HW114744   2.234   0.714   0.292
 4615SOL    HW214745   2.266   0.652   0.440
 4616SOL     OW14746   6.431   0.257   5.734
 4616SOL    HW114747   6.372   0.204   5.674
 4616SOL    HW214748   6.441   0.209   5.822
 4617SOL     OW14749   1.486   2.358   2.752
 4617SOL    HW114750   1.556   2.416   2.709
 4617SOL    HW214751   1.421   2.327   2.682
 4618SOL     OW14752   2.012   2.209   5.452
 4618SOL    HW114753   2.022   2.203   5.551
 4618SOL    HW214754   2.022   2.304   5.423
 4619SOL     OW14755   4.221   6.134   3.377
 4619SOL    HW114756   4.253   6.228   3.378
 4619SOL    HW214757   4.284   6.078   3.324
 4620SOL     OW14758   3.107   4.105   0.035
 4620SOL    HW114759   3.186   4.066   7.007
 4620SOL    HW214760   3.023   4.065   7.019
 4621SOL     OW14761   5.476   1.720   3.665
 4621SOL    HW114762   5.463   1.622   3.648
 4621SOL    HW214763   5.473   1.769   3.578
 4622SOL     OW14764   0.401   3.161   0.777
 4622SOL    HW114765   0.472   3.112   0.726
 4622SOL    HW214766   0.438   3.191   0.865
 4623SOL     OW14767   0.595   5.504   1.182
 4623SOL    HW114768   0.604   5.537   1.276
 4623SOL    HW214769   0.520   5.553   1.137
 4624SOL     OW14770   4.838   6.818   2.992
 4624SOL    HW114771   4.791   6.730   2.987
 4624SOL    HW214772   4.778   6.891   2.959
 4625SOL     OW14773   2.005   4.472   6.729
 4625SOL    HW114774   2.030   4.556   6.778
 4625SOL    HW214775   2.084   4.410   6.726
 4626SOL     OW14776   6.024   5.154   1.268
 4626SOL    HW114777   6.035   5.101   1.351
 4626SOL    HW214778   5.938   5.205   1.271
 4627SOL     OW14779   3.681   5.990   4.189
 4627SOL    HW114780   3.739   6.035   4.257
 4627SOL    HW214781   3.681   6.044   4.105
 4628SOL     OW14782   5.746   4.156   3.498
 4628SOL    HW114783   5.823   4.197   3.546
 4628SOL    HW214784   5.676   4.226   3.479
 4629SOL     OW14785   2.205   5.038   5.801
 4629SOL    HW114786   2.166   4.991   5.722
 4629SOL    HW214787   2.206   4.976   5.879
 4630SOL     OW14788   3.903   5.714   2.975
 4630SOL    HW114789   3.935   5.621   2.992
 4630SOL    HW214790   3.973   5.779   3.003
 4631SOL     OW14791   2.642   6.386   3.546
 4631SOL    HW114792   2.740   6.365   3.547
 4631SOL    HW214793   2.601   6.349   3.462
 4632SOL     OW14794   4.629   4.249   3.101
 4632SOL    HW114795   4.687   4.271   3.023
 4632SOL    HW214796   4.650   4.157   3.133
 4633SOL     OW14797   6.076   1.751   3.598
 4633SOL    HW114798   5.986   1.745   3.641
 4633SOL    HW214799   6.144   1.776   3.667
 4634SOL     OW14800   2.317   4.522   6.531
 4634SOL    HW114801   2.396   4.510   6.471
 4634SOL    HW214802   2.252   4.447   6.516
 4635SOL     OW14803   6.341   3.215   2.357
 4635SOL    HW114804   6.389   3.186   2.440
 4635SOL    HW214805   6.245   3.188   2.363
 4636SOL     OW14806   2.029   5.218   0.201
 4636SOL    HW114807   1.978   5.182   0.123
 4636SOL    HW214808   2.054   5.313   0.184
 4637SOL     OW14809   1.975   0.864   0.431
 4637SOL    HW114810   2.054   0.804   0.420
 4637SOL    HW214811   2.002   0.958   0.412
 4638SOL     OW14812   3.382   3.136   5.980
 4638SOL    HW114813   3.455   3.143   6.048
 4638SOL    HW214814   3.302   3.188   6.010
 4639SOL     OW14815   1.821   4.641   5.177
 4639SOL    HW114816   1.907   4.604   5.141
 4639SOL    HW214817   1.800   4.727   5.131
 4640SOL     OW14818   4.779   5.286   3.381
 4640SOL    HW114819   4.827   5.207   3.341
 4640SOL    HW214820   4.791   5.366   3.323
 4641SOL     OW14821   2.647   5.594   4.070
 4641SOL    HW114822   2.702   5.516   4.099
 4641SOL    HW214823   2.693   5.679   4.096
 4642SOL     OW14824   0.826   6.746   5.305
 4642SOL    HW114825   0.914   6.715   5.341
 4642SOL    HW214826   0.821   6.846   5.310
 4643SOL     OW14827   5.431   2.520   0.817
 4643SOL    HW114828   5.428   2.422   0.836
 4643SOL    HW214829   5.526   2.552   0.821
 4644SOL     OW14830   1.090   4.991   4.372
 4644SOL    HW114831   1.091   5.076   4.320
 4644SOL    HW214832   1.031   5.003   4.452
 4645SOL     OW14833   1.560   0.431   4.372
 4645SOL    HW114834   1.599   0.371   4.442
 4645SOL    HW214835   1.626   0.445   4.299
 4646SOL     OW14836   2.811   6.500   3.112
 4646SOL    HW114837   2.906   6.502   3.080
 4646SOL    HW214838   2.764   6.422   3.073
 4647SOL     OW14839   0.840   6.588   3.078
 4647SOL    HW114840   0.908   6.628   3.016
 4647SOL    HW214841   0.772   6.658   3.101
 4648SOL     OW14842   4.067   0.208   1.347
 4648SOL    HW114843   4.022   0.194   1.435
 4648SOL    HW214844   4.013   0.166   1.274
 4649SOL     OW14845   5.253   6.631   5.808
 4649SOL    HW114846   5.314   6.604   5.882
 4649SOL    HW214847   5.196   6.553   5.782
 4650SOL     OW14848   4.032   5.709   3.775
 4650SOL    HW114849   4.119   5.701   3.726
 4650SOL    HW214850   4.022   5.803   3.810
 4651SOL     OW14851   6.889   1.812   0.927
 4651SOL    HW114852   6.891   1.912   0.930
 4651SOL    HW214853   6.960   1.779   0.865
 4652SOL     OW14854   0.673   0.246   4.009
 4652SOL    HW114855   0.653   0.324   3.949
 4652SOL    HW214856   0.588   0.212   4.049
 4653SOL     OW14857   6.728   5.482   6.732
 4653SOL    HW114858   6.752   5.563   6.786
 4653SOL    HW214859   6.663   5.426   6.785
 4654SOL     OW14860   0.585   0.130   0.255
 4654SOL    HW114861   0.488   0.108   0.242
 4654SOL    HW214862   0.637   0.099   0.175
 4655SOL     OW14863   6.574   5.097   1.919
 4655SOL    HW114864   6.674   5.094   1.908
 4655SOL    HW214865   6.531   5.040   1.849
 4656SOL     OW14866   0.851   6.847   3.431
 4656SOL    HW114867   0.942   6.877   3.459
 4656SOL    HW214868   0.831   6.758   3.471
 4657SOL     OW14869   5.034   0.097   1.556
 4657SOL    HW114870   5.133   0.104   1.545
 4657SOL    HW214871   4.991   0.181   1.525
 4658SOL     OW14872   3.638   0.946   2.376
 4658SOL    HW114873   3.605   0.995   2.456
 4658SOL    HW214874   3.695   1.006   2.320
 4659SOL     OW14875   2.734   3.807   5.835
 4659SOL    HW114876   2.657   3.871   5.829
 4659SOL    HW214877   2.728   3.757   5.921
 4660SOL     OW14878   1.115   2.561   4.913
 4660SOL    HW114879   1.020   2.583   4.934
 4660SOL    HW214880   1.175   2.599   4.983
 4661SOL     OW14881   3.807   4.470   5.568
 4661SOL    HW114882   3.873   4.464   5.644
 4661SOL    HW214883   3.800   4.381   5.524
 4662SOL     OW14884   4.552   0.845   4.931
 4662SOL    HW114885   4.650   0.855   4.911
 4662SOL    HW214886   4.527   0.748   4.926
 4663SOL     OW14887   0.395   1.409   2.315
 4663SOL    HW114888   0.304   1.439   2.343
 4663SOL    HW214889   0.391   1.376   2.220
 4664SOL     OW14890   2.205   2.620   0.219
 4664SOL    HW114891   2.132   2.556   0.242
 4664SOL    HW214892   2.189   2.658   0.129
 4665SOL     OW14893   4.589   7.002   0.448
 4665SOL    HW114894   4.519   6.937   0.420
 4665SOL    HW214895   4.553   0.076   0.440
 4666SOL     OW14896   1.741   1.547   0.224
 4666SOL    HW114897   1.779   1.626   0.273
 4666SOL    HW214898   1.739   1.567   0.126
 4667SOL     OW14899   6.488   4.397   1.063
 4667SOL    HW114900   6.514   4.396   0.967
 4667SOL    HW214901   6.569   4.415   1.119
 4668SOL     OW14902   6.705   2.756   3.720
 4668SOL    HW114903   6.699   2.802   3.809
 4668SOL    HW214904   6.653   2.808   3.652
 4669SOL     OW14905   3.320   6.765   0.670
 4669SOL    HW114906   3.402   6.737   0.619
 4669SOL    HW214907   3.239   6.730   0.624
 4670SOL     OW14908   3.267   1.235   4.780
 4670SOL    HW114909   3.222   1.306   4.833
 4670SOL    HW214910   3.312   1.276   4.701
 4671SOL     OW14911   6.508   2.494   2.448
 4671SOL    HW114912   6.548   2.419   2.502
 4671SOL    HW214913   6.480   2.459   2.359
 4672SOL     OW14914   2.435   4.763   6.118
 4672SOL    HW114915   2.344   4.796   6.145
 4672SOL    HW214916   2.458   4.797   6.027
 4673SOL     OW14917   4.889   0.070   0.973
 4673SOL    HW114918   4.918   7.003   0.932
 4673SOL    HW214919   4.968   0.131   0.982
 4674SOL     OW14920   5.155   6.167   6.566
 4674SOL    HW114921   5.215   6.109   6.510
 4674SOL    HW214922   5.124   6.116   6.645
 4675SOL     OW14923   0.589   3.232   6.934
 4675SOL    HW114924   0.492   3.233   6.910
 4675SOL    HW214925   0.608   3.304   7.001
 4676SOL     OW14926   0.220   6.123   4.054
 4676SOL    HW114927   0.129   6.140   4.092
 4676SOL    HW214928   0.270   6.061   4.114
 4677SOL     OW14929   2.017   1.951   1.286
 4677SOL    HW114930   2.096   1.906   1.243
 4677SOL    HW214931   1.949   1.973   1.216
 4678SOL     OW14932   2.288   4.375   2.874
 4678SOL    HW114933   2.224   4.450   2.856
 4678SOL    HW214934   2.277   4.305   2.804
 4679SOL     OW14935   4.517   0.212   1.590
 4679SOL    HW114936   4.431   0.255   1.565
 4679SOL    HW214937   4.529   0.127   1.539
 4680SOL     OW14938   3.434   1.074   6.658
 4680SOL    HW114939   3.365   1.104   6.593
 4680SOL    HW214940   3.470   1.153   6.707
 4681SOL     OW14941   4.829   4.956   0.497
 4681SOL    HW114942   4.753   4.920   0.443
 4681SOL    HW214943   4.800   5.038   0.546
 4682SOL     OW14944   4.713   4.198   5.939
 4682SOL    HW114945   4.627   4.247   5.957
 4682SOL    HW214946   4.693   4.105   5.908
 4683SOL     OW14947   5.925   5.633   2.229
 4683SOL    HW114948   5.955   5.538   2.223
 4683SOL    HW214949   5.919   5.661   2.325
 4684SOL     OW14950   4.461   6.689   5.646
 4684SOL    HW114951   4.403   6.631   5.589
 4684SOL    HW214952   4.533   6.730   5.590
 4685SOL     OW14953   2.019   4.585   6.399
 4685SOL    HW114954   2.056   4.501   6.438
 4685SOL    HW214955   2.085   4.624   6.335
 4686SOL     OW14956   4.499   5.931   0.280
 4686SOL    HW114957   4.439   5.856   0.251
 4686SOL    HW214958   4.502   6.002   0.210
 4687SOL     OW14959   4.733   2.850   4.105
 4687SOL    HW114960   4.676   2.769   4.120
 4687SOL    HW214961   4.693   2.929   4.152
 4688SOL     OW14962   5.496   2.904   5.449
 4688SOL    HW114963   5.473   2.995   5.483
 4688SOL    HW214964   5.419   2.867   5.397
 4689SOL     OW14965   5.891   1.119   1.146
 4689SOL    HW114966   5.948   1.086   1.222
 4689SOL    HW214967   5.929   1.205   1.112
 4690SOL     OW14968   2.168   0.684   0.978
 4690SOL    HW114969   2.087   0.625   0.969
 4690SOL    HW214970   2.251   0.628   0.975
 4691SOL     OW14971   3.587   3.797   0.364
 4691SOL    HW114972   3.608   3.861   0.438
 4691SOL    HW214973   3.564   3.708   0.403
 4692SOL     OW14974   5.944   5.090   2.955
 4692SOL    HW114975   6.008   5.130   2.890
 4692SOL    HW214976   5.987   5.010   2.999
 4693SOL     OW14977   1.113   0.469   3.716
 4693SOL    HW114978   1.137   0.413   3.795
 4693SOL    HW214979   1.142   0.423   3.632
 4694SOL     OW14980   2.305   2.320   0.379
 4694SOL    HW114981   2.238   2.257   0.340
 4694SOL    HW214982   2.274   2.352   0.469
 4695SOL     OW14983   1.395   5.600   0.924
 4695SOL    HW114984   1.438   5.687   0.901
 4695SOL    HW214985   1.299   5.615   0.945
 4696SOL     OW14986   0.588   5.661   6.275
 4696SOL    HW114987   0.649   5.697   6.346
 4696SOL    HW214988   0.496   5.697   6.289
 4697SOL     OW14989   1.009   3.647   2.438
 4697SOL    HW114990   1.108   3.646   2.457
 4697SOL    HW214991   0.993   3.614   2.345
 4698SOL     OW14992   4.461   6.390   3.230
 4698SOL    HW114993   4.547   6.371   3.182
 4698SOL    HW214994   4.429   6.482   3.206
 4699SOL     OW14995   0.342   6.418   2.987
 4699SOL    HW114996   0.338   6.481   3.065
 4699SOL    HW214997   0.275   6.447   2.919
 4700SOL     OW14998   6.191   2.071   2.172
 4700SOL    HW114999   6.098   2.098   2.196
 4700SOL    HW215000   6.243   2.052   2.255
 4701SOL     OW15001   3.170   1.994   0.471
 4701SOL    HW115002   3.218   1.929   0.531
 4701SOL    HW215003   3.224   2.009   0.388
 4702SOL     OW15004   4.408   4.966   0.712
 4702SOL    HW115005   4.417   4.869   0.734
 4702SOL    HW215006   4.489   5.015   0.746
 4703SOL     OW15007   1.333   6.486   3.099
 4703SOL    HW115008   1.268   6.562   3.105
 4703SOL    HW215009   1.283   6.400   3.094
 4704SOL     OW15010   6.724   6.102   6.526
 4704SOL    HW115011   6.820   6.119   6.505
 4704SOL    HW215012   6.716   6.038   6.602
 4705SOL     OW15013   3.351   2.293   0.742
 4705SOL    HW115014   3.369   2.328   0.650
 4705SOL    HW215015   3.337   2.194   0.738
 4706SOL     OW15016   1.691   0.801   0.304
 4706SOL    HW115017   1.687   0.706   0.272
 4706SOL    HW215018   1.783   0.822   0.334
 4707SOL     OW15019   0.933   6.421   1.842
 4707SOL    HW115020   0.952   6.519   1.848
 4707SOL    HW215021   1.010   6.375   1.796
 4708SOL     OW15022   1.097   2.039   5.735
 4708SOL    HW115023   1.060   2.119   5.784
 4708SOL    HW215024   1.100   1.961   5.797
 4709SOL     OW15025   4.720   5.358   4.991
 4709SOL    HW115026   4.689   5.413   5.068
 4709SOL    HW215027   4.817   5.376   4.973
 4710SOL     OW15028   6.043   6.858   6.111
 4710SOL    HW115029   5.944   6.864   6.123
 4710SOL    HW215030   6.085   6.943   6.143
 4711SOL     OW15031   6.448   1.587   2.473
 4711SOL    HW115032   6.494   1.499   2.465
 4711SOL    HW215033   6.423   1.620   2.382
 4712SOL     OW15034   3.348   5.026   6.410
 4712SOL    HW115035   3.392   5.065   6.491
 4712SOL    HW215036   3.284   4.955   6.437
 4713SOL     OW15037   4.490   5.531   0.832
 4713SOL    HW115038   4.461   5.611   0.780
 4713SOL    HW215039   4.554   5.559   0.905
 4714SOL     OW15040   0.281   1.077   6.209
 4714SOL    HW115041   0.218   1.050   6.135
 4714SOL    HW215042   0.315   1.169   6.192
 4715SOL     OW15043   6.169   3.331   1.631
 4715SOL    HW115044   6.200   3.322   1.536
 4715SOL    HW215045   6.177   3.426   1.659
 4716SOL     OW15046   4.659   6.532   5.506
 4716SOL    HW115047   4.743   6.480   5.513
 4716SOL    HW215048   4.615   6.538   5.596
 4717SOL     OW15049   1.054   5.675   5.228
 4717SOL    HW115050   1.150   5.648   5.231
 4717SOL    HW215051   1.047   5.775   5.229
 4718SOL     OW15052   5.204   1.930   1.107
 4718SOL    HW115053   5.243   1.964   1.021
 4718SOL    HW215054   5.117   1.885   1.089
 4719SOL     OW15055   4.833   3.866   2.450
 4719SOL    HW115056   4.826   3.937   2.520
 4719SOL    HW215057   4.745   3.856   2.404
 4720SOL     OW15058   1.828   5.069   6.002
 4720SOL    HW115059   1.756   5.005   6.028
 4720SOL    HW215060   1.891   5.082   6.079
 4721SOL     OW15061   6.366   1.970   1.620
 4721SOL    HW115062   6.292   2.034   1.639
 4721SOL    HW215063   6.352   1.886   1.672
 4722SOL     OW15064   1.070   6.196   6.578
 4722SOL    HW115065   1.138   6.125   6.592
 4722SOL    HW215066   1.088   6.272   6.641
 4723SOL     OW15067   3.136   3.290   4.909
 4723SOL    HW115068   3.217   3.311   4.963
 4723SOL    HW215069   3.154   3.211   4.851
 4724SOL     OW15070   0.139   0.235   4.131
 4724SOL    HW115071   0.113   0.232   4.227
 4724SOL    HW215072   0.106   0.153   4.084
 4725SOL     OW15073   6.347   4.950   0.363
 4725SOL    HW115074   6.265   5.000   0.336
 4725SOL    HW215075   6.360   4.958   0.462
 4726SOL     OW15076   1.218   3.323   6.193
 4726SOL    HW115077   1.229   3.364   6.103
 4726SOL    HW215078   1.161   3.382   6.250
 4727SOL     OW15079   0.187   5.908   1.237
 4727SOL    HW115080   0.111   5.873   1.182
 4727SOL    HW215081   0.224   5.833   1.293
 4728SOL     OW15082   6.711   1.102   2.820
 4728SOL    HW115083   6.621   1.128   2.854
 4728SOL    HW215084   6.780   1.165   2.857
 4729SOL     OW15085   4.965   0.827   0.151
 4729SOL    HW115086   4.982   0.753   0.217
 4729SOL    HW215087   4.997   0.913   0.190
 4730SOL     OW15088   3.165   6.037   5.553
 4730SOL    HW115089   3.129   6.131   5.548
 4730SOL    HW215090   3.246   6.036   5.612
 4731SOL     OW15091   3.198   0.967   0.940
 4731SOL    HW115092   3.291   0.995   0.961
 4731SOL    HW215093   3.161   0.914   1.017
 4732SOL     OW15094   0.560   3.014   5.212
 4732SOL    HW115095   0.487   3.022   5.144
 4732SOL    HW215096   0.637   3.073   5.186
 4733SOL     OW15097   1.326   4.297   3.420
 4733SOL    HW115098   1.325   4.266   3.325
 4733SOL    HW215099   1.233   4.300   3.455
 4734SOL     OW15100   4.356   3.284   0.370
 4734SOL    HW115101   4.313   3.201   0.405
 4734SOL    HW215102   4.347   3.357   0.437
 4735SOL     OW15103   6.417   5.763   4.242
 4735SOL    HW115104   6.411   5.809   4.153
 4735SOL    HW215105   6.428   5.831   4.314
 4736SOL     OW15106   5.886   1.817   5.278
 4736SOL    HW115107   5.964   1.755   5.288
 4736SOL    HW215108   5.805   1.765   5.249
 4737SOL     OW15109   2.517   4.356   0.263
 4737SOL    HW115110   2.453   4.390   0.195
 4737SOL    HW215111   2.525   4.256   0.253
 4738SOL     OW15112   2.907   6.426   3.444
 4738SOL    HW115113   2.868   6.344   3.400
 4738SOL    HW215114   2.851   6.506   3.421
 4739SOL     OW15115   5.322   1.590   3.376
 4739SOL    HW115116   5.245   1.564   3.317
 4739SOL    HW215117   5.371   1.667   3.335
 4740SOL     OW15118   0.776   0.279   0.806
 4740SOL    HW115119   0.717   0.350   0.845
 4740SOL    HW215120   0.823   0.314   0.725
 4741SOL     OW15121   4.563   3.436   1.415
 4741SOL    HW115122   4.484   3.495   1.432
 4741SOL    HW215123   4.599   3.402   1.502
 4742SOL     OW15124   3.359   6.502   1.789
 4742SOL    HW115125   3.413   6.419   1.803
 4742SOL    HW215126   3.413   6.582   1.813
 4743SOL     OW15127   1.581   2.392   5.597
 4743SOL    HW115128   1.617   2.485   5.595
 4743SOL    HW215129   1.540   2.369   5.509
 4744SOL     OW15130   2.589   3.337   5.608
 4744SOL    HW115131   2.567   3.294   5.695
 4744SOL    HW215132   2.664   3.288   5.564
 4745SOL     OW15133   2.308   5.466   5.437
 4745SOL    HW115134   2.366   5.385   5.433
 4745SOL    HW215135   2.274   5.488   5.345
 4746SOL     OW15136   6.242   6.228   2.546
 4746SOL    HW115137   6.156   6.269   2.575
 4746SOL    HW215138   6.248   6.230   2.447
 4747SOL     OW15139   1.445   3.986   6.366
 4747SOL    HW115140   1.399   3.946   6.445
 4747SOL    HW215141   1.544   3.970   6.374
 4748SOL     OW15142   1.613   5.530   1.269
 4748SOL    HW115143   1.585   5.450   1.216
 4748SOL    HW215144   1.713   5.534   1.272
 4749SOL     OW15145   3.128   6.371   6.053
 4749SOL    HW115146   3.185   6.435   6.104
 4749SOL    HW215147   3.168   6.354   5.963
 4750SOL     OW15148   0.505   3.017   3.957
 4750SOL    HW115149   0.560   3.064   3.888
 4750SOL    HW215150   0.555   2.938   3.992
 4751SOL     OW15151   2.017   3.251   0.001
 4751SOL    HW115152   2.099   3.255   0.058
 4751SOL    HW215153   1.954   3.323   0.027
 4752SOL     OW15154   3.028   0.140   0.387
 4752SOL    HW115155   2.982   0.052   0.390
 4752SOL    HW215156   3.042   0.175   0.479
 4753SOL     OW15157   5.266   6.924   4.237
 4753SOL    HW115158   5.192   6.990   4.228
 4753SOL    HW215159   5.288   6.887   4.146
 4754SOL     OW15160   6.006   0.238   5.706
 4754SOL    HW115161   6.030   0.160   5.764
 4754SOL    HW215162   5.940   0.210   5.637
 4755SOL     OW15163   2.703   0.650   0.415
 4755SOL    HW115164   2.648   0.720   0.369
 4755SOL    HW215165   2.712   0.672   0.512
 4756SOL     OW15166   6.022   2.525   0.812
 4756SOL    HW115167   6.062   2.538   0.722
 4756SOL    HW215168   5.926   2.554   0.811
 4757SOL     OW15169   1.511   2.167   2.199
 4757SOL    HW115170   1.465   2.236   2.254
 4757SOL    HW215171   1.555   2.100   2.259
 4758SOL     OW15172   3.132   6.111   4.855
 4758SOL    HW115173   3.192   6.188   4.877
 4758SOL    HW215174   3.115   6.058   4.938
 4759SOL     OW15175   5.695   5.189   5.019
 4759SOL    HW115176   5.724   5.265   5.078
 4759SOL    HW215177   5.728   5.205   4.925
 4760SOL     OW15178   3.392   1.931   1.109
 4760SOL    HW115179   3.468   1.869   1.089
 4760SOL    HW215180   3.342   1.898   1.188
 4761SOL     OW15181   0.484   6.907   6.538
 4761SOL    HW115182   0.450   6.847   6.610
 4761SOL    HW215183   0.504   6.997   6.576
 4762SOL     OW15184   2.382   5.175   2.898
 4762SOL    HW115185   2.467   5.223   2.920
 4762SOL    HW215186   2.375   5.093   2.956
 4763SOL     OW15187   5.834   6.221   3.557
 4763SOL    HW115188   5.865   6.244   3.464
 4763SOL    HW215189   5.880   6.281   3.622
 4764SOL     OW15190   4.461   4.134   5.604
 4764SOL    HW115191   4.547   4.167   5.564
 4764SOL    HW215192   4.390   4.203   5.590
 4765SOL     OW15193   5.007   6.857   4.403
 4765SOL    HW115194   5.018   6.857   4.503
 4765SOL    HW215195   5.097   6.861   4.360
 4766SOL     OW15196   4.263   0.049   3.883
 4766SOL    HW115197   4.352   0.065   3.926
 4766SOL    HW215198   4.251   0.112   3.806
 4767SOL     OW15199   3.886   5.684   6.314
 4767SOL    HW115200   3.817   5.618   6.345
 4767SOL    HW215201   3.842   5.771   6.293
 4768SOL     OW15202   4.625   2.249   4.974
 4768SOL    HW115203   4.578   2.191   4.908
 4768SOL    HW215204   4.698   2.300   4.928
 4769SOL     OW15205   4.461   5.220   1.080
 4769SOL    HW115206   4.418   5.305   1.052
 4769SOL    HW215207   4.458   5.212   1.180
 4770SOL     OW15208   1.369   6.738   3.670
 4770SOL    HW115209   1.369   6.744   3.570
 4770SOL    HW215210   1.383   6.643   3.698
 4771SOL     OW15211   3.482   5.156   5.487
 4771SOL    HW115212   3.474   5.146   5.586
 4771SOL    HW215213   3.415   5.096   5.442
 4772SOL     OW15214   2.438   5.844   1.671
 4772SOL    HW115215   2.439   5.877   1.576
 4772SOL    HW215216   2.347   5.856   1.710
 4773SOL     OW15217   6.555   5.237   4.720
 4773SOL    HW115218   6.458   5.240   4.694
 4773SOL    HW215219   6.604   5.312   4.675
 4774SOL     OW15220   1.174   2.634   1.561
 4774SOL    HW115221   1.208   2.661   1.471
 4774SOL    HW215222   1.238   2.569   1.603
 4775SOL     OW15223   5.046   6.885   2.785
 4775SOL    HW115224   4.961   6.853   2.827
 4775SOL    HW215225   5.101   6.931   2.854
 4776SOL     OW15226   1.697   6.546   4.517
 4776SOL    HW115227   1.782   6.548   4.570
 4776SOL    HW215228   1.717   6.564   4.421
 4777SOL     OW15229   2.955   4.743   1.247
 4777SOL    HW115230   2.903   4.671   1.291
 4777SOL    HW215231   2.935   4.745   1.149
 4778SOL     OW15232   5.520   2.078   2.271
 4778SOL    HW115233   5.505   2.089   2.173
 4778SOL    HW215234   5.439   2.038   2.313
 4779SOL     OW15235   6.487   6.226   2.192
 4779SOL    HW115236   6.569   6.191   2.148
 4779SOL    HW215237   6.512   6.301   2.253
 4780SOL     OW15238   0.183   0.238   7.005
 4780SOL    HW115239   0.200   0.170   6.934
 4780SOL    HW215240   0.135   0.195   0.062
 4781SOL     OW15241   3.330   6.504   1.295
 4781SOL    HW115242   3.315   6.405   1.298
 4781SOL    HW215243   3.247   6.549   1.263
 4782SOL     OW15244   4.937   6.352   0.624
 4782SOL    HW115245   5.014   6.293   0.646
 4782SOL    HW215246   4.897   6.324   0.537
 4783SOL     OW15247   4.530   4.240   0.133
 4783SOL    HW115248   4.557   4.319   0.189
 4783SOL    HW215249   4.442   4.205   0.165
 4784SOL     OW15250   6.324   4.059   6.467
 4784SOL    HW115251   6.323   4.112   6.552
 4784SOL    HW215252   6.314   3.962   6.487
 4785SOL     OW15253   6.586   5.526   1.411
 4785SOL    HW115254   6.623   5.503   1.321
 4785SOL    HW215255   6.550   5.619   1.410
 4786SOL     OW15256   2.481   2.211   1.740
 4786SOL    HW115257   2.452   2.116   1.752
 4786SOL    HW215258   2.581   2.215   1.740
 4787SOL     OW15259   2.935   2.044   3.482
 4787SOL    HW115260   2.964   1.956   3.520
 4787SOL    HW215261   2.997   2.069   3.407
 4788SOL     OW15262   0.847   5.215   6.053
 4788SOL    HW115263   0.774   5.148   6.066
 4788SOL    HW215264   0.823   5.301   6.098
 4789SOL     OW15265   5.693   0.808   0.220
 4789SOL    HW115266   5.701   0.841   0.126
 4789SOL    HW215267   5.712   0.710   0.222
 4790SOL     OW15268   0.315   2.877   6.262
 4790SOL    HW115269   0.261   2.862   6.345
 4790SOL    HW215270   0.360   2.966   6.268
 4791SOL     OW15271   5.968   2.300   1.579
 4791SOL    HW115272   5.999   2.393   1.564
 4791SOL    HW215273   6.046   2.237   1.577
 4792SOL     OW15274   1.783   3.646   2.820
 4792SOL    HW115275   1.838   3.592   2.883
 4792SOL    HW215276   1.775   3.598   2.733
 4793SOL     OW15277   1.316   2.555   5.973
 4793SOL    HW115278   1.411   2.585   5.973
 4793SOL    HW215279   1.308   2.469   6.023
 4794SOL     OW15280   4.832   1.094   3.408
 4794SOL    HW115281   4.854   1.075   3.313
 4794SOL    HW215282   4.891   1.039   3.468
 4795SOL     OW15283   6.309   1.404   2.788
 4795SOL    HW115284   6.346   1.347   2.715
 4795SOL    HW215285   6.238   1.464   2.750
 4796SOL     OW15286   5.182   2.422   6.242
 4796SOL    HW115287   5.123   2.351   6.203
 4796SOL    HW215288   5.219   2.479   6.169
 4797SOL     OW15289   1.662   6.118   5.440
 4797SOL    HW115290   1.761   6.129   5.430
 4797SOL    HW215291   1.615   6.179   5.376
 4798SOL     OW15292   0.247   2.715   5.096
 4798SOL    HW115293   0.345   2.728   5.110
 4798SOL    HW215294   0.218   2.766   5.015
 4799SOL     OW15295   4.850   2.297   6.554
 4799SOL    HW115296   4.823   2.279   6.649
 4799SOL    HW215297   4.883   2.212   6.512
 4800SOL     OW15298   2.537   3.603   5.715
 4800SOL    HW115299   2.557   3.522   5.660
 4800SOL    HW215300   2.624   3.643   5.747
 4801SOL     OW15301   2.731   2.630   0.855
 4801SOL    HW115302   2.785   2.554   0.893
 4801SOL    HW215303   2.738   2.629   0.755
 4802SOL     OW15304   0.897   6.482   2.135
 4802SOL    HW115305   0.914   6.478   2.037
 4802SOL    HW215306   0.983   6.485   2.185
 4803SOL     OW15307   1.218   6.281   0.724
 4803SOL    HW115308   1.192   6.366   0.678
 4803SOL    HW215309   1.179   6.203   0.675
 4804SOL     OW15310   5.065   5.353   6.375
 4804SOL    HW115311   4.979   5.368   6.328
 4804SOL    HW215312   5.126   5.431   6.360
 4805SOL     OW15313   6.205   6.992   1.076
 4805SOL    HW115314   6.107   6.995   1.093
 4805SOL    HW215315   6.234   0.059   1.034
 4806SOL     OW15316   0.429   4.334   2.655
 4806SOL    HW115317   0.344   4.363   2.699
 4806SOL    HW215318   0.463   4.252   2.699
 4807SOL     OW15319   1.361   4.748   0.643
 4807SOL    HW115320   1.344   4.826   0.703
 4807SOL    HW215321   1.389   4.669   0.698
 4808SOL     OW15322   6.307   3.873   6.807
 4808SOL    HW115323   6.373   3.802   6.831
 4808SOL    HW215324   6.284   3.927   6.888
 4809SOL     OW15325   3.549   4.061   6.717
 4809SOL    HW115326   3.586   4.035   6.807
 4809SOL    HW215327   3.482   4.135   6.728
 4810SOL     OW15328   1.323   5.271   2.144
 4810SOL    HW115329   1.274   5.240   2.225
 4810SOL    HW215330   1.422   5.268   2.161
 4811SOL     OW15331   1.809   4.764   2.213
 4811SOL    HW115332   1.890   4.797   2.262
 4811SOL    HW215333   1.737   4.742   2.279
 4812SOL     OW15334   0.306   5.027   5.264
 4812SOL    HW115335   0.253   5.101   5.223
 4812SOL    HW215336   0.374   4.994   5.199
 4813SOL     OW15337   5.147   2.155   0.894
 4813SOL    HW115338   5.103   2.207   0.966
 4813SOL    HW215339   5.078   2.102   0.844
 4814SOL     OW15340   5.512   4.241   0.573
 4814SOL    HW115341   5.549   4.325   0.532
 4814SOL    HW215342   5.482   4.261   0.666
 4815SOL     OW15343   5.619   4.338   2.996
 4815SOL    HW115344   5.674   4.359   2.916
 4815SOL    HW215345   5.678   4.298   3.067
 4816SOL     OW15346   0.060   5.259   2.563
 4816SOL    HW115347   0.057   5.164   2.593
 4816SOL    HW215348   0.094   5.316   2.638
 4817SOL     OW15349   1.170   1.969   6.589
 4817SOL    HW115350   1.187   2.061   6.552
 4817SOL    HW215351   1.257   1.928   6.617
 4818SOL     OW15352   0.794   0.284   4.983
 4818SOL    HW115353   0.748   0.363   5.023
 4818SOL    HW215354   0.732   0.236   4.921
 4819SOL     OW15355   0.835   2.476   0.133
 4819SOL    HW115356   0.869   2.558   0.180
 4819SOL    HW215357   0.912   2.416   0.112
 4820SOL     OW15358   6.906   2.721   1.240
 4820SOL    HW115359   6.915   2.783   1.318
 4820SOL    HW215360   6.990   2.667   1.231
 4821SOL     OW15361   1.231   6.294   2.212
 4821SOL    HW115362   1.199   6.387   2.233
 4821SOL    HW215363   1.271   6.254   2.294
 4822SOL     OW15364   1.252   3.419   4.658
 4822SOL    HW115365   1.310   3.493   4.693
 4822SOL    HW215366   1.300   3.332   4.667
 4823SOL     OW15367   1.553   1.413   4.152
 4823SOL    HW115368   1.475   1.369   4.106
 4823SOL    HW215369   1.528   1.506   4.178
 4824SOL     OW15370   4.900   2.076   5.316
 4824SOL    HW115371   4.873   2.127   5.399
 4824SOL    HW215372   4.832   2.006   5.296
 4825SOL     OW15373   1.276   2.534   4.471
 4825SOL    HW115374   1.234   2.609   4.420
 4825SOL    HW215375   1.371   2.555   4.491
 4826SOL     OW15376   5.431   0.626   0.529
 4826SOL    HW115377   5.397   0.698   0.590
 4826SOL    HW215378   5.394   0.538   0.557
 4827SOL     OW15379   6.549   1.991   0.584
 4827SOL    HW115380   6.538   1.982   0.683
 4827SOL    HW215381   6.460   2.009   0.542
 4828SOL     OW15382   4.879   1.367   1.154
 4828SOL    HW115383   4.908   1.392   1.246
 4828SOL    HW215384   4.891   1.268   1.141
 4829SOL     OW15385   3.430   0.733   6.193
 4829SOL    HW115386   3.394   0.656   6.245
 4829SOL    HW215387   3.506   0.774   6.242
 4830SOL     OW15388   3.500   5.634   3.969
 4830SOL    HW115389   3.453   5.722   3.971
 4830SOL    HW215390   3.589   5.644   3.924
 4831SOL     OW15391   1.515   4.843   5.324
 4831SOL    HW115392   1.545   4.766   5.380
 4831SOL    HW215393   1.480   4.809   5.237
 4832SOL     OW15394   3.140   4.018   3.840
 4832SOL    HW115395   3.234   4.045   3.863
 4832SOL    HW215396   3.123   4.033   3.743
 4833SOL     OW15397   6.032   1.826   2.743
 4833SOL    HW115398   5.942   1.868   2.729
 4833SOL    HW215399   6.049   1.758   2.672
 4834SOL     OW15400   2.513   5.441   2.267
 4834SOL    HW115401   2.481   5.513   2.328
 4834SOL    HW215402   2.613   5.434   2.274
 4835SOL     OW15403   5.913   3.263   6.001
 4835SOL    HW115404   5.854   3.308   6.068
 4835SOL    HW215405   5.914   3.316   5.916
 4836SOL     OW15406   5.083   1.885   4.652
 4836SOL    HW115407   5.160   1.948   4.644
 4836SOL    HW215408   5.112   1.803   4.701
 4837SOL     OW15409   6.752   3.517   2.558
 4837SOL    HW115410   6.821   3.463   2.510
 4837SOL    HW215411   6.744   3.486   2.652
 4838SOL     OW15412   2.231   6.012   0.158
 4838SOL    HW115413   2.304   5.966   0.107
 4838SOL    HW215414   2.214   6.102   0.118
 4839SOL     OW15415   1.120   3.298   0.206
 4839SOL    HW115416   1.088   3.210   0.171
 4839SOL    HW215417   1.107   3.302   0.305
 4840SOL     OW15418   6.408   4.501   6.026
 4840SOL    HW115419   6.380   4.450   6.108
 4840SOL    HW215420   6.329   4.546   5.986
 4841SOL     OW15421   2.364   4.931   3.055
 4841SOL    HW115422   2.309   4.878   3.119
 4841SOL    HW215423   2.365   4.885   2.966
 4842SOL     OW15424   2.598   4.983   3.416
 4842SOL    HW115425   2.660   4.911   3.383
 4842SOL    HW215426   2.562   5.033   3.337
 4843SOL     OW15427   6.580   2.703   1.692
 4843SOL    HW115428   6.533   2.632   1.744
 4843SOL    HW215429   6.622   2.662   1.611
 4844SOL     OW15430   0.040   4.185   5.493
 4844SOL    HW115431   6.996   4.246   5.445
 4844SOL    HW215432   7.010   4.134   5.564
 4845SOL     OW15433   4.585   5.121   6.366
 4845SOL    HW115434   4.485   5.121   6.363
 4845SOL    HW215435   4.617   5.216   6.367
 4846SOL     OW15436   0.403   1.671   3.814
 4846SOL    HW115437   0.451   1.704   3.733
 4846SOL    HW215438   0.304   1.675   3.799
 4847SOL     OW15439   2.300   1.700   5.489
 4847SOL    HW115440   2.350   1.715   5.403
 4847SOL    HW215441   2.242   1.779   5.508
 4848SOL     OW15442   2.423   1.420   4.525
 4848SOL    HW115443   2.412   1.384   4.617
 4848SOL    HW215444   2.442   1.519   4.530
 4849SOL     OW15445   1.899   5.904   0.753
 4849SOL    HW115446   1.890   5.898   0.852
 4849SOL    HW215447   1.875   5.996   0.722
 4850SOL     OW15448   5.240   0.944   1.071
 4850SOL    HW115449   5.201   0.888   0.999
 4850SOL    HW215450   5.299   1.015   1.030
 4851SOL     OW15451   3.580   5.432   6.027
 4851SOL    HW115452   3.559   5.520   6.070
 4851SOL    HW215453   3.528   5.423   5.943
 4852SOL     OW15454   2.624   5.543   5.014
 4852SOL    HW115455   2.722   5.564   5.007
 4852SOL    HW215456   2.596   5.549   5.110
 4853SOL     OW15457   3.720   1.837   3.490
 4853SOL    HW115458   3.683   1.830   3.583
 4853SOL    HW215459   3.817   1.861   3.495
 4854SOL     OW15460   4.842   6.988   1.705
 4854SOL    HW115461   4.889   0.032   1.643
 4854SOL    HW215462   4.867   7.011   1.799
 4855SOL     OW15463   6.135   3.918   4.966
 4855SOL    HW115464   6.146   3.900   4.868
 4855SOL    HW215465   6.164   3.838   5.018
 4856SOL     OW15466   1.022   2.952   2.677
 4856SOL    HW115467   1.087   2.886   2.713
 4856SOL    HW215468   1.071   3.030   2.638
 4857SOL     OW15469   3.080   1.790   3.274
 4857SOL    HW115470   3.176   1.776   3.248
 4857SOL    HW215471   3.031   1.834   3.198
 4858SOL     OW15472   0.194   6.719   4.828
 4858SOL    HW115473   0.099   6.729   4.857
 4858SOL    HW215474   0.249   6.687   4.905
 4859SOL     OW15475   0.771   5.343   1.903
 4859SOL    HW115476   0.729   5.395   1.978
 4859SOL    HW215477   0.804   5.407   1.833
 4860SOL     OW15478   4.077   4.796   0.058
 4860SOL    HW115479   4.034   4.725   0.114
 4860SOL    HW215480   4.097   4.875   0.116
 4861SOL     OW15481   5.807   5.641   6.466
 4861SOL    HW115482   5.743   5.632   6.542
 4861SOL    HW215483   5.814   5.553   6.419
 4862SOL     OW15484   2.358   4.440   4.824
 4862SOL    HW115485   2.327   4.378   4.896
 4862SOL    HW215486   2.446   4.480   4.850
 4863SOL     OW15487   4.878   3.392   2.704
 4863SOL    HW115488   4.902   3.457   2.632
 4863SOL    HW215489   4.846   3.307   2.662
 4864SOL     OW15490   3.725   1.649   1.704
 4864SOL    HW115491   3.775   1.735   1.698
 4864SOL    HW215492   3.674   1.634   1.619
 4865SOL     OW15493   2.667   5.891   4.983
 4865SOL    HW115494   2.687   5.985   5.012
 4865SOL    HW215495   2.726   5.827   5.031
 4866SOL     OW15496   5.577   4.609   1.053
 4866SOL    HW115497   5.512   4.661   0.996
 4866SOL    HW215498   5.640   4.673   1.097
 4867SOL     OW15499   4.281   5.668   3.650
 4867SOL    HW115500   4.349   5.719   3.597
 4867SOL    HW215501   4.211   5.632   3.589
 4868SOL     OW15502   0.386   5.843   1.873
 4868SOL    HW115503   0.435   5.759   1.898
 4868SOL    HW215504   0.448   5.921   1.879
 4869SOL     OW15505   0.026   2.726   0.898
 4869SOL    HW115506   0.007   2.824   0.904
 4869SOL    HW215507   6.966   2.675   0.931
 4870SOL     OW15508   4.953   5.246   1.750
 4870SOL    HW115509   4.987   5.237   1.656
 4870SOL    HW215510   4.853   5.246   1.749
 4871SOL     OW15511   0.500   0.566   4.667
 4871SOL    HW115512   0.425   0.630   4.657
 4871SOL    HW215513   0.529   0.533   4.577
 4872SOL     OW15514   0.826   6.605   4.096
 4872SOL    HW115515   0.848   6.679   4.033
 4872SOL    HW215516   0.904   6.542   4.101
 4873SOL     OW15517   0.273   4.778   3.789
 4873SOL    HW115518   0.315   4.867   3.774
 4873SOL    HW215519   0.337   4.706   3.762
 4874SOL     OW15520   6.051   3.419   2.306
 4874SOL    HW115521   6.069   3.482   2.230
 4874SOL    HW215522   6.083   3.328   2.282
 4875SOL     OW15523   5.518   2.948   0.727
 4875SOL    HW115524   5.546   3.040   0.700
 4875SOL    HW215525   5.426   2.929   0.692
 4876SOL     OW15526   6.162   0.519   5.323
 4876SOL    HW115527   6.180   0.462   5.403
 4876SOL    HW215528   6.152   0.614   5.352
 4877SOL     OW15529   6.812   1.554   0.942
 4877SOL    HW115530   6.810   1.654   0.940
 4877SOL    HW215531   6.884   1.521   0.881
 4878SOL     OW15532   6.924   1.754   2.511
 4878SOL    HW115533   6.827   1.750   2.487
 4878SOL    HW215534   6.934   1.749   2.610
 4879SOL     OW15535   4.386   4.906   3.337
 4879SOL    HW115536   4.292   4.889   3.308
 4879SOL    HW215537   4.390   4.991   3.388
 4880SOL     OW15538   4.977   2.823   6.645
 4880SOL    HW115539   4.957   2.901   6.587
 4880SOL    HW215540   4.917   2.746   6.620
 4881SOL     OW15541   1.988   5.725   6.925
 4881SOL    HW115542   2.078   5.746   6.886
 4881SOL    HW215543   1.985   5.758   7.019
 4882SOL     OW15544   6.116   1.290   5.120
 4882SOL    HW115545   6.201   1.238   5.121
 4882SOL    HW215546   6.129   1.376   5.071
 4883SOL     OW15547   5.016   4.795   2.407
 4883SOL    HW115548   5.073   4.719   2.377
 4883SOL    HW215549   5.027   4.809   2.506
 4884SOL     OW15550   4.467   0.245   0.819
 4884SOL    HW115551   4.453   0.149   0.845
 4884SOL    HW215552   4.425   0.261   0.729
 4885SOL     OW15553   2.863   6.425   2.811
 4885SOL    HW115554   2.857   6.327   2.826
 4885SOL    HW215555   2.949   6.448   2.767
 4886SOL     OW15556   0.444   6.513   6.082
 4886SOL    HW115557   0.352   6.552   6.079
 4886SOL    HW215558   0.446   6.439   6.149
 4887SOL     OW15559   0.252   1.470   2.841
 4887SOL    HW115560   0.284   1.390   2.790
 4887SOL    HW215561   0.292   1.470   2.932
 4888SOL     OW15562   1.848   6.418   3.801
 4888SOL    HW115563   1.902   6.345   3.843
 4888SOL    HW215564   1.908   6.492   3.771
 4889SOL     OW15565   0.489   1.682   0.130
 4889SOL    HW115566   0.538   1.614   0.077
 4889SOL    HW215567   0.548   1.718   0.202
 4890SOL     OW15568   0.499   1.764   4.547
 4890SOL    HW115569   0.403   1.787   4.562
 4890SOL    HW215570   0.531   1.808   4.463
 4891SOL     OW15571   1.115   5.963   6.997
 4891SOL    HW115572   1.078   5.888   0.031
 4891SOL    HW215573   1.050   6.039   6.997
 4892SOL     OW15574   2.248   5.879   2.121
 4892SOL    HW115575   2.208   5.788   2.110
 4892SOL    HW215576   2.191   5.933   2.184
 4893SOL     OW15577   6.558   4.400   6.315
 4893SOL    HW115578   6.652   4.431   6.300
 4893SOL    HW215579   6.534   4.411   6.411
 4894SOL     OW15580   2.657   0.209   2.232
 4894SOL    HW115581   2.631   0.130   2.288
 4894SOL    HW215582   2.627   0.293   2.278
 4895SOL     OW15583   0.682   4.447   1.347
 4895SOL    HW115584   0.774   4.464   1.313
 4895SOL    HW215585   0.634   4.385   1.285
 4896SOL     OW15586   2.868   5.096   2.807
 4896SOL    HW115587   2.847   5.009   2.763
 4896SOL    HW215588   2.881   5.081   2.905
 4897SOL     OW15589   2.823   5.131   5.757
 4897SOL    HW115590   2.752   5.161   5.821
 4897SOL    HW215591   2.876   5.058   5.800
 4898SOL     OW15592   6.015   1.760   4.988
 4898SOL    HW115593   6.055   1.798   4.905
 4898SOL    HW215594   5.954   1.827   5.030
 4899SOL     OW15595   6.509   4.528   2.472
 4899SOL    HW115596   6.421   4.533   2.520
 4899SOL    HW215597   6.553   4.441   2.491
 4900SOL     OW15598   1.905   6.411   5.919
 4900SOL    HW115599   1.885   6.449   5.829
 4900SOL    HW215600   1.930   6.314   5.910
 4901SOL     OW15601   2.642   6.633   5.125
 4901SOL    HW115602   2.701   6.595   5.054
 4901SOL    HW215603   2.598   6.559   5.175
 4902SOL     OW15604   2.327   2.820   4.155
 4902SOL    HW115605   2.351   2.730   4.189
 4902SOL    HW215606   2.327   2.886   4.230
 4903SOL     OW15607   3.617   6.329   6.885
 4903SOL    HW115608   3.652   6.250   6.834
 4903SOL    HW215609   3.553   6.379   6.827
 4904SOL     OW15610   2.130   6.771   4.177
 4904SOL    HW115611   2.109   6.865   4.149
 4904SOL    HW215612   2.209   6.738   4.125
 4905SOL     OW15613   4.394   2.332   2.307
 4905SOL    HW115614   4.435   2.422   2.323
 4905SOL    HW215615   4.296   2.344   2.287
 4906SOL     OW15616   3.665   0.695   6.886
 4906SOL    HW115617   3.623   0.774   6.931
 4906SOL    HW215618   3.712   0.725   6.803
 4907SOL     OW15619   4.358   6.356   2.623
 4907SOL    HW115620   4.358   6.260   2.594
 4907SOL    HW215621   4.265   6.392   2.617
 4908SOL     OW15622   3.826   5.426   0.090
 4908SOL    HW115623   3.877   5.342   0.073
 4908SOL    HW215624   3.880   5.487   0.148
 4909SOL     OW15625   6.106   0.131   6.639
 4909SOL    HW115626   6.117   0.048   6.695
 4909SOL    HW215627   6.082   0.104   6.546
 4910SOL     OW15628   5.653   0.019   5.304
 4910SOL    HW115629   5.702   0.033   5.218
 4910SOL    HW215630   5.569   0.073   5.304
 4911SOL     OW15631   0.090   2.583   5.502
 4911SOL    HW115632   0.188   2.580   5.523
 4911SOL    HW215633   0.038   2.560   5.584
 4912SOL     OW15634   5.155   1.679   1.401
 4912SOL    HW115635   5.252   1.674   1.376
 4912SOL    HW215636   5.117   1.587   1.407
 4913SOL     OW15637   3.809   3.534   3.905
 4913SOL    HW115638   3.897   3.569   3.876
 4913SOL    HW215639   3.812   3.512   4.003
 4914SOL     OW15640   3.242   0.781   5.018
 4914SOL    HW115641   3.192   0.709   5.066
 4914SOL    HW215642   3.181   0.824   4.951
 4915SOL     OW15643   4.519   0.005   4.507
 4915SOL    HW115644   4.619   0.008   4.500
 4915SOL    HW215645   4.490   0.038   4.596
 4916SOL     OW15646   1.968   1.505   3.241
 4916SOL    HW115647   1.933   1.448   3.166
 4916SOL    HW215648   2.068   1.498   3.243
 4917SOL     OW15649   1.513   3.840   0.323
 4917SOL    HW115650   1.461   3.908   0.271
 4917SOL    HW215651   1.510   3.752   0.275
 4918SOL     OW15652   2.931   0.143   2.783
 4918SOL    HW115653   2.869   0.081   2.734
 4918SOL    HW215654   2.973   0.207   2.718
 4919SOL     OW15655   2.393   2.277   2.540
 4919SOL    HW115656   2.348   2.206   2.595
 4919SOL    HW215657   2.405   2.359   2.595
 4920SOL     OW15658   4.338   0.145   0.259
 4920SOL    HW115659   4.267   0.186   0.202
 4920SOL    HW215660   4.303   0.060   0.300
 4921SOL     OW15661   2.383   4.413   1.303
 4921SOL    HW115662   2.356   4.327   1.259
 4921SOL    HW215663   2.308   4.446   1.359
 4922SOL     OW15664   1.101   3.426   5.124
 4922SOL    HW115665   1.093   3.506   5.065
 4922SOL    HW215666   1.147   3.352   5.074
 4923SOL     OW15667   4.764   0.920   0.825
 4923SOL    HW115668   4.771   1.017   0.846
 4923SOL    HW215669   4.695   0.878   0.885
 4924SOL     OW15670   2.147   3.299   5.271
 4924SOL    HW115671   2.242   3.276   5.295
 4924SOL    HW215672   2.090   3.218   5.279
 4925SOL     OW15673   6.291   6.409   0.514
 4925SOL    HW115674   6.232   6.486   0.539
 4925SOL    HW215675   6.344   6.380   0.594
 4926SOL     OW15676   5.457   2.598   1.283
 4926SOL    HW115677   5.426   2.504   1.268
 4926SOL    HW215678   5.484   2.610   1.378
 4927SOL     OW15679   4.050   3.426   3.504
 4927SOL    HW115680   3.985   3.498   3.481
 4927SOL    HW215681   4.103   3.453   3.585
 4928SOL     OW15682   0.203   6.903   6.654
 4928SOL    HW115683   0.237   6.944   6.569
 4928SOL    HW215684   0.193   6.804   6.641
 4929SOL     OW15685   0.987   4.038   4.985
 4929SOL    HW115686   0.891   4.063   4.998
 4929SOL    HW215687   1.019   4.072   4.897
 4930SOL     OW15688   6.788   0.297   1.087
 4930SOL    HW115689   6.762   0.359   1.013
 4930SOL    HW215690   6.870   0.247   1.062
 4931SOL     OW15691   0.696   6.688   0.214
 4931SOL    HW115692   0.704   6.589   0.224
 4931SOL    HW215693   0.609   6.719   0.252
 4932SOL     OW15694   2.190   3.265   1.711
 4932SOL    HW115695   2.249   3.331   1.757
 4932SOL    HW215696   2.244   3.187   1.678
 4933SOL     OW15697   1.984   0.331   4.249
 4933SOL    HW115698   2.048   0.404   4.273
 4933SOL    HW215699   1.967   0.274   4.330
 4934SOL     OW15700   0.978   5.182   3.767
 4934SOL    HW115701   0.928   5.209   3.850
 4934SOL    HW215702   1.049   5.249   3.747
 4935SOL     OW15703   2.026   0.884   0.020
 4935SOL    HW115704   2.049   0.903   6.944
 4935SOL    HW215705   2.020   0.970   0.071
 4936SOL     OW15706   1.939   5.916   2.300
 4936SOL    HW115707   1.892   5.936   2.386
 4936SOL    HW215708   2.015   5.854   2.318
 4937SOL     OW15709   0.535   3.794   5.886
 4937SOL    HW115710   0.471   3.793   5.809
 4937SOL    HW215711   0.624   3.828   5.854
 4938SOL     OW15712   3.504   5.133   1.942
 4938SOL    HW115713   3.582   5.105   1.887
 4938SOL    HW215714   3.509   5.232   1.958
 4939SOL     OW15715   0.892   1.895   2.629
 4939SOL    HW115716   0.816   1.856   2.577
 4939SOL    HW215717   0.971   1.908   2.569
 4940SOL     OW15718   6.730   1.861   5.234
 4940SOL    HW115719   6.674   1.826   5.310
 4940SOL    HW215720   6.795   1.790   5.206
 4941SOL     OW15721   3.925   2.683   5.312
 4941SOL    HW115722   3.973   2.771   5.320
 4941SOL    HW215723   3.984   2.618   5.263
 4942SOL     OW15724   5.163   3.654   4.247
 4942SOL    HW115725   5.122   3.579   4.194
 4942SOL    HW215726   5.252   3.625   4.282
 4943SOL     OW15727   5.539   3.784   6.631
 4943SOL    HW115728   5.531   3.696   6.678
 4943SOL    HW215729   5.451   3.830   6.631
 4944SOL     OW15730   2.346   4.158   1.213
 4944SOL    HW115731   2.321   4.153   1.310
 4944SOL    HW215732   2.418   4.091   1.193
 4945SOL     OW15733   1.392   0.730   4.416
 4945SOL    HW115734   1.322   0.659   4.431
 4945SOL    HW215735   1.385   0.765   4.323
 4946SOL     OW15736   0.997   5.426   0.395
 4946SOL    HW115737   0.959   5.500   0.449
 4946SOL    HW215738   1.093   5.414   0.417
 4947SOL     OW15739   2.341   1.185   2.154
 4947SOL    HW115740   2.261   1.224   2.107
 4947SOL    HW215741   2.392   1.258   2.200
 4948SOL     OW15742   1.449   2.693   3.128
 4948SOL    HW115743   1.512   2.770   3.124
 4948SOL    HW215744   1.358   2.725   3.153
 4949SOL     OW15745   0.160   3.693   5.333
 4949SOL    HW115746   0.190   3.784   5.304
 4949SOL    HW215747   0.104   3.701   5.415
 4950SOL     OW15748   1.859   4.289   5.310
 4950SOL    HW115749   1.772   4.320   5.273
 4950SOL    HW215750   1.845   4.248   5.400
 4951SOL     OW15751   6.248   6.781   4.520
 4951SOL    HW115752   6.275   6.773   4.617
 4951SOL    HW215753   6.280   6.701   4.470
 4952SOL     OW15754   0.698   6.784   6.274
 4952SOL    HW115755   0.598   6.788   6.273
 4952SOL    HW215756   0.728   6.738   6.358
 4953SOL     OW15757   2.027   0.341   3.776
 4953SOL    HW115758   2.051   0.399   3.698
 4953SOL    HW215759   2.043   0.392   3.861
 4954SOL     OW15760   2.741   3.694   6.551
 4954SOL    HW115761   2.661   3.736   6.508
 4954SOL    HW215762   2.710   3.620   6.612
 4955SOL     OW15763   3.175   6.030   7.017
 4955SOL    HW115764   3.196   6.033   0.095
 4955SOL    HW215765   3.251   5.987   6.968
 4956SOL     OW15766   2.459   0.064   5.527
 4956SOL    HW115767   2.545   0.114   5.541
 4956SOL    HW215768   2.384   0.113   5.571
 4957SOL     OW15769   5.753   3.544   0.763
 4957SOL    HW115770   5.848   3.519   0.783
 4957SOL    HW215771   5.740   3.551   0.664
 4958SOL     OW15772   1.888   5.831   5.913
 4958SOL    HW115773   1.916   5.736   5.898
 4958SOL    HW215774   1.794   5.833   5.945
 4959SOL     OW15775   6.290   1.456   1.430
 4959SOL    HW115776   6.195   1.427   1.445
 4959SOL    HW215777   6.333   1.479   1.517
 4960SOL     OW15778   4.466   4.560   3.716
 4960SOL    HW115779   4.486   4.648   3.674
 4960SOL    HW215780   4.461   4.571   3.815
 4961SOL     OW15781   2.670   0.577   6.173
 4961SOL    HW115782   2.770   0.583   6.181
 4961SOL    HW215783   2.646   0.506   6.107
 4962SOL     OW15784   5.632   2.972   0.965
 4962SOL    HW115785   5.597   2.946   0.875
 4962SOL    HW215786   5.566   3.033   1.010
 4963SOL     OW15787   1.574   5.302   1.122
 4963SOL    HW115788   1.613   5.299   1.030
 4963SOL    HW215789   1.613   5.228   1.177
 4964SOL     OW15790   1.989   0.197   4.760
 4964SOL    HW115791   1.890   0.206   4.759
 4964SOL    HW215792   2.029   0.259   4.691
 4965SOL     OW15793   1.226   6.862   2.837
 4965SOL    HW115794   1.306   6.809   2.807
 4965SOL    HW215795   1.145   6.804   2.839
 4966SOL     OW15796   2.848   6.500   4.932
 4966SOL    HW115797   2.910   6.430   4.896
 4966SOL    HW215798   2.763   6.499   4.880
 4967SOL     OW15799   2.921   5.445   5.866
 4967SOL    HW115800   2.941   5.450   5.964
 4967SOL    HW215801   2.838   5.498   5.847
 4968SOL     OW15802   0.299   1.173   3.568
 4968SOL    HW115803   0.244   1.114   3.510
 4968SOL    HW215804   0.332   1.251   3.514
 4969SOL     OW15805   0.919   6.119   2.692
 4969SOL    HW115806   0.953   6.056   2.762
 4969SOL    HW215807   0.950   6.089   2.602
 4970SOL     OW15808   2.159   1.506   1.382
 4970SOL    HW115809   2.122   1.470   1.296
 4970SOL    HW215810   2.084   1.528   1.444
 4971SOL     OW15811   6.309   5.788   3.184
 4971SOL    HW115812   6.294   5.877   3.142
 4971SOL    HW215813   6.239   5.771   3.253
 4972SOL     OW15814   0.972   3.744   0.621
 4972SOL    HW115815   0.917   3.703   0.549
 4972SOL    HW215816   1.063   3.767   0.586
 4973SOL     OW15817   0.485   0.187   1.606
 4973SOL    HW115818   0.509   0.169   1.702
 4973SOL    HW215819   0.391   0.221   1.601
 4974SOL     OW15820   6.047   4.996   0.635
 4974SOL    HW115821   6.105   5.073   0.661
 4974SOL    HW215822   6.035   4.995   0.536
 4975SOL     OW15823   5.333   4.027   0.476
 4975SOL    HW115824   5.323   3.948   0.537
 4975SOL    HW215825   5.426   4.063   0.484
 4976SOL     OW15826   1.071   0.808   5.009
 4976SOL    HW115827   1.023   0.890   5.040
 4976SOL    HW215828   1.045   0.788   4.915
 4977SOL     OW15829   4.106   5.261   6.648
 4977SOL    HW115830   4.195   5.217   6.655
 4977SOL    HW215831   4.036   5.192   6.629
 4978SOL     OW15832   5.378   4.546   4.317
 4978SOL    HW115833   5.390   4.471   4.381
 4978SOL    HW215834   5.283   4.579   4.321
 4979SOL     OW15835   0.022   6.686   6.553
 4979SOL    HW115836   0.015   6.785   6.538
 4979SOL    HW215837   0.054   6.642   6.469
 4980SOL     OW15838   5.528   5.547   2.773
 4980SOL    HW115839   5.446   5.523   2.723
 4980SOL    HW215840   5.516   5.637   2.816
 4981SOL     OW15841   3.682   5.461   2.478
 4981SOL    HW115842   3.665   5.452   2.576
 4981SOL    HW215843   3.640   5.546   2.445
 4982SOL     OW15844   2.828   2.519   5.849
 4982SOL    HW115845   2.821   2.500   5.751
 4982SOL    HW215846   2.908   2.474   5.887
 4983SOL     OW15847   5.611   3.957   4.617
 4983SOL    HW115848   5.557   3.882   4.580
 4983SOL    HW215849   5.566   3.993   4.699
 4984SOL     OW15850   4.841   4.031   2.652
 4984SOL    HW115851   4.930   4.039   2.696
 4984SOL    HW215852   4.788   4.114   2.668
 4985SOL     OW15853   5.671   6.459   3.438
 4985SOL    HW115854   5.625   6.532   3.388
 4985SOL    HW215855   5.661   6.474   3.537
 4986SOL     OW15856   6.522   5.218   0.229
 4986SOL    HW115857   6.569   5.130   0.229
 4986SOL    HW215858   6.445   5.215   0.166
 4987SOL     OW15859   1.121   6.545   2.266
 4987SOL    HW115860   1.114   6.602   2.348
 4987SOL    HW215861   1.179   6.590   2.198
 4988SOL     OW15862   6.220   0.725   3.015
 4988SOL    HW115863   6.262   0.799   3.069
 4988SOL    HW215864   6.292   0.675   2.966
 4989SOL     OW15865   5.134   6.774   1.514
 4989SOL    HW115866   5.039   6.748   1.530
 4989SOL    HW215867   5.173   6.810   1.599
 4990SOL     OW15868   3.152   2.388   6.462
 4990SOL    HW115869   3.237   2.438   6.479
 4990SOL    HW215870   3.153   2.302   6.513
 4991SOL     OW15871   6.504   5.237   3.648
 4991SOL    HW115872   6.565   5.158   3.638
 4991SOL    HW215873   6.539   5.297   3.720
 4992SOL     OW15874   5.430   0.543   2.286
 4992SOL    HW115875   5.506   0.494   2.242
 4992SOL    HW215876   5.363   0.477   2.319
 4993SOL     OW15877   4.021   6.268   4.890
 4993SOL    HW115878   4.029   6.171   4.868
 4993SOL    HW215879   4.079   6.289   4.969
 4994SOL     OW15880   2.084   6.015   4.561
 4994SOL    HW115881   2.135   5.969   4.488
 4994SOL    HW215882   2.093   5.962   4.645
 4995SOL     OW15883   0.842   1.134   5.317
 4995SOL    HW115884   0.932   1.131   5.275
 4995SOL    HW215885   0.816   1.229   5.333
 4996SOL     OW15886   0.112   0.524   3.040
 4996SOL    HW115887   0.040   0.590   3.062
 4996SOL    HW215888   0.143   0.539   2.946
 4997SOL     OW15889   4.411   2.460   1.690
 4997SOL    HW115890   4.460   2.385   1.735
 4997SOL    HW215891   4.321   2.428   1.661
 4998SOL     OW15892   1.759   3.686   4.651
 4998SOL    HW115893   1.822   3.671   4.574
 4998SOL    HW215894   1.810   3.720   4.730
 4999SOL     OW15895   0.101   3.479   4.665
 4999SOL    HW115896   0.185   3.429   4.642
 4999SOL    HW215897   0.120   3.577   4.669
 5000SOL     OW15898   3.061   0.089   3.219
 5000SOL    HW115899   3.112   0.175   3.217
 5000SOL    HW215900   3.068   0.048   3.310
 5001SOL     OW15901   0.780   5.585   2.068
 5001SOL    HW115902   0.869   5.549   2.095
 5001SOL    HW215903   0.785   5.684   2.059
 5002SOL     OW15904   0.361   4.677   2.103
 5002SOL    HW115905   0.396   4.735   2.030
 5002SOL    HW215906   0.436   4.626   2.144
 5003SOL     OW15907   3.635   6.185   2.887
 5003SOL    HW115908   3.717   6.131   2.866
 5003SOL    HW215909   3.644   6.223   2.979
 5004SOL     OW15910   2.406   4.541   5.775
 5004SOL    HW115911   2.499   4.538   5.811
 5004SOL    HW215912   2.378   4.450   5.745
 5005SOL     OW15913   2.749   3.304   6.218
 5005SOL    HW115914   2.779   3.263   6.132
 5005SOL    HW215915   2.787   3.252   6.295
 5006SOL     OW15916   5.710   0.973   1.549
 5006SOL    HW115917   5.628   0.935   1.590
 5006SOL    HW215918   5.727   0.929   1.461
 5007SOL     OW15919   0.191   6.979   1.307
 5007SOL    HW115920   0.150   6.961   1.397
 5007SOL    HW215921   0.205   0.058   1.297
 5008SOL     OW15922   6.004   6.056   1.537
 5008SOL    HW115923   5.968   6.147   1.515
 5008SOL    HW215924   5.933   5.988   1.522
 5009SOL     OW15925   0.208   2.146   6.883
 5009SOL    HW115926   0.303   2.147   6.915
 5009SOL    HW215927   0.166   2.058   6.907
 5010SOL     OW15928   4.230   2.613   0.609
 5010SOL    HW115929   4.166   2.578   0.678
 5010SOL    HW215930   4.311   2.555   0.607
 5011SOL     OW15931   1.834   4.696   1.574
 5011SOL    HW115932   1.810   4.673   1.479
 5011SOL    HW215933   1.760   4.670   1.635
 5012SOL     OW15934   5.991   2.760   4.864
 5012SOL    HW115935   5.900   2.793   4.889
 5012SOL    HW215936   6.026   2.702   4.937
 5013SOL     OW15937   5.389   1.612   6.114
 5013SOL    HW115938   5.457   1.542   6.137
 5013SOL    HW215939   5.332   1.629   6.194
 5014SOL     OW15940   6.376   4.283   0.602
 5014SOL    HW115941   6.281   4.254   0.613
 5014SOL    HW215942   6.434   4.202   0.589
 5015SOL     OW15943   4.939   1.188   5.049
 5015SOL    HW115944   4.882   1.127   5.103
 5015SOL    HW215945   4.924   1.283   5.077
 5016SOL     OW15946   1.546   2.978   5.198
 5016SOL    HW115947   1.641   3.008   5.199
 5016SOL    HW215948   1.542   2.881   5.171
 5017SOL     OW15949   1.518   2.903   1.295
 5017SOL    HW115950   1.537   2.929   1.390
 5017SOL    HW215951   1.584   2.946   1.234
 5018SOL     OW15952   0.970   4.952   2.396
 5018SOL    HW115953   0.974   4.874   2.458
 5018SOL    HW215954   1.011   5.032   2.440
 5019SOL     OW15955   1.911   5.916   5.658
 5019SOL    HW115956   1.965   5.858   5.597
 5019SOL    HW215957   1.938   5.898   5.753
 5020SOL     OW15958   6.459   0.039   6.286
 5020SOL    HW115959   6.509   7.015   6.212
 5020SOL    HW215960   6.391   6.994   6.322
 5021SOL     OW15961   1.203   1.329   0.540
 5021SOL    HW115962   1.218   1.421   0.504
 5021SOL    HW215963   1.110   1.299   0.517
 5022SOL     OW15964   1.806   2.714   1.424
 5022SOL    HW115965   1.800   2.781   1.349
 5022SOL    HW215966   1.877   2.647   1.402
 5023SOL     OW15967   0.496   4.004   1.543
 5023SOL    HW115968   0.511   3.994   1.444
 5023SOL    HW215969   0.570   3.958   1.592
 5024SOL     OW15970   6.236   5.783   1.201
 5024SOL    HW115971   6.299   5.824   1.268
 5024SOL    HW215972   6.142   5.808   1.223
 5025SOL     OW15973   4.362   2.256   3.508
 5025SOL    HW115974   4.462   2.245   3.507
 5025SOL    HW215975   4.337   2.333   3.449
 5026SOL     OW15976   6.812   6.100   5.624
 5026SOL    HW115977   6.844   6.137   5.537
 5026SOL    HW215978   6.754   6.020   5.608
 5027SOL     OW15979   6.326   6.603   1.135
 5027SOL    HW115980   6.382   6.639   1.061
 5027SOL    HW215981   6.343   6.655   1.218
 5028SOL     OW15982   0.299   1.673   2.668
 5028SOL    HW115983   0.398   1.686   2.659
 5028SOL    HW215984   0.281   1.606   2.741
 5029SOL     OW15985   6.064   2.770   2.381
 5029SOL    HW115986   6.108   2.786   2.470
 5029SOL    HW215987   5.985   2.830   2.372
 5030SOL     OW15988   0.360   6.082   6.711
 5030SOL    HW115989   0.296   6.009   6.737
 5030SOL    HW215990   0.310   6.160   6.676
 5031SOL     OW15991   6.755   1.520   6.095
 5031SOL    HW115992   6.663   1.481   6.088
 5031SOL    HW215993   6.817   1.452   6.136
 5032SOL     OW15994   2.528   2.000   5.712
 5032SOL    HW115995   2.552   2.014   5.616
 5032SOL    HW215996   2.580   2.064   5.769
 5033SOL     OW15997   2.445   6.998   6.194
 5033SOL    HW115998   2.517   6.941   6.155
 5033SOL    HW215999   2.357   6.972   6.156
 5034SOL     OW16000   6.331   0.027   3.453
 5034SOL    HW116001   6.247   7.007   3.415
 5034SOL    HW216002   6.359   6.995   3.534
 5035SOL     OW16003   6.897   4.117   5.699
 5035SOL    HW116004   6.952   4.186   5.746
 5035SOL    HW216005   6.842   4.067   5.767
 5036SOL     OW16006   0.002   5.024   6.731
 5036SOL    HW116007   6.970   5.110   6.737
 5036SOL    HW216008   7.000   4.967   6.810
 5037SOL     OW16009   5.323   4.387   1.773
 5037SOL    HW116010   5.301   4.346   1.861
 5037SOL    HW216011   5.265   4.468   1.759
 5038SOL     OW16012   3.314   3.203   5.303
 5038SOL    HW116013   3.246   3.264   5.345
 5038SOL    HW216014   3.385   3.181   5.369
 5039SOL     OW16015   1.835   3.790   5.911
 5039SOL    HW116016   1.870   3.696   5.905
 5039SOL    HW216017   1.738   3.791   5.884
 5040SOL     OW16018   1.436   6.357   6.063
 5040SOL    HW116019   1.356   6.412   6.089
 5040SOL    HW216020   1.519   6.402   6.094
 5041SOL     OW16021   1.287   1.941   2.234
 5041SOL    HW116022   1.339   1.862   2.201
 5041SOL    HW216023   1.331   2.025   2.202
 5042SOL     OW16024   6.346   3.444   0.365
 5042SOL    HW116025   6.378   3.369   0.308
 5042SOL    HW216026   6.282   3.501   0.314
 5043SOL     OW16027   3.669   0.163   6.843
 5043SOL    HW116028   3.569   0.154   6.853
 5043SOL    HW216029   3.695   0.258   6.862
 5044SOL     OW16030   0.130   6.039   0.751
 5044SOL    HW116031   0.052   6.079   0.704
 5044SOL    HW216032   0.214   6.065   0.704
 5045SOL     OW16033   6.063   6.547   6.399
 5045SOL    HW116034   6.118   6.470   6.431
 5045SOL    HW216035   6.070   6.622   6.466
 5046SOL     OW16036   3.336   4.085   2.674
 5046SOL    HW116037   3.370   4.114   2.585
 5046SOL    HW216038   3.245   4.045   2.663
 5047SOL     OW16039   1.071   4.075   2.627
 5047SOL    HW116040   1.028   4.120   2.706
 5047SOL    HW216041   1.000   4.041   2.566
 5048SOL     OW16042   1.150   1.213   2.809
 5048SOL    HW116043   1.212   1.161   2.867
 5048SOL    HW216044   1.175   1.200   2.713
 5049SOL     OW16045   5.139   2.127   6.867
 5049SOL    HW116046   5.075   2.050   6.874
 5049SOL    HW216047   5.122   2.177   6.783
 5050SOL     OW16048   2.126   0.328   1.226
 5050SOL    HW116049   2.120   0.271   1.308
 5050SOL    HW216050   2.047   0.311   1.167
 5051SOL     OW16051   4.358   3.970   1.225
 5051SOL    HW116052   4.438   4.018   1.262
 5051SOL    HW216053   4.315   4.027   1.155
 5052SOL     OW16054   2.481   1.528   5.657
 5052SOL    HW116055   2.557   1.475   5.619
 5052SOL    HW216056   2.422   1.559   5.582
 5053SOL     OW16057   1.942   3.943   3.782
 5053SOL    HW116058   1.842   3.940   3.772
 5053SOL    HW216059   1.966   4.014   3.848
 5054SOL     OW16060   3.529   4.896   4.015
 5054SOL    HW116061   3.515   4.889   4.114
 5054SOL    HW216062   3.443   4.924   3.971
 5055SOL     OW16063   1.330   2.236   5.660
 5055SOL    HW116064   1.239   2.270   5.685
 5055SOL    HW216065   1.349   2.261   5.565
 5056SOL     OW16066   5.487   4.027   6.999
 5056SOL    HW116067   5.441   3.949   6.958
 5056SOL    HW216068   5.536   3.998   0.062
 5057SOL     OW16069   0.750   6.627   3.593
 5057SOL    HW116070   0.703   6.658   3.676
 5057SOL    HW216071   0.683   6.616   3.520
 5058SOL     OW16072   3.124   4.159   5.312
 5058SOL    HW116073   3.070   4.079   5.337
 5058SOL    HW216074   3.191   4.134   5.242
 5059SOL     OW16075   6.746   0.806   3.127
 5059SOL    HW116076   6.771   0.786   3.032
 5059SOL    HW216077   6.781   0.733   3.186
 5060SOL     OW16078   0.314   2.033   5.883
 5060SOL    HW116079   0.322   1.933   5.877
 5060SOL    HW216080   0.376   2.075   5.818
 5061SOL     OW16081   4.702   2.841   0.963
 5061SOL    HW116082   4.609   2.830   0.998
 5061SOL    HW216083   4.767   2.799   1.025
 5062SOL     OW16084   6.580   0.194   3.162
 5062SOL    HW116085   6.642   0.255   3.211
 5062SOL    HW216086   6.561   0.113   3.219
 5063SOL     OW16087   1.077   6.901   2.558
 5063SOL    HW116088   0.988   6.946   2.559
 5063SOL    HW216089   1.121   6.914   2.647
 5064SOL     OW16090   5.259   3.802   0.626
 5064SOL    HW116091   5.317   3.756   0.693
 5064SOL    HW216092   5.164   3.798   0.656
 5065SOL     OW16093   2.619   0.626   5.405
 5065SOL    HW116094   2.714   0.620   5.377
 5065SOL    HW216095   2.599   0.556   5.473
 5066SOL     OW16096   5.253   4.320   2.637
 5066SOL    HW116097   5.272   4.395   2.700
 5066SOL    HW216098   5.337   4.291   2.592
 5067SOL     OW16099   4.597   1.004   1.667
 5067SOL    HW116100   4.606   1.024   1.569
 5067SOL    HW216101   4.532   0.929   1.680
 5068SOL     OW16102   2.878   4.050   0.856
 5068SOL    HW116103   2.851   3.983   0.925
 5068SOL    HW216104   2.976   4.043   0.838
 5069SOL     OW16105   1.809   3.787   5.153
 5069SOL    HW116106   1.831   3.866   5.209
 5069SOL    HW216107   1.854   3.795   5.064
 5070SOL     OW16108   4.935   4.261   4.187
 5070SOL    HW116109   4.947   4.167   4.220
 5070SOL    HW216110   4.942   4.324   4.263
 5071SOL     OW16111   4.662   2.052   4.737
 5071SOL    HW116112   4.731   2.125   4.733
 5071SOL    HW216113   4.697   1.976   4.790
 5072SOL     OW16114   1.091   6.706   0.630
 5072SOL    HW116115   1.069   6.608   0.627
 5072SOL    HW216116   1.053   6.750   0.549
 5073SOL     OW16117   0.400   6.555   2.574
 5073SOL    HW116118   0.364   6.523   2.487
 5073SOL    HW216119   0.332   6.544   2.645
 5074SOL     OW16120   2.936   3.402   0.312
 5074SOL    HW116121   2.865   3.401   0.383
 5074SOL    HW216122   2.907   3.347   0.235
 5075SOL     OW16123   1.040   1.679   6.548
 5075SOL    HW116124   1.100   1.692   6.627
 5075SOL    HW216125   0.992   1.764   6.527
 5076SOL     OW16126   3.743   0.651   0.487
 5076SOL    HW116127   3.794   0.722   0.535
 5076SOL    HW216128   3.661   0.627   0.541
 5077SOL     OW16129   0.401   3.288   4.914
 5077SOL    HW116130   0.333   3.335   4.858
 5077SOL    HW216131   0.468   3.355   4.948
 5078SOL     OW16132   1.059   1.745   3.681
 5078SOL    HW116133   1.073   1.755   3.582
 5078SOL    HW216134   1.090   1.654   3.709
 5079SOL     OW16135   2.016   4.040   5.751
 5079SOL    HW116136   1.952   4.094   5.806
 5079SOL    HW216137   2.091   4.008   5.810
 5080SOL     OW16138   6.534   6.512   6.059
 5080SOL    HW116139   6.528   6.453   5.978
 5080SOL    HW216140   6.532   6.456   6.142
 5081SOL     OW16141   3.769   2.890   4.447
 5081SOL    HW116142   3.672   2.913   4.439
 5081SOL    HW216143   3.786   2.845   4.535
 5082SOL     OW16144   5.507   5.645   6.015
 5082SOL    HW116145   5.515   5.741   5.987
 5082SOL    HW216146   5.411   5.622   6.028
 5083SOL     OW16147   2.592   0.269   3.174
 5083SOL    HW116148   2.664   0.252   3.241
 5083SOL    HW216149   2.633   0.309   3.092
 5084SOL     OW16150   0.897   4.947   4.087
 5084SOL    HW116151   0.924   4.892   4.009
 5084SOL    HW216152   0.952   5.030   4.090
 5085SOL     OW16153   5.045   3.120   6.678
 5085SOL    HW116154   5.080   3.029   6.700
 5085SOL    HW216155   5.012   3.121   6.583
 5086SOL     OW16156   0.098   5.786   3.367
 5086SOL    HW116157   0.154   5.726   3.424
 5086SOL    HW216158   0.128   5.880   3.378
 5087SOL     OW16159   0.142   5.449   3.356
 5087SOL    HW116160   0.166   5.522   3.420
 5087SOL    HW216161   0.043   5.437   3.355
 5088SOL     OW16162   5.394   1.447   4.670
 5088SOL    HW116163   5.363   1.383   4.740
 5088SOL    HW216164   5.485   1.418   4.638
 5089SOL     OW16165   5.451   2.983   3.396
 5089SOL    HW116166   5.526   2.998   3.333
 5089SOL    HW216167   5.364   2.992   3.347
 5090SOL     OW16168   1.750   3.290   3.078
 5090SOL    HW116169   1.688   3.363   3.108
 5090SOL    HW216170   1.725   3.204   3.123
 5091SOL     OW16171   1.690   6.341   2.688
 5091SOL    HW116172   1.771   6.354   2.745
 5091SOL    HW216173   1.717   6.304   2.599
 5092SOL     OW16174   3.162   3.184   1.454
 5092SOL    HW116175   3.082   3.128   1.433
 5092SOL    HW216176   3.224   3.132   1.512
 5093SOL     OW16177   3.326   1.539   1.415
 5093SOL    HW116178   3.278   1.624   1.436
 5093SOL    HW216179   3.311   1.514   1.319
 5094SOL     OW16180   1.186   6.413   4.933
 5094SOL    HW116181   1.161   6.410   5.030
 5094SOL    HW216182   1.215   6.506   4.909
 5095SOL     OW16183   0.317   2.423   4.766
 5095SOL    HW116184   0.263   2.483   4.707
 5095SOL    HW216185   0.293   2.442   4.862
 5096SOL     OW16186   4.131   3.632   0.825
 5096SOL    HW116187   4.198   3.558   0.815
 5096SOL    HW216188   4.180   3.718   0.843
 5097SOL     OW16189   1.643   0.532   0.246
 5097SOL    HW116190   1.558   0.533   0.195
 5097SOL    HW216191   1.623   0.529   0.344
 5098SOL     OW16192   1.464   0.571   1.118
 5098SOL    HW116193   1.536   0.527   1.170
 5098SOL    HW216194   1.397   0.502   1.088
 5099SOL     OW16195   0.319   0.239   6.130
 5099SOL    HW116196   0.237   0.259   6.183
 5099SOL    HW216197   0.321   0.143   6.105
 5100SOL     OW16198   4.362   6.774   5.245
 5100SOL    HW116199   4.395   6.680   5.258
 5100SOL    HW216200   4.383   6.804   5.152
 5101SOL     OW16201   4.514   6.714   0.400
 5101SOL    HW116202   4.536   6.679   0.491
 5101SOL    HW216203   4.595   6.711   0.342
 5102SOL     OW16204   5.663   0.352   5.266
 5102SOL    HW116205   5.567   0.376   5.251
 5102SOL    HW216206   5.676   0.326   5.362
 5103SOL     OW16207   0.512   0.714   4.061
 5103SOL    HW116208   0.460   0.712   3.976
 5103SOL    HW216209   0.604   0.749   4.043
 5104SOL     OW16210   2.336   6.569   2.329
 5104SOL    HW116211   2.335   6.643   2.262
 5104SOL    HW216212   2.399   6.591   2.403
 5105SOL     OW16213   4.053   3.083   0.213
 5105SOL    HW116214   4.039   3.097   0.311
 5105SOL    HW216215   4.103   2.997   0.199
 5106SOL     OW16216   3.961   0.416   1.746
 5106SOL    HW116217   3.897   0.467   1.803
 5106SOL    HW216218   4.048   0.408   1.794
 5107SOL     OW16219   4.073   0.824   0.364
 5107SOL    HW116220   4.168   0.823   0.393
 5107SOL    HW216221   4.066   0.781   0.274
 5108SOL     OW16222   2.870   3.665   3.493
 5108SOL    HW116223   2.857   3.618   3.580
 5108SOL    HW216224   2.864   3.764   3.507
 5109SOL     OW16225   0.861   1.111   0.827
 5109SOL    HW116226   0.763   1.125   0.821
 5109SOL    HW216227   0.880   1.034   0.889
 5110SOL     OW16228   0.705   0.187   6.614
 5110SOL    HW116229   0.706   0.116   6.544
 5110SOL    HW216230   0.656   0.267   6.580
 5111SOL     OW16231   1.391   1.121   6.110
 5111SOL    HW116232   1.429   1.095   6.198
 5111SOL    HW216233   1.466   1.139   6.045
 5112SOL     OW16234   0.635   0.627   2.527
 5112SOL    HW116235   0.589   0.541   2.547
 5112SOL    HW216236   0.657   0.630   2.430
 5113SOL     OW16237   2.219   0.089   2.109
 5113SOL    HW116238   2.316   0.069   2.106
 5113SOL    HW216239   2.167   0.011   2.073
 5114SOL     OW16240   3.360   2.907   0.258
 5114SOL    HW116241   3.270   2.936   0.224
 5114SOL    HW216242   3.428   2.922   0.187
 5115SOL     OW16243   2.121   4.818   4.881
 5115SOL    HW116244   2.109   4.724   4.912
 5115SOL    HW216245   2.138   4.819   4.782
 5116SOL     OW16246   5.531   6.098   6.255
 5116SOL    HW116247   5.528   6.050   6.343
 5116SOL    HW216248   5.617   6.147   6.246
 5117SOL     OW16249   1.535   4.941   4.229
 5117SOL    HW116250   1.518   5.001   4.151
 5117SOL    HW216251   1.451   4.892   4.253
 5118SOL     OW16252   4.673   6.420   1.012
 5118SOL    HW116253   4.586   6.419   1.061
 5118SOL    HW216254   4.736   6.483   1.057
 5119SOL     OW16255   5.435   0.594   1.463
 5119SOL    HW116256   5.453   0.693   1.466
 5119SOL    HW216257   5.340   0.577   1.488
 5120SOL     OW16258   5.350   1.169   3.581
 5120SOL    HW116259   5.294   1.120   3.649
 5120SOL    HW216260   5.358   1.113   3.499
 5121SOL     OW16261   2.434   2.503   0.112
 5121SOL    HW116262   2.448   2.442   0.190
 5121SOL    HW216263   2.361   2.568   0.132
 5122SOL     OW16264   3.214   0.857   3.910
 5122SOL    HW116265   3.175   0.770   3.881
 5122SOL    HW216266   3.177   0.931   3.853
 5123SOL     OW16267   5.764   3.332   4.690
 5123SOL    HW116268   5.687   3.269   4.700
 5123SOL    HW216269   5.811   3.314   4.604
 5124SOL     OW16270   2.406   5.200   5.459
 5124SOL    HW116271   2.363   5.194   5.369
 5124SOL    HW216272   2.499   5.164   5.454
 5125SOL     OW16273   6.376   3.212   4.428
 5125SOL    HW116274   6.456   3.253   4.473
 5125SOL    HW216275   6.321   3.284   4.385
 5126SOL     OW16276   6.366   5.115   6.061
 5126SOL    HW116277   6.388   5.195   6.005
 5126SOL    HW216278   6.269   5.117   6.084
 5127SOL     OW16279   6.820   3.963   7.014
 5127SOL    HW116280   6.877   3.918   0.064
 5127SOL    HW216281   6.864   3.955   6.925
 5128SOL     OW16282   6.983   6.744   0.459
 5128SOL    HW116283   7.000   6.698   0.373
 5128SOL    HW216284   6.922   6.689   0.515
 5129SOL     OW16285   5.034   0.434   2.323
 5129SOL    HW116286   5.017   0.514   2.266
 5129SOL    HW216287   5.114   0.452   2.381
 5130SOL     OW16288   1.368   5.967   4.242
 5130SOL    HW116289   1.285   5.957   4.297
 5130SOL    HW216290   1.380   6.062   4.215
 5131SOL     OW16291   2.993   4.886   3.270
 5131SOL    HW116292   2.933   4.827   3.324
 5131SOL    HW216293   3.071   4.914   3.326
 5132SOL     OW16294   3.358   1.419   6.104
 5132SOL    HW116295   3.371   1.511   6.140
 5132SOL    HW216296   3.445   1.383   6.072
 5133SOL     OW16297   2.699   5.811   5.973
 5133SOL    HW116298   2.617   5.844   6.021
 5133SOL    HW216299   2.780   5.837   6.025
 5134SOL     OW16300   6.966   7.009   2.206
 5134SOL    HW116301   7.016   6.938   2.156
 5134SOL    HW216302   0.009   0.033   2.272
 5135SOL     OW16303   6.258   3.658   3.537
 5135SOL    HW116304   6.264   3.736   3.600
 5135SOL    HW216305   6.266   3.573   3.589
 5136SOL     OW16306   5.938   0.942   5.974
 5136SOL    HW116307   5.900   0.861   5.928
 5136SOL    HW216308   5.890   1.023   5.943
 5137SOL     OW16309   5.358   3.105   5.282
 5137SOL    HW116310   5.360   3.165   5.202
 5137SOL    HW216311   5.317   3.153   5.359
 5138SOL     OW16312   3.861   3.960   3.744
 5138SOL    HW116313   3.811   4.046   3.747
 5138SOL    HW216314   3.859   3.923   3.652
 5139SOL     OW16315   1.295   6.868   4.661
 5139SOL    HW116316   1.241   6.943   4.621
 5139SOL    HW216317   1.326   6.894   4.752
 5140SOL     OW16318   3.121   2.147   5.564
 5140SOL    HW116319   3.092   2.233   5.607
 5140SOL    HW216320   3.111   2.154   5.465
 5141SOL     OW16321   6.479   3.498   1.415
 5141SOL    HW116322   6.403   3.495   1.349
 5141SOL    HW216323   6.554   3.552   1.377
 5142SOL     OW16324   6.016   6.733   5.228
 5142SOL    HW116325   6.006   6.633   5.222
 5142SOL    HW216326   5.992   6.774   5.141
 5143SOL     OW16327   0.788   4.072   5.306
 5143SOL    HW116328   0.689   4.072   5.321
 5143SOL    HW216329   0.831   4.004   5.366
 5144SOL     OW16330   1.534   3.762   6.015
 5144SOL    HW116331   1.524   3.781   6.112
 5144SOL    HW216332   1.490   3.835   5.962
 5145SOL     OW16333   4.098   6.537   6.771
 5145SOL    HW116334   4.185   6.534   6.721
 5145SOL    HW216335   4.068   6.632   6.780
 5146SOL     OW16336   3.599   4.147   4.851
 5146SOL    HW116337   3.694   4.170   4.874
 5146SOL    HW216338   3.579   4.055   4.884
 5147SOL     OW16339   5.964   4.975   3.533
 5147SOL    HW116340   6.062   4.984   3.516
 5147SOL    HW216341   5.915   5.047   3.484
 5148SOL     OW16342   0.379   0.588   2.077
 5148SOL    HW116343   0.466   0.591   2.126
 5148SOL    HW216344   0.396   0.580   1.979
 5149SOL     OW16345   6.185   5.177   4.129
 5149SOL    HW116346   6.154   5.100   4.073
 5149SOL    HW216347   6.284   5.187   4.119
 5150SOL     OW16348   2.396   4.309   4.105
 5150SOL    HW116349   2.361   4.318   4.012
 5150SOL    HW216350   2.477   4.367   4.116
 5151SOL     OW16351   6.262   3.931   1.425
 5151SOL    HW116352   6.220   3.979   1.502
 5151SOL    HW216353   6.359   3.955   1.419
 5152SOL     OW16354   1.424   5.914   6.450
 5152SOL    HW116355   1.375   5.894   6.365
 5152SOL    HW216356   1.470   6.003   6.441
 5153SOL     OW16357   1.131   2.024   0.591
 5153SOL    HW116358   1.096   2.117   0.601
 5153SOL    HW216359   1.056   1.963   0.563
 5154SOL     OW16360   1.646   2.882   6.474
 5154SOL    HW116361   1.640   2.911   6.378
 5154SOL    HW216362   1.554   2.870   6.511
 5155SOL     OW16363   4.195   1.287   0.739
 5155SOL    HW116364   4.130   1.211   0.737
 5155SOL    HW216365   4.282   1.257   0.699
 5156SOL     OW16366   5.319   4.611   4.749
 5156SOL    HW116367   5.379   4.670   4.694
 5156SOL    HW216368   5.361   4.521   4.759
 5157SOL     OW16369   3.343   1.990   2.345
 5157SOL    HW116370   3.393   2.053   2.286
 5157SOL    HW216371   3.261   2.035   2.379
 5158SOL     OW16372   3.036   2.235   0.490
 5158SOL    HW116373   3.098   2.157   0.492
 5158SOL    HW216374   2.994   2.247   0.580
 5159SOL     OW16375   5.932   3.851   6.732
 5159SOL    HW116376   6.019   3.858   6.682
 5159SOL    HW216377   5.860   3.897   6.679
 5160SOL     OW16378   6.667   5.856   3.551
 5160SOL    HW116379   6.572   5.834   3.573
 5160SOL    HW216380   6.725   5.777   3.568
 5161SOL     OW16381   1.106   2.966   0.373
 5161SOL    HW116382   1.064   3.031   0.437
 5161SOL    HW216383   1.068   2.981   0.282
 5162SOL     OW16384   0.922   5.351   2.299
 5162SOL    HW116385   0.914   5.447   2.324
 5162SOL    HW216386   0.963   5.344   2.208
 5163SOL     OW16387   3.871   0.097   0.649
 5163SOL    HW116388   3.886   0.077   0.746
 5163SOL    HW216389   3.802   0.169   0.640
 5164SOL     OW16390   3.035   3.181   6.666
 5164SOL    HW116391   2.970   3.115   6.703
 5164SOL    HW216392   3.001   3.274   6.683
 5165SOL     OW16393   1.226   4.442   6.612
 5165SOL    HW116394   1.193   4.359   6.656
 5165SOL    HW216395   1.298   4.419   6.546
 5166SOL     OW16396   1.531   4.857   2.899
 5166SOL    HW116397   1.553   4.846   2.802
 5166SOL    HW216398   1.502   4.769   2.936
 5167SOL     OW16399   6.585   4.628   4.801
 5167SOL    HW116400   6.617   4.541   4.838
 5167SOL    HW216401   6.565   4.691   4.876
 5168SOL     OW16402   5.183   2.378   3.165
 5168SOL    HW116403   5.214   2.425   3.082
 5168SOL    HW216404   5.156   2.285   3.142
 5169SOL     OW16405   4.934   1.885   3.600
 5169SOL    HW116406   4.989   1.922   3.675
 5169SOL    HW216407   4.977   1.803   3.563
 5170SOL     OW16408   1.190   3.366   5.368
 5170SOL    HW116409   1.164   3.403   5.279
 5170SOL    HW216410   1.276   3.315   5.359
 5171SOL     OW16411   0.424   4.565   5.242
 5171SOL    HW116412   0.386   4.474   5.262
 5171SOL    HW216413   0.459   4.606   5.326
 5172SOL     OW16414   1.397   4.537   3.276
 5172SOL    HW116415   1.419   4.457   3.332
 5172SOL    HW216416   1.474   4.556   3.215
 5173SOL     OW16417   3.948   4.347   6.028
 5173SOL    HW116418   3.960   4.257   6.070
 5173SOL    HW216419   4.016   4.410   6.065
 5174SOL     OW16420   2.236   6.124   4.164
 5174SOL    HW116421   2.201   6.030   4.171
 5174SOL    HW216422   2.198   6.179   4.238
 5175SOL     OW16423   2.652   3.474   6.707
 5175SOL    HW116424   2.564   3.493   6.751
 5175SOL    HW216425   2.719   3.447   6.777
 5176SOL     OW16426   4.882   4.920   6.828
 5176SOL    HW116427   4.886   5.019   6.811
 5176SOL    HW216428   4.965   4.891   6.875
 5177SOL     OW16429   4.651   6.416   1.555
 5177SOL    HW116430   4.622   6.511   1.565
 5177SOL    HW216431   4.676   6.398   1.460
 5178SOL     OW16432   1.366   4.394   1.539
 5178SOL    HW116433   1.274   4.427   1.557
 5178SOL    HW216434   1.426   4.471   1.519
 5179SOL     OW16435   4.797   4.531   3.752
 5179SOL    HW116436   4.855   4.587   3.694
 5179SOL    HW216437   4.736   4.475   3.696
 5180SOL     OW16438   3.573   0.650   1.339
 5180SOL    HW116439   3.502   0.654   1.409
 5180SOL    HW216440   3.652   0.704   1.367
 5181SOL     OW16441   6.632   0.077   0.911
 5181SOL    HW116442   6.578   0.096   0.993
 5181SOL    HW216443   6.706   0.144   0.904
 5182SOL     OW16444   4.624   4.501   1.836
 5182SOL    HW116445   4.555   4.530   1.771
 5182SOL    HW216446   4.591   4.422   1.888
 5183SOL     OW16447   4.085   1.699   2.745
 5183SOL    HW116448   4.182   1.701   2.769
 5183SOL    HW216449   4.070   1.630   2.673
 5184SOL     OW16450   2.354   1.593   3.031
 5184SOL    HW116451   2.413   1.598   3.112
 5184SOL    HW216452   2.303   1.679   3.023
 5185SOL     OW16453   5.085   0.346   2.851
 5185SOL    HW116454   5.127   0.307   2.933
 5185SOL    HW216455   5.105   0.287   2.772
 5186SOL     OW16456   6.291   2.828   5.954
 5186SOL    HW116457   6.362   2.819   6.025
 5186SOL    HW216458   6.282   2.924   5.928
 5187SOL     OW16459   1.565   5.378   5.044
 5187SOL    HW116460   1.531   5.299   5.094
 5187SOL    HW216461   1.493   5.413   4.984
 5188SOL     OW16462   6.136   5.882   1.704
 5188SOL    HW116463   6.228   5.899   1.740
 5188SOL    HW216464   6.118   5.946   1.629
 5189SOL     OW16465   5.150   6.109   0.352
 5189SOL    HW116466   5.085   6.043   0.316
 5189SOL    HW216467   5.228   6.116   0.290
 5190SOL     OW16468   1.613   3.522   3.176
 5190SOL    HW116469   1.565   3.545   3.261
 5190SOL    HW216470   1.618   3.603   3.118
 5191SOL     OW16471   3.363   5.590   2.864
 5191SOL    HW116472   3.267   5.581   2.888
 5191SOL    HW216473   3.372   5.652   2.786
 5192SOL     OW16474   1.963   6.049   1.155
 5192SOL    HW116475   1.909   6.073   1.235
 5192SOL    HW216476   2.021   5.970   1.176
 5193SOL     OW16477   4.636   5.946   5.955
 5193SOL    HW116478   4.635   5.883   6.032
 5193SOL    HW216479   4.670   5.899   5.874
 5194SOL     OW16480   3.313   2.706   6.987
 5194SOL    HW116481   3.248   2.680   0.038
 5194SOL    HW216482   3.305   2.804   6.968
 5195SOL     OW16483   0.222   0.613   4.326
 5195SOL    HW116484   0.159   0.669   4.271
 5195SOL    HW216485   0.259   0.669   4.401
 5196SOL     OW16486   4.233   6.918   2.355
 5196SOL    HW116487   4.191   6.900   2.444
 5196SOL    HW216488   4.326   6.952   2.369
 5197SOL     OW16489   1.255   3.946   6.586
 5197SOL    HW116490   1.207   4.001   6.519
 5197SOL    HW216491   1.192   3.879   6.626
 5198SOL     OW16492   4.428   5.304   3.341
 5198SOL    HW116493   4.461   5.320   3.434
 5198SOL    HW216494   4.334   5.271   3.343
 5199SOL     OW16495   0.312   5.614   0.429
 5199SOL    HW116496   0.270   5.636   0.517
 5199SOL    HW216497   0.281   5.524   0.399
 5200SOL     OW16498   6.855   3.995   5.201
 5200SOL    HW116499   6.830   4.016   5.295
 5200SOL    HW216500   6.791   4.039   5.138
 5201SOL     OW16501   0.652   6.773   3.121
 5201SOL    HW116502   0.661   6.806   3.027
 5201SOL    HW216503   0.653   6.851   3.183
 5202SOL     OW16504   5.893   2.969   6.682
 5202SOL    HW116505   5.979   2.978   6.731
 5202SOL    HW216506   5.817   2.966   6.747
 5203SOL     OW16507   2.002   2.238   6.939
 5203SOL    HW116508   1.966   2.175   7.008
 5203SOL    HW216509   2.000   2.331   6.975
 5204SOL     OW16510   4.122   5.627   0.451
 5204SOL    HW116511   4.217   5.604   0.428
 5204SOL    HW216512   4.112   5.633   0.550
 5205SOL     OW16513   2.219   0.040   0.853
 5205SOL    HW116514   2.269   7.009   0.783
 5205SOL    HW216515   2.176   0.121   0.811
 5206SOL     OW16516   0.321   3.817   5.703
 5206SOL    HW116517   0.256   3.763   5.649
 5206SOL    HW216518   0.327   3.909   5.665
 5207SOL     OW16519   0.880   5.708   4.153
 5207SOL    HW116520   0.873   5.756   4.240
 5207SOL    HW216521   0.913   5.770   4.083
 5208SOL     OW16522   3.778   1.547   0.263
 5208SOL    HW116523   3.685   1.554   0.226
 5208SOL    HW216524   3.780   1.587   0.354
 5209SOL     OW16525   6.011   5.896   3.832
 5209SOL    HW116526   5.923   5.917   3.789
 5209SOL    HW216527   6.004   5.908   3.931
 5210SOL     OW16528   6.013   2.941   5.540
 5210SOL    HW116529   6.030   2.898   5.451
 5210SOL    HW216530   5.924   2.912   5.574
 5211SOL     OW16531   4.047   3.226   4.264
 5211SOL    HW116532   4.058   3.171   4.180
 5211SOL    HW216533   3.957   3.268   4.264
 5212SOL     OW16534   6.532   1.571   0.833
 5212SOL    HW116535   6.456   1.541   0.891
 5212SOL    HW216536   6.619   1.540   0.873
 5213SOL     OW16537   5.227   3.658   6.694
 5213SOL    HW116538   5.219   3.693   6.601
 5213SOL    HW216539   5.277   3.724   6.750
 5214SOL     OW16540   5.219   1.730   6.333
 5214SOL    HW116541   5.153   1.688   6.396
 5214SOL    HW216542   5.256   1.813   6.374
 5215SOL     OW16543   5.387   5.163   3.334
 5215SOL    HW116544   5.327   5.087   3.359
 5215SOL    HW216545   5.362   5.196   3.243
 5216SOL     OW16546   3.945   6.226   1.906
 5216SOL    HW116547   3.876   6.299   1.909
 5216SOL    HW216548   3.956   6.194   1.812
 5217SOL     OW16549   3.871   5.402   4.032
 5217SOL    HW116550   3.907   5.309   4.034
 5217SOL    HW216551   3.854   5.434   4.125
 5218SOL     OW16552   1.244   0.615   3.236
 5218SOL    HW116553   1.271   0.708   3.262
 5218SOL    HW216554   1.164   0.619   3.176
 5219SOL     OW16555   3.811   0.529   6.306
 5219SOL    HW116556   3.850   0.528   6.214
 5219SOL    HW216557   3.756   0.447   6.320
 5220SOL     OW16558   1.654   5.222   2.839
 5220SOL    HW116559   1.588   5.257   2.773
 5220SOL    HW216560   1.711   5.297   2.873
 5221SOL     OW16561   5.674   2.349   4.298
 5221SOL    HW116562   5.659   2.377   4.204
 5221SOL    HW216563   5.621   2.266   4.317
 5222SOL     OW16564   2.158   0.082   4.389
 5222SOL    HW116565   2.225   0.011   4.411
 5222SOL    HW216566   2.199   0.172   4.402
 5223SOL     OW16567   5.308   0.454   1.168
 5223SOL    HW116568   5.253   0.449   1.251
 5223SOL    HW216569   5.315   0.362   1.128
 5224SOL     OW16570   1.004   1.578   3.157
 5224SOL    HW116571   0.960   1.632   3.085
 5224SOL    HW216572   1.091   1.542   3.123
 5225SOL     OW16573   6.277   0.424   2.748
 5225SOL    HW116574   6.327   0.462   2.826
 5225SOL    HW216575   6.274   0.492   2.675
 5226SOL     OW16576   1.110   5.403   5.185
 5226SOL    HW116577   1.051   5.323   5.189
 5226SOL    HW216578   1.056   5.485   5.204
 5227SOL     OW16579   1.728   4.364   3.786
 5227SOL    HW116580   1.756   4.359   3.882
 5227SOL    HW216581   1.638   4.405   3.779
 5228SOL     OW16582   6.346   2.795   1.346
 5228SOL    HW116583   6.416   2.862   1.322
 5228SOL    HW216584   6.370   2.705   1.309
 5229SOL     OW16585   1.224   4.058   0.323
 5229SOL    HW116586   1.288   4.099   0.258
 5229SOL    HW216587   1.220   4.113   0.406
 5230SOL     OW16588   6.958   6.257   0.879
 5230SOL    HW116589   6.966   6.219   0.971
 5230SOL    HW216590   7.016   6.338   0.871
 5231SOL     OW16591   3.606   4.143   4.109
 5231SOL    HW116592   3.649   4.137   4.199
 5231SOL    HW216593   3.513   4.179   4.118
 5232SOL     OW16594   3.366   2.307   5.925
 5232SOL    HW116595   3.370   2.374   5.999
 5232SOL    HW216596   3.338   2.218   5.962
 5233SOL     OW16597   6.257   6.997   1.579
 5233SOL    HW116598   6.253   6.997   1.479
 5233SOL    HW216599   6.199   6.924   1.615
 5234SOL     OW16600   3.167   0.390   6.522
 5234SOL    HW116601   3.115   0.469   6.489
 5234SOL    HW216602   3.104   0.320   6.556
 5235SOL     OW16603   1.641   3.285   1.044
 5235SOL    HW116604   1.643   3.266   1.142
 5235SOL    HW216605   1.568   3.233   1.001
 5236SOL     OW16606   5.798   3.527   2.330
 5236SOL    HW116607   5.722   3.464   2.346
 5236SOL    HW216608   5.885   3.478   2.339
 5237SOL     OW16609   2.857   1.008   5.322
 5237SOL    HW116610   2.872   0.924   5.374
 5237SOL    HW216611   2.927   1.016   5.250
 5238SOL     OW16612   1.754   4.670   0.632
 5238SOL    HW116613   1.786   4.596   0.574
 5238SOL    HW216614   1.815   4.749   0.623
 5239SOL     OW16615   4.019   3.747   3.840
 5239SOL    HW116616   3.965   3.823   3.804
 5239SOL    HW216617   4.044   3.766   3.935
 5240SOL     OW16618   2.749   1.402   5.842
 5240SOL    HW116619   2.682   1.474   5.860
 5240SOL    HW216620   2.707   1.313   5.854
 5241SOL     OW16621   1.032   5.827   6.331
 5241SOL    HW116622   1.005   5.751   6.272
 5241SOL    HW216623   1.037   5.912   6.278
 5242SOL     OW16624   6.845   6.289   6.107
 5242SOL    HW116625   6.921   6.226   6.119
 5242SOL    HW216626   6.835   6.310   6.010
 5243SOL     OW16627   1.159   6.370   1.633
 5243SOL    HW116628   1.108   6.368   1.547
 5243SOL    HW216629   1.217   6.451   1.635
 5244SOL     OW16630   3.897   4.175   6.333
 5244SOL    HW116631   3.830   4.233   6.288
 5244SOL    HW216632   3.879   4.173   6.431
 5245SOL     OW16633   4.255   4.493   0.435
 5245SOL    HW116634   4.199   4.449   0.506
 5245SOL    HW216635   4.227   4.460   0.345
 5246SOL     OW16636   5.587   4.546   2.696
 5246SOL    HW116637   5.616   4.565   2.602
 5246SOL    HW216638   5.651   4.481   2.738
 5247SOL     OW16639   1.144   6.030   0.595
 5247SOL    HW116640   1.228   5.981   0.572
 5247SOL    HW216641   1.110   5.999   0.684
 5248SOL     OW16642   6.256   0.792   5.355
 5248SOL    HW116643   6.315   0.775   5.435
 5248SOL    HW216644   6.308   0.843   5.287
 5249SOL     OW16645   0.800   5.314   5.379
 5249SOL    HW116646   0.892   5.284   5.357
 5249SOL    HW216647   0.748   5.237   5.416
 5250SOL     OW16648   0.330   0.967   5.913
 5250SOL    HW116649   0.239   0.970   5.870
 5250SOL    HW216650   0.370   1.058   5.912
 5251SOL     OW16651   0.539   2.894   1.484
 5251SOL    HW116652   0.602   2.919   1.411
 5251SOL    HW216653   0.472   2.829   1.450
 5252SOL     OW16654   2.177   5.807   0.989
 5252SOL    HW116655   2.175   5.838   1.084
 5252SOL    HW216656   2.084   5.785   0.959
 5253SOL     OW16657   5.604   4.111   5.539
 5253SOL    HW116658   5.659   4.166   5.602
 5253SOL    HW216659   5.561   4.036   5.589
 5254SOL     OW16660   5.823   1.209   3.763
 5254SOL    HW116661   5.824   1.250   3.672
 5254SOL    HW216662   5.856   1.115   3.757
 5255SOL     OW16663   4.539   0.264   5.701
 5255SOL    HW116664   4.475   0.330   5.740
 5255SOL    HW216665   4.561   0.291   5.607
 5256SOL     OW16666   4.431   1.363   2.969
 5256SOL    HW116667   4.394   1.270   2.968
 5256SOL    HW216668   4.465   1.385   3.060
 5257SOL     OW16669   4.341   0.555   1.926
 5257SOL    HW116670   4.319   0.463   1.893
 5257SOL    HW216671   4.258   0.597   1.963
 5258SOL     OW16672   5.565   4.294   2.193
 5258SOL    HW116673   5.664   4.282   2.192
 5258SOL    HW216674   5.520   4.206   2.179
 5259SOL     OW16675   4.447   6.369   1.161
 5259SOL    HW116676   4.382   6.368   1.238
 5259SOL    HW216677   4.509   6.291   1.170
 5260SOL     OW16678   5.696   3.833   1.097
 5260SOL    HW116679   5.618   3.771   1.106
 5260SOL    HW216680   5.715   3.876   1.185
 5261SOL     OW16681   1.300   3.091   5.846
 5261SOL    HW116682   1.347   3.078   5.759
 5261SOL    HW216683   1.203   3.068   5.835
 5262SOL     OW16684   3.353   0.446   2.441
 5262SOL    HW116685   3.398   0.366   2.481
 5262SOL    HW216686   3.319   0.505   2.514
 5263SOL     OW16687   0.880   0.768   5.659
 5263SOL    HW116688   0.833   0.757   5.571
 5263SOL    HW216689   0.953   0.835   5.650
 5264SOL     OW16690   6.258   0.407   1.903
 5264SOL    HW116691   6.310   0.390   1.820
 5264SOL    HW216692   6.294   0.489   1.948
 5265SOL     OW16693   5.168   4.451   3.059
 5265SOL    HW116694   5.224   4.486   3.134
 5265SOL    HW216695   5.221   4.453   2.974
 5266SOL     OW16696   2.766   0.664   2.143
 5266SOL    HW116697   2.804   0.694   2.230
 5266SOL    HW216698   2.815   0.582   2.112
 5267SOL     OW16699   4.772   4.776   5.918
 5267SOL    HW116700   4.754   4.707   5.988
 5267SOL    HW216701   4.736   4.864   5.948
 5268SOL     OW16702   6.187   5.667   6.262
 5268SOL    HW116703   6.145   5.584   6.226
 5268SOL    HW216704   6.275   5.644   6.305
 5269SOL     OW16705   2.600   6.303   4.257
 5269SOL    HW116706   2.517   6.304   4.313
 5269SOL    HW216707   2.675   6.347   4.306
 5270SOL     OW16708   4.282   1.706   1.769
 5270SOL    HW116709   4.274   1.614   1.808
 5270SOL    HW216710   4.340   1.702   1.687
 5271SOL     OW16711   4.395   5.174   4.765
 5271SOL    HW116712   4.318   5.110   4.756
 5271SOL    HW216713   4.383   5.230   4.847
 5272SOL     OW16714   1.523   5.504   3.299
 5272SOL    HW116715   1.561   5.549   3.218
 5272SOL    HW216716   1.460   5.431   3.270
 5273SOL     OW16717   0.411   3.537   3.475
 5273SOL    HW116718   0.395   3.470   3.547
 5273SOL    HW216719   0.439   3.490   3.391
 5274SOL     OW16720   5.920   5.163   2.398
 5274SOL    HW116721   5.885   5.191   2.487
 5274SOL    HW216722   6.020   5.169   2.399
 5275SOL     OW16723   3.500   1.304   6.311
 5275SOL    HW116724   3.446   1.365   6.252
 5275SOL    HW216725   3.460   1.212   6.309
 5276SOL     OW16726   0.936   6.218   0.799
 5276SOL    HW116727   0.943   6.283   0.874
 5276SOL    HW216728   0.999   6.142   0.814
 5277SOL     OW16729   0.993   2.376   3.146
 5277SOL    HW116730   1.024   2.462   3.105
 5277SOL    HW216731   0.914   2.341   3.096
 5278SOL     OW16732   5.313   6.526   4.503
 5278SOL    HW116733   5.370   6.444   4.504
 5278SOL    HW216734   5.222   6.505   4.536
 5279SOL     OW16735   1.491   5.873   0.142
 5279SOL    HW116736   1.465   5.945   0.078
 5279SOL    HW216737   1.591   5.860   0.139
 5280SOL     OW16738   3.183   5.445   5.548
 5280SOL    HW116739   3.164   5.347   5.548
 5280SOL    HW216740   3.118   5.492   5.608
 5281SOL     OW16741   1.219   0.718   3.727
 5281SOL    HW116742   1.188   0.750   3.816
 5281SOL    HW216743   1.182   0.626   3.710
 5282SOL     OW16744   1.814   1.198   2.406
 5282SOL    HW116745   1.862   1.170   2.489
 5282SOL    HW216746   1.730   1.144   2.396
 5283SOL     OW16747   2.884   0.488   2.453
 5283SOL    HW116748   2.791   0.473   2.421
 5283SOL    HW216749   2.948   0.469   2.378
 5284SOL     OW16750   4.815   3.101   2.655
 5284SOL    HW116751   4.816   3.025   2.721
 5284SOL    HW216752   4.795   3.066   2.564
 5285SOL     OW16753   1.342   3.662   3.923
 5285SOL    HW116754   1.260   3.609   3.945
 5285SOL    HW216755   1.370   3.714   4.004
 5286SOL     OW16756   6.183   3.464   1.097
 5286SOL    HW116757   6.212   3.553   1.133
 5286SOL    HW216758   6.252   3.396   1.119
 5287SOL     OW16759   2.279   6.041   1.454
 5287SOL    HW116760   2.265   6.107   1.528
 5287SOL    HW216761   2.190   6.008   1.422
 5288SOL     OW16762   3.958   0.851   2.775
 5288SOL    HW116763   3.996   0.934   2.734
 5288SOL    HW216764   3.982   0.772   2.719
 5289SOL     OW16765   1.728   6.193   6.267
 5289SOL    HW116766   1.719   6.177   6.169
 5289SOL    HW216767   1.820   6.227   6.287
 5290SOL     OW16768   0.917   4.907   5.856
 5290SOL    HW116769   1.002   4.874   5.897
 5290SOL    HW216770   0.937   4.958   5.772
 5291SOL     OW16771   2.937   4.941   6.362
 5291SOL    HW116772   2.935   5.041   6.356
 5291SOL    HW216773   2.955   4.903   6.271
 5292SOL     OW16774   6.156   4.608   6.631
 5292SOL    HW116775   6.147   4.546   6.553
 5292SOL    HW216776   6.143   4.702   6.600
 5293SOL     OW16777   1.686   6.928   4.727
 5293SOL    HW116778   1.626   6.925   4.647
 5293SOL    HW216779   1.759   6.861   4.715
 5294SOL     OW16780   5.760   2.726   5.063
 5294SOL    HW116781   5.683   2.693   5.117
 5294SOL    HW216782   5.726   2.787   4.991
 5295SOL     OW16783   4.332   1.120   2.815
 5295SOL    HW116784   4.324   1.020   2.820
 5295SOL    HW216785   4.249   1.162   2.851
 5296SOL     OW16786   3.056   4.959   6.809
 5296SOL    HW116787   3.075   5.057   6.797
 5296SOL    HW216788   2.972   4.948   6.862
 5297SOL     OW16789   1.841   3.362   0.538
 5297SOL    HW116790   1.921   3.395   0.588
 5297SOL    HW216791   1.766   3.343   0.602
 5298SOL     OW16792   0.936   6.180   0.081
 5298SOL    HW116793   0.893   6.268   0.059
 5298SOL    HW216794   1.027   6.196   0.117
 5299SOL     OW16795   2.416   3.289   0.625
 5299SOL    HW116796   2.358   3.212   0.598
 5299SOL    HW216797   2.478   3.260   0.697
 5300SOL     OW16798   0.824   5.906   1.317
 5300SOL    HW116799   0.912   5.914   1.365
 5300SOL    HW216800   0.760   5.973   1.354
 5301SOL     OW16801   3.370   2.199   6.314
 5301SOL    HW116802   3.291   2.233   6.263
 5301SOL    HW216803   3.453   2.243   6.280
 5302SOL     OW16804   5.921   5.580   3.773
 5302SOL    HW116805   5.923   5.573   3.873
 5302SOL    HW216806   5.969   5.663   3.744
 5303SOL     OW16807   6.964   5.135   4.047
 5303SOL    HW116808   6.889   5.199   4.029
 5303SOL    HW216809   0.031   5.184   4.045
 5304SOL     OW16810   5.380   0.870   0.324
 5304SOL    HW116811   5.339   0.905   0.408
 5304SOL    HW216812   5.450   0.803   0.346
 5305SOL     OW16813   0.924   4.401   3.021
 5305SOL    HW116814   0.916   4.460   2.941
 5305SOL    HW216815   0.869   4.439   3.096
 5306SOL     OW16816   1.403   4.202   4.851
 5306SOL    HW116817   1.427   4.219   4.947
 5306SOL    HW216818   1.426   4.282   4.796
 5307SOL     OW16819   4.367   1.856   0.306
 5307SOL    HW116820   4.355   1.855   0.207
 5307SOL    HW216821   4.460   1.885   0.328
 5308SOL     OW16822   0.924   4.714   3.602
 5308SOL    HW116823   1.007   4.671   3.568
 5308SOL    HW216824   0.945   4.806   3.636
 5309SOL     OW16825   4.028   4.748   1.658
 5309SOL    HW116826   3.932   4.723   1.669
 5309SOL    HW216827   4.057   4.806   1.734
 5310SOL     OW16828   6.191   3.576   1.753
 5310SOL    HW116829   6.167   3.594   1.848
 5310SOL    HW216830   6.283   3.610   1.735
 5311SOL     OW16831   6.826   6.351   6.853
 5311SOL    HW116832   6.833   6.264   6.902
 5311SOL    HW216833   6.895   6.414   6.888
 5312SOL     OW16834   0.101   5.422   1.851
 5312SOL    HW116835   0.011   5.389   1.881
 5312SOL    HW216836   0.142   5.477   1.924
 5313SOL     OW16837   1.260   3.438   5.707
 5313SOL    HW116838   1.184   3.373   5.704
 5313SOL    HW216839   1.278   3.465   5.802
 5314SOL     OW16840   3.098   6.655   0.557
 5314SOL    HW116841   3.036   6.724   0.518
 5314SOL    HW216842   3.092   6.571   0.503
 5315SOL     OW16843   4.968   3.619   1.861
 5315SOL    HW116844   4.904   3.543   1.848
 5315SOL    HW216845   5.057   3.594   1.822
 5316SOL     OW16846   1.127   3.893   4.253
 5316SOL    HW116847   1.030   3.892   4.277
 5316SOL    HW216848   1.181   3.915   4.334
 5317SOL     OW16849   5.806   0.118   4.783
 5317SOL    HW116850   5.756   0.162   4.708
 5317SOL    HW216851   5.904   0.119   4.762
 5318SOL     OW16852   0.664   3.011   6.551
 5318SOL    HW116853   0.564   3.021   6.549
 5318SOL    HW216854   0.703   3.052   6.469
 5319SOL     OW16855   3.322   6.471   0.263
 5319SOL    HW116856   3.353   6.509   0.350
 5319SOL    HW216857   3.401   6.448   0.207
 5320SOL     OW16858   5.050   4.981   0.333
 5320SOL    HW116859   4.973   4.953   0.389
 5320SOL    HW216860   5.089   5.066   0.369
 5321SOL     OW16861   1.045   5.274   4.398
 5321SOL    HW116862   1.033   5.369   4.428
 5321SOL    HW216863   1.139   5.245   4.414
 5322SOL     OW16864   5.410   6.267   6.086
 5322SOL    HW116865   5.427   6.198   6.157
 5322SOL    HW216866   5.484   6.264   6.019
 5323SOL     OW16867   3.774   1.784   6.913
 5323SOL    HW116868   3.793   1.756   6.819
 5323SOL    HW216869   3.860   1.811   6.957
 5324SOL     OW16870   3.460   2.281   0.461
 5324SOL    HW116871   3.557   2.286   0.485
 5324SOL    HW216872   3.438   2.189   0.429
 5325SOL     OW16873   4.562   0.591   4.560
 5325SOL    HW116874   4.552   0.503   4.605
 5325SOL    HW216875   4.515   0.588   4.471
 5326SOL     OW16876   6.481   4.824   2.989
 5326SOL    HW116877   6.420   4.902   2.983
 5326SOL    HW216878   6.472   4.768   2.907
 5327SOL     OW16879   5.811   3.237   5.279
 5327SOL    HW116880   5.791   3.313   5.217
 5327SOL    HW216881   5.754   3.158   5.255
 5328SOL     OW16882   4.305   3.065   5.324
 5328SOL    HW116883   4.260   3.154   5.326
 5328SOL    HW216884   4.404   3.077   5.315
 5329SOL     OW16885   0.311   4.663   0.336
 5329SOL    HW116886   0.284   4.739   0.396
 5329SOL    HW216887   0.274   4.578   0.372
 5330SOL     OW16888   3.530   4.564   5.582
 5330SOL    HW116889   3.531   4.658   5.614
 5330SOL    HW216890   3.612   4.517   5.615
 5331SOL     OW16891   5.263   1.206   0.521
 5331SOL    HW116892   5.360   1.226   0.537
 5331SOL    HW216893   5.212   1.218   0.606
 5332SOL     OW16894   0.626   3.332   1.262
 5332SOL    HW116895   0.658   3.240   1.285
 5332SOL    HW216896   0.704   3.395   1.260
 5333SOL     OW16897   0.849   0.606   3.922
 5333SOL    HW116898   0.824   0.692   3.966
 5333SOL    HW216899   0.847   0.617   3.822
 5334SOL     OW16900   3.509   0.520   4.326
 5334SOL    HW116901   3.549   0.609   4.348
 5334SOL    HW216902   3.419   0.513   4.370
 5335SOL     OW16903   6.654   5.742   2.398
 5335SOL    HW116904   6.608   5.826   2.371
 5335SOL    HW216905   6.741   5.734   2.349
 5336SOL     OW16906   2.445   1.924   3.093
 5336SOL    HW116907   2.363   1.887   3.049
 5336SOL    HW216908   2.434   2.022   3.106
 5337SOL     OW16909   5.254   4.206   1.588
 5337SOL    HW116910   5.292   4.277   1.648
 5337SOL    HW216911   5.329   4.164   1.535
 5338SOL     OW16912   5.842   2.138   6.365
 5338SOL    HW116913   5.815   2.110   6.457
 5338SOL    HW216914   5.764   2.178   6.318
 5339SOL     OW16915   6.683   2.352   4.410
 5339SOL    HW116916   6.704   2.265   4.366
 5339SOL    HW216917   6.732   2.426   4.363
 5340SOL     OW16918   5.544   3.246   1.157
 5340SOL    HW116919   5.590   3.318   1.105
 5340SOL    HW216920   5.449   3.239   1.126
 5341SOL     OW16921   3.474   3.792   6.568
 5341SOL    HW116922   3.416   3.829   6.495
 5341SOL    HW216923   3.464   3.849   6.650
 5342SOL     OW16924   2.877   6.880   3.871
 5342SOL    HW116925   2.976   6.868   3.883
 5342SOL    HW216926   2.830   6.855   3.956
 5343SOL     OW16927   3.846   3.527   4.169
 5343SOL    HW116928   3.797   3.453   4.216
 5343SOL    HW216929   3.944   3.510   4.174
 5344SOL     OW16930   2.466   2.501   2.671
 5344SOL    HW116931   2.444   2.580   2.728
 5344SOL    HW216932   2.558   2.512   2.634
 5345SOL     OW16933   3.842   6.914   1.467
 5345SOL    HW116934   3.745   6.930   1.486
 5345SOL    HW216935   3.854   6.888   1.371
 5346SOL     OW16936   3.010   5.899   4.310
 5346SOL    HW116937   2.963   5.816   4.279
 5346SOL    HW216938   2.943   5.965   4.343
 5347SOL     OW16939   0.465   2.428   1.724
 5347SOL    HW116940   0.473   2.346   1.781
 5347SOL    HW216941   0.544   2.488   1.742
 5348SOL     OW16942   6.711   2.337   0.974
 5348SOL    HW116943   6.648   2.414   0.985
 5348SOL    HW216944   6.800   2.361   1.012
 5349SOL     OW16945   1.943   3.175   0.319
 5349SOL    HW116946   1.885   3.103   0.280
 5349SOL    HW216947   1.885   3.241   0.368
 5350SOL     OW16948   1.709   7.019   5.497
 5350SOL    HW116949   1.806   6.995   5.492
 5350SOL    HW216950   1.660   6.948   5.549
 5351SOL     OW16951   6.835   5.042   2.559
 5351SOL    HW116952   6.840   5.100   2.478
 5351SOL    HW216953   6.841   5.099   2.641
 5352SOL     OW16954   2.707   4.761   3.281
 5352SOL    HW116955   2.672   4.693   3.345
 5352SOL    HW216956   2.657   4.754   3.195
 5353SOL     OW16957   4.187   4.695   3.642
 5353SOL    HW116958   4.245   4.615   3.629
 5353SOL    HW216959   4.166   4.706   3.739
 5354SOL     OW16960   2.404   5.482   1.983
 5354SOL    HW116961   2.470   5.552   1.956
 5354SOL    HW216962   2.435   5.437   2.067
 5355SOL     OW16963   6.508   3.949   3.772
 5355SOL    HW116964   6.545   3.861   3.803
 5355SOL    HW216965   6.408   3.946   3.776
 5356SOL     OW16966   5.815   4.612   1.630
 5356SOL    HW116967   5.891   4.552   1.654
 5356SOL    HW216968   5.735   4.557   1.606
 5357SOL     OW16969   4.094   6.500   1.183
 5357SOL    HW116970   4.109   6.571   1.251
 5357SOL    HW216971   4.171   6.496   1.120
 5358SOL     OW16972   4.884   1.525   0.335
 5358SOL    HW116973   4.956   1.459   0.359
 5358SOL    HW216974   4.884   1.540   0.236
 5359SOL     OW16975   0.949   1.188   5.795
 5359SOL    HW116976   0.986   1.097   5.778
 5359SOL    HW216977   0.851   1.188   5.778
 5360SOL     OW16978   3.693   6.341   5.247
 5360SOL    HW116979   3.638   6.258   5.247
 5360SOL    HW216980   3.771   6.330   5.308
 5361SOL     OW16981   2.660   1.394   5.407
 5361SOL    HW116982   2.702   1.364   5.321
 5361SOL    HW216983   2.592   1.328   5.437
 5362SOL     OW16984   6.562   5.639   3.272
 5362SOL    HW116985   6.544   5.544   3.299
 5362SOL    HW216986   6.476   5.690   3.271
 5363SOL     OW16987   0.204   0.935   0.007
 5363SOL    HW116988   0.212   0.992   6.945
 5363SOL    HW216989   0.287   0.880   0.017
 5364SOL     OW16990   6.656   6.907   1.955
 5364SOL    HW116991   6.621   6.924   1.863
 5364SOL    HW216992   6.724   6.976   1.979
 5365SOL     OW16993   3.693   3.498   0.036
 5365SOL    HW116994   3.704   3.552   6.972
 5365SOL    HW216995   3.596   3.496   0.062
 5366SOL     OW16996   5.502   5.872   1.931
 5366SOL    HW116997   5.443   5.832   2.000
 5366SOL    HW216998   5.513   5.970   1.949
 5367SOL     OW16999   0.790   6.622   0.776
 5367SOL    HW117000   0.844   6.628   0.692
 5367SOL    HW217001   0.778   6.714   0.814
 5368SOL     OW17002   5.315   0.064   2.430
 5368SOL    HW117003   5.251   0.103   2.496
 5368SOL    HW217004   5.335   0.131   2.359
 5369SOL     OW17005   2.712   6.663   1.924
 5369SOL    HW117006   2.708   6.753   1.968
 5369SOL    HW217007   2.726   6.593   1.994
 5370SOL     OW17008   4.390   3.029   1.708
 5370SOL    HW117009   4.367   2.932   1.709
 5370SOL    HW217010   4.471   3.045   1.763
 5371SOL     OW17011   0.872   3.592   4.846
 5371SOL    HW117012   0.853   3.648   4.926
 5371SOL    HW217013   0.785   3.567   4.802
 5372SOL     OW17014   2.147   6.271   3.913
 5372SOL    HW117015   2.189   6.348   3.865
 5372SOL    HW217016   2.200   6.251   3.996
 5373SOL     OW17017   3.534   0.174   4.447
 5373SOL    HW117018   3.503   0.246   4.509
 5373SOL    HW217019   3.612   0.125   4.488
 5374SOL     OW17020   1.528   4.397   6.958
 5374SOL    HW117021   1.492   4.450   0.015
 5374SOL    HW217022   1.580   4.458   6.898
 5375SOL     OW17023   1.170   5.087   4.971
 5375SOL    HW117024   1.234   5.017   4.940
 5375SOL    HW217025   1.123   5.126   4.892
 5376SOL     OW17026   1.312   3.027   1.141
 5376SOL    HW117027   1.218   2.994   1.135
 5376SOL    HW217028   1.373   2.951   1.164
 5377SOL     OW17029   0.359   0.109   2.509
 5377SOL    HW117030   0.410   0.036   2.463
 5377SOL    HW217031   0.397   0.124   2.600
 5378SOL     OW17032   6.679   0.702   1.645
 5378SOL    HW117033   6.588   0.697   1.602
 5378SOL    HW217034   6.737   0.630   1.608
 5379SOL     OW17035   1.331   4.360   5.245
 5379SOL    HW117036   1.310   4.404   5.158
 5379SOL    HW217037   1.293   4.415   5.320
 5380SOL     OW17038   2.243   1.351   3.093
 5380SOL    HW117039   2.275   1.435   3.050
 5380SOL    HW217040   2.273   1.272   3.039
 5381SOL     OW17041   6.481   4.730   1.712
 5381SOL    HW117042   6.440   4.642   1.735
 5381SOL    HW217043   6.566   4.741   1.762
 5382SOL     OW17044   2.850   1.292   2.399
 5382SOL    HW117045   2.911   1.218   2.425
 5382SOL    HW217046   2.878   1.376   2.445
 5383SOL     OW17047   2.543   2.235   5.084
 5383SOL    HW117048   2.517   2.166   5.152
 5383SOL    HW217049   2.630   2.277   5.112
 5384SOL     OW17050   5.961   6.730   4.802
 5384SOL    HW117051   6.038   6.772   4.754
 5384SOL    HW217052   5.970   6.630   4.796
 5385SOL     OW17053   3.323   3.667   4.285
 5385SOL    HW117054   3.414   3.625   4.288
 5385SOL    HW217055   3.262   3.618   4.348
 5386SOL     OW17056   4.822   0.647   3.968
 5386SOL    HW117057   4.818   0.682   4.062
 5386SOL    HW217058   4.751   0.578   3.955
 5387SOL     OW17059   2.531   6.625   3.585
 5387SOL    HW117060   2.603   6.694   3.588
 5387SOL    HW217061   2.571   6.535   3.567
 5388SOL     OW17062   0.169   0.903   4.031
 5388SOL    HW117063   0.219   0.948   4.105
 5388SOL    HW217064   0.229   0.838   3.985
 5389SOL     OW17065   4.669   1.180   2.587
 5389SOL    HW117066   4.637   1.092   2.623
 5389SOL    HW217067   4.763   1.197   2.619
 5390SOL     OW17068   4.612   4.533   2.867
 5390SOL    HW117069   4.662   4.613   2.834
 5390SOL    HW217070   4.574   4.552   2.957
 5391SOL     OW17071   2.209   2.248   1.027
 5391SOL    HW117072   2.217   2.197   0.941
 5391SOL    HW217073   2.288   2.309   1.037
 5392SOL     OW17074   5.321   3.237   1.009
 5392SOL    HW117075   5.298   3.225   0.912
 5392SOL    HW217076   5.258   3.183   1.065
 5393SOL     OW17077   4.902   6.517   6.924
 5393SOL    HW117078   4.945   6.477   6.843
 5393SOL    HW217079   4.948   6.603   6.947
 5394SOL     OW17080   6.713   4.726   6.924
 5394SOL    HW117081   6.652   4.796   6.888
 5394SOL    HW217082   6.741   4.750   7.017
 5395SOL     OW17083   5.170   1.225   1.433
 5395SOL    HW117084   5.153   1.142   1.380
 5395SOL    HW217085   5.232   1.204   1.508
 5396SOL     OW17086   4.354   4.445   1.720
 5396SOL    HW117087   4.340   4.508   1.796
 5396SOL    HW217088   4.404   4.364   1.753
 5397SOL     OW17089   0.668   2.614   1.831
 5397SOL    HW117090   0.657   2.634   1.929
 5397SOL    HW217091   0.732   2.680   1.791
 5398SOL     OW17092   3.615   2.000   3.722
 5398SOL    HW117093   3.684   2.042   3.664
 5398SOL    HW217094   3.523   2.023   3.688
 5399SOL     OW17095   2.824   5.908   0.693
 5399SOL    HW117096   2.806   5.832   0.755
 5399SOL    HW217097   2.922   5.926   0.690
 5400SOL     OW17098   2.597   4.099   0.220
 5400SOL    HW117099   2.597   4.048   0.307
 5400SOL    HW217100   2.575   4.037   0.145
 5401SOL     OW17101   5.707   3.936   1.359
 5401SOL    HW117102   5.805   3.919   1.359
 5401SOL    HW217103   5.660   3.865   1.412
 5402SOL     OW17104   2.686   5.106   1.879
 5402SOL    HW117105   2.708   5.144   1.789
 5402SOL    HW217106   2.770   5.086   1.928
 5403SOL     OW17107   5.777   2.810   6.348
 5403SOL    HW117108   5.803   2.902   6.321
 5403SOL    HW217109   5.696   2.815   6.407
 5404SOL     OW17110   0.740   0.789   1.924
 5404SOL    HW117111   0.687   0.732   1.861
 5404SOL    HW217112   0.677   0.832   1.990
 5405SOL     OW17113   5.754   6.077   0.231
 5405SOL    HW117114   5.794   6.152   0.285
 5405SOL    HW217115   5.827   6.015   0.202
 5406SOL     OW17116   2.960   0.173   6.517
 5406SOL    HW117117   2.923   0.111   6.587
 5406SOL    HW217118   2.888   0.233   6.484
 5407SOL     OW17119   4.608   2.498   1.489
 5407SOL    HW117120   4.651   2.412   1.461
 5407SOL    HW217121   4.522   2.478   1.537
 5408SOL     OW17122   3.252   1.098   5.907
 5408SOL    HW117123   3.190   1.091   5.985
 5408SOL    HW217124   3.306   1.014   5.900
 5409SOL     OW17125   6.071   1.682   4.203
 5409SOL    HW117126   5.996   1.661   4.266
 5409SOL    HW217127   6.144   1.614   4.213
 5410SOL     OW17128   1.594   3.209   0.422
 5410SOL    HW117129   1.638   3.186   0.509
 5410SOL    HW217130   1.616   3.139   0.354
 5411SOL     OW17131   6.552   4.886   5.534
 5411SOL    HW117132   6.544   4.975   5.578
 5411SOL    HW217133   6.516   4.815   5.596
 5412SOL     OW17134   4.539   0.791   6.965
 5412SOL    HW117135   4.605   0.848   6.917
 5412SOL    HW217136   4.579   0.700   6.980
 5413SOL     OW17137   0.713   0.056   0.964
 5413SOL    HW117138   0.614   0.075   0.966
 5413SOL    HW217139   0.756   0.117   0.897
 5414SOL     OW17140   5.753   2.857   4.795
 5414SOL    HW117141   5.774   2.937   4.739
 5414SOL    HW217142   5.782   2.774   4.748
 5415SOL     OW17143   1.627   6.542   1.389
 5415SOL    HW117144   1.627   6.599   1.307
 5415SOL    HW217145   1.629   6.600   1.471
 5416SOL     OW17146   3.468   4.765   6.293
 5416SOL    HW117147   3.409   4.785   6.215
 5416SOL    HW217148   3.447   4.827   6.368
 5417SOL     OW17149   3.687   6.868   5.181
 5417SOL    HW117150   3.739   6.859   5.096
 5417SOL    HW217151   3.677   6.778   5.224
 5418SOL     OW17152   4.390   6.976   4.283
 5418SOL    HW117153   4.386   6.878   4.262
 5418SOL    HW217154   4.443   6.990   4.367
 5419SOL     OW17155   3.007   5.733   0.351
 5419SOL    HW117156   2.977   5.673   0.425
 5419SOL    HW217157   2.931   5.792   0.322
 5420SOL     OW17158   1.503   2.766   1.871
 5420SOL    HW117159   1.543   2.821   1.945
 5420SOL    HW217160   1.577   2.719   1.821
 5421SOL     OW17161   2.250   4.149   2.718
 5421SOL    HW117162   2.274   4.119   2.625
 5421SOL    HW217163   2.164   4.106   2.746
 5422SOL     OW17164   0.795   5.732   5.975
 5422SOL    HW117165   0.725   5.796   6.009
 5422SOL    HW217166   0.796   5.736   5.875
 5423SOL     OW17167   5.458   3.410   6.941
 5423SOL    HW117168   5.443   3.415   0.020
 5423SOL    HW217169   5.370   3.396   6.895
 5424SOL     OW17170   5.420   3.060   4.327
 5424SOL    HW117171   5.396   3.154   4.305
 5424SOL    HW217172   5.337   3.006   4.342
 5425SOL     OW17173   4.790   1.591   4.281
 5425SOL    HW117174   4.858   1.605   4.353
 5425SOL    HW217175   4.828   1.619   4.193
 5426SOL     OW17176   6.890   5.670   3.827
 5426SOL    HW117177   6.790   5.665   3.828
 5426SOL    HW217178   6.922   5.694   3.736
 5427SOL     OW17179   5.238   5.118   0.806
 5427SOL    HW117180   5.293   5.142   0.886
 5427SOL    HW217181   5.141   5.120   0.831
 5428SOL     OW17182   0.014   0.793   1.915
 5428SOL    HW117183   6.964   0.819   1.847
 5428SOL    HW217184   0.036   0.872   1.972
 5429SOL     OW17185   1.347   1.500   5.952
 5429SOL    HW117186   1.323   1.566   6.023
 5429SOL    HW217187   1.266   1.478   5.897
 5430SOL     OW17188   1.047   3.090   5.160
 5430SOL    HW117189   1.093   3.147   5.091
 5430SOL    HW217190   1.113   3.025   5.199
 5431SOL     OW17191   3.484   5.590   6.580
 5431SOL    HW117192   3.505   5.629   6.669
 5431SOL    HW217193   3.566   5.550   6.540
 5432SOL     OW17194   4.053   6.524   6.218
 5432SOL    HW117195   4.056   6.611   6.268
 5432SOL    HW217196   4.146   6.494   6.196
 5433SOL     OW17197   0.152   1.605   3.446
 5433SOL    HW117198   0.116   1.612   3.352
 5433SOL    HW217199   0.246   1.639   3.448
 5434SOL     OW17200   3.681   0.994   4.857
 5434SOL    HW117201   3.621   0.914   4.862
 5434SOL    HW217202   3.760   0.980   4.917
 5435SOL     OW17203   6.101   1.603   1.238
 5435SOL    HW117204   6.115   1.646   1.327
 5435SOL    HW217205   6.085   1.505   1.250
 5436SOL     OW17206   5.342   4.278   4.710
 5436SOL    HW117207   5.255   4.265   4.662
 5436SOL    HW217208   5.357   4.202   4.773
 5437SOL     OW17209   2.390   4.960   5.280
 5437SOL    HW117210   2.378   4.885   5.215
 5437SOL    HW217211   2.360   4.932   5.371
 5438SOL     OW17212   5.731   3.540   2.864
 5438SOL    HW117213   5.783   3.487   2.796
 5438SOL    HW217214   5.634   3.532   2.845
 5439SOL     OW17215   0.173   2.264   0.323
 5439SOL    HW117216   0.079   2.234   0.339
 5439SOL    HW217217   0.176   2.320   0.240
 5440SOL     OW17218   0.521   0.288   2.294
 5440SOL    HW117219   0.569   0.313   2.210
 5440SOL    HW217220   0.557   0.202   2.329
 5441SOL     OW17221   4.909   2.945   3.109
 5441SOL    HW117222   4.843   2.976   3.040
 5441SOL    HW217223   4.867   2.876   3.168
 5442SOL     OW17224   3.442   6.385   3.147
 5442SOL    HW117225   3.425   6.477   3.114
 5442SOL    HW217226   3.419   6.319   3.076
 5443SOL     OW17227   2.424   0.019   4.044
 5443SOL    HW117228   2.491   7.019   3.973
 5443SOL    HW217229   2.367   0.097   4.016
 5444SOL     OW17230   0.872   0.626   3.643
 5444SOL    HW117231   0.872   0.648   3.545
 5444SOL    HW217232   0.941   0.555   3.661
 5445SOL     OW17233   6.084   4.367   4.415
 5445SOL    HW117234   5.994   4.342   4.379
 5445SOL    HW217235   6.142   4.399   4.340
 5446SOL     OW17236   5.801   5.461   5.088
 5446SOL    HW117237   5.761   5.413   5.166
 5446SOL    HW217238   5.894   5.427   5.073
 5447SOL     OW17239   1.667   1.863   0.524
 5447SOL    HW117240   1.641   1.879   0.619
 5447SOL    HW217241   1.588   1.831   0.473
 5448SOL     OW17242   5.620   3.634   4.754
 5448SOL    HW117243   5.697   3.601   4.809
 5448SOL    HW217244   5.651   3.655   4.662
 5449SOL     OW17245   1.565   1.933   6.826
 5449SOL    HW117246   1.519   2.014   6.862
 5449SOL    HW217247   1.660   1.956   6.803
 5450SOL     OW17248   1.928   0.515   2.179
 5450SOL    HW117249   1.964   0.422   2.191
 5450SOL    HW217250   1.986   0.565   2.116
 5451SOL     OW17251   1.478   5.648   3.513
 5451SOL    HW117252   1.447   5.576   3.575
 5451SOL    HW217253   1.509   5.607   3.427
 5452SOL     OW17254   2.054   3.988   7.004
 5452SOL    HW117255   2.027   4.063   0.045
 5452SOL    HW217256   1.973   3.939   6.973
 5453SOL     OW17257   5.033   4.052   1.185
 5453SOL    HW117258   5.098   3.980   1.208
 5453SOL    HW217259   5.022   4.113   1.264
 5454SOL     OW17260   6.346   4.120   5.875
 5454SOL    HW117261   6.394   4.143   5.791
 5454SOL    HW217262   6.249   4.142   5.866
 5455SOL     OW17263   6.110   2.439   1.832
 5455SOL    HW117264   6.154   2.527   1.814
 5455SOL    HW217265   6.144   2.371   1.767
 5456SOL     OW17266   2.535   0.239   6.833
 5456SOL    HW117267   2.455   0.296   6.817
 5456SOL    HW217268   2.508   0.157   6.885
 5457SOL     OW17269   6.868   2.495   0.767
 5457SOL    HW117270   6.896   2.481   0.862
 5457SOL    HW217271   6.792   2.434   0.746
 5458SOL     OW17272   0.453   3.927   0.213
 5458SOL    HW117273   0.492   3.965   0.297
 5458SOL    HW217274   0.360   3.961   0.201
 5459SOL     OW17275   2.478   4.087   6.647
 5459SOL    HW117276   2.406   4.026   6.680
 5459SOL    HW217277   2.492   4.072   6.549
 5460SOL     OW17278   3.960   0.053   2.973
 5460SOL    HW117279   3.902   7.018   3.033
 5460SOL    HW217280   4.052   0.014   2.971
 5461SOL     OW17281   0.107   0.465   5.586
 5461SOL    HW117282   0.050   0.443   5.507
 5461SOL    HW217283   0.085   0.403   5.661
 5462SOL     OW17284   0.309   6.369   1.129
 5462SOL    HW117285   0.244   6.329   1.193
 5462SOL    HW217286   0.261   6.423   1.061
 5463SOL     OW17287   6.934   1.396   0.471
 5463SOL    HW117288   6.950   1.319   0.410
 5463SOL    HW217289   6.846   1.439   0.449
 5464SOL     OW17290   0.735   0.700   4.792
 5464SOL    HW117291   0.822   0.652   4.800
 5464SOL    HW217292   0.665   0.638   4.758
 5465SOL     OW17293   4.337   0.290   4.153
 5465SOL    HW117294   4.369   0.218   4.091
 5465SOL    HW217295   4.241   0.275   4.176
 5466SOL     OW17296   5.123   2.774   4.879
 5466SOL    HW117297   5.143   2.861   4.924
 5466SOL    HW217298   5.136   2.699   4.944
 5467SOL     OW17299   4.940   3.878   3.268
 5467SOL    HW117300   5.006   3.941   3.307
 5467SOL    HW217301   4.916   3.809   3.336
 5468SOL     OW17302   6.494   2.802   4.152
 5468SOL    HW117303   6.412   2.855   4.174
 5468SOL    HW217304   6.478   2.705   4.173
 5469SOL     OW17305   2.924   5.917   6.101
 5469SOL    HW117306   2.951   5.895   6.194
 5469SOL    HW217307   2.977   5.862   6.037
 5470SOL     OW17308   3.605   5.496   2.940
 5470SOL    HW117309   3.654   5.583   2.949
 5470SOL    HW217310   3.508   5.514   2.925
 5471SOL     OW17311   5.642   6.812   2.584
 5471SOL    HW117312   5.626   6.794   2.487
 5471SOL    HW217313   5.654   6.910   2.598
 5472SOL     OW17314   3.660   4.039   5.679
 5472SOL    HW117315   3.737   3.988   5.716
 5472SOL    HW217316   3.574   3.997   5.711
 5473SOL     OW17317   0.328   2.931   2.665
 5473SOL    HW117318   0.423   2.901   2.655
 5473SOL    HW217319   0.294   2.903   2.755
 5474SOL     OW17320   1.033   4.730   3.954
 5474SOL    HW117321   1.033   4.783   3.869
 5474SOL    HW217322   1.034   4.632   3.931
 5475SOL     OW17323   2.212   3.294   1.196
 5475SOL    HW117324   2.201   3.345   1.281
 5475SOL    HW217325   2.282   3.224   1.207
 5476SOL     OW17326   2.286   4.289   5.673
 5476SOL    HW117327   2.315   4.193   5.680
 5476SOL    HW217328   2.254   4.307   5.580
 5477SOL     OW17329   2.160   4.735   3.007
 5477SOL    HW117330   2.164   4.723   3.106
 5477SOL    HW217331   2.117   4.655   2.965
 5478SOL     OW17332   3.687   5.573   4.932
 5478SOL    HW117333   3.622   5.521   4.877
 5478SOL    HW217334   3.701   5.527   5.020
 5479SOL     OW17335   5.366   1.523   5.726
 5479SOL    HW117336   5.376   1.522   5.627
 5479SOL    HW217337   5.451   1.553   5.769
 5480SOL     OW17338   5.816   4.438   2.833
 5480SOL    HW117339   5.875   4.518   2.844
 5480SOL    HW217340   5.873   4.356   2.823
 5481SOL     OW17341   4.227   1.985   4.233
 5481SOL    HW117342   4.187   1.979   4.325
 5481SOL    HW217343   4.245   2.081   4.212
 5482SOL     OW17344   3.500   4.404   1.690
 5482SOL    HW117345   3.529   4.485   1.740
 5482SOL    HW217346   3.403   4.386   1.709
 5483SOL     OW17347   0.205   1.650   5.784
 5483SOL    HW117348   0.178   1.732   5.734
 5483SOL    HW217349   0.125   1.610   5.828
 5484SOL     OW17350   4.245   1.463   4.340
 5484SOL    HW117351   4.243   1.562   4.346
 5484SOL    HW217352   4.287   1.425   4.422
 5485SOL     OW17353   3.704   0.311   5.671
 5485SOL    HW117354   3.774   0.348   5.733
 5485SOL    HW217355   3.649   0.244   5.720
 5486SOL     OW17356   2.715   5.971   5.306
 5486SOL    HW117357   2.796   5.986   5.362
 5486SOL    HW217358   2.655   5.905   5.351
 5487SOL     OW17359   4.227   2.451   6.827
 5487SOL    HW117360   4.228   2.362   6.871
 5487SOL    HW217361   4.317   2.495   6.839
 5488SOL     OW17362   6.335   0.230   1.042
 5488SOL    HW117363   6.312   0.327   1.034
 5488SOL    HW217364   6.405   0.218   1.113
 5489SOL     OW17365   0.834   4.838   1.469
 5489SOL    HW117366   0.765   4.900   1.433
 5489SOL    HW217367   0.916   4.890   1.493
 5490SOL     OW17368   3.238   0.149   2.741
 5490SOL    HW117369   3.200   0.095   2.816
 5490SOL    HW217370   3.290   0.226   2.778
 5491SOL     OW17371   0.588   2.760   0.380
 5491SOL    HW117372   0.507   2.818   0.391
 5491SOL    HW217373   0.624   2.770   0.287
 5492SOL     OW17374   0.447   4.429   6.641
 5492SOL    HW117375   0.363   4.446   6.591
 5492SOL    HW217376   0.438   4.462   6.735
 5493SOL     OW17377   3.103   3.980   4.260
 5493SOL    HW117378   3.176   4.043   4.235
 5493SOL    HW217379   3.065   3.939   4.177
 5494SOL     OW17380   0.780   3.710   5.716
 5494SOL    HW117381   0.754   3.677   5.626
 5494SOL    HW217382   0.813   3.634   5.771
 5495SOL     OW17383   6.029   1.013   0.753
 5495SOL    HW117384   6.019   0.950   0.676
 5495SOL    HW217385   6.125   1.035   0.766
 5496SOL     OW17386   4.051   0.680   3.791
 5496SOL    HW117387   4.028   0.759   3.734
 5496SOL    HW217388   4.135   0.699   3.842
 5497SOL     OW17389   0.441   0.426   4.915
 5497SOL    HW117390   0.467   0.439   4.820
 5497SOL    HW217391   0.348   0.390   4.919
 5498SOL     OW17392   6.932   5.340   1.384
 5498SOL    HW117393   6.995   5.329   1.461
 5498SOL    HW217394   6.933   5.435   1.353
 5499SOL     OW17395   1.071   0.714   4.752
 5499SOL    HW117396   1.126   0.772   4.693
 5499SOL    HW217397   1.103   0.619   4.745
 5500SOL     OW17398   0.799   0.454   6.973
 5500SOL    HW117399   0.702   0.436   6.992
 5500SOL    HW217400   0.840   0.374   6.929
 5501SOL     OW17401   3.885   1.772   6.656
 5501SOL    HW117402   3.819   1.704   6.627
 5501SOL    HW217403   3.850   1.864   6.636
 5502SOL     OW17404   5.103   3.924   6.811
 5502SOL    HW117405   5.169   3.925   6.736
 5502SOL    HW217406   5.138   3.868   6.886
 5503SOL     OW17407   6.817   4.318   0.885
 5503SOL    HW117408   6.761   4.319   0.802
 5503SOL    HW217409   6.845   4.411   0.908
 5504SOL     OW17410   4.560   1.247   4.963
 5504SOL    HW117411   4.568   1.167   5.023
 5504SOL    HW217412   4.536   1.327   5.017
 5505SOL     OW17413   2.054   5.262   4.083
 5505SOL    HW117414   1.978   5.303   4.133
 5505SOL    HW217415   2.111   5.209   4.146
 5506SOL     OW17416   0.602   3.782   0.844
 5506SOL    HW117417   0.514   3.791   0.798
 5506SOL    HW217418   0.660   3.860   0.821
 5507SOL     OW17419   3.975   1.314   4.877
 5507SOL    HW117420   3.884   1.316   4.918
 5507SOL    HW217421   4.040   1.274   4.942
 5508SOL     OW17422   1.159   1.281   0.215
 5508SOL    HW117423   1.214   1.362   0.238
 5508SOL    HW217424   1.087   1.269   0.284
 5509SOL     OW17425   0.483   6.350   6.310
 5509SOL    HW117426   0.552   6.408   6.354
 5509SOL    HW217427   0.519   6.258   6.299
 5510SOL     OW17428   4.335   5.517   6.526
 5510SOL    HW117429   4.364   5.446   6.590
 5510SOL    HW217430   4.236   5.510   6.511
 5511SOL     OW17431   1.277   6.853   4.345
 5511SOL    HW117432   1.236   6.944   4.357
 5511SOL    HW217433   1.206   6.789   4.314
 5512SOL     OW17434   4.738   2.135   0.817
 5512SOL    HW117435   4.833   2.108   0.797
 5512SOL    HW217436   4.678   2.056   0.808
 5513SOL     OW17437   4.025   5.496   5.886
 5513SOL    HW117438   3.984   5.532   5.802
 5513SOL    HW217439   3.958   5.440   5.934
 5514SOL     OW17440   3.451   0.325   4.654
 5514SOL    HW117441   3.484   0.419   4.663
 5514SOL    HW217442   3.360   0.325   4.613
 5515SOL     OW17443   1.046   5.708   1.777
 5515SOL    HW117444   1.121   5.692   1.713
 5515SOL    HW217445   1.070   5.783   1.839
 5516SOL     OW17446   1.870   2.346   5.231
 5516SOL    HW117447   1.847   2.253   5.205
 5516SOL    HW217448   1.932   2.385   5.163
 5517SOL     OW17449   2.136   3.705   2.228
 5517SOL    HW117450   2.183   3.793   2.223
 5517SOL    HW217451   2.184   3.639   2.170
 5518SOL     OW17452   5.904   5.549   6.835
 5518SOL    HW117453   6.000   5.551   6.808
 5518SOL    HW217454   5.854   5.621   6.785
 5519SOL     OW17455   5.293   2.956   2.817
 5519SOL    HW117456   5.218   2.991   2.763
 5519SOL    HW217457   5.374   2.943   2.759
 5520SOL     OW17458   5.761   6.852   2.279
 5520SOL    HW117459   5.794   6.851   2.185
 5520SOL    HW217460   5.662   6.868   2.280
 5521SOL     OW17461   4.573   6.549   1.843
 5521SOL    HW117462   4.666   6.566   1.877
 5521SOL    HW217463   4.559   6.600   1.758
 5522SOL     OW17464   6.410   4.976   0.643
 5522SOL    HW117465   6.363   4.922   0.712
 5522SOL    HW217466   6.374   5.069   0.644
 5523SOL     OW17467   4.234   1.093   1.466
 5523SOL    HW117468   4.310   1.035   1.496
 5523SOL    HW217469   4.194   1.139   1.545
 5524SOL     OW17470   3.829   0.147   4.484
 5524SOL    HW117471   3.857   0.203   4.407
 5524SOL    HW217472   3.862   0.053   4.472
 5525SOL     OW17473   0.840   2.182   0.368
 5525SOL    HW117474   0.898   2.249   0.415
 5525SOL    HW217475   0.832   2.207   0.271
 5526SOL     OW17476   5.185   5.292   2.830
 5526SOL    HW117477   5.156   5.199   2.854
 5526SOL    HW217478   5.260   5.320   2.890
 5527SOL     OW17479   4.904   3.722   3.725
 5527SOL    HW117480   4.918   3.645   3.786
 5527SOL    HW217481   4.841   3.787   3.767
 5528SOL     OW17482   1.687   0.869   0.808
 5528SOL    HW117483   1.780   0.863   0.771
 5528SOL    HW217484   1.673   0.795   0.874
 5529SOL     OW17485   3.609   6.854   4.621
 5529SOL    HW117486   3.690   6.873   4.677
 5529SOL    HW217487   3.529   6.843   4.680
 5530SOL     OW17488   6.153   2.103   0.857
 5530SOL    HW117489   6.170   2.134   0.951
 5530SOL    HW217490   6.214   2.027   0.835
 5531SOL     OW17491   3.736   3.445   1.411
 5531SOL    HW117492   3.644   3.421   1.380
 5531SOL    HW217493   3.743   3.545   1.421
 5532SOL     OW17494   0.874   2.811   1.360
 5532SOL    HW117495   0.927   2.895   1.348
 5532SOL    HW217496   0.863   2.765   1.272
 5533SOL     OW17497   4.419   1.751   3.460
 5533SOL    HW117498   4.365   1.698   3.394
 5533SOL    HW217499   4.430   1.844   3.426
 5534SOL     OW17500   0.905   1.558   0.292
 5534SOL    HW117501   0.949   1.509   0.217
 5534SOL    HW217502   0.965   1.631   0.324
 5535SOL     OW17503   1.294   1.062   3.036
 5535SOL    HW117504   1.392   1.072   3.017
 5535SOL    HW217505   1.277   1.077   3.133
 5536SOL     OW17506   3.536   0.187   3.972
 5536SOL    HW117507   3.444   0.166   4.007
 5536SOL    HW217508   3.595   0.214   4.048
 5537SOL     OW17509   3.358   1.618   2.549
 5537SOL    HW117510   3.261   1.619   2.526
 5537SOL    HW217511   3.391   1.523   2.553
 5538SOL     OW17512   4.350   5.807   5.255
 5538SOL    HW117513   4.321   5.830   5.348
 5538SOL    HW217514   4.382   5.890   5.209
 5539SOL     OW17515   1.375   4.219   1.771
 5539SOL    HW117516   1.455   4.199   1.828
 5539SOL    HW217517   1.406   4.264   1.686
 5540SOL     OW17518   4.708   4.958   3.920
 5540SOL    HW117519   4.632   4.950   3.985
 5540SOL    HW217520   4.759   4.872   3.918
 5541SOL     OW17521   4.921   6.921   6.516
 5541SOL    HW117522   4.863   6.901   6.437
 5541SOL    HW217523   4.996   6.854   6.521
 5542SOL     OW17524   4.266   3.556   6.036
 5542SOL    HW117525   4.273   3.461   6.005
 5542SOL    HW217526   4.231   3.613   5.962
 5543SOL     OW17527   4.426   3.706   6.797
 5543SOL    HW117528   4.506   3.650   6.775
 5543SOL    HW217529   4.421   3.721   6.896
 5544SOL     OW17530   5.123   5.621   6.868
 5544SOL    HW117531   5.024   5.610   6.883
 5544SOL    HW217532   5.163   5.532   6.846
 5545SOL     OW17533   4.891   0.278   2.547
 5545SOL    HW117534   4.851   0.364   2.580
 5545SOL    HW217535   4.895   0.281   2.447
 5546SOL     OW17536   0.627   4.276   4.383
 5546SOL    HW117537   0.582   4.217   4.315
 5546SOL    HW217538   0.559   4.308   4.449
 5547SOL     OW17539   3.071   6.262   5.420
 5547SOL    HW117540   3.032   6.230   5.333
 5547SOL    HW217541   3.157   6.309   5.402
 5548SOL     OW17542   6.270   3.098   5.894
 5548SOL    HW117543   6.316   3.175   5.938
 5548SOL    HW217544   6.257   3.118   5.797
 5549SOL     OW17545   4.138   5.007   0.273
 5549SOL    HW117546   4.185   5.079   0.221
 5549SOL    HW217547   4.192   4.984   0.354
 5550SOL     OW17548   2.804   5.522   2.272
 5550SOL    HW117549   2.795   5.588   2.197
 5550SOL    HW217550   2.878   5.459   2.252
 5551SOL     OW17551   1.555   0.843   3.079
 5551SOL    HW117552   1.507   0.830   3.165
 5551SOL    HW217553   1.568   0.941   3.062
 5552SOL     OW17554   0.029   1.160   0.053
 5552SOL    HW117555   0.079   1.073   0.049
 5552SOL    HW217556   0.080   1.225   0.109
 5553SOL     OW17557   3.637   6.617   0.321
 5553SOL    HW117558   3.577   6.693   0.347
 5553SOL    HW217559   3.712   6.610   0.387
 5554SOL     OW17560   2.619   1.767   5.583
 5554SOL    HW117561   2.553   1.835   5.615
 5554SOL    HW217562   2.597   1.677   5.622
 5555SOL     OW17563   0.799   5.185   3.521
 5555SOL    HW117564   0.748   5.271   3.531
 5555SOL    HW217565   0.854   5.169   3.603
 5556SOL     OW17566   0.470   2.542   4.324
 5556SOL    HW117567   0.395   2.488   4.362
 5556SOL    HW217568   0.434   2.606   4.256
 5557SOL     OW17569   3.255   4.956   3.914
 5557SOL    HW117570   3.189   4.986   3.983
 5557SOL    HW217571   3.207   4.935   3.829
 5558SOL     OW17572   4.877   3.373   5.472
 5558SOL    HW117573   4.868   3.466   5.437
 5558SOL    HW217574   4.876   3.308   5.396
 5559SOL     OW17575   2.611   6.752   2.446
 5559SOL    HW117576   2.624   6.851   2.445
 5559SOL    HW217577   2.544   6.728   2.517
 5560SOL     OW17578   0.335   6.867   2.893
 5560SOL    HW117579   0.307   6.943   2.835
 5560SOL    HW217580   0.416   6.823   2.854
 5561SOL     OW17581   1.814   2.412   4.072
 5561SOL    HW117582   1.736   2.355   4.045
 5561SOL    HW217583   1.882   2.355   4.118
 5562SOL     OW17584   1.923   2.257   6.671
 5562SOL    HW117585   1.979   2.267   6.752
 5562SOL    HW217586   1.978   2.218   6.597
 5563SOL     OW17587   4.552   6.528   2.545
 5563SOL    HW117588   4.597   6.496   2.461
 5563SOL    HW217589   4.498   6.454   2.583
 5564SOL     OW17590   5.107   2.738   1.236
 5564SOL    HW117591   5.088   2.796   1.315
 5564SOL    HW217592   5.174   2.669   1.261
 5565SOL     OW17593   4.709   2.340   6.059
 5565SOL    HW117594   4.792   2.321   6.112
 5565SOL    HW217595   4.706   2.437   6.035
 5566SOL     OW17596   1.061   5.989   1.520
 5566SOL    HW117597   1.140   6.044   1.492
 5566SOL    HW217598   0.999   6.045   1.575
 5567SOL     OW17599   0.759   4.811   0.542
 5567SOL    HW117600   0.770   4.751   0.621
 5567SOL    HW217601   0.721   4.759   0.466
 5568SOL     OW17602   4.711   2.429   1.130
 5568SOL    HW117603   4.737   2.384   1.215
 5568SOL    HW217604   4.751   2.520   1.126
 5569SOL     OW17605   3.853   1.955   1.688
 5569SOL    HW117606   3.771   1.954   1.745
 5569SOL    HW217607   3.916   1.883   1.719
 5570SOL     OW17608   6.248   4.880   4.814
 5570SOL    HW117609   6.342   4.914   4.813
 5570SOL    HW217610   6.231   4.834   4.902
 5571SOL     OW17611   6.993   6.122   0.510
 5571SOL    HW117612   0.004   6.065   0.434
 5571SOL    HW217613   6.894   6.115   0.519
 5572SOL     OW17614   2.953   2.793   6.328
 5572SOL    HW117615   2.977   2.804   6.424
 5572SOL    HW217616   2.861   2.755   6.320
 5573SOL     OW17617   0.999   2.714   0.459
 5573SOL    HW117618   1.026   2.806   0.429
 5573SOL    HW217619   1.067   2.678   0.523
 5574SOL     OW17620   6.980   0.491   4.428
 5574SOL    HW117621   6.911   0.517   4.361
 5574SOL    HW217622   0.051   0.499   4.386
 5575SOL     OW17623   1.530   0.825   1.591
 5575SOL    HW117624   1.559   0.916   1.561
 5575SOL    HW217625   1.441   0.831   1.637
 5576SOL     OW17626   6.069   4.996   1.508
 5576SOL    HW117627   6.022   4.919   1.463
 5576SOL    HW217628   6.154   4.963   1.549
 5577SOL     OW17629   2.220   3.573   5.167
 5577SOL    HW117630   2.220   3.479   5.199
 5577SOL    HW217631   2.241   3.635   5.243
 5578SOL     OW17632   3.113   2.679   0.228
 5578SOL    HW117633   3.187   2.692   0.293
 5578SOL    HW217634   3.100   2.581   0.212
 5579SOL     OW17635   5.266   3.923   6.590
 5579SOL    HW117636   5.221   3.888   6.508
 5579SOL    HW217637   5.303   4.014   6.571
 5580SOL     OW17638   4.555   1.956   0.723
 5580SOL    HW117639   4.619   1.922   0.654
 5580SOL    HW217640   4.507   1.880   0.765
 5581SOL     OW17641   2.379   0.294   0.163
 5581SOL    HW117642   2.353   0.237   0.085
 5581SOL    HW217643   2.306   0.359   0.184
 5582SOL     OW17644   3.715   3.765   4.174
 5582SOL    HW117645   3.761   3.830   4.113
 5582SOL    HW217646   3.770   3.682   4.181
 5583SOL     OW17647   4.078   6.821   2.564
 5583SOL    HW117648   3.986   6.833   2.527
 5583SOL    HW217649   4.078   6.843   2.662
 5584SOL     OW17650   5.640   3.922   3.432
 5584SOL    HW117651   5.681   4.008   3.463
 5584SOL    HW217652   5.697   3.845   3.462
 5585SOL     OW17653   5.555   0.255   3.711
 5585SOL    HW117654   5.592   0.343   3.740
 5585SOL    HW217655   5.545   0.194   3.790
 5586SOL     OW17656   1.656   1.500   6.506
 5586SOL    HW117657   1.601   1.436   6.453
 5586SOL    HW217658   1.673   1.462   6.597
 5587SOL     OW17659   3.444   0.169   3.323
 5587SOL    HW117660   3.449   0.106   3.401
 5587SOL    HW217661   3.438   0.116   3.238
 5588SOL     OW17662   2.272   6.489   5.073
 5588SOL    HW117663   2.257   6.565   5.136
 5588SOL    HW217664   2.240   6.515   4.981
 5589SOL     OW17665   4.991   3.195   5.822
 5589SOL    HW117666   5.038   3.246   5.750
 5589SOL    HW217667   4.896   3.226   5.828
 5590SOL     OW17668   6.444   5.738   3.648
 5590SOL    HW117669   6.388   5.820   3.639
 5590SOL    HW217670   6.386   5.657   3.643
 5591SOL     OW17671   5.930   0.553   0.400
 5591SOL    HW117672   5.884   0.556   0.311
 5591SOL    HW217673   5.864   0.527   0.471
 5592SOL     OW17674   1.725   3.605   3.871
 5592SOL    HW117675   1.815   3.586   3.909
 5592SOL    HW217676   1.666   3.525   3.882
 5593SOL     OW17677   0.527   2.522   5.728
 5593SOL    HW117678   0.463   2.554   5.798
 5593SOL    HW217679   0.477   2.497   5.645
 5594SOL     OW17680   2.305   1.234   0.207
 5594SOL    HW117681   2.211   1.209   0.185
 5594SOL    HW217682   2.364   1.216   0.128
 5595SOL     OW17683   6.466   0.958   6.273
 5595SOL    HW117684   6.496   1.049   6.304
 5595SOL    HW217685   6.366   0.954   6.276
 5596SOL     OW17686   5.891   0.380   2.364
 5596SOL    HW117687   5.934   0.304   2.413
 5596SOL    HW217688   5.903   0.367   2.266
 5597SOL     OW17689   5.602   2.245   6.272
 5597SOL    HW117690   5.570   2.238   6.367
 5597SOL    HW217691   5.573   2.333   6.234
 5598SOL     OW17692   5.276   1.956   4.056
 5598SOL    HW117693   5.361   1.904   4.045
 5598SOL    HW217694   5.295   2.053   4.042
 5599SOL     OW17695   5.720   4.073   1.802
 5599SOL    HW117696   5.656   4.019   1.747
 5599SOL    HW217697   5.670   4.148   1.846
 5600SOL     OW17698   2.358   0.138   3.108
 5600SOL    HW117699   2.334   0.070   3.178
 5600SOL    HW217700   2.433   0.195   3.142
 5601SOL     OW17701   5.397   3.401   5.777
 5601SOL    HW117702   5.316   3.458   5.792
 5601SOL    HW217703   5.370   3.316   5.732
 5602SOL     OW17704   0.274   1.826   3.242
 5602SOL    HW117705   0.359   1.775   3.234
 5602SOL    HW217706   0.222   1.819   3.157
 5603SOL     OW17707   4.644   2.819   5.140
 5603SOL    HW117708   4.597   2.777   5.062
 5603SOL    HW217709   4.743   2.809   5.128
 5604SOL     OW17710   0.970   6.831   4.693
 5604SOL    HW117711   0.979   6.800   4.788
 5604SOL    HW217712   1.053   6.806   4.642
 5605SOL     OW17713   1.548   6.947   4.499
 5605SOL    HW117714   1.457   6.907   4.506
 5605SOL    HW217715   1.598   6.903   4.425
 5606SOL     OW17716   4.865   1.476   0.025
 5606SOL    HW117717   4.837   1.560   6.998
 5606SOL    HW217718   4.964   1.464   0.016
 5607SOL     OW17719   6.270   2.345   3.523
 5607SOL    HW117720   6.316   2.258   3.506
 5607SOL    HW217721   6.248   2.353   3.620
 5608SOL     OW17722   5.843   0.592   3.294
 5608SOL    HW117723   5.781   0.650   3.240
 5608SOL    HW217724   5.922   0.567   3.238
 5609SOL     OW17725   4.965   6.615   0.288
 5609SOL    HW117726   5.035   6.547   0.264
 5609SOL    HW217727   4.874   6.573   0.282
 5610SOL     OW17728   5.561   3.860   0.181
 5610SOL    HW117729   5.489   3.844   0.248
 5610SOL    HW217730   5.578   3.776   0.129
 5611SOL     OW17731   0.670   5.011   1.363
 5611SOL    HW117732   0.606   5.077   1.403
 5611SOL    HW217733   0.671   5.022   1.264
 5612SOL     OW17734   2.782   2.662   0.218
 5612SOL    HW117735   2.764   2.626   0.127
 5612SOL    HW217736   2.808   2.588   0.280
 5613SOL     OW17737   0.141   5.337   4.702
 5613SOL    HW117738   0.052   5.359   4.741
 5613SOL    HW217739   0.139   5.353   4.603
 5614SOL     OW17740   6.067   1.883   4.761
 5614SOL    HW117741   6.083   1.977   4.730
 5614SOL    HW217742   6.072   1.821   4.683
 5615SOL     OW17743   0.418   2.277   2.767
 5615SOL    HW117744   0.438   2.251   2.672
 5615SOL    HW217745   0.435   2.375   2.779
 5616SOL     OW17746   2.005   2.257   4.415
 5616SOL    HW117747   2.103   2.236   4.421
 5616SOL    HW217748   1.982   2.326   4.483
 5617SOL     OW17749   1.971   5.314   5.424
 5617SOL    HW117750   2.013   5.389   5.475
 5617SOL    HW217751   2.043   5.262   5.377
 5618SOL     OW17752   6.704   5.059   3.575
 5618SOL    HW117753   6.668   5.042   3.483
 5618SOL    HW217754   6.792   5.106   3.568
 5619SOL     OW17755   3.270   3.177   3.292
 5619SOL    HW117756   3.273   3.161   3.391
 5619SOL    HW217757   3.264   3.275   3.274
 5620SOL     OW17758   4.244   4.022   5.864
 5620SOL    HW117759   4.256   4.119   5.882
 5620SOL    HW217760   4.320   3.970   5.903
 5621SOL     OW17761   1.591   2.815   5.567
 5621SOL    HW117762   1.649   2.749   5.616
 5621SOL    HW217763   1.645   2.896   5.545
 5622SOL     OW17764   4.453   5.855   4.687
 5622SOL    HW117765   4.424   5.760   4.699
 5622SOL    HW217766   4.439   5.882   4.592
 5623SOL     OW17767   4.681   6.071   4.430
 5623SOL    HW117768   4.634   6.083   4.343
 5623SOL    HW217769   4.777   6.096   4.419
 5624SOL     OW17770   0.279   5.276   3.646
 5624SOL    HW117771   0.345   5.345   3.617
 5624SOL    HW217772   0.236   5.234   3.566
 5625SOL     OW17773   1.351   5.722   4.584
 5625SOL    HW117774   1.430   5.770   4.622
 5625SOL    HW217775   1.276   5.786   4.571
 5626SOL     OW17776   2.117   4.446   4.234
 5626SOL    HW117777   2.038   4.458   4.295
 5626SOL    HW217778   2.146   4.350   4.235
 5627SOL     OW17779   1.076   5.791   6.621
 5627SOL    HW117780   1.083   5.771   6.523
 5627SOL    HW217781   0.994   5.748   6.658
 5628SOL     OW17782   2.876   3.375   0.917
 5628SOL    HW117783   2.809   3.325   0.862
 5628SOL    HW217784   2.863   3.474   0.902
 5629SOL     OW17785   4.202   3.443   1.194
 5629SOL    HW117786   4.106   3.431   1.169
 5629SOL    HW217787   4.225   3.382   1.269
 5630SOL     OW17788   1.789   4.342   6.570
 5630SOL    HW117789   1.851   4.406   6.615
 5630SOL    HW217790   1.775   4.371   6.475
 5631SOL     OW17791   5.054   0.828   1.653
 5631SOL    HW117792   5.029   0.925   1.640
 5631SOL    HW217793   4.980   0.771   1.617
 5632SOL     OW17794   4.904   1.025   5.773
 5632SOL    HW117795   4.975   0.958   5.754
 5632SOL    HW217796   4.937   1.090   5.841
 5633SOL     OW17797   0.269   4.588   4.760
 5633SOL    HW117798   0.254   4.500   4.804
 5633SOL    HW217799   0.182   4.637   4.752
 5634SOL     OW17800   2.697   5.085   5.516
 5634SOL    HW117801   2.778   5.072   5.458
 5634SOL    HW217802   2.725   5.104   5.610
 5635SOL     OW17803   2.919   6.992   6.726
 5635SOL    HW117804   2.859   0.017   6.792
 5635SOL    HW217805   3.006   6.970   6.770
 5636SOL     OW17806   5.737   1.168   5.618
 5636SOL    HW117807   5.817   1.219   5.649
 5636SOL    HW217808   5.766   1.081   5.578
 5637SOL     OW17809   5.694   5.933   4.532
 5637SOL    HW117810   5.663   5.838   4.536
 5637SOL    HW217811   5.792   5.937   4.550
 5638SOL     OW17812   5.045   6.181   1.412
 5638SOL    HW117813   5.044   6.280   1.398
 5638SOL    HW217814   4.951   6.146   1.416
 5639SOL     OW17815   2.080   0.289   2.244
 5639SOL    HW117816   2.142   0.299   2.322
 5639SOL    HW217817   2.112   0.216   2.185
 5640SOL     OW17818   2.621   6.934   2.868
 5640SOL    HW117819   2.550   7.001   2.844
 5640SOL    HW217820   2.695   6.980   2.917
 5641SOL     OW17821   0.839   4.443   5.697
 5641SOL    HW117822   0.852   4.458   5.795
 5641SOL    HW217823   0.923   4.406   5.657
 5642SOL     OW17824   0.485   5.228   6.269
 5642SOL    HW117825   0.411   5.281   6.228
 5642SOL    HW217826   0.470   5.131   6.253
 5643SOL     OW17827   3.475   1.613   4.759
 5643SOL    HW117828   3.418   1.669   4.819
 5643SOL    HW217829   3.567   1.606   4.797
 5644SOL     OW17830   5.139   1.551   4.280
 5644SOL    HW117831   5.154   1.452   4.280
 5644SOL    HW217832   5.053   1.572   4.235
 5645SOL     OW17833   5.113   4.106   2.714
 5645SOL    HW117834   5.169   4.186   2.694
 5645SOL    HW217835   5.157   4.024   2.676
 5646SOL     OW17836   1.124   5.437   3.729
 5646SOL    HW117837   1.170   5.457   3.815
 5646SOL    HW217838   1.191   5.405   3.662
 5647SOL     OW17839   6.983   6.308   6.580
 5647SOL    HW117840   6.912   6.315   6.650
 5647SOL    HW217841   6.957   6.363   6.500
 5648SOL     OW17842   1.805   1.487   3.572
 5648SOL    HW117843   1.792   1.389   3.559
 5648SOL    HW217844   1.895   1.513   3.537
 5649SOL     OW17845   1.498   0.489   4.805
 5649SOL    HW117846   1.429   0.418   4.792
 5649SOL    HW217847   1.583   0.448   4.836
 5650SOL     OW17848   0.042   4.754   1.035
 5650SOL    HW117849   0.087   4.803   0.961
 5650SOL    HW217850   7.012   4.675   0.997
 5651SOL     OW17851   0.157   2.164   1.613
 5651SOL    HW117852   0.253   2.144   1.595
 5651SOL    HW217853   0.118   2.215   1.537
 5652SOL     OW17854   4.953   5.907   2.207
 5652SOL    HW117855   4.856   5.910   2.181
 5652SOL    HW217856   4.973   5.985   2.267
 5653SOL     OW17857   0.010   6.426   5.883
 5653SOL    HW117858   0.028   6.429   5.784
 5653SOL    HW217859   0.066   6.353   5.924
 5654SOL     OW17860   0.754   6.952   5.911
 5654SOL    HW117861   0.681   6.894   5.945
 5654SOL    HW217862   0.731   0.028   5.926
 5655SOL     OW17863   1.030   2.813   4.644
 5655SOL    HW117864   0.955   2.747   4.642
 5655SOL    HW217865   1.027   2.870   4.562
 5656SOL     OW17866   3.246   4.412   1.056
 5656SOL    HW117867   3.259   4.510   1.039
 5656SOL    HW217868   3.149   4.393   1.070
 5657SOL     OW17869   4.955   6.829   1.183
 5657SOL    HW117870   4.941   6.927   1.171
 5657SOL    HW217871   5.045   6.813   1.223
 5658SOL     OW17872   2.769   7.000   5.953
 5658SOL    HW117873   2.751   6.931   5.883
 5658SOL    HW217874   2.745   6.964   6.043
 5659SOL     OW17875   3.017   3.136   2.781
 5659SOL    HW117876   3.055   3.153   2.690
 5659SOL    HW217877   3.010   3.222   2.831
 5660SOL     OW17878   5.492   0.592   0.084
 5660SOL    HW117879   5.554   0.575   0.160
 5660SOL    HW217880   5.528   0.666   0.027
 5661SOL     OW17881   0.078   5.303   5.594
 5661SOL    HW117882   0.158   5.293   5.652
 5661SOL    HW217883   0.101   5.359   5.514
 5662SOL     OW17884   2.664   5.090   4.479
 5662SOL    HW117885   2.592   5.021   4.483
 5662SOL    HW217886   2.626   5.176   4.444
 5663SOL     OW17887   1.329   4.196   6.910
 5663SOL    HW117888   1.370   4.285   6.892
 5663SOL    HW217889   1.248   4.183   6.852
 5664SOL     OW17890   0.512   4.123   3.488
 5664SOL    HW117891   0.565   4.159   3.411
 5664SOL    HW217892   0.543   4.030   3.509
 5665SOL     OW17893   1.902   1.606   6.732
 5665SOL    HW117894   1.830   1.539   6.750
 5665SOL    HW217895   1.862   1.687   6.689
 5666SOL     OW17896   4.718   5.868   1.572
 5666SOL    HW117897   4.805   5.820   1.568
 5666SOL    HW217898   4.645   5.807   1.541
 5667SOL     OW17899   0.636   4.645   3.271
 5667SOL    HW117900   0.651   4.732   3.224
 5667SOL    HW217901   0.671   4.651   3.365
 5668SOL     OW17902   5.602   1.801   6.525
 5668SOL    HW117903   5.579   1.709   6.556
 5668SOL    HW217904   5.518   1.855   6.517
 5669SOL     OW17905   0.388   3.906   6.351
 5669SOL    HW117906   0.467   3.889   6.409
 5669SOL    HW217907   0.333   3.822   6.344
 5670SOL     OW17908   7.004   3.121   3.821
 5670SOL    HW117909   0.066   3.080   3.862
 5670SOL    HW217910   0.005   3.215   3.793
 5671SOL     OW17911   1.320   6.823   6.148
 5671SOL    HW117912   1.309   6.900   6.210
 5671SOL    HW217913   1.256   6.833   6.071
 5672SOL     OW17914   4.590   4.791   6.190
 5672SOL    HW117915   4.620   4.701   6.160
 5672SOL    HW217916   4.657   4.860   6.163
 5673SOL     OW17917   0.474   6.872   1.733
 5673SOL    HW117918   0.502   6.953   1.784
 5673SOL    HW217919   0.447   6.898   1.641
 5674SOL     OW17920   6.966   3.796   2.082
 5674SOL    HW117921   6.949   3.698   2.088
 5674SOL    HW217922   0.035   3.812   2.037
 5675SOL     OW17923   4.247   2.553   5.507
 5675SOL    HW117924   4.183   2.513   5.572
 5675SOL    HW217925   4.241   2.652   5.509
 5676SOL     OW17926   2.092   1.190   1.767
 5676SOL    HW117927   2.021   1.256   1.741
 5676SOL    HW217928   2.134   1.152   1.685
 5677SOL     OW17929   0.864   1.594   3.488
 5677SOL    HW117930   0.814   1.645   3.558
 5677SOL    HW217931   0.899   1.657   3.419
 5678SOL     OW17932   3.345   6.553   2.798
 5678SOL    HW117933   3.384   6.588   2.883
 5678SOL    HW217934   3.401   6.478   2.764
 5679SOL     OW17935   1.924   6.747   4.684
 5679SOL    HW117936   2.014   6.761   4.642
 5679SOL    HW217937   1.906   6.649   4.693
 5680SOL     OW17938   1.732   5.551   0.642
 5680SOL    HW117939   1.819   5.594   0.620
 5680SOL    HW217940   1.723   5.543   0.741
 5681SOL     OW17941   1.449   3.456   6.511
 5681SOL    HW117942   1.365   3.484   6.465
 5681SOL    HW217943   1.528   3.484   6.455
 5682SOL     OW17944   2.221   4.040   5.953
 5682SOL    HW117945   2.297   4.105   5.965
 5682SOL    HW217946   2.257   3.947   5.953
 5683SOL     OW17947   4.418   2.031   6.171
 5683SOL    HW117948   4.459   1.968   6.106
 5683SOL    HW217949   4.489   2.071   6.229
 5684SOL     OW17950   4.122   3.418   4.550
 5684SOL    HW117951   4.136   3.511   4.518
 5684SOL    HW217952   4.159   3.408   4.642
 5685SOL     OW17953   1.107   4.532   1.554
 5685SOL    HW117954   1.110   4.535   1.654
 5685SOL    HW217955   1.013   4.542   1.523
 5686SOL     OW17956   3.195   0.759   0.149
 5686SOL    HW117957   3.293   0.748   0.165
 5686SOL    HW217958   3.153   0.669   0.134
 5687SOL     OW17959   6.051   4.103   4.634
 5687SOL    HW117960   5.959   4.119   4.598
 5687SOL    HW217961   6.056   4.011   4.672
 5688SOL     OW17962   6.309   1.795   0.773
 5688SOL    HW117963   6.242   1.824   0.704
 5688SOL    HW217964   6.360   1.716   0.738
 5689SOL     OW17965   4.004   1.252   0.388
 5689SOL    HW117966   3.926   1.224   0.332
 5689SOL    HW217967   3.971   1.289   0.475
 5690SOL     OW17968   3.115   6.060   1.028
 5690SOL    HW117969   3.037   6.042   0.968
 5690SOL    HW217970   3.132   6.158   1.033
 5691SOL     OW17971   3.073   6.214   2.201
 5691SOL    HW117972   3.081   6.312   2.218
 5691SOL    HW217973   3.006   6.175   2.264
 5692SOL     OW17974   6.677   2.341   6.009
 5692SOL    HW117975   6.683   2.254   5.960
 5692SOL    HW217976   6.690   2.416   5.945
 5693SOL     OW17977   5.246   2.814   2.189
 5693SOL    HW117978   5.172   2.864   2.146
 5693SOL    HW217979   5.209   2.756   2.262
 5694SOL     OW17980   0.730   1.029   3.789
 5694SOL    HW117981   0.810   0.977   3.759
 5694SOL    HW217982   0.756   1.124   3.804
 5695SOL     OW17983   1.155   2.081   2.984
 5695SOL    HW117984   1.146   2.029   3.069
 5695SOL    HW217985   1.217   2.158   2.998
 5696SOL     OW17986   2.351   0.831   3.284
 5696SOL    HW117987   2.390   0.739   3.272
 5696SOL    HW217988   2.419   0.899   3.257
 5697SOL     OW17989   6.234   1.935   1.272
 5697SOL    HW117990   6.238   2.032   1.248
 5697SOL    HW217991   6.294   1.883   1.210
 5698SOL     OW17992   0.509   2.203   2.522
 5698SOL    HW117993   0.601   2.201   2.561
 5698SOL    HW217994   0.509   2.259   2.439
 5699SOL     OW17995   6.470   1.722   3.790
 5699SOL    HW117996   6.498   1.628   3.807
 5699SOL    HW217997   6.405   1.751   3.860
 5700SOL     OW17998   6.970   5.980   4.763
 5700SOL    HW117999   6.904   5.930   4.819
 5700SOL    HW218000   0.026   6.011   4.820
 5701SOL     OW18001   1.091   5.514   3.353
 5701SOL    HW118002   1.010   5.528   3.409
 5701SOL    HW218003   1.141   5.434   3.385
 5702SOL     OW18004   2.167   6.951   5.813
 5702SOL    HW118005   2.197   6.861   5.843
 5702SOL    HW218006   2.091   6.941   5.750
 5703SOL     OW18007   4.719   4.666   0.352
 5703SOL    HW118008   4.648   4.596   0.347
 5703SOL    HW218009   4.781   4.645   0.428
 5704SOL     OW18010   4.310   5.708   2.799
 5704SOL    HW118011   4.399   5.694   2.755
 5704SOL    HW218012   4.293   5.633   2.863
 5705SOL     OW18013   6.325   1.333   0.261
 5705SOL    HW118014   6.396   1.263   0.272
 5705SOL    HW218015   6.351   1.397   0.189
 5706SOL     OW18016   1.513   1.549   0.473
 5706SOL    HW118017   1.613   1.539   0.480
 5706SOL    HW218018   1.470   1.503   0.551
 5707SOL     OW18019   1.085   6.899   0.175
 5707SOL    HW118020   1.088   6.841   0.094
 5707SOL    HW218021   1.027   6.856   0.244
 5708SOL     OW18022   5.586   6.676   1.658
 5708SOL    HW118023   5.588   6.580   1.684
 5708SOL    HW218024   5.546   6.685   1.567
 5709SOL     OW18025   1.085   6.481   3.496
 5709SOL    HW118026   1.070   6.571   3.538
 5709SOL    HW218027   0.998   6.444   3.464
 5710SOL     OW18028   2.565   3.487   5.383
 5710SOL    HW118029   2.581   3.445   5.472
 5710SOL    HW218030   2.526   3.578   5.396
 5711SOL     OW18031   5.525   0.523   3.240
 5711SOL    HW118032   5.536   0.427   3.262
 5711SOL    HW218033   5.586   0.548   3.165
 5712SOL     OW18034   0.935   6.531   5.488
 5712SOL    HW118035   0.845   6.489   5.501
 5712SOL    HW218036   0.953   6.595   5.563
 5713SOL     OW18037   0.883   2.434   1.268
 5713SOL    HW118038   0.885   2.435   1.368
 5713SOL    HW218039   0.806   2.376   1.237
 5714SOL     OW18040   1.310   6.706   6.724
 5714SOL    HW118041   1.392   6.654   6.748
 5714SOL    HW218042   1.261   6.657   6.652
 5715SOL     OW18043   1.024   5.993   2.907
 5715SOL    HW118044   1.101   6.028   2.960
 5715SOL    HW218045   0.965   5.939   2.966
 5716SOL     OW18046   0.745   3.720   5.391
 5716SOL    HW118047   0.761   3.621   5.401
 5716SOL    HW218048   0.827   3.763   5.353
 5717SOL     OW18049   1.465   5.354   0.226
 5717SOL    HW118050   1.498   5.350   0.131
 5717SOL    HW218051   1.455   5.449   0.254
 5718SOL     OW18052   1.624   4.646   6.093
 5718SOL    HW118053   1.702   4.641   6.156
 5718SOL    HW218054   1.559   4.573   6.115
 5719SOL     OW18055   2.547   1.503   6.164
 5719SOL    HW118056   2.486   1.564   6.214
 5719SOL    HW218057   2.553   1.532   6.069
 5720SOL     OW18058   0.522   4.672   4.807
 5720SOL    HW118059   0.425   4.650   4.805
 5720SOL    HW218060   0.575   4.596   4.771
 5721SOL     OW18061   0.764   3.724   0.441
 5721SOL    HW118062   0.780   3.724   0.342
 5721SOL    HW218063   0.707   3.645   0.465
 5722SOL     OW18064   5.617   1.707   5.158
 5722SOL    HW118065   5.664   1.638   5.103
 5722SOL    HW218066   5.623   1.682   5.255
 5723SOL     OW18067   4.320   4.317   0.681
 5723SOL    HW118068   4.243   4.255   0.689
 5723SOL    HW218069   4.394   4.272   0.630
 5724SOL     OW18070   4.008   2.345   5.363
 5724SOL    HW118071   4.029   2.418   5.299
 5724SOL    HW218072   4.011   2.381   5.457
 5725SOL     OW18073   5.201   6.227   3.231
 5725SOL    HW118074   5.300   6.239   3.219
 5725SOL    HW218075   5.179   6.225   3.329
 5726SOL     OW18076   6.354   3.075   3.869
 5726SOL    HW118077   6.313   3.128   3.943
 5726SOL    HW218078   6.427   3.128   3.826
 5727SOL     OW18079   6.273   3.338   3.344
 5727SOL    HW118080   6.260   3.354   3.246
 5727SOL    HW218081   6.184   3.341   3.390
 5728SOL     OW18082   4.527   1.842   6.011
 5728SOL    HW118083   4.514   1.825   5.914
 5728SOL    HW218084   4.599   1.783   6.046
 5729SOL     OW18085   1.161   1.679   0.831
 5729SOL    HW118086   1.066   1.648   0.829
 5729SOL    HW218087   1.202   1.653   0.918
 5730SOL     OW18088   4.594   5.639   5.431
 5730SOL    HW118089   4.538   5.578   5.488
 5730SOL    HW218090   4.579   5.733   5.460
 5731SOL     OW18091   2.111   6.526   3.598
 5731SOL    HW118092   2.126   6.456   3.528
 5731SOL    HW218093   2.051   6.597   3.562
 5732SOL     OW18094   6.263   4.789   5.060
 5732SOL    HW118095   6.363   4.799   5.053
 5732SOL    HW218096   6.241   4.735   5.141
 5733SOL     OW18097   3.428   0.897   5.939
 5733SOL    HW118098   3.511   0.912   5.885
 5733SOL    HW218099   3.453   0.874   6.033
 5734SOL     OW18100   1.003   6.701   6.042
 5734SOL    HW118101   0.930   6.766   6.065
 5734SOL    HW218102   1.032   6.653   6.124
 5735SOL     OW18103   3.506   1.477   2.254
 5735SOL    HW118104   3.495   1.440   2.346
 5735SOL    HW218105   3.452   1.561   2.246
 5736SOL     OW18106   5.054   4.672   0.367
 5736SOL    HW118107   5.066   4.584   0.321
 5736SOL    HW218108   5.142   4.719   0.373
 5737SOL     OW18109   5.599   6.000   0.874
 5737SOL    HW118110   5.579   6.097   0.885
 5737SOL    HW218111   5.520   5.946   0.901
 5738SOL     OW18112   3.641   1.519   6.885
 5738SOL    HW118113   3.662   1.584   6.811
 5738SOL    HW218114   3.673   1.558   6.972
 5739SOL     OW18115   1.559   6.794   5.578
 5739SOL    HW118116   1.498   6.813   5.655
 5739SOL    HW218117   1.606   6.707   5.593
 5740SOL     OW18118   4.419   3.228   0.878
 5740SOL    HW118119   4.406   3.326   0.895
 5740SOL    HW218120   4.358   3.175   0.937
 5741SOL     OW18121   0.048   3.371   4.080
 5741SOL    HW118122   0.056   3.374   3.980
 5741SOL    HW218123   7.016   3.451   4.111
 5742SOL     OW18124   4.433   6.677   3.272
 5742SOL    HW118125   4.482   6.654   3.356
 5742SOL    HW218126   4.480   6.753   3.226
 5743SOL     OW18127   3.460   5.449   5.450
 5743SOL    HW118128   3.479   5.352   5.464
 5743SOL    HW218129   3.363   5.466   5.468
 5744SOL     OW18130   5.461   1.185   2.547
 5744SOL    HW118131   5.515   1.225   2.621
 5744SOL    HW218132   5.369   1.163   2.581
 5745SOL     OW18133   2.504   0.813   4.186
 5745SOL    HW118134   2.437   0.876   4.226
 5745SOL    HW218135   2.595   0.853   4.193
 5746SOL     OW18136   4.963   6.863   2.071
 5746SOL    HW118137   4.943   6.952   2.030
 5746SOL    HW218138   4.931   6.862   2.166
 5747SOL     OW18139   0.590   6.022   1.810
 5747SOL    HW118140   0.673   6.057   1.854
 5747SOL    HW218141   0.608   6.006   1.714
 5748SOL     OW18142   1.835   0.025   1.097
 5748SOL    HW118143   1.895   6.965   1.086
 5748SOL    HW218144   1.787   0.018   1.184
 5749SOL     OW18145   1.707   6.323   4.853
 5749SOL    HW118146   1.747   6.231   4.852
 5749SOL    HW218147   1.607   6.316   4.853
 5750SOL     OW18148   6.328   5.670   5.703
 5750SOL    HW118149   6.387   5.749   5.723
 5750SOL    HW218150   6.236   5.703   5.681
 5751SOL     OW18151   2.095   2.772   5.147
 5751SOL    HW118152   2.180   2.811   5.112
 5751SOL    HW218153   2.022   2.840   5.139
 5752SOL     OW18154   5.446   0.226   1.056
 5752SOL    HW118155   5.450   0.245   1.154
 5752SOL    HW218156   5.533   0.187   1.027
 5753SOL     OW18157   2.985   3.480   4.778
 5753SOL    HW118158   2.960   3.562   4.830
 5753SOL    HW218159   3.050   3.425   4.831
 5754SOL     OW18160   1.335   5.650   1.715
 5754SOL    HW118161   1.285   5.690   1.638
 5754SOL    HW218162   1.407   5.713   1.745
 5755SOL     OW18163   1.788   1.941   5.724
 5755SOL    HW118164   1.834   1.953   5.636
 5755SOL    HW218165   1.733   2.022   5.744
 5756SOL     OW18166   0.469   0.397   2.543
 5756SOL    HW118167   0.374   0.386   2.570
 5756SOL    HW218168   0.483   0.353   2.454
 5757SOL     OW18169   0.188   5.224   4.100
 5757SOL    HW118170   0.211   5.322   4.095
 5757SOL    HW218171   0.261   5.171   4.056
 5758SOL     OW18172   2.704   1.346   2.939
 5758SOL    HW118173   2.726   1.392   3.025
 5758SOL    HW218174   2.611   1.310   2.944
 5759SOL     OW18175   4.868   1.200   0.560
 5759SOL    HW118176   4.845   1.223   0.655
 5759SOL    HW218177   4.863   1.101   0.548
 5760SOL     OW18178   6.480   2.566   1.270
 5760SOL    HW118179   6.550   2.623   1.314
 5760SOL    HW218180   6.445   2.500   1.336
 5761SOL     OW18181   5.688   5.378   5.569
 5761SOL    HW118182   5.780   5.374   5.609
 5761SOL    HW218183   5.622   5.338   5.632
 5762SOL     OW18184   4.494   4.051   0.925
 5762SOL    HW118185   4.476   4.001   1.010
 5762SOL    HW218186   4.470   4.147   0.937
 5763SOL     OW18187   5.944   6.373   1.065
 5763SOL    HW118188   6.005   6.405   1.137
 5763SOL    HW218189   5.860   6.427   1.066
 5764SOL     OW18190   4.310   5.168   4.304
 5764SOL    HW118191   4.404   5.182   4.274
 5764SOL    HW218192   4.248   5.221   4.246
 5765SOL     OW18193   6.309   3.555   0.618
 5765SOL    HW118194   6.283   3.472   0.666
 5765SOL    HW218195   6.343   3.532   0.526
 5766SOL     OW18196   1.849   1.747   4.944
 5766SOL    HW118197   1.828   1.758   5.042
 5766SOL    HW218198   1.790   1.808   4.891
 5767SOL     OW18199   2.571   0.367   0.446
 5767SOL    HW118200   2.571   0.288   0.384
 5767SOL    HW218201   2.620   0.443   0.402
 5768SOL     OW18202   0.724   0.212   3.601
 5768SOL    HW118203   0.674   0.284   3.649
 5768SOL    HW218204   0.812   0.196   3.646
 5769SOL     OW18205   2.858   5.857   4.752
 5769SOL    HW118206   2.812   5.883   4.837
 5769SOL    HW218207   2.925   5.785   4.770
 5770SOL     OW18208   6.601   0.170   6.469
 5770SOL    HW118209   6.540   0.135   6.397
 5770SOL    HW218210   6.671   0.102   6.490
 5771SOL     OW18211   1.807   0.093   4.081
 5771SOL    HW118212   1.823   0.107   3.983
 5771SOL    HW218213   1.892   0.064   4.125
 5772SOL     OW18214   5.646   1.354   0.841
 5772SOL    HW118215   5.739   1.319   0.841
 5772SOL    HW218216   5.635   1.418   0.917
 5773SOL     OW18217   4.341   1.051   3.503
 5773SOL    HW118218   4.283   0.980   3.464
 5773SOL    HW218219   4.437   1.022   3.499
 5774SOL     OW18220   2.697   0.469   4.426
 5774SOL    HW118221   2.760   0.505   4.495
 5774SOL    HW218222   2.726   0.377   4.399
 5775SOL     OW18223   0.912   0.298   2.389
 5775SOL    HW118224   0.929   0.342   2.478
 5775SOL    HW218225   0.982   0.228   2.373
 5776SOL     OW18226   0.973   0.132   3.716
 5776SOL    HW118227   1.063   0.088   3.716
 5776SOL    HW218228   0.912   0.083   3.778
 5777SOL     OW18229   0.839   0.174   4.396
 5777SOL    HW118230   0.752   0.125   4.400
 5777SOL    HW218231   0.876   0.168   4.303
 5778SOL     OW18232   1.743   6.955   0.307
 5778SOL    HW118233   1.683   6.880   0.335
 5778SOL    HW218234   1.688   0.017   0.289
 5779SOL     OW18235   4.416   2.528   0.344
 5779SOL    HW118236   4.390   2.547   0.438
 5779SOL    HW218237   4.468   2.605   0.307
 5780SOL     OW18238   6.226   6.104   3.956
 5780SOL    HW118239   6.197   6.090   4.051
 5780SOL    HW218240   6.213   6.200   3.931
 5781SOL     OW18241   0.221   4.702   4.319
 5781SOL    HW118242   0.228   4.799   4.343
 5781SOL    HW218243   0.131   4.668   4.346
 5782SOL     OW18244   2.037   1.805   0.704
 5782SOL    HW118245   2.108   1.739   0.677
 5782SOL    HW218246   2.080   1.881   0.753
 5783SOL     OW18247   1.251   0.815   1.715
 5783SOL    HW118248   1.272   0.739   1.777
 5783SOL    HW218249   1.178   0.870   1.754
 5784SOL     OW18250   0.448   6.391   5.269
 5784SOL    HW118251   0.354   6.382   5.304
 5784SOL    HW218252   0.472   6.488   5.265
 5785SOL     OW18253   1.948   2.882   0.371
 5785SOL    HW118254   1.963   2.962   0.430
 5785SOL    HW218255   1.957   2.799   0.426
 5786SOL     OW18256   0.291   3.591   0.241
 5786SOL    HW118257   0.347   3.639   0.309
 5786SOL    HW218258   0.267   3.654   0.167
 5787SOL     OW18259   2.410   1.882   4.979
 5787SOL    HW118260   2.492   1.936   4.958
 5787SOL    HW218261   2.434   1.785   4.980
 5788SOL     OW18262   2.681   1.391   1.773
 5788SOL    HW118263   2.702   1.476   1.725
 5788SOL    HW218264   2.679   1.315   1.707
 5789SOL     OW18265   3.518   5.058   0.267
 5789SOL    HW118266   3.446   5.015   0.212
 5789SOL    HW218267   3.485   5.147   0.301
 5790SOL     OW18268   1.533   4.362   4.661
 5790SOL    HW118269   1.574   4.453   4.663
 5790SOL    HW218270   1.538   4.325   4.569
 5791SOL     OW18271   3.784   1.123   2.218
 5791SOL    HW118272   3.848   1.083   2.153
 5791SOL    HW218273   3.755   1.213   2.187
 5792SOL     OW18274   6.402   2.921   2.699
 5792SOL    HW118275   6.380   2.892   2.792
 5792SOL    HW218276   6.494   2.891   2.676
 5793SOL     OW18277   5.254   0.964   3.790
 5793SOL    HW118278   5.337   0.968   3.845
 5793SOL    HW218279   5.185   0.910   3.837
 5794SOL     OW18280   2.848   1.275   0.529
 5794SOL    HW118281   2.845   1.264   0.628
 5794SOL    HW218282   2.849   1.372   0.506
 5795SOL     OW18283   6.699   6.656   0.532
 5795SOL    HW118284   6.647   6.689   0.611
 5795SOL    HW218285   6.655   6.574   0.495
 5796SOL     OW18286   4.136   1.638   6.748
 5796SOL    HW118287   4.053   1.691   6.730
 5796SOL    HW218288   4.122   1.581   6.829
 5797SOL     OW18289   4.687   2.123   5.898
 5797SOL    HW118290   4.736   2.047   5.940
 5797SOL    HW218291   4.682   2.199   5.963
 5798SOL     OW18292   1.001   4.494   5.097
 5798SOL    HW118293   0.971   4.421   5.158
 5798SOL    HW218294   0.963   4.581   5.127
 5799SOL     OW18295   6.591   0.572   2.575
 5799SOL    HW118296   6.575   0.646   2.641
 5799SOL    HW218297   6.602   0.486   2.624
 5800SOL     OW18298   6.317   6.635   1.675
 5800SOL    HW118299   6.311   6.561   1.742
 5800SOL    HW218300   6.240   6.697   1.687
 5801SOL     OW18301   2.039   1.945   3.185
 5801SOL    HW118302   1.982   1.888   3.245
 5801SOL    HW218303   2.081   2.019   3.238
 5802SOL     OW18304   1.524   4.606   1.464
 5802SOL    HW118305   1.535   4.654   1.377
 5802SOL    HW218306   1.588   4.530   1.468
 5803SOL     OW18307   2.023   4.946   2.749
 5803SOL    HW118308   1.973   4.959   2.664
 5803SOL    HW218309   2.105   5.005   2.749
 5804SOL     OW18310   0.355   5.023   4.033
 5804SOL    HW118311   0.453   5.001   4.034
 5804SOL    HW218312   0.317   5.000   3.944
 5805SOL     OW18313   2.577   3.844   6.273
 5805SOL    HW118314   2.536   3.765   6.228
 5805SOL    HW218315   2.672   3.853   6.244
 5806SOL     OW18316   0.086   5.793   5.570
 5806SOL    HW118317   7.014   5.773   5.537
 5806SOL    HW218318   0.112   5.726   5.640
 5807SOL     OW18319   0.498   3.644   2.301
 5807SOL    HW118320   0.485   3.671   2.396
 5807SOL    HW218321   0.487   3.545   2.293
 5808SOL     OW18322   5.412   5.350   4.874
 5808SOL    HW118323   5.413   5.259   4.917
 5808SOL    HW218324   5.444   5.418   4.940
 5809SOL     OW18325   5.751   1.996   4.775
 5809SOL    HW118326   5.851   1.991   4.777
 5809SOL    HW218327   5.723   2.088   4.746
 5810SOL     OW18328   3.854   1.610   4.465
 5810SOL    HW118329   3.923   1.652   4.524
 5810SOL    HW218330   3.764   1.646   4.488
 5811SOL     OW18331   3.018   0.229   5.894
 5811SOL    HW118332   2.999   0.132   5.912
 5811SOL    HW218333   2.984   0.253   5.803
 5812SOL     OW18334   6.341   2.159   4.535
 5812SOL    HW118335   6.377   2.087   4.475
 5812SOL    HW218336   6.391   2.244   4.518
 5813SOL     OW18337   1.842   1.741   0.898
 5813SOL    HW118338   1.901   1.764   0.821
 5813SOL    HW218339   1.753   1.712   0.864
 5814SOL     OW18340   6.117   4.420   1.090
 5814SOL    HW118341   6.120   4.421   0.990
 5814SOL    HW218342   6.145   4.330   1.123
 5815SOL     OW18343   3.574   2.055   4.274
 5815SOL    HW118344   3.565   1.959   4.247
 5815SOL    HW218345   3.663   2.089   4.246
 5816SOL     OW18346   4.590   5.816   6.753
 5816SOL    HW118347   4.496   5.789   6.731
 5816SOL    HW218348   4.603   5.913   6.731
 5817SOL     OW18349   6.062   3.632   6.527
 5817SOL    HW118350   5.989   3.587   6.579
 5817SOL    HW218351   6.021   3.680   6.449
 5818SOL     OW18352   6.519   5.640   4.871
 5818SOL    HW118353   6.550   5.720   4.922
 5818SOL    HW218354   6.482   5.572   4.935
 5819SOL     OW18355   4.207   6.446   0.130
 5819SOL    HW118356   4.281   6.430   0.195
 5819SOL    HW218357   4.119   6.432   0.174
 5820SOL     OW18358   3.894   5.814   4.033
 5820SOL    HW118359   3.912   5.789   4.128
 5820SOL    HW218360   3.802   5.854   4.025
 5821SOL     OW18361   0.417   6.945   1.481
 5821SOL    HW118362   0.341   6.933   1.417
 5821SOL    HW218363   0.431   0.023   1.499
 5822SOL     OW18364   0.749   2.417   2.433
 5822SOL    HW118365   0.767   2.381   2.341
 5822SOL    HW218366   0.830   2.465   2.467
 5823SOL     OW18367   1.193   1.432   5.440
 5823SOL    HW118368   1.279   1.475   5.470
 5823SOL    HW218369   1.116   1.475   5.487
 5824SOL     OW18370   6.323   5.045   2.600
 5824SOL    HW118371   6.322   5.138   2.563
 5824SOL    HW218372   6.406   4.998   2.568
 5825SOL     OW18373   2.418   1.847   5.286
 5825SOL    HW118374   2.405   1.941   5.318
 5825SOL    HW218375   2.480   1.846   5.208
 5826SOL     OW18376   0.178   5.034   5.699
 5826SOL    HW118377   0.243   4.964   5.669
 5826SOL    HW218378   0.100   5.036   5.637
 5827SOL     OW18379   1.872   4.732   4.630
 5827SOL    HW118380   1.857   4.831   4.639
 5827SOL    HW218381   1.911   4.713   4.540
 5828SOL     OW18382   6.643   2.955   1.683
 5828SOL    HW118383   6.564   3.015   1.701
 5828SOL    HW218384   6.616   2.860   1.697
 5829SOL     OW18385   2.200   1.082   3.245
 5829SOL    HW118386   2.183   1.093   3.147
 5829SOL    HW218387   2.246   0.995   3.261
 5830SOL     OW18388   4.715   0.079   5.458
 5830SOL    HW118389   4.658   0.161   5.457
 5830SOL    HW218390   4.807   0.102   5.489
 5831SOL     OW18391   6.987   0.820   4.828
 5831SOL    HW118392   6.952   0.854   4.740
 5831SOL    HW218393   6.956   0.880   4.902
 5832SOL     OW18394   3.596   4.924   5.990
 5832SOL    HW118395   3.518   4.940   6.050
 5832SOL    HW218396   3.669   4.988   6.013
 5833SOL     OW18397   4.075   3.806   5.115
 5833SOL    HW118398   3.988   3.851   5.097
 5833SOL    HW218399   4.130   3.862   5.177
 5834SOL     OW18400   6.765   3.302   6.875
 5834SOL    HW118401   6.715   3.387   6.890
 5834SOL    HW218402   6.706   3.236   6.829
 5835SOL     OW18403   4.901   3.252   3.932
 5835SOL    HW118404   4.865   3.158   3.929
 5835SOL    HW218405   4.994   3.250   3.969
 5836SOL     OW18406   3.152   6.582   2.606
 5836SOL    HW118407   3.082   6.631   2.658
 5836SOL    HW218408   3.229   6.561   2.666
 5837SOL     OW18409   3.834   4.527   6.267
 5837SOL    HW118410   3.778   4.448   6.243
 5837SOL    HW218411   3.860   4.576   6.183
 5838SOL     OW18412   3.250   2.978   6.933
 5838SOL    HW118413   3.280   2.940   6.846
 5838SOL    HW218414   3.171   3.037   6.918
 5839SOL     OW18415   0.349   1.798   2.258
 5839SOL    HW118416   0.381   1.848   2.339
 5839SOL    HW218417   0.282   1.729   2.286
 5840SOL     OW18418   1.092   5.364   6.176
 5840SOL    HW118419   1.023   5.291   6.166
 5840SOL    HW218420   1.067   5.441   6.117
 5841SOL     OW18421   4.908   1.910   2.494
 5841SOL    HW118422   4.908   1.829   2.553
 5841SOL    HW218423   4.853   1.892   2.412
 5842SOL     OW18424   4.579   3.201   1.253
 5842SOL    HW118425   4.558   3.282   1.307
 5842SOL    HW218426   4.596   3.123   1.313
 5843SOL     OW18427   1.997   3.814   2.687
 5843SOL    HW118428   2.037   3.774   2.605
 5843SOL    HW218429   1.944   3.744   2.735
 5844SOL     OW18430   1.656   6.503   6.077
 5844SOL    HW118431   1.732   6.449   6.044
 5844SOL    HW218432   1.660   6.595   6.037
 5845SOL     OW18433   0.596   0.637   2.221
 5845SOL    HW118434   0.582   0.736   2.214
 5845SOL    HW218435   0.692   0.616   2.204
 5846SOL     OW18436   0.167   2.017   3.794
 5846SOL    HW118437   0.211   2.041   3.707
 5846SOL    HW218438   0.093   2.082   3.812
 5847SOL     OW18439   2.025   2.102   1.740
 5847SOL    HW118440   1.965   2.048   1.681
 5847SOL    HW218441   2.119   2.097   1.704
 5848SOL     OW18442   2.183   5.205   3.208
 5848SOL    HW118443   2.282   5.211   3.208
 5848SOL    HW218444   2.155   5.114   3.241
 5849SOL     OW18445   0.293   7.004   6.892
 5849SOL    HW118446   0.386   0.013   6.868
 5849SOL    HW218447   0.259   6.939   6.823
 5850SOL     OW18448   0.250   3.670   2.005
 5850SOL    HW118449   0.276   3.750   2.060
 5850SOL    HW218450   0.219   3.597   2.066
 5851SOL     OW18451   5.783   3.708   3.546
 5851SOL    HW118452   5.696   3.664   3.570
 5851SOL    HW218453   5.847   3.640   3.512
 5852SOL     OW18454   6.368   6.211   3.393
 5852SOL    HW118455   6.397   6.271   3.467
 5852SOL    HW218456   6.280   6.240   3.358
 5853SOL     OW18457   3.773   5.830   4.744
 5853SOL    HW118458   3.685   5.875   4.760
 5853SOL    HW218459   3.761   5.731   4.748
 5854SOL     OW18460   5.752   5.164   5.950
 5854SOL    HW118461   5.756   5.262   5.927
 5854SOL    HW218462   5.786   5.110   5.873
 5855SOL     OW18463   0.144   1.170   4.391
 5855SOL    HW118464   0.117   1.241   4.455
 5855SOL    HW218465   0.219   1.202   4.334
 5856SOL     OW18466   1.864   5.727   4.172
 5856SOL    HW118467   1.782   5.779   4.196
 5856SOL    HW218468   1.899   5.679   4.253
 5857SOL     OW18469   6.211   2.664   5.420
 5857SOL    HW118470   6.168   2.575   5.432
 5857SOL    HW218471   6.232   2.703   5.510
 5858SOL     OW18472   2.054   2.522   2.209
 5858SOL    HW118473   2.069   2.511   2.307
 5858SOL    HW218474   2.120   2.589   2.173
 5859SOL     OW18475   5.717   6.199   1.765
 5859SOL    HW118476   5.721   6.099   1.759
 5859SOL    HW218477   5.800   6.238   1.727
 5860SOL     OW18478   1.754   3.985   1.906
 5860SOL    HW118479   1.836   3.972   1.962
 5860SOL    HW218480   1.695   3.904   1.914
 5861SOL     OW18481   4.588   0.876   4.552
 5861SOL    HW118482   4.572   0.918   4.463
 5861SOL    HW218483   4.555   0.782   4.552
 5862SOL     OW18484   5.114   5.256   2.027
 5862SOL    HW118485   5.015   5.251   2.033
 5862SOL    HW218486   5.154   5.250   2.118
 5863SOL     OW18487   3.114   0.569   4.714
 5863SOL    HW118488   3.168   0.620   4.647
 5863SOL    HW218489   3.174   0.537   4.788
 5864SOL     OW18490   4.061   3.750   1.542
 5864SOL    HW118491   4.133   3.799   1.592
 5864SOL    HW218492   4.084   3.749   1.445
 5865SOL     OW18493   6.244   0.349   5.545
 5865SOL    HW118494   6.281   0.421   5.604
 5865SOL    HW218495   6.172   0.299   5.594
 5866SOL     OW18496   4.191   5.148   1.031
 5866SOL    HW118497   4.286   5.162   1.059
 5866SOL    HW218498   4.176   5.051   1.012
 5867SOL     OW18499   0.749   3.937   0.651
 5867SOL    HW118500   0.791   3.852   0.618
 5867SOL    HW218501   0.688   3.973   0.580
 5868SOL     OW18502   0.188   1.318   4.793
 5868SOL    HW118503   0.262   1.256   4.771
 5868SOL    HW218504   0.196   1.401   4.737
 5869SOL     OW18505   3.039   6.081   3.791
 5869SOL    HW118506   3.032   6.097   3.890
 5869SOL    HW218507   3.071   6.164   3.747
 5870SOL     OW18508   5.203   6.029   4.762
 5870SOL    HW118509   5.140   6.009   4.837
 5870SOL    HW218510   5.277   5.962   4.761
 5871SOL     OW18511   4.117   3.108   0.873
 5871SOL    HW118512   4.056   3.066   0.941
 5871SOL    HW218513   4.197   3.049   0.859
 5872SOL     OW18514   4.110   5.613   0.949
 5872SOL    HW118515   4.127   5.619   0.851
 5872SOL    HW218516   4.117   5.704   0.991
 5873SOL     OW18517   2.813   1.961   1.209
 5873SOL    HW118518   2.741   1.932   1.146
 5873SOL    HW218519   2.848   1.881   1.258
 5874SOL     OW18520   3.256   4.063   0.278
 5874SOL    HW118521   3.222   4.083   0.186
 5874SOL    HW218522   3.309   4.140   0.312
 5875SOL     OW18523   4.210   1.399   6.895
 5875SOL    HW118524   4.216   1.418   6.993
 5875SOL    HW218525   4.254   1.311   6.876
 5876SOL     OW18526   3.218   3.335   6.958
 5876SOL    HW118527   3.139   3.389   6.988
 5876SOL    HW218528   3.278   3.319   0.017
 5877SOL     OW18529   0.485   6.716   0.698
 5877SOL    HW118530   0.519   6.650   0.630
 5877SOL    HW218531   0.504   6.682   0.790
 5878SOL     OW18532   5.348   4.939   3.678
 5878SOL    HW118533   5.423   4.982   3.729
 5878SOL    HW218534   5.264   4.948   3.731
 5879SOL     OW18535   1.707   3.086   5.810
 5879SOL    HW118536   1.797   3.076   5.851
 5879SOL    HW218537   1.651   3.007   5.832
 5880SOL     OW18538   4.627   4.848   6.927
 5880SOL    HW118539   4.603   4.770   6.869
 5880SOL    HW218540   4.718   4.881   6.902
 5881SOL     OW18541   1.588   6.986   1.926
 5881SOL    HW118542   1.651   7.005   2.001
 5881SOL    HW218543   1.632   7.012   1.839
 5882SOL     OW18544   1.169   6.868   5.912
 5882SOL    HW118545   1.118   6.783   5.923
 5882SOL    HW218546   1.105   6.945   5.908
 5883SOL     OW18547   1.066   1.221   6.948
 5883SOL    HW118548   1.144   1.178   6.993
 5883SOL    HW218549   0.981   1.189   6.989
 5884SOL     OW18550   4.833   0.882   4.867
 5884SOL    HW118551   4.815   0.969   4.820
 5884SOL    HW218552   4.874   0.817   4.803
 5885SOL     OW18553   0.253   5.589   2.046
 5885SOL    HW118554   0.192   5.665   2.069
 5885SOL    HW218555   0.269   5.533   2.127
 5886SOL     OW18556   1.234   1.906   3.828
 5886SOL    HW118557   1.176   1.978   3.866
 5886SOL    HW218558   1.179   1.848   3.768
 5887SOL     OW18559   2.285   2.384   1.860
 5887SOL    HW118560   2.280   2.342   1.951
 5887SOL    HW218561   2.346   2.330   1.802
 5888SOL     OW18562   2.649   6.709   1.657
 5888SOL    HW118563   2.640   6.691   1.755
 5888SOL    HW218564   2.730   6.764   1.640
 5889SOL     OW18565   5.748   1.793   6.258
 5889SOL    HW118566   5.730   1.803   6.356
 5889SOL    HW218567   5.731   1.881   6.212
 5890SOL     OW18568   2.141   6.954   2.945
 5890SOL    HW118569   2.060   6.900   2.923
 5890SOL    HW218570   2.113   0.027   2.971
 5891SOL     OW18571   2.516   4.315   0.897
 5891SOL    HW118572   2.557   4.225   0.912
 5891SOL    HW218573   2.549   4.380   0.965
 5892SOL     OW18574   6.850   5.175   2.315
 5892SOL    HW118575   6.898   5.154   2.230
 5892SOL    HW218576   6.844   5.274   2.327
 5893SOL     OW18577   2.628   4.735   1.507
 5893SOL    HW118578   2.543   4.706   1.551
 5893SOL    HW218579   2.703   4.730   1.573
 5894SOL     OW18580   0.804   5.749   5.701
 5894SOL    HW118581   0.761   5.669   5.660
 5894SOL    HW218582   0.903   5.747   5.684
 5895SOL     OW18583   6.031   3.887   3.380
 5895SOL    HW118584   6.003   3.932   3.465
 5895SOL    HW218585   6.040   3.789   3.396
 5896SOL     OW18586   4.757   1.829   0.552
 5896SOL    HW118587   4.841   1.779   0.569
 5896SOL    HW218588   4.761   1.871   0.461
 5897SOL     OW18589   4.207   1.512   0.907
 5897SOL    HW118590   4.193   1.579   0.834
 5897SOL    HW218591   4.187   1.421   0.873
 5898SOL     OW18592   2.353   1.386   5.251
 5898SOL    HW118593   2.292   1.341   5.186
 5898SOL    HW218594   2.448   1.371   5.224
 5899SOL     OW18595   5.898   6.226   6.546
 5899SOL    HW118596   5.976   6.226   6.608
 5899SOL    HW218597   5.837   6.302   6.568
 5900SOL     OW18598   6.633   4.699   2.764
 5900SOL    HW118599   6.611   4.601   2.761
 5900SOL    HW218600   6.726   4.713   2.730
 5901SOL     OW18601   2.575   1.682   0.520
 5901SOL    HW118602   2.479   1.691   0.494
 5901SOL    HW218603   2.624   1.767   0.497
 5902SOL     OW18604   5.458   3.948   5.696
 5902SOL    HW118605   5.408   3.890   5.632
 5902SOL    HW218606   5.394   3.989   5.761
 5903SOL     OW18607   4.618   3.520   6.760
 5903SOL    HW118608   4.625   3.481   6.668
 5903SOL    HW218609   4.656   3.455   6.826
 5904SOL     OW18610   1.121   4.520   1.052
 5904SOL    HW118611   1.212   4.488   1.025
 5904SOL    HW218612   1.085   4.582   0.982
 5905SOL     OW18613   6.519   0.760   3.768
 5905SOL    HW118614   6.566   0.843   3.738
 5905SOL    HW218615   6.422   0.780   3.781
 5906SOL     OW18616   4.812   1.832   4.802
 5906SOL    HW118617   4.811   1.752   4.863
 5906SOL    HW218618   4.906   1.851   4.773
 5907SOL     OW18619   1.463   6.743   0.424
 5907SOL    HW118620   1.543   6.686   0.445
 5907SOL    HW218621   1.388   6.684   0.392
 5908SOL     OW18622   6.701   4.185   0.105
 5908SOL    HW118623   6.761   4.106   0.090
 5908SOL    HW218624   6.672   4.222   0.017
 5909SOL     OW18625   6.416   4.976   6.605
 5909SOL    HW118626   6.454   5.028   6.682
 5909SOL    HW218627   6.458   5.009   6.520
 5910SOL     OW18628   0.673   4.729   1.058
 5910SOL    HW118629   0.575   4.730   1.075
 5910SOL    HW218630   0.712   4.817   1.083
 5911SOL     OW18631   6.400   5.296   6.599
 5911SOL    HW118632   6.349   5.257   6.522
 5911SOL    HW218633   6.338   5.342   6.661
 5912SOL     OW18634   5.993   3.504   6.951
 5912SOL    HW118635   5.982   3.460   0.021
 5912SOL    HW218636   6.007   3.434   6.881
 5913SOL     OW18637   2.816   2.915   6.053
 5913SOL    HW118638   2.774   2.934   6.142
 5913SOL    HW218639   2.879   2.989   6.029
 5914SOL     OW18640   2.778   5.597   6.297
 5914SOL    HW118641   2.787   5.685   6.343
 5914SOL    HW218642   2.689   5.557   6.319
 5915SOL     OW18643   6.249   3.880   2.061
 5915SOL    HW118644   6.270   3.887   1.963
 5915SOL    HW218645   6.326   3.918   2.113
 5916SOL     OW18646   4.641   6.272   5.729
 5916SOL    HW118647   4.551   6.297   5.763
 5916SOL    HW218648   4.696   6.233   5.803
 5917SOL     OW18649   3.756   3.005   4.193
 5917SOL    HW118650   3.794   2.956   4.271
 5917SOL    HW218651   3.664   3.039   4.216
 5918SOL     OW18652   2.394   3.725   5.320
 5918SOL    HW118653   2.381   3.751   5.416
 5918SOL    HW218654   2.416   3.807   5.266
 5919SOL     OW18655   2.716   2.487   0.521
 5919SOL    HW118656   2.657   2.442   0.589
 5919SOL    HW218657   2.698   2.585   0.521
 5920SOL     OW18658   3.619   6.937   0.188
 5920SOL    HW118659   3.599   0.015   0.181
 5920SOL    HW218660   3.564   6.896   0.261
 5921SOL     OW18661   3.705   5.595   5.437
 5921SOL    HW118662   3.682   5.689   5.410
 5921SOL    HW218663   3.622   5.539   5.438
 5922SOL     OW18664   6.453   5.152   4.107
 5922SOL    HW118665   6.505   5.235   4.089
 5922SOL    HW218666   6.494   5.103   4.184
 5923SOL     OW18667   5.465   0.672   1.826
 5923SOL    HW118668   5.540   0.696   1.887
 5923SOL    HW218669   5.489   0.590   1.774
 5924SOL     OW18670   5.956   2.077   5.031
 5924SOL    HW118671   5.882   2.143   5.040
 5924SOL    HW218672   6.036   2.123   4.992
 5925SOL     OW18673   4.022   5.820   3.459
 5925SOL    HW118674   3.997   5.757   3.532
 5925SOL    HW218675   3.946   5.881   3.440
 5926SOL     OW18676   4.241   5.304   2.145
 5926SOL    HW118677   4.197   5.394   2.146
 5926SOL    HW218678   4.214   5.253   2.226
 5927SOL     OW18679   1.437   4.370   3.680
 5927SOL    HW118680   1.387   4.345   3.597
 5927SOL    HW218681   1.452   4.289   3.736
 5928SOL     OW18682   3.185   0.656   2.017
 5928SOL    HW118683   3.246   0.732   1.993
 5928SOL    HW218684   3.122   0.639   1.941
 5929SOL     OW18685   1.008   6.219   5.708
 5929SOL    HW118686   0.974   6.149   5.770
 5929SOL    HW218687   0.966   6.307   5.731
 5930SOL     OW18688   0.056   1.182   3.302
 5930SOL    HW118689   6.985   1.147   3.277
 5930SOL    HW218690   0.052   1.222   3.393
 5931SOL     OW18691   5.653   5.316   3.262
 5931SOL    HW118692   5.561   5.282   3.282
 5931SOL    HW218693   5.672   5.305   3.165
 5932SOL     OW18694   2.761   6.208   1.095
 5932SOL    HW118695   2.805   6.121   1.072
 5932SOL    HW218696   2.684   6.224   1.033
 5933SOL     OW18697   0.395   5.620   3.078
 5933SOL    HW118698   0.300   5.649   3.092
 5933SOL    HW218699   0.421   5.636   2.982
 5934SOL     OW18700   4.087   3.734   4.097
 5934SOL    HW118701   4.143   3.660   4.133
 5934SOL    HW218702   4.059   3.794   4.171
 5935SOL     OW18703   4.148   3.405   4.863
 5935SOL    HW118704   4.174   3.316   4.828
 5935SOL    HW218705   4.051   3.404   4.888
 5936SOL     OW18706   4.026   3.407   0.253
 5936SOL    HW118707   4.011   3.362   0.165
 5936SOL    HW218708   4.016   3.340   0.327
 5937SOL     OW18709   0.554   4.891   2.020
 5937SOL    HW118710   0.622   4.818   2.013
 5937SOL    HW218711   0.575   4.964   1.956
 5938SOL     OW18712   1.386   5.727   4.149
 5938SOL    HW118713   1.430   5.758   4.065
 5938SOL    HW218714   1.371   5.805   4.210
 5939SOL     OW18715   3.107   0.294   3.483
 5939SOL    HW118716   3.153   0.242   3.555
 5939SOL    HW218717   3.026   0.339   3.521
 5940SOL     OW18718   4.365   5.618   2.134
 5940SOL    HW118719   4.274   5.585   2.156
 5940SOL    HW218720   4.364   5.718   2.131
 5941SOL     OW18721   6.384   3.429   2.173
 5941SOL    HW118722   6.444   3.490   2.225
 5941SOL    HW218723   6.365   3.347   2.226
 5942SOL     OW18724   4.732   2.656   6.618
 5942SOL    HW118725   4.715   2.575   6.562
 5942SOL    HW218726   4.652   2.716   6.615
 5943SOL     OW18727   3.580   5.498   0.820
 5943SOL    HW118728   3.612   5.577   0.872
 5943SOL    HW218729   3.604   5.414   0.868
 5944SOL     OW18730   5.390   1.675   1.266
 5944SOL    HW118731   5.323   1.607   1.235
 5944SOL    HW218732   5.395   1.749   1.199
 5945SOL     OW18733   6.826   5.280   5.357
 5945SOL    HW118734   6.792   5.329   5.437
 5945SOL    HW218735   6.916   5.241   5.378
 5946SOL     OW18736   3.543   3.185   5.510
 5946SOL    HW118737   3.571   3.168   5.604
 5946SOL    HW218738   3.587   3.118   5.450
 5947SOL     OW18739   3.948   2.951   1.872
 5947SOL    HW118740   4.024   3.015   1.865
 5947SOL    HW218741   3.897   2.968   1.956
 5948SOL     OW18742   3.664   5.148   3.400
 5948SOL    HW118743   3.743   5.122   3.456
 5948SOL    HW218744   3.610   5.218   3.448
 5949SOL     OW18745   3.939   3.362   1.216
 5949SOL    HW118746   3.917   3.265   1.223
 5949SOL    HW218747   3.878   3.414   1.276
 5950SOL     OW18748   6.013   3.404   5.664
 5950SOL    HW118749   6.079   3.362   5.726
 5950SOL    HW218750   5.976   3.334   5.603
 5951SOL     OW18751   0.559   5.584   5.311
 5951SOL    HW118752   0.623   5.549   5.243
 5951SOL    HW218753   0.548   5.517   5.385
 5952SOL     OW18754   5.425   5.219   4.243
 5952SOL    HW118755   5.397   5.138   4.295
 5952SOL    HW218756   5.521   5.238   4.261
 5953SOL     OW18757   6.769   2.833   5.911
 5953SOL    HW118758   6.822   2.855   5.830
 5953SOL    HW218759   6.795   2.895   5.986
 5954SOL     OW18760   0.133   4.537   5.719
 5954SOL    HW118761   0.130   4.633   5.691
 5954SOL    HW218762   0.219   4.518   5.767
 5955SOL     OW18763   5.420   5.616   2.441
 5955SOL    HW118764   5.505   5.652   2.480
 5955SOL    HW218765   5.402   5.526   2.480
 5956SOL     OW18766   3.756   1.852   0.215
 5956SOL    HW118767   3.682   1.903   0.170
 5956SOL    HW218768   3.747   1.755   0.195
 5957SOL     OW18769   4.571   0.329   5.449
 5957SOL    HW118770   4.656   0.380   5.458
 5957SOL    HW218771   4.506   0.381   5.394
 5958SOL     OW18772   6.582   5.996   2.693
 5958SOL    HW118773   6.663   5.942   2.670
 5958SOL    HW218774   6.607   6.092   2.704
 5959SOL     OW18775   3.579   1.807   5.498
 5959SOL    HW118776   3.622   1.717   5.511
 5959SOL    HW218777   3.580   1.857   5.584
 5960SOL     OW18778   3.913   6.624   4.603
 5960SOL    HW118779   3.881   6.665   4.687
 5960SOL    HW218780   3.989   6.561   4.623
 5961SOL     OW18781   5.053   1.160   3.745
 5961SOL    HW118782   4.957   1.135   3.751
 5961SOL    HW218783   5.110   1.079   3.763
 5962SOL     OW18784   5.237   5.669   1.915
 5962SOL    HW118785   5.300   5.602   1.952
 5962SOL    HW218786   5.170   5.624   1.855
 5963SOL     OW18787   3.175   3.048   4.686
 5963SOL    HW118788   3.258   3.005   4.652
 5963SOL    HW218789   3.160   3.022   4.782
 5964SOL     OW18790   0.509   5.312   5.922
 5964SOL    HW118791   0.522   5.369   6.003
 5964SOL    HW218792   0.598   5.283   5.887
 5965SOL     OW18793   1.636   1.949   6.195
 5965SOL    HW118794   1.692   1.926   6.116
 5965SOL    HW218795   1.542   1.920   6.179
 5966SOL     OW18796   3.253   5.663   5.351
 5966SOL    HW118797   3.329   5.728   5.347
 5966SOL    HW218798   3.226   5.649   5.446
 5967SOL     OW18799   4.236   6.587   1.600
 5967SOL    HW118800   4.174   6.580   1.679
 5967SOL    HW218801   4.222   6.509   1.539
 5968SOL     OW18802   4.844   0.813   2.528
 5968SOL    HW118803   4.802   0.772   2.447
 5968SOL    HW218804   4.907   0.886   2.500
 5969SOL     OW18805   6.530   1.005   5.993
 5969SOL    HW118806   6.502   1.028   6.086
 5969SOL    HW218807   6.460   1.038   5.929
 5970SOL     OW18808   0.566   4.597   2.518
 5970SOL    HW118809   0.571   4.697   2.511
 5970SOL    HW218810   0.497   4.572   2.585
 5971SOL     OW18811   1.874   0.800   3.113
 5971SOL    HW118812   1.905   0.869   3.179
 5971SOL    HW218813   1.774   0.806   3.104
 5972SOL     OW18814   5.676   6.506   0.366
 5972SOL    HW118815   5.668   6.532   0.462
 5972SOL    HW218816   5.599   6.447   0.341
 5973SOL     OW18817   1.739   5.090   2.603
 5973SOL    HW118818   1.684   5.138   2.535
 5973SOL    HW218819   1.723   5.130   2.693
 5974SOL     OW18820   5.456   4.594   6.919
 5974SOL    HW118821   5.456   4.693   6.937
 5974SOL    HW218822   5.439   4.545   7.004
 5975SOL     OW18823   3.186   2.186   0.150
 5975SOL    HW118824   3.275   2.229   0.134
 5975SOL    HW218825   3.113   2.248   0.121
 5976SOL     OW18826   3.323   3.916   4.426
 5976SOL    HW118827   3.317   3.838   4.364
 5976SOL    HW218828   3.234   3.929   4.472
 5977SOL     OW18829   1.744   4.898   1.957
 5977SOL    HW118830   1.748   4.860   2.050
 5977SOL    HW218831   1.689   4.837   1.900
 5978SOL     OW18832   5.216   4.978   3.448
 5978SOL    HW118833   5.266   4.966   3.534
 5978SOL    HW218834   5.123   4.944   3.459
 5979SOL     OW18835   6.054   0.007   2.920
 5979SOL    HW118836   6.133   0.054   2.880
 5979SOL    HW218837   6.076   6.996   3.012
 5980SOL     OW18838   3.951   3.784   0.013
 5980SOL    HW118839   3.911   3.694   7.014
 5980SOL    HW218840   3.908   3.824   0.093
 5981SOL     OW18841   6.350   0.916   2.360
 5981SOL    HW118842   6.262   0.951   2.327
 5981SOL    HW218843   6.419   0.989   2.354
 5982SOL     OW18844   6.470   2.401   0.596
 5982SOL    HW118845   6.474   2.493   0.556
 5982SOL    HW218846   6.457   2.334   0.522
 5983SOL     OW18847   1.848   1.292   4.804
 5983SOL    HW118848   1.947   1.297   4.812
 5983SOL    HW218849   1.806   1.370   4.851
 5984SOL     OW18850   6.466   6.523   5.063
 5984SOL    HW118851   6.523   6.471   5.126
 5984SOL    HW218852   6.464   6.477   4.974
 5985SOL     OW18853   6.024   2.971   4.061
 5985SOL    HW118854   5.926   2.967   4.081
 5985SOL    HW218855   6.038   3.011   3.970
 5986SOL     OW18856   3.354   3.869   3.526
 5986SOL    HW118857   3.311   3.955   3.502
 5986SOL    HW218858   3.451   3.884   3.545
 5987SOL     OW18859   4.367   1.305   4.780
 5987SOL    HW118860   4.400   1.251   4.857
 5987SOL    HW218861   4.270   1.287   4.765
 5988SOL     OW18862   4.468   6.876   5.023
 5988SOL    HW118863   4.563   6.846   5.017
 5988SOL    HW218864   4.421   6.855   4.937
 5989SOL     OW18865   2.772   5.853   6.697
 5989SOL    HW118866   2.811   5.796   6.770
 5989SOL    HW218867   2.792   5.949   6.716
 5990SOL     OW18868   3.891   4.596   0.513
 5990SOL    HW118869   3.804   4.582   0.561
 5990SOL    HW218870   3.942   4.510   0.511
 5991SOL     OW18871   4.108   5.261   5.600
 5991SOL    HW118872   4.127   5.286   5.505
 5991SOL    HW218873   4.009   5.261   5.615
 5992SOL     OW18874   3.663   0.832   3.642
 5992SOL    HW118875   3.641   0.775   3.562
 5992SOL    HW218876   3.669   0.775   3.723
 5993SOL     OW18877   3.236   6.769   5.988
 5993SOL    HW118878   3.332   6.792   6.006
 5993SOL    HW218879   3.217   6.677   6.023
 5994SOL     OW18880   6.247   1.696   1.817
 5994SOL    HW118881   6.256   1.764   1.889
 5994SOL    HW218882   6.152   1.664   1.813
 5995SOL     OW18883   6.238   4.078   2.871
 5995SOL    HW118884   6.210   4.008   2.936
 5995SOL    HW218885   6.304   4.039   2.806
 5996SOL     OW18886   0.602   5.910   0.977
 5996SOL    HW118887   0.510   5.945   0.994
 5996SOL    HW218888   0.647   5.968   0.909
 5997SOL     OW18889   0.802   6.247   2.261
 5997SOL    HW118890   0.739   6.249   2.339
 5997SOL    HW218891   0.819   6.340   2.229
 5998SOL     OW18892   5.910   2.491   2.005
 5998SOL    HW118893   5.992   2.472   1.951
 5998SOL    HW218894   5.922   2.576   2.056
 5999SOL     OW18895   1.382   1.933   2.854
 5999SOL    HW118896   1.439   1.980   2.786
 5999SOL    HW218897   1.305   1.992   2.879
 6000SOL     OW18898   3.937   6.912   1.922
 6000SOL    HW118899   3.843   6.892   1.949
 6000SOL    HW218900   3.953   6.877   1.830
 6001SOL     OW18901   0.378   4.129   6.553
 6001SOL    HW118902   0.400   4.224   6.572
 6001SOL    HW218903   0.413   4.103   6.463
 6002SOL     OW18904   0.475   0.310   1.085
 6002SOL    HW118905   0.449   0.351   1.172
 6002SOL    HW218906   0.550   0.364   1.044
 6003SOL     OW18907   6.894   1.971   4.584
 6003SOL    HW118908   6.968   1.949   4.520
 6003SOL    HW218909   6.822   1.902   4.578
 6004SOL     OW18910   6.569   4.431   2.803
 6004SOL    HW118911   6.488   4.430   2.862
 6004SOL    HW218912   6.586   4.339   2.769
 6005SOL     OW18913   4.687   4.829   5.029
 6005SOL    HW118914   4.626   4.786   5.096
 6005SOL    HW218915   4.635   4.895   4.974
 6006SOL     OW18916   3.507   6.906   6.940
 6006SOL    HW118917   3.549   6.919   0.010
 6006SOL    HW218918   3.470   6.993   6.907
 6007SOL     OW18919   5.184   3.747   4.572
 6007SOL    HW118920   5.176   3.654   4.610
 6007SOL    HW218921   5.093   3.790   4.571
 6008SOL     OW18922   2.065   5.625   6.263
 6008SOL    HW118923   2.130   5.700   6.270
 6008SOL    HW218924   2.093   5.563   6.189
 6009SOL     OW18925   3.500   0.785   4.926
 6009SOL    HW118926   3.560   0.744   4.995
 6009SOL    HW218927   3.405   0.779   4.957
 6010SOL     OW18928   1.244   4.071   2.398
 6010SOL    HW118929   1.317   4.089   2.464
 6010SOL    HW218930   1.157   4.064   2.446
 6011SOL     OW18931   4.562   2.531   2.641
 6011SOL    HW118932   4.505   2.452   2.619
 6011SOL    HW218933   4.593   2.575   2.557
 6012SOL     OW18934   6.173   1.795   0.527
 6012SOL    HW118935   6.230   1.713   0.523
 6012SOL    HW218936   6.081   1.769   0.555
 6013SOL     OW18937   5.307   1.899   3.098
 6013SOL    HW118938   5.333   1.845   3.177
 6013SOL    HW218939   5.378   1.967   3.079
 6014SOL     OW18940   4.224   2.192   0.857
 6014SOL    HW118941   4.317   2.181   0.890
 6014SOL    HW218942   4.218   2.275   0.801
 6015SOL     OW18943   5.710   2.210   5.644
 6015SOL    HW118944   5.760   2.246   5.723
 6015SOL    HW218945   5.755   2.239   5.560
 6016SOL     OW18946   0.511   1.568   6.502
 6016SOL    HW118947   0.510   1.572   6.601
 6016SOL    HW218948   0.443   1.501   6.470
 6017SOL     OW18949   6.183   4.715   2.716
 6017SOL    HW118950   6.175   4.628   2.668
 6017SOL    HW218951   6.228   4.782   2.657
 6018SOL     OW18952   3.140   1.330   6.920
 6018SOL    HW118953   3.209   1.301   6.987
 6018SOL    HW218954   3.184   1.387   6.850
 6019SOL     OW18955   5.661   1.388   4.575
 6019SOL    HW118956   5.744   1.445   4.574
 6019SOL    HW218957   5.616   1.394   4.486
 6020SOL     OW18958   1.961   6.169   1.935
 6020SOL    HW118959   1.892   6.174   2.007
 6020SOL    HW218960   1.996   6.261   1.916
 6021SOL     OW18961   3.893   0.698   2.198
 6021SOL    HW118962   3.954   0.655   2.265
 6021SOL    HW218963   3.827   0.630   2.165
 6022SOL     OW18964   4.615   1.043   5.142
 6022SOL    HW118965   4.704   1.021   5.182
 6022SOL    HW218966   4.595   0.980   5.067
 6023SOL     OW18967   6.071   1.569   2.326
 6023SOL    HW118968   5.999   1.564   2.257
 6023SOL    HW218969   6.140   1.500   2.307
 6024SOL     OW18970   0.579   4.183   3.228
 6024SOL    HW118971   0.522   4.130   3.165
 6024SOL    HW218972   0.607   4.268   3.183
 6025SOL     OW18973   3.797   1.284   1.882
 6025SOL    HW118974   3.706   1.242   1.886
 6025SOL    HW218975   3.794   1.373   1.927
 6026SOL     OW18976   6.893   4.196   3.981
 6026SOL    HW118977   6.855   4.155   3.898
 6026SOL    HW218978   6.950   4.274   3.957
 6027SOL     OW18979   1.638   4.428   5.605
 6027SOL    HW118980   1.637   4.501   5.536
 6027SOL    HW218981   1.721   4.374   5.596
 6028SOL     OW18982   1.051   3.438   0.766
 6028SOL    HW118983   1.057   3.450   0.865
 6028SOL    HW218984   1.143   3.427   0.729
 6029SOL     OW18985   1.936   6.134   5.429
 6029SOL    HW118986   1.953   6.054   5.370
 6029SOL    HW218987   1.948   6.107   5.525
 6030SOL     OW18988   3.436   6.638   3.037
 6030SOL    HW118989   3.393   6.723   3.007
 6030SOL    HW218990   3.529   6.657   3.069
 6031SOL     OW18991   4.024   5.122   4.003
 6031SOL    HW118992   3.928   5.097   3.990
 6031SOL    HW218993   4.078   5.088   3.926
 6032SOL     OW18994   2.148   3.234   2.891
 6032SOL    HW118995   2.186   3.306   2.832
 6032SOL    HW218996   2.051   3.223   2.870
 6033SOL     OW18997   2.715   2.008   2.507
 6033SOL    HW118998   2.782   2.066   2.554
 6033SOL    HW218999   2.630   2.007   2.560
 6034SOL     OW19000   1.363   5.969   4.882
 6034SOL    HW119001   1.296   5.894   4.880
 6034SOL    HW219002   1.407   5.977   4.792
 6035SOL     OW19003   6.861   0.601   3.284
 6035SOL    HW119004   6.947   0.651   3.278
 6035SOL    HW219005   6.802   0.643   3.353
 6036SOL     OW19006   7.004   6.191   4.169
 6036SOL    HW119007   6.955   6.245   4.101
 6036SOL    HW219008   6.989   6.231   4.260
 6037SOL     OW19009   4.178   4.691   6.301
 6037SOL    HW119010   4.198   4.683   6.203
 6037SOL    HW219011   4.102   4.631   6.325
 6038SOL     OW19012   1.188   3.516   6.466
 6038SOL    HW119013   1.100   3.548   6.430
 6038SOL    HW219014   1.175   3.431   6.516
 6039SOL     OW19015   3.222   2.941   2.755
 6039SOL    HW119016   3.234   2.977   2.663
 6039SOL    HW219017   3.140   2.982   2.796
 6040SOL     OW19018   0.975   1.964   6.419
 6040SOL    HW119019   1.051   1.959   6.485
 6040SOL    HW219020   0.937   2.056   6.419
 6041SOL     OW19021   1.996   1.074   5.115
 6041SOL    HW119022   1.941   1.157   5.129
 6041SOL    HW219023   1.951   1.015   5.048
 6042SOL     OW19024   5.329   5.416   2.002
 6042SOL    HW119025   5.260   5.344   2.003
 6042SOL    HW219026   5.343   5.451   2.095
 6043SOL     OW19027   0.947   4.302   5.262
 6043SOL    HW119028   1.042   4.279   5.282
 6043SOL    HW219029   0.889   4.223   5.279
 6044SOL     OW19030   1.043   2.579   0.754
 6044SOL    HW119031   1.100   2.631   0.816
 6044SOL    HW219032   0.947   2.591   0.778
 6045SOL     OW19033   5.897   5.622   1.350
 6045SOL    HW119034   5.896   5.666   1.260
 6045SOL    HW219035   5.975   5.656   1.403
 6046SOL     OW19036   2.815   1.537   0.475
 6046SOL    HW119037   2.888   1.601   0.498
 6046SOL    HW219038   2.726   1.581   0.488
 6047SOL     OW19039   6.170   1.782   2.089
 6047SOL    HW119040   6.156   1.877   2.117
 6047SOL    HW219041   6.087   1.747   2.045
 6048SOL     OW19042   4.725   6.638   3.515
 6048SOL    HW119043   4.632   6.658   3.549
 6048SOL    HW219044   4.754   6.712   3.455
 6049SOL     OW19045   5.067   3.936   5.787
 6049SOL    HW119046   5.002   3.916   5.861
 6049SOL    HW219047   5.156   3.958   5.826
 6050SOL     OW19048   3.096   4.390   5.500
 6050SOL    HW119049   3.151   4.319   5.457
 6050SOL    HW219050   3.001   4.383   5.468
 6051SOL     OW19051   2.505   1.261   3.800
 6051SOL    HW119052   2.504   1.214   3.888
 6051SOL    HW219053   2.543   1.353   3.811
 6052SOL     OW19054   6.461   6.489   0.176
 6052SOL    HW119055   6.493   6.536   0.094
 6052SOL    HW219056   6.361   6.488   0.177
 6053SOL     OW19057   3.969   0.596   6.540
 6053SOL    HW119058   4.032   0.533   6.584
 6053SOL    HW219059   3.896   0.544   6.494
 6054SOL     OW19060   3.022   4.170   0.526
 6054SOL    HW119061   3.097   4.214   0.574
 6054SOL    HW219062   2.970   4.239   0.475
 6055SOL     OW19063   5.113   1.091   5.395
 6055SOL    HW119064   5.201   1.066   5.356
 6055SOL    HW219065   5.126   1.143   5.479
 6056SOL     OW19066   5.141   3.444   4.944
 6056SOL    HW119067   5.171   3.529   4.901
 6056SOL    HW219068   5.061   3.408   4.895
 6057SOL     OW19069   5.032   2.605   4.493
 6057SOL    HW119070   5.085   2.689   4.506
 6057SOL    HW219071   5.084   2.527   4.528
 6058SOL     OW19072   5.035   2.764   2.537
 6058SOL    HW119073   4.982   2.727   2.613
 6058SOL    HW219074   4.981   2.832   2.487
 6059SOL     OW19075   4.514   5.935   5.503
 6059SOL    HW119076   4.457   6.000   5.552
 6059SOL    HW219077   4.567   5.983   5.433
 6060SOL     OW19078   2.864   3.886   6.238
 6060SOL    HW119079   2.953   3.916   6.274
 6060SOL    HW219080   2.879   3.825   6.160
 6061SOL     OW19081   4.423   2.197   0.628
 6061SOL    HW119082   4.336   2.181   0.582
 6061SOL    HW219083   4.459   2.111   0.664
 6062SOL     OW19084   1.935   0.536   4.557
 6062SOL    HW119085   1.843   0.574   4.557
 6062SOL    HW219086   1.931   0.437   4.547
 6063SOL     OW19087   3.859   1.333   6.797
 6063SOL    HW119088   3.959   1.326   6.801
 6063SOL    HW219089   3.832   1.429   6.802
 6064SOL     OW19090   2.894   6.115   2.366
 6064SOL    HW119091   2.858   6.098   2.457
 6064SOL    HW219092   2.870   6.040   2.305
 6065SOL     OW19093   5.681   0.116   2.285
 6065SOL    HW119094   5.712   0.055   2.358
 6065SOL    HW219095   5.741   0.106   2.205
 6066SOL     OW19096   4.604   1.582   0.338
 6066SOL    HW119097   4.555   1.539   0.413
 6066SOL    HW219098   4.701   1.557   0.342
 6067SOL     OW19099   5.292   2.406   6.481
 6067SOL    HW119100   5.225   2.403   6.555
 6067SOL    HW219101   5.244   2.413   6.393
 6068SOL     OW19102   5.502   2.727   4.813
 6068SOL    HW119103   5.581   2.789   4.812
 6068SOL    HW219104   5.484   2.693   4.721
 6069SOL     OW19105   0.196   3.404   5.169
 6069SOL    HW119106   0.142   3.475   5.123
 6069SOL    HW219107   0.293   3.431   5.170
 6070SOL     OW19108   2.133   1.844   6.159
 6070SOL    HW119109   2.107   1.824   6.064
 6070SOL    HW219110   2.198   1.776   6.191
 6071SOL     OW19111   4.797   5.272   4.491
 6071SOL    HW119112   4.754   5.194   4.446
 6071SOL    HW219113   4.749   5.291   4.577
 6072SOL     OW19114   0.305   0.835   1.702
 6072SOL    HW119115   0.217   0.814   1.658
 6072SOL    HW219116   0.335   0.927   1.675
 6073SOL     OW19117   6.771   3.783   0.531
 6073SOL    HW119118   6.708   3.780   0.453
 6073SOL    HW219119   6.724   3.749   0.613
 6074SOL     OW19120   1.089   6.672   4.274
 6074SOL    HW119121   1.016   6.739   4.286
 6074SOL    HW219122   1.062   6.584   4.315
 6075SOL     OW19123   0.282   2.526   6.660
 6075SOL    HW119124   0.265   2.430   6.642
 6075SOL    HW219125   0.329   2.536   6.748
 6076SOL     OW19126   2.991   5.746   5.272
 6076SOL    HW119127   3.087   5.722   5.289
 6076SOL    HW219128   2.959   5.807   5.344
 6077SOL     OW19129   4.675   5.573   1.908
 6077SOL    HW119130   4.678   5.650   1.844
 6077SOL    HW219131   4.751   5.582   1.973
 6078SOL     OW19132   3.657   4.942   1.797
 6078SOL    HW119133   3.620   4.887   1.872
 6078SOL    HW219134   3.707   4.883   1.734
 6079SOL     OW19135   3.292   3.761   5.925
 6079SOL    HW119136   3.207   3.789   5.881
 6079SOL    HW219137   3.292   3.662   5.938
 6080SOL     OW19138   0.044   1.495   1.263
 6080SOL    HW119139   6.964   1.503   1.269
 6080SOL    HW219140   0.073   1.411   1.308
 6081SOL     OW19141   6.180   3.341   4.799
 6081SOL    HW119142   6.190   3.439   4.814
 6081SOL    HW219143   6.192   3.293   4.886
 6082SOL     OW19144   3.717   1.549   3.441
 6082SOL    HW119145   3.763   1.638   3.447
 6082SOL    HW219146   3.624   1.562   3.408
 6083SOL     OW19147   0.690   6.230   5.999
 6083SOL    HW119148   0.761   6.300   6.009
 6083SOL    HW219149   0.613   6.269   5.947
 6084SOL     OW19150   0.243   5.504   4.070
 6084SOL    HW119151   0.295   5.528   4.151
 6084SOL    HW219152   0.164   5.565   4.061
 6085SOL     OW19153   0.241   4.461   0.091
 6085SOL    HW119154   0.252   4.554   0.126
 6085SOL    HW219155   0.289   4.398   0.151
 6086SOL     OW19156   3.206   1.446   4.965
 6086SOL    HW119157   3.176   1.535   4.999
 6086SOL    HW219158   3.132   1.379   4.976
 6087SOL     OW19159   5.101   6.026   6.824
 6087SOL    HW119160   5.013   5.979   6.828
 6087SOL    HW219161   5.131   6.049   6.916
 6088SOL     OW19162   6.311   6.233   4.640
 6088SOL    HW119163   6.374   6.155   4.646
 6088SOL    HW219164   6.328   6.284   4.556
 6089SOL     OW19165   0.861   3.475   1.206
 6089SOL    HW119166   0.867   3.474   1.306
 6089SOL    HW219167   0.926   3.409   1.169
 6090SOL     OW19168   1.797   6.021   6.499
 6090SOL    HW119169   1.764   6.088   6.433
 6090SOL    HW219170   1.810   5.933   6.453
 6091SOL     OW19171   1.118   1.895   2.493
 6091SOL    HW119172   1.149   1.923   2.402
 6091SOL    HW219173   1.193   1.906   2.558
 6092SOL     OW19174   2.860   0.254   3.314
 6092SOL    HW119175   2.888   0.341   3.273
 6092SOL    HW219176   2.931   0.222   3.376
 6093SOL     OW19177   1.225   2.868   3.169
 6093SOL    HW119178   1.282   2.949   3.159
 6093SOL    HW219179   1.158   2.865   3.095
 6094SOL     OW19180   3.935   0.784   0.953
 6094SOL    HW119181   3.928   0.693   0.993
 6094SOL    HW219182   3.971   0.849   1.021
 6095SOL     OW19183   4.908   3.027   6.445
 6095SOL    HW119184   4.835   2.960   6.432
 6095SOL    HW219185   4.962   3.034   6.361
 6096SOL     OW19186   5.651   0.809   3.393
 6096SOL    HW119187   5.636   0.862   3.477
 6096SOL    HW219188   5.587   0.732   3.390
 6097SOL     OW19189   1.885   0.050   2.012
 6097SOL    HW119190   1.848   0.119   2.075
 6097SOL    HW219191   1.870   0.079   1.918
 6098SOL     OW19192   1.763   2.058   6.406
 6098SOL    HW119193   1.717   2.026   6.324
 6098SOL    HW219194   1.716   2.022   6.487
 6099SOL     OW19195   6.941   5.868   0.126
 6099SOL    HW119196   6.916   5.963   0.111
 6099SOL    HW219197   6.862   5.809   0.105
 6100SOL     OW19198   5.371   3.056   6.681
 6100SOL    HW119199   5.307   3.067   6.757
 6100SOL    HW219200   5.369   2.961   6.649
 6101SOL     OW19201   6.059   1.953   5.536
 6101SOL    HW119202   6.068   1.983   5.631
 6101SOL    HW219203   5.963   1.935   5.515
 6102SOL     OW19204   4.120   0.887   4.013
 6102SOL    HW119205   4.166   0.920   4.096
 6102SOL    HW219206   4.135   0.953   3.940
 6103SOL     OW19207   0.396   1.378   3.080
 6103SOL    HW119208   0.417   1.384   3.177
 6103SOL    HW219209   0.481   1.378   3.027
 6104SOL     OW19210   6.487   2.755   6.155
 6104SOL    HW119211   6.582   2.735   6.133
 6104SOL    HW219212   6.477   2.766   6.254
 6105SOL     OW19213   2.585   0.166   5.853
 6105SOL    HW119214   2.590   0.136   5.758
 6105SOL    HW219215   2.664   0.131   5.903
 6106SOL     OW19216   1.415   4.650   5.892
 6106SOL    HW119217   1.483   4.710   5.934
 6106SOL    HW219218   1.461   4.575   5.845
 6107SOL     OW19219   2.467   4.851   4.372
 6107SOL    HW119220   2.437   4.915   4.301
 6107SOL    HW219221   2.434   4.759   4.350
 6108SOL     OW19222   0.371   2.398   3.310
 6108SOL    HW119223   0.354   2.411   3.407
 6108SOL    HW219224   0.413   2.480   3.272
 6109SOL     OW19225   5.339   3.583   6.131
 6109SOL    HW119226   5.436   3.582   6.155
 6109SOL    HW219227   5.320   3.665   6.077
 6110SOL     OW19228   3.957   3.523   6.910
 6110SOL    HW119229   4.046   3.540   6.867
 6110SOL    HW219230   3.955   3.430   6.947
 6111SOL     OW19231   1.856   4.737   2.886
 6111SOL    HW119232   1.922   4.662   2.891
 6111SOL    HW219233   1.777   4.709   2.833
 6112SOL     OW19234   3.733   1.291   3.371
 6112SOL    HW119235   3.656   1.246   3.415
 6112SOL    HW219236   3.747   1.381   3.412
 6113SOL     OW19237   0.221   0.688   5.949
 6113SOL    HW119238   0.287   0.614   5.965
 6113SOL    HW219239   0.270   0.774   5.936
 6114SOL     OW19240   4.987   4.575   1.392
 6114SOL    HW119241   5.038   4.613   1.470
 6114SOL    HW219242   4.889   4.582   1.409
 6115SOL     OW19243   5.668   6.217   3.072
 6115SOL    HW119244   5.749   6.182   3.118
 6115SOL    HW219245   5.690   6.241   2.978
 6116SOL     OW19246   2.776   0.982   1.362
 6116SOL    HW119247   2.785   0.942   1.271
 6116SOL    HW219248   2.682   0.973   1.394
 6117SOL     OW19249   6.668   0.330   5.869
 6117SOL    HW119250   6.684   0.382   5.785
 6117SOL    HW219251   6.576   0.292   5.868
 6118SOL     OW19252   6.861   0.878   1.710
 6118SOL    HW119253   6.789   0.810   1.698
 6118SOL    HW219254   6.829   0.967   1.676
 6119SOL     OW19255   1.030   3.379   3.838
 6119SOL    HW119256   0.978   3.305   3.795
 6119SOL    HW219257   1.017   3.375   3.937
 6120SOL     OW19258   4.025   6.694   3.666
 6120SOL    HW119259   3.962   6.765   3.635
 6120SOL    HW219260   4.108   6.737   3.702
 6121SOL     OW19261   0.385   2.929   4.423
 6121SOL    HW119262   0.402   2.867   4.500
 6121SOL    HW219263   0.419   3.021   4.446
 6122SOL     OW19264   3.607   6.900   1.588
 6122SOL    HW119265   3.531   6.848   1.551
 6122SOL    HW219266   3.600   6.904   1.688
 6123SOL     OW19267   6.475   0.563   0.179
 6123SOL    HW119268   6.416   0.486   0.153
 6123SOL    HW219269   6.554   0.567   0.117
 6124SOL     OW19270   3.506   0.683   5.659
 6124SOL    HW119271   3.572   0.726   5.721
 6124SOL    HW219272   3.484   0.745   5.585
 6125SOL     OW19273   2.991   5.621   1.129
 6125SOL    HW119274   2.935   5.563   1.070
 6125SOL    HW219275   2.985   5.589   1.223
 6126SOL     OW19276   6.092   7.012   4.463
 6126SOL    HW119277   6.133   6.927   4.428
 6126SOL    HW219278   6.126   0.010   4.555
 6127SOL     OW19279   2.529   0.594   2.633
 6127SOL    HW119280   2.494   0.517   2.686
 6127SOL    HW219281   2.629   0.592   2.633
 6128SOL     OW19282   6.772   3.263   0.505
 6128SOL    HW119283   6.807   3.231   0.593
 6128SOL    HW219284   6.806   3.355   0.487
 6129SOL     OW19285   5.999   4.387   3.518
 6129SOL    HW119286   5.995   4.416   3.613
 6129SOL    HW219287   6.092   4.397   3.483
 6130SOL     OW19288   5.994   1.908   4.066
 6130SOL    HW119289   5.897   1.929   4.057
 6130SOL    HW219290   6.006   1.829   4.125
 6131SOL     OW19291   6.546   1.432   5.450
 6131SOL    HW119292   6.512   1.404   5.539
 6131SOL    HW219293   6.492   1.509   5.416
 6132SOL     OW19294   5.050   1.068   0.289
 6132SOL    HW119295   5.133   1.122   0.304
 6132SOL    HW219296   4.972   1.130   0.275
 6133SOL     OW19297   1.063   2.818   2.957
 6133SOL    HW119298   1.115   2.748   2.909
 6133SOL    HW219299   1.010   2.775   3.031
 6134SOL     OW19300   3.662   4.478   0.313
 6134SOL    HW119301   3.618   4.562   0.342
 6134SOL    HW219302   3.684   4.422   0.393
 6135SOL     OW19303   0.225   6.735   1.844
 6135SOL    HW119304   0.174   6.785   1.775
 6135SOL    HW219305   0.321   6.765   1.844
 6136SOL     OW19306   0.785   2.199   2.602
 6136SOL    HW119307   0.868   2.203   2.657
 6136SOL    HW219308   0.788   2.270   2.533
 6137SOL     OW19309   4.484   1.868   5.004
 6137SOL    HW119310   4.437   1.792   4.959
 6137SOL    HW219311   4.583   1.853   5.001
 6138SOL     OW19312   3.847   6.744   2.852
 6138SOL    HW119313   3.804   6.701   2.773
 6138SOL    HW219314   3.823   6.693   2.935
 6139SOL     OW19315   1.799   2.671   4.743
 6139SOL    HW119316   1.812   2.747   4.679
 6139SOL    HW219317   1.861   2.597   4.720
 6140SOL     OW19318   0.384   6.098   1.594
 6140SOL    HW119319   0.401   6.108   1.496
 6140SOL    HW219320   0.420   6.010   1.625
 6141SOL     OW19321   6.032   6.025   5.075
 6141SOL    HW119322   6.054   6.016   5.173
 6141SOL    HW219323   6.115   6.048   5.025
 6142SOL     OW19324   6.935   5.205   0.977
 6142SOL    HW119325   6.939   5.186   0.879
 6142SOL    HW219326   6.928   5.119   1.028
 6143SOL     OW19327   6.071   4.603   0.174
 6143SOL    HW119328   6.126   4.648   0.245
 6143SOL    HW219329   6.123   4.599   0.089
 6144SOL     OW19330   6.172   4.834   2.433
 6144SOL    HW119331   6.170   4.933   2.450
 6144SOL    HW219332   6.264   4.807   2.405
 6145SOL     OW19333   4.808   5.897   4.081
 6145SOL    HW119334   4.811   5.863   4.175
 6145SOL    HW219335   4.731   5.855   4.033
 6146SOL     OW19336   4.254   1.193   3.731
 6146SOL    HW119337   4.182   1.145   3.781
 6146SOL    HW219338   4.280   1.140   3.650
 6147SOL     OW19339   1.830   4.180   4.250
 6147SOL    HW119340   1.881   4.238   4.186
 6147SOL    HW219341   1.877   4.179   4.338
 6148SOL     OW19342   6.739   0.276   4.621
 6148SOL    HW119343   6.768   0.204   4.684
 6148SOL    HW219344   6.752   0.365   4.663
 6149SOL     OW19345   3.096   4.844   2.858
 6149SOL    HW119346   3.149   4.845   2.773
 6149SOL    HW219347   3.147   4.892   2.930
 6150SOL     OW19348   3.765   4.853   6.834
 6150SOL    HW119349   3.815   4.788   6.891
 6150SOL    HW219350   3.703   4.907   6.890
 6151SOL     OW19351   5.791   4.149   4.561
 6151SOL    HW119352   5.767   4.228   4.618
 6151SOL    HW219353   5.725   4.075   4.577
 6152SOL     OW19354   5.682   5.047   5.490
 6152SOL    HW119355   5.635   5.086   5.411
 6152SOL    HW219356   5.744   4.974   5.459
 6153SOL     OW19357   4.832   3.806   1.688
 6153SOL    HW119358   4.835   3.896   1.730
 6153SOL    HW219359   4.861   3.737   1.754
 6154SOL     OW19360   5.252   1.918   2.746
 6154SOL    HW119361   5.246   1.828   2.790
 6154SOL    HW219362   5.161   1.960   2.744
 6155SOL     OW19363   1.782   1.805   4.482
 6155SOL    HW119364   1.864   1.757   4.514
 6155SOL    HW219365   1.771   1.890   4.534
 6156SOL     OW19366   4.556   4.855   2.528
 6156SOL    HW119367   4.585   4.812   2.443
 6156SOL    HW219368   4.604   4.941   2.541
 6157SOL     OW19369   1.088   1.728   4.437
 6157SOL    HW119370   0.996   1.711   4.402
 6157SOL    HW219371   1.085   1.731   4.537
 6158SOL     OW19372   4.370   0.618   6.398
 6158SOL    HW119373   4.359   0.711   6.434
 6158SOL    HW219374   4.438   0.619   6.324
 6159SOL     OW19375   4.765   2.673   0.623
 6159SOL    HW119376   4.733   2.586   0.660
 6159SOL    HW219377   4.695   2.743   0.636
 6160SOL     OW19378   5.498   5.978   0.288
 6160SOL    HW119379   5.434   6.013   0.219
 6160SOL    HW219380   5.589   6.015   0.270
 6161SOL     OW19381   5.938   2.453   5.675
 6161SOL    HW119382   5.938   2.526   5.743
 6161SOL    HW219383   5.954   2.366   5.720
 6162SOL     OW19384   0.690   5.552   4.000
 6162SOL    HW119385   0.619   5.533   4.068
 6162SOL    HW219386   0.765   5.602   4.044
 6163SOL     OW19387   5.063   6.193   1.717
 6163SOL    HW119388   5.123   6.273   1.717
 6163SOL    HW219389   5.054   6.160   1.623
 6164SOL     OW19390   1.925   3.211   1.696
 6164SOL    HW119391   2.023   3.224   1.710
 6164SOL    HW219392   1.874   3.267   1.760
 6165SOL     OW19393   3.788   6.875   6.293
 6165SOL    HW119394   3.880   6.914   6.294
 6165SOL    HW219395   3.761   6.851   6.387
 6166SOL     OW19396   4.028   0.916   5.442
 6166SOL    HW119397   3.931   0.942   5.439
 6166SOL    HW219398   4.036   0.824   5.481
 6167SOL     OW19399   0.199   4.579   2.307
 6167SOL    HW119400   0.243   4.630   2.233
 6167SOL    HW219401   0.100   4.591   2.301
 6168SOL     OW19402   0.624   3.494   0.511
 6168SOL    HW119403   0.640   3.409   0.461
 6168SOL    HW219404   0.629   3.477   0.609
 6169SOL     OW19405   0.771   3.637   2.598
 6169SOL    HW119406   0.704   3.707   2.571
 6169SOL    HW219407   0.848   3.638   2.535
 6170SOL     OW19408   0.655   3.289   5.046
 6170SOL    HW119409   0.720   3.364   5.030
 6170SOL    HW219410   0.704   3.202   5.047
 6171SOL     OW19411   0.650   1.492   0.317
 6171SOL    HW119412   0.742   1.531   0.314
 6171SOL    HW219413   0.586   1.563   0.347
 6172SOL     OW19414   1.196   3.160   2.946
 6172SOL    HW119415   1.223   3.157   2.850
 6172SOL    HW219416   1.271   3.126   3.003
 6173SOL     OW19417   6.902   5.407   3.346
 6173SOL    HW119418   6.889   5.377   3.252
 6173SOL    HW219419   6.824   5.378   3.401
 6174SOL     OW19420   4.569   5.198   4.180
 6174SOL    HW119421   4.625   5.278   4.160
 6174SOL    HW219422   4.619   5.138   4.243
 6175SOL     OW19423   3.399   0.545   4.049
 6175SOL    HW119424   3.475   0.542   4.114
 6175SOL    HW219425   3.322   0.595   4.090
 6176SOL     OW19426   4.701   3.826   5.328
 6176SOL    HW119427   4.788   3.874   5.334
 6176SOL    HW219428   4.707   3.754   5.259
 6177SOL     OW19429   5.136   1.654   2.277
 6177SOL    HW119430   5.219   1.628   2.327
 6177SOL    HW219431   5.122   1.592   2.200
 6178SOL     OW19432   5.234   3.698   2.174
 6178SOL    HW119433   5.299   3.668   2.243
 6178SOL    HW219434   5.167   3.760   2.216
 6179SOL     OW19435   6.713   4.705   1.839
 6179SOL    HW119436   6.798   4.734   1.882
 6179SOL    HW219437   6.684   4.617   1.877
 6180SOL     OW19438   3.339   4.996   0.866
 6180SOL    HW119439   3.258   5.055   0.867
 6180SOL    HW219440   3.407   5.031   0.930
 6181SOL     OW19441   5.118   6.283   6.084
 6181SOL    HW119442   5.218   6.288   6.078
 6181SOL    HW219443   5.088   6.322   6.171
 6182SOL     OW19444   4.632   2.916   6.439
 6182SOL    HW119445   4.577   2.834   6.454
 6182SOL    HW219446   4.572   2.997   6.439
 6183SOL     OW19447   1.784   2.332   2.181
 6183SOL    HW119448   1.767   2.239   2.148
 6183SOL    HW219449   1.877   2.338   2.217
 6184SOL     OW19450   3.313   0.360   6.190
 6184SOL    HW119451   3.338   0.364   6.093
 6184SOL    HW219452   3.368   0.425   6.241
 6185SOL     OW19453   1.710   4.734   5.821
 6185SOL    HW119454   1.711   4.656   5.884
 6185SOL    HW219455   1.798   4.740   5.774
 6186SOL     OW19456   6.459   1.218   1.693
 6186SOL    HW119457   6.458   1.316   1.670
 6186SOL    HW219458   6.377   1.174   1.657
 6187SOL     OW19459   4.896   3.179   4.972
 6187SOL    HW119460   4.892   3.252   4.904
 6187SOL    HW219461   4.922   3.218   5.061
 6188SOL     OW19462   1.633   1.722   5.684
 6188SOL    HW119463   1.664   1.815   5.663
 6188SOL    HW219464   1.694   1.682   5.752
 6189SOL     OW19465   3.510   4.905   2.620
 6189SOL    HW119466   3.566   4.893   2.701
 6189SOL    HW219467   3.567   4.936   2.544
 6190SOL     OW19468   6.747   3.411   5.051
 6190SOL    HW119469   6.839   3.440   5.024
 6190SOL    HW219470   6.701   3.367   4.974
 6191SOL     OW19471   2.464   3.183   5.927
 6191SOL    HW119472   2.389   3.162   5.864
 6191SOL    HW219473   2.532   3.110   5.925
 6192SOL     OW19474   2.639   2.174   6.807
 6192SOL    HW119475   2.638   2.149   6.710
 6192SOL    HW219476   2.546   2.193   6.838
 6193SOL     OW19477   4.634   6.140   1.237
 6193SOL    HW119478   4.573   6.066   1.265
 6193SOL    HW219479   4.673   6.119   1.147
 6194SOL     OW19480   6.292   0.379   6.129
 6194SOL    HW119481   6.300   0.385   6.030
 6194SOL    HW219482   6.378   0.408   6.171
 6195SOL     OW19483   5.578   6.161   4.535
 6195SOL    HW119484   5.612   6.067   4.538
 6195SOL    HW219485   5.654   6.224   4.526
 6196SOL     OW19486   4.619   4.382   2.425
 6196SOL    HW119487   4.580   4.407   2.336
 6196SOL    HW219488   4.555   4.408   2.497
 6197SOL     OW19489   2.410   5.066   2.247
 6197SOL    HW119490   2.364   5.021   2.171
 6197SOL    HW219491   2.355   5.144   2.277
 6198SOL     OW19492   4.875   6.306   0.358
 6198SOL    HW119493   4.807   6.368   0.319
 6198SOL    HW219494   4.967   6.344   0.344
 6199SOL     OW19495   0.707   0.817   0.311
 6199SOL    HW119496   0.780   0.865   0.262
 6199SOL    HW219497   0.667   0.879   0.378
 6200SOL     OW19498   0.420   1.717   4.100
 6200SOL    HW119499   0.433   1.704   4.002
 6200SOL    HW219500   0.433   1.630   4.148
 6201SOL     OW19501   1.152   3.208   4.462
 6201SOL    HW119502   1.148   3.176   4.557
 6201SOL    HW219503   1.155   3.308   4.461
 6202SOL     OW19504   5.836   1.555   2.161
 6202SOL    HW119505   5.763   1.623   2.159
 6202SOL    HW219506   5.796   1.464   2.148
 6203SOL     OW19507   5.674   5.336   2.053
 6203SOL    HW119508   5.686   5.311   1.957
 6203SOL    HW219509   5.655   5.253   2.106
 6204SOL     OW19510   1.136   6.044   5.029
 6204SOL    HW119511   1.199   5.979   5.073
 6204SOL    HW219512   1.167   6.061   4.935
 6205SOL     OW19513   5.631   4.416   1.405
 6205SOL    HW119514   5.628   4.320   1.434
 6205SOL    HW219515   5.700   4.426   1.332
 6206SOL     OW19516   5.541   1.311   3.206
 6206SOL    HW119517   5.569   1.404   3.185
 6206SOL    HW219518   5.568   1.288   3.299
 6207SOL     OW19519   1.807   6.048   4.854
 6207SOL    HW119520   1.774   5.956   4.874
 6207SOL    HW219521   1.837   6.053   4.758
 6208SOL     OW19522   3.126   2.428   5.608
 6208SOL    HW119523   3.214   2.417   5.562
 6208SOL    HW219524   3.058   2.463   5.543
 6209SOL     OW19525   3.299   5.392   0.646
 6209SOL    HW119526   3.374   5.341   0.688
 6209SOL    HW219527   3.264   5.460   0.710
 6210SOL     OW19528   5.371   3.705   3.253
 6210SOL    HW119529   5.280   3.680   3.220
 6210SOL    HW219530   5.363   3.775   3.324
 6211SOL     OW19531   3.893   6.225   5.491
 6211SOL    HW119532   3.833   6.199   5.566
 6211SOL    HW219533   3.948   6.304   5.518
 6212SOL     OW19534   2.303   4.633   4.153
 6212SOL    HW119535   2.240   4.578   4.207
 6212SOL    HW219536   2.393   4.589   4.151
 6213SOL     OW19537   4.652   6.565   0.006
 6213SOL    HW119538   4.586   6.532   6.957
 6213SOL    HW219539   4.745   6.550   6.992
 6214SOL     OW19540   5.688   5.685   5.534
 6214SOL    HW119541   5.688   5.748   5.611
 6214SOL    HW219542   5.694   5.591   5.568
 6215SOL     OW19543   4.100   2.987   6.051
 6215SOL    HW119544   4.161   3.006   6.128
 6215SOL    HW219545   4.097   3.066   5.990
 6216SOL     OW19546   5.982   2.488   2.904
 6216SOL    HW119547   5.967   2.428   2.825
 6216SOL    HW219548   5.894   2.510   2.946
 6217SOL     OW19549   1.009   5.197   2.511
 6217SOL    HW119550   0.998   5.244   2.424
 6217SOL    HW219551   0.956   5.244   2.581
 6218SOL     OW19552   3.860   6.278   0.195
 6218SOL    HW119553   3.947   6.290   0.241
 6218SOL    HW219554   3.833   6.364   0.151
 6219SOL     OW19555   1.768   0.845   5.085
 6219SOL    HW119556   1.670   0.826   5.088
 6219SOL    HW219557   1.796   0.864   4.991
 6220SOL     OW19558   3.413   0.588   6.664
 6220SOL    HW119559   3.362   0.516   6.711
 6220SOL    HW219560   3.409   0.672   6.719
 6221SOL     OW19561   6.292   6.458   6.622
 6221SOL    HW119562   6.372   6.431   6.676
 6221SOL    HW219563   6.229   6.381   6.616
 6222SOL     OW19564   6.248   0.259   2.514
 6222SOL    HW119565   6.242   0.354   2.544
 6222SOL    HW219566   6.195   0.247   2.430
 6223SOL     OW19567   1.287   5.745   3.157
 6223SOL    HW119568   1.211   5.742   3.092
 6223SOL    HW219569   1.253   5.724   3.249
 6224SOL     OW19570   4.029   1.561   5.590
 6224SOL    HW119571   3.929   1.563   5.582
 6224SOL    HW219572   4.057   1.473   5.629
 6225SOL     OW19573   3.978   2.380   6.536
 6225SOL    HW119574   3.935   2.368   6.626
 6225SOL    HW219575   3.980   2.291   6.489
 6226SOL     OW19576   1.056   1.418   3.556
 6226SOL    HW119577   0.973   1.470   3.535
 6226SOL    HW219578   1.132   1.454   3.502
 6227SOL     OW19579   3.083   4.606   5.308
 6227SOL    HW119580   3.104   4.523   5.360
 6227SOL    HW219581   2.997   4.593   5.260
 6228SOL     OW19582   0.609   2.309   3.777
 6228SOL    HW119583   0.621   2.214   3.807
 6228SOL    HW219584   0.615   2.370   3.856
 6229SOL     OW19585   6.884   2.922   5.346
 6229SOL    HW119586   6.953   2.852   5.332
 6229SOL    HW219587   6.831   2.902   5.428
 6230SOL     OW19588   1.329   2.039   3.425
 6230SOL    HW119589   1.392   2.073   3.355
 6230SOL    HW219590   1.307   2.113   3.488
 6231SOL     OW19591   5.478   5.678   0.849
 6231SOL    HW119592   5.426   5.754   0.889
 6231SOL    HW219593   5.563   5.713   0.810
 6232SOL     OW19594   5.904   1.249   0.787
 6232SOL    HW119595   5.949   1.160   0.780
 6232SOL    HW219596   5.880   1.281   0.695
 6233SOL     OW19597   6.968   3.510   1.825
 6233SOL    HW119598   6.927   3.590   1.780
 6233SOL    HW219599   6.954   3.517   1.924
 6234SOL     OW19600   6.959   0.286   5.420
 6234SOL    HW119601   6.948   0.213   5.488
 6234SOL    HW219602   6.942   0.248   5.329
 6235SOL     OW19603   0.073   0.813   1.583
 6235SOL    HW119604   0.039   0.738   1.526
 6235SOL    HW219605   7.016   0.858   1.629
 6236SOL     OW19606   6.766   4.430   0.533
 6236SOL    HW119607   6.746   4.510   0.476
 6236SOL    HW219608   6.765   4.347   0.477
 6237SOL     OW19609   3.146   6.574   0.082
 6237SOL    HW119610   3.121   6.505   0.014
 6237SOL    HW219611   3.217   6.536   0.142
 6238SOL     OW19612   4.123   6.527   3.468
 6238SOL    HW119613   4.104   6.582   3.549
 6238SOL    HW219614   4.098   6.578   3.386
 6239SOL     OW19615   3.578   0.674   1.734
 6239SOL    HW119616   3.612   0.764   1.759
 6239SOL    HW219617   3.655   0.613   1.714
 6240SOL     OW19618   3.375   3.697   4.896
 6240SOL    HW119619   3.339   3.610   4.928
 6240SOL    HW219620   3.305   3.744   4.842
 6241SOL     OW19621   3.992   0.454   4.080
 6241SOL    HW119622   3.954   0.546   4.093
 6241SOL    HW219623   3.932   0.387   4.125
 6242SOL     OW19624   2.408   0.750   3.821
 6242SOL    HW119625   2.352   0.832   3.822
 6242SOL    HW219626   2.423   0.721   3.726
 6243SOL     OW19627   6.773   0.840   5.568
 6243SOL    HW119628   6.760   0.932   5.532
 6243SOL    HW219629   6.838   0.790   5.509
 6244SOL     OW19630   5.141   4.042   3.364
 6244SOL    HW119631   5.165   4.093   3.282
 6244SOL    HW219632   5.079   4.097   3.420
 6245SOL     OW19633   0.837   5.127   1.619
 6245SOL    HW119634   0.917   5.066   1.625
 6245SOL    HW219635   0.832   5.167   1.528
 6246SOL     OW19636   0.883   0.531   4.523
 6246SOL    HW119637   0.979   0.559   4.523
 6246SOL    HW219638   0.875   0.440   4.563
 6247SOL     OW19639   1.212   6.032   3.469
 6247SOL    HW119640   1.308   6.037   3.494
 6247SOL    HW219641   1.186   5.936   3.454
 6248SOL     OW19642   3.413   3.832   0.155
 6248SOL    HW119643   3.479   3.808   0.225
 6248SOL    HW219644   3.349   3.900   0.192
 6249SOL     OW19645   7.008   2.868   1.459
 6249SOL    HW119646   7.006   2.965   1.486
 6249SOL    HW219647   0.014   2.812   1.537
 6250SOL     OW19648   6.700   6.320   0.907
 6250SOL    HW119649   6.712   6.384   0.983
 6250SOL    HW219650   6.789   6.294   0.870
 6251SOL     OW19651   3.844   5.888   4.486
 6251SOL    HW119652   3.825   5.870   4.582
 6251SOL    HW219653   3.825   5.984   4.465
 6252SOL     OW19654   2.725   5.194   0.258
 6252SOL    HW119655   2.804   5.255   0.268
 6252SOL    HW219656   2.746   5.105   0.298
 6253SOL     OW19657   2.489   5.029   4.762
 6253SOL    HW119658   2.539   4.998   4.842
 6253SOL    HW219659   2.552   5.073   4.698
 6254SOL     OW19660   0.782   6.218   1.145
 6254SOL    HW119661   0.816   6.233   1.052
 6254SOL    HW219662   0.685   6.195   1.141
 6255SOL     OW19663   1.829   2.461   0.764
 6255SOL    HW119664   1.760   2.389   0.768
 6255SOL    HW219665   1.885   2.449   0.682
 6256SOL     OW19666   4.663   5.086   2.587
 6256SOL    HW119667   4.722   5.126   2.657
 6256SOL    HW219668   4.569   5.115   2.602
 6257SOL     OW19669   4.030   3.177   0.471
 6257SOL    HW119670   3.991   3.089   0.498
 6257SOL    HW219671   4.000   3.248   0.535
 6258SOL     OW19672   3.438   0.214   5.473
 6258SOL    HW119673   3.371   0.164   5.528
 6258SOL    HW219674   3.500   0.149   5.428
 6259SOL     OW19675   2.018   1.384   6.242
 6259SOL    HW119676   1.958   1.308   6.268
 6259SOL    HW219677   1.990   1.467   6.290
 6260SOL     OW19678   1.973   0.488   0.938
 6260SOL    HW119679   1.951   0.412   0.999
 6260SOL    HW219680   2.039   0.459   0.869
 6261SOL     OW19681   5.291   6.632   1.047
 6261SOL    HW119682   5.305   6.548   0.995
 6261SOL    HW219683   5.239   6.697   0.992
 6262SOL     OW19684   0.591   6.273   2.441
 6262SOL    HW119685   0.520   6.338   2.414
 6262SOL    HW219686   0.603   6.277   2.540
 6263SOL     OW19687   6.946   6.797   4.866
 6263SOL    HW119688   6.848   6.815   4.872
 6263SOL    HW219689   6.969   6.761   4.776
 6264SOL     OW19690   1.119   6.952   0.987
 6264SOL    HW119691   1.061   7.003   1.051
 6264SOL    HW219692   1.206   7.000   0.975
 6265SOL     OW19693   3.832   2.346   0.621
 6265SOL    HW119694   3.807   2.336   0.525
 6265SOL    HW219695   3.752   2.326   0.678
 6266SOL     OW19696   3.785   6.541   3.464
 6266SOL    HW119697   3.742   6.629   3.443
 6266SOL    HW219698   3.744   6.503   3.547
 6267SOL     OW19699   1.378   6.606   5.223
 6267SOL    HW119700   1.368   6.691   5.274
 6267SOL    HW219701   1.306   6.542   5.250
 6268SOL     OW19702   3.478   0.546   2.209
 6268SOL    HW119703   3.427   0.517   2.291
 6268SOL    HW219704   3.435   0.627   2.170
 6269SOL     OW19705   5.607   6.387   1.332
 6269SOL    HW119706   5.545   6.367   1.407
 6269SOL    HW219707   5.702   6.386   1.366
 6270SOL     OW19708   0.532   6.408   0.238
 6270SOL    HW119709   0.483   6.322   0.253
 6270SOL    HW219710   0.526   6.433   0.142
 6271SOL     OW19711   6.102   2.655   6.817
 6271SOL    HW119712   6.104   2.729   6.749
 6271SOL    HW219713   6.012   2.654   6.861
 6272SOL     OW19714   0.302   0.371   0.194
 6272SOL    HW119715   0.242   0.323   0.130
 6272SOL    HW219716   0.398   0.348   0.174
 6273SOL     OW19717   0.671   6.139   3.667
 6273SOL    HW119718   0.754   6.194   3.667
 6273SOL    HW219719   0.593   6.197   3.644
 6274SOL     OW19720   2.472   6.669   4.721
 6274SOL    HW119721   2.403   6.697   4.653
 6274SOL    HW219722   2.476   6.569   4.725
 6275SOL     OW19723   2.130   6.142   0.552
 6275SOL    HW119724   2.185   6.196   0.487
 6275SOL    HW219725   2.117   6.050   0.516
 6276SOL     OW19726   3.210   5.746   3.168
 6276SOL    HW119727   3.308   5.767   3.162
 6276SOL    HW219728   3.190   5.665   3.114
 6277SOL     OW19729   5.113   1.682   0.882
 6277SOL    HW119730   5.145   1.735   0.803
 6277SOL    HW219731   5.186   1.676   0.950
 6278SOL     OW19732   3.551   0.568   5.996
 6278SOL    HW119733   3.512   0.638   6.056
 6278SOL    HW219734   3.618   0.609   5.934
 6279SOL     OW19735   3.595   6.353   0.373
 6279SOL    HW119736   3.622   6.445   0.342
 6279SOL    HW219737   3.673   6.309   0.417
 6280SOL     OW19738   0.181   1.470   6.533
 6280SOL    HW119739   0.091   1.472   6.578
 6280SOL    HW219740   0.194   1.554   6.482
 6281SOL     OW19741   5.937   4.813   3.853
 6281SOL    HW119742   5.924   4.741   3.785
 6281SOL    HW219743   6.033   4.839   3.857
 6282SOL     OW19744   6.104   3.611   4.854
 6282SOL    HW119745   6.150   3.638   4.938
 6282SOL    HW219746   6.058   3.690   4.814
 6283SOL     OW19747   0.648   5.303   4.681
 6283SOL    HW119748   0.675   5.347   4.767
 6283SOL    HW219749   0.549   5.300   4.675
 6284SOL     OW19750   1.263   5.660   6.836
 6284SOL    HW119751   1.199   5.680   6.762
 6284SOL    HW219752   1.249   5.567   6.868
 6285SOL     OW19753   1.645   3.671   3.574
 6285SOL    HW119754   1.731   3.688   3.526
 6285SOL    HW219755   1.663   3.613   3.653
 6286SOL     OW19756   6.360   3.548   4.146
 6286SOL    HW119757   6.440   3.501   4.109
 6286SOL    HW219758   6.342   3.631   4.095
 6287SOL     OW19759   4.244   5.046   5.700
 6287SOL    HW119760   4.182   5.116   5.666
 6287SOL    HW219761   4.201   4.997   5.776
 6288SOL     OW19762   3.967   4.284   1.089
 6288SOL    HW119763   3.931   4.371   1.055
 6288SOL    HW219764   3.897   4.213   1.080
 6289SOL     OW19765   2.616   4.304   6.726
 6289SOL    HW119766   2.685   4.311   6.654
 6289SOL    HW219767   2.551   4.231   6.703
 6290SOL     OW19768   6.461   5.091   6.313
 6290SOL    HW119769   6.529   5.165   6.320
 6290SOL    HW219770   6.428   5.084   6.219
 6291SOL     OW19771   3.946   3.055   2.928
 6291SOL    HW119772   4.041   3.033   2.909
 6291SOL    HW219773   3.935   3.075   3.025
 6292SOL     OW19774   2.104   2.502   4.660
 6292SOL    HW119775   2.033   2.441   4.694
 6292SOL    HW219776   2.192   2.456   4.665
 6293SOL     OW19777   4.317   1.689   0.524
 6293SOL    HW119778   4.388   1.627   0.559
 6293SOL    HW219779   4.351   1.734   0.442
 6294SOL     OW19780   4.301   0.295   3.225
 6294SOL    HW119781   4.382   0.346   3.256
 6294SOL    HW219782   4.291   0.305   3.126
 6295SOL     OW19783   5.437   5.093   4.954
 6295SOL    HW119784   5.529   5.113   4.986
 6295SOL    HW219785   5.389   5.036   5.021
 6296SOL     OW19786   0.650   4.326   5.988
 6296SOL    HW119787   0.672   4.289   6.078
 6296SOL    HW219788   0.713   4.400   5.966
 6297SOL     OW19789   6.179   0.139   5.257
 6297SOL    HW119790   6.095   0.092   5.285
 6297SOL    HW219791   6.167   0.238   5.270
 6298SOL     OW19792   6.587   4.769   6.364
 6298SOL    HW119793   6.621   4.859   6.336
 6298SOL    HW219794   6.491   4.760   6.338
 6299SOL     OW19795   5.658   2.797   2.370
 6299SOL    HW119796   5.568   2.839   2.366
 6299SOL    HW219797   5.668   2.732   2.295
 6300SOL     OW19798   4.711   0.936   6.822
 6300SOL    HW119799   4.717   0.858   6.759
 6300SOL    HW219800   4.736   1.020   6.774
 6301SOL     OW19801   3.116   6.769   6.256
 6301SOL    HW119802   3.080   6.861   6.274
 6301SOL    HW219803   3.132   6.723   6.344
 6302SOL     OW19804   2.053   1.686   5.160
 6302SOL    HW119805   1.956   1.701   5.140
 6302SOL    HW219806   2.109   1.734   5.092
 6303SOL     OW19807   0.900   6.588   5.765
 6303SOL    HW119808   0.835   6.658   5.734
 6303SOL    HW219809   0.919   6.601   5.862
 6304SOL     OW19810   4.011   1.769   3.394
 6304SOL    HW119811   4.024   1.743   3.299
 6304SOL    HW219812   4.048   1.698   3.454
 6305SOL     OW19813   6.164   5.976   6.934
 6305SOL    HW119814   6.108   5.960   6.853
 6305SOL    HW219815   6.200   6.069   6.932
 6306SOL     OW19816   0.452   3.465   3.743
 6306SOL    HW119817   0.489   3.436   3.830
 6306SOL    HW219818   0.526   3.493   3.682
 6307SOL     OW19819   3.345   3.140   4.124
 6307SOL    HW119820   3.366   3.200   4.047
 6307SOL    HW219821   3.248   3.116   4.122
 6308SOL     OW19822   0.786   1.987   5.848
 6308SOL    HW119823   0.886   1.980   5.857
 6308SOL    HW219824   0.762   2.000   5.752
 6309SOL     OW19825   0.355   7.017   4.453
 6309SOL    HW119826   0.323   6.997   4.360
 6309SOL    HW219827   0.317   6.950   4.516
 6310SOL     OW19828   2.169   6.593   3.145
 6310SOL    HW119829   2.244   6.591   3.211
 6310SOL    HW219830   2.101   6.661   3.174
 6311SOL     OW19831   5.058   1.105   6.765
 6311SOL    HW119832   5.056   1.022   6.821
 6311SOL    HW219833   4.969   1.117   6.720
 6312SOL     OW19834   1.637   6.740   6.585
 6312SOL    HW119835   1.600   6.660   6.538
 6312SOL    HW219836   1.683   6.800   6.519
 6313SOL     OW19837   5.765   6.784   3.736
 6313SOL    HW119838   5.733   6.694   3.706
 6313SOL    HW219839   5.744   6.852   3.666
 6314SOL     OW19840   3.535   0.327   1.300
 6314SOL    HW119841   3.470   0.399   1.323
 6314SOL    HW219842   3.598   0.314   1.377
 6315SOL     OW19843   2.276   2.254   4.764
 6315SOL    HW119844   2.238   2.279   4.853
 6315SOL    HW219845   2.372   2.284   4.759
 6316SOL     OW19846   4.892   1.843   5.675
 6316SOL    HW119847   4.940   1.756   5.666
 6316SOL    HW219848   4.814   1.845   5.612
 6317SOL     OW19849   5.028   4.076   2.983
 6317SOL    HW119850   5.052   4.053   2.888
 6317SOL    HW219851   4.969   4.156   2.983
 6318SOL     OW19852   5.526   0.307   0.193
 6318SOL    HW119853   5.488   0.244   0.261
 6318SOL    HW219854   5.471   0.304   0.110
 6319SOL     OW19855   5.819   1.948   4.377
 6319SOL    HW119856   5.913   1.976   4.395
 6319SOL    HW219857   5.758   2.026   4.391
 6320SOL     OW19858   0.185   0.419   3.656
 6320SOL    HW119859   0.211   0.357   3.730
 6320SOL    HW219860   0.247   0.407   3.578
 6321SOL     OW19861   5.151   3.895   0.290
 6321SOL    HW119862   5.111   3.958   0.224
 6321SOL    HW219863   5.215   3.944   0.350
 6322SOL     OW19864   2.592   1.582   0.775
 6322SOL    HW119865   2.553   1.493   0.801
 6322SOL    HW219866   2.596   1.590   0.676
 6323SOL     OW19867   1.950   2.965   1.234
 6323SOL    HW119868   1.938   3.059   1.201
 6323SOL    HW219869   2.017   2.964   1.308
 6324SOL     OW19870   4.149   1.720   0.729
 6324SOL    HW119871   4.205   1.716   0.646
 6324SOL    HW219872   4.168   1.805   0.778
 6325SOL     OW19873   1.350   2.254   2.969
 6325SOL    HW119874   1.435   2.210   2.999
 6325SOL    HW219875   1.367   2.302   2.883
 6326SOL     OW19876   4.890   5.185   5.643
 6326SOL    HW119877   4.804   5.145   5.673
 6326SOL    HW219878   4.877   5.230   5.554
 6327SOL     OW19879   0.038   1.340   3.530
 6327SOL    HW119880   0.081   1.430   3.527
 6327SOL    HW219881   0.008   1.321   3.623
 6328SOL     OW19882   4.644   3.872   0.114
 6328SOL    HW119883   4.564   3.815   0.136
 6328SOL    HW219884   4.708   3.820   0.058
 6329SOL     OW19885   0.747   2.892   4.823
 6329SOL    HW119886   0.802   2.936   4.752
 6329SOL    HW219887   0.666   2.850   4.782
 6330SOL     OW19888   5.687   0.634   2.468
 6330SOL    HW119889   5.656   0.540   2.483
 6330SOL    HW219890   5.612   0.687   2.427
 6331SOL     OW19891   6.531   3.062   4.786
 6331SOL    HW119892   6.501   3.064   4.881
 6331SOL    HW219893   6.465   3.009   4.732
 6332SOL     OW19894   0.970   1.863   1.385
 6332SOL    HW119895   0.973   1.961   1.367
 6332SOL    HW219896   0.888   1.824   1.344
 6333SOL     OW19897   5.289   6.901   6.841
 6333SOL    HW119898   5.368   6.872   6.895
 6333SOL    HW219899   5.296   6.998   6.820
 6334SOL     OW19900   2.476   1.444   1.926
 6334SOL    HW119901   2.408   1.374   1.904
 6334SOL    HW219902   2.558   1.429   1.871
 6335SOL     OW19903   4.836   1.274   0.834
 6335SOL    HW119904   4.918   1.269   0.892
 6335SOL    HW219905   4.782   1.354   0.860
 6336SOL     OW19906   6.855   4.185   6.497
 6336SOL    HW119907   6.905   4.209   6.414
 6336SOL    HW219908   6.888   4.240   6.573
 6337SOL     OW19909   4.496   6.206   4.924
 6337SOL    HW119910   4.542   6.189   4.837
 6337SOL    HW219911   4.485   6.304   4.937
 6338SOL     OW19912   3.009   1.528   4.263
 6338SOL    HW119913   3.095   1.502   4.220
 6338SOL    HW219914   2.998   1.476   4.348
 6339SOL     OW19915   1.057   3.749   3.054
 6339SOL    HW119916   1.089   3.687   2.983
 6339SOL    HW219917   0.984   3.704   3.106
 6340SOL     OW19918   2.308   3.596   1.218
 6340SOL    HW119919   2.257   3.535   1.278
 6340SOL    HW219920   2.247   3.633   1.147
 6341SOL     OW19921   0.967   3.740   3.487
 6341SOL    HW119922   0.954   3.701   3.578
 6341SOL    HW219923   1.052   3.706   3.448
 6342SOL     OW19924   3.358   1.575   0.794
 6342SOL    HW119925   3.264   1.563   0.828
 6342SOL    HW219926   3.395   1.486   0.767
 6343SOL     OW19927   3.801   6.499   0.010
 6343SOL    HW119928   3.734   6.447   6.977
 6343SOL    HW219929   3.788   6.597   7.011
 6344SOL     OW19930   5.962   2.361   3.796
 6344SOL    HW119931   5.887   2.376   3.732
 6344SOL    HW219932   6.049   2.378   3.749
 6345SOL     OW19933   5.062   3.295   1.965
 6345SOL    HW119934   5.053   3.394   1.954
 6345SOL    HW219935   5.016   3.249   1.889
 6346SOL     OW19936   6.650   4.397   4.933
 6346SOL    HW119937   6.677   4.466   5.000
 6346SOL    HW219938   6.706   4.315   4.945
 6347SOL     OW19939   2.472   1.552   2.187
 6347SOL    HW119940   2.564   1.580   2.214
 6347SOL    HW219941   2.473   1.524   2.091
 6348SOL     OW19942   1.129   1.866   5.961
 6348SOL    HW119943   1.107   1.920   6.042
 6348SOL    HW219944   1.182   1.785   5.988
 6349SOL     OW19945   1.477   0.288   0.243
 6349SOL    HW119946   1.454   0.303   0.339
 6349SOL    HW219947   1.563   0.237   0.237
 6350SOL     OW19948   0.877   4.989   2.722
 6350SOL    HW119949   0.857   5.087   2.724
 6350SOL    HW219950   0.795   4.939   2.693
 6351SOL     OW19951   6.245   3.938   3.714
 6351SOL    HW119952   6.255   4.036   3.730
 6351SOL    HW219953   6.147   3.915   3.708
 6352SOL     OW19954   2.512   0.658   3.528
 6352SOL    HW119955   2.563   0.737   3.494
 6352SOL    HW219956   2.564   0.574   3.511
 6353SOL     OW19957   2.486   5.155   0.134
 6353SOL    HW119958   2.559   5.173   0.200
 6353SOL    HW219959   2.400   5.140   0.183
 6354SOL     OW19960   4.113   5.675   2.599
 6354SOL    HW119961   4.193   5.683   2.658
 6354SOL    HW219962   4.041   5.624   2.647
 6355SOL     OW19963   3.037   5.686   0.739
 6355SOL    HW119964   3.068   5.781   0.733
 6355SOL    HW219965   3.109   5.629   0.777
 6356SOL     OW19966   5.260   4.976   0.166
 6356SOL    HW119967   5.348   4.978   0.213
 6356SOL    HW219968   5.187   4.969   0.233
 6357SOL     OW19969   5.802   2.988   1.653
 6357SOL    HW119970   5.761   2.908   1.697
 6357SOL    HW219971   5.804   2.974   1.554
 6358SOL     OW19972   0.790   2.143   6.743
 6358SOL    HW119973   0.757   2.064   6.691
 6358SOL    HW219974   0.857   2.113   6.811
 6359SOL     OW19975   5.949   6.503   0.760
 6359SOL    HW119976   6.000   6.537   0.839
 6359SOL    HW219977   6.012   6.487   0.684
 6360SOL     OW19978   0.550   3.431   3.982
 6360SOL    HW119979   0.627   3.488   4.009
 6360SOL    HW219980   0.548   3.349   4.039
 6361SOL     OW19981   0.504   0.945   0.516
 6361SOL    HW119982   0.533   0.877   0.583
 6361SOL    HW219983   0.436   0.904   0.455
 6362SOL     OW19984   1.678   6.348   6.753
 6362SOL    HW119985   1.713   6.274   6.810
 6362SOL    HW219986   1.753   6.407   6.725
 6363SOL     OW19987   2.733   4.681   3.970
 6363SOL    HW119988   2.665   4.685   3.897
 6363SOL    HW219989   2.814   4.733   3.942
 6364SOL     OW19990   2.158   1.928   5.035
 6364SOL    HW119991   2.255   1.921   5.015
 6364SOL    HW219992   2.144   1.976   5.121
 6365SOL     OW19993   5.884   6.068   4.815
 6365SOL    HW119994   5.937   6.044   4.896
 6365SOL    HW219995   5.796   6.106   4.843
 6366SOL     OW19996   6.677   6.872   4.894
 6366SOL    HW119997   6.626   6.853   4.977
 6366SOL    HW219998   6.618   6.859   4.814
 6367SOL     OW19999   3.401   1.876   2.599
 6367SOL    HW120000   3.350   1.912   2.521
 6367SOL    HW220001   3.406   1.776   2.593
 6368SOL     OW20002   4.276   4.631   4.189
 6368SOL    HW120003   4.286   4.620   4.288
 6368SOL    HW220004   4.207   4.700   4.170
 6369SOL     OW20005   2.157   6.571   4.798
 6369SOL    HW120006   2.175   6.658   4.843
 6369SOL    HW220007   2.064   6.570   4.761
 6370SOL     OW20008   5.151   3.834   3.821
 6370SOL    HW120009   5.057   3.815   3.793
 6370SOL    HW220010   5.155   3.846   3.920
 6371SOL     OW20011   5.523   3.945   1.659
 6371SOL    HW120012   5.462   3.957   1.737
 6371SOL    HW220013   5.505   3.856   1.617
 6372SOL     OW20014   0.231   0.841   2.466
 6372SOL    HW120015   0.328   0.864   2.459
 6372SOL    HW220016   0.216   0.749   2.430
 6373SOL     OW20017   5.812   3.913   2.226
 6373SOL    HW120018   5.832   3.889   2.131
 6373SOL    HW220019   5.789   4.010   2.232
 6374SOL     OW20020   4.268   2.559   0.116
 6374SOL    HW120021   4.343   2.565   0.050
 6374SOL    HW220022   4.304   2.575   0.208
 6375SOL     OW20023   1.230   2.621   2.274
 6375SOL    HW120024   1.241   2.709   2.226
 6375SOL    HW220025   1.226   2.637   2.373
 6376SOL     OW20026   3.986   1.531   5.929
 6376SOL    HW120027   4.079   1.568   5.938
 6376SOL    HW220028   3.983   1.466   5.853
 6377SOL     OW20029   6.918   1.192   5.766
 6377SOL    HW120030   6.966   1.166   5.849
 6377SOL    HW220031   6.982   1.199   5.690
 6378SOL     OW20032   4.881   5.708   3.503
 6378SOL    HW120033   4.790   5.682   3.537
 6378SOL    HW220034   4.878   5.803   3.470
 6379SOL     OW20035   1.097   4.382   5.602
 6379SOL    HW120036   1.128   4.288   5.593
 6379SOL    HW220037   1.136   4.423   5.684
 6380SOL     OW20038   0.530   3.211   4.135
 6380SOL    HW120039   0.584   3.185   4.215
 6380SOL    HW220040   0.509   3.130   4.081
 6381SOL     OW20041   4.066   2.645   0.358
 6381SOL    HW120042   4.142   2.659   0.421
 6381SOL    HW220043   4.057   2.548   0.337
 6382SOL     OW20044   2.881   1.603   1.285
 6382SOL    HW120045   2.906   1.635   1.376
 6382SOL    HW220046   2.816   1.528   1.293
 6383SOL     OW20047   1.417   2.378   2.340
 6383SOL    HW120048   1.504   2.427   2.345
 6383SOL    HW220049   1.343   2.443   2.326
 6384SOL     OW20050   5.827   2.985   2.287
 6384SOL    HW120051   5.834   3.063   2.349
 6384SOL    HW220052   5.758   2.921   2.321
 6385SOL     OW20053   6.676   4.047   1.779
 6385SOL    HW120054   6.662   4.033   1.681
 6385SOL    HW220055   6.649   4.140   1.803
 6386SOL     OW20056   1.770   3.919   0.307
 6386SOL    HW120057   1.828   3.846   0.270
 6386SOL    HW220058   1.678   3.882   0.324
 6387SOL     OW20059   6.087   1.230   0.392
 6387SOL    HW120060   6.064   1.135   0.412
 6387SOL    HW220061   6.139   1.235   0.308
 6388SOL     OW20062   6.310   4.558   2.235
 6388SOL    HW120063   6.336   4.631   2.297
 6388SOL    HW220064   6.261   4.597   2.157
 6389SOL     OW20065   1.568   6.837   1.248
 6389SOL    HW120066   1.660   6.832   1.286
 6389SOL    HW220067   1.534   6.930   1.256
 6390SOL     OW20068   5.941   0.690   6.628
 6390SOL    HW120069   5.999   0.763   6.591
 6390SOL    HW220070   5.974   0.602   6.594
 6391SOL     OW20071   1.531   1.314   6.382
 6391SOL    HW120072   1.435   1.343   6.388
 6391SOL    HW220073   1.536   1.215   6.369
 6392SOL     OW20074   3.426   6.039   3.768
 6392SOL    HW120075   3.443   6.135   3.745
 6392SOL    HW220076   3.352   6.003   3.711
 6393SOL     OW20077   5.764   5.893   1.517
 6393SOL    HW120078   5.732   5.911   1.610
 6393SOL    HW220079   5.690   5.855   1.462
 6394SOL     OW20080   1.366   4.665   1.124
 6394SOL    HW120081   1.346   4.568   1.115
 6394SOL    HW220082   1.452   4.678   1.173
 6395SOL     OW20083   0.098   3.534   2.286
 6395SOL    HW120084   0.121   3.623   2.326
 6395SOL    HW220085   0.001   3.531   2.263
 6396SOL     OW20086   6.293   3.702   5.913
 6396SOL    HW120087   6.330   3.715   6.006
 6396SOL    HW220088   6.340   3.764   5.850
 6397SOL     OW20089   6.120   1.072   2.303
 6397SOL    HW120090   6.061   1.088   2.382
 6397SOL    HW220091   6.086   1.124   2.225
 6398SOL     OW20092   1.426   6.964   1.513
 6398SOL    HW120093   1.507   6.920   1.551
 6398SOL    HW220094   1.451   7.014   1.430
 6399SOL     OW20095   1.972   0.082   0.045
 6399SOL    HW120096   2.025   0.026   0.108
 6399SOL    HW220097   1.895   0.124   0.093
 6400SOL     OW20098   2.102   5.256   2.628
 6400SOL    HW120099   2.163   5.318   2.677
 6400SOL    HW220100   2.007   5.283   2.645
 6401SOL     OW20101   4.678   4.986   2.986
 6401SOL    HW120102   4.649   5.072   3.028
 6401SOL    HW220103   4.693   4.917   3.057
 6402SOL     OW20104   1.785   3.399   3.558
 6402SOL    HW120105   1.808   3.302   3.568
 6402SOL    HW220106   1.780   3.422   3.460
 6403SOL     OW20107   5.458   6.496   5.094
 6403SOL    HW120108   5.511   6.580   5.104
 6403SOL    HW220109   5.412   6.496   5.005
 6404SOL     OW20110   3.695   1.425   2.632
 6404SOL    HW120111   3.680   1.472   2.719
 6404SOL    HW220112   3.699   1.492   2.558
 6405SOL     OW20113   4.542   1.704   4.238
 6405SOL    HW120114   4.620   1.654   4.276
 6405SOL    HW220115   4.551   1.709   4.139
 6406SOL     OW20116   1.368   3.385   2.641
 6406SOL    HW120117   1.364   3.447   2.720
 6406SOL    HW220118   1.421   3.304   2.665
 6407SOL     OW20119   1.680   6.448   3.197
 6407SOL    HW120120   1.675   6.509   3.118
 6407SOL    HW220121   1.596   6.394   3.202
 6408SOL     OW20122   6.101   0.491   1.045
 6408SOL    HW120123   6.071   0.576   1.002
 6408SOL    HW220124   6.108   0.503   1.144
 6409SOL     OW20125   6.763   4.746   3.227
 6409SOL    HW120126   6.765   4.679   3.153
 6409SOL    HW220127   6.668   4.762   3.255
 6410SOL     OW20128   2.522   1.437   6.631
 6410SOL    HW120129   2.585   1.475   6.563
 6410SOL    HW220130   2.441   1.494   6.636
 6411SOL     OW20131   0.619   2.986   2.311
 6411SOL    HW120132   0.708   2.957   2.273
 6411SOL    HW220133   0.551   2.988   2.238
 6412SOL     OW20134   3.038   0.614   6.419
 6412SOL    HW120135   2.960   0.614   6.481
 6412SOL    HW220136   3.007   0.602   6.325
 6413SOL     OW20137   4.097   4.779   4.434
 6413SOL    HW120138   4.024   4.724   4.474
 6413SOL    HW220139   4.083   4.789   4.336
 6414SOL     OW20140   6.785   7.002   6.559
 6414SOL    HW120141   6.861   6.996   6.494
 6414SOL    HW220142   6.758   6.910   6.588
 6415SOL     OW20143   1.572   3.252   3.418
 6415SOL    HW120144   1.501   3.218   3.480
 6415SOL    HW220145   1.561   3.351   3.407
 6416SOL     OW20146   2.903   6.715   6.682
 6416SOL    HW120147   2.910   6.696   6.780
 6416SOL    HW220148   2.893   6.814   6.668
 6417SOL     OW20149   5.017   2.291   1.111
 6417SOL    HW120150   4.919   2.287   1.089
 6417SOL    HW220151   5.062   2.357   1.050
 6418SOL     OW20152   4.844   4.296   2.905
 6418SOL    HW120153   4.864   4.392   2.925
 6418SOL    HW220154   4.813   4.288   2.810
 6419SOL     OW20155   0.391   5.404   5.482
 6419SOL    HW120156   0.313   5.433   5.427
 6419SOL    HW220157   0.394   5.304   5.486
 6420SOL     OW20158   1.631   1.746   3.937
 6420SOL    HW120159   1.711   1.803   3.917
 6420SOL    HW220160   1.610   1.690   3.857
 6421SOL     OW20161   4.932   0.501   1.054
 6421SOL    HW120162   4.922   0.526   0.958
 6421SOL    HW220163   4.921   0.583   1.111
 6422SOL     OW20164   6.851   1.641   5.587
 6422SOL    HW120165   6.797   1.599   5.659
 6422SOL    HW220166   6.892   1.726   5.621
 6423SOL     OW20167   4.430   5.587   4.729
 6423SOL    HW120168   4.516   5.574   4.678
 6423SOL    HW220169   4.361   5.525   4.693
 6424SOL     OW20170   0.995   3.444   4.616
 6424SOL    HW120171   1.094   3.439   4.633
 6424SOL    HW220172   0.952   3.497   4.689
 6425SOL     OW20173   0.431   5.642   2.806
 6425SOL    HW120174   0.504   5.689   2.756
 6425SOL    HW220175   0.342   5.672   2.770
 6426SOL     OW20176   5.771   4.688   4.060
 6426SOL    HW120177   5.833   4.749   4.010
 6426SOL    HW220178   5.774   4.710   4.157
 6427SOL     OW20179   3.150   3.952   3.209
 6427SOL    HW120180   3.081   3.886   3.237
 6427SOL    HW220181   3.136   3.978   3.114
 6428SOL     OW20182   5.439   3.154   0.150
 6428SOL    HW120183   5.450   3.251   0.129
 6428SOL    HW220184   5.510   3.125   0.213
 6429SOL     OW20185   1.179   0.518   5.011
 6429SOL    HW120186   1.202   0.614   4.997
 6429SOL    HW220187   1.253   0.474   5.063
 6430SOL     OW20188   6.456   0.662   4.634
 6430SOL    HW120189   6.553   0.667   4.610
 6430SOL    HW220190   6.402   0.706   4.562
 6431SOL     OW20191   4.500   5.225   2.831
 6431SOL    HW120192   4.407   5.193   2.812
 6431SOL    HW220193   4.511   5.237   2.929
 6432SOL     OW20194   3.440   3.905   6.135
 6432SOL    HW120195   3.398   3.848   6.064
 6432SOL    HW220196   3.538   3.884   6.140
 6433SOL     OW20197   3.205   5.201   0.220
 6433SOL    HW120198   3.259   5.257   0.282
 6433SOL    HW220199   3.233   5.219   0.125
 6434SOL     OW20200   2.529   6.724   6.113
 6434SOL    HW120201   2.444   6.701   6.160
 6434SOL    HW220202   2.509   6.749   6.018
 6435SOL     OW20203   6.087   0.048   0.324
 6435SOL    HW120204   6.155   6.996   0.339
 6435SOL    HW220205   6.124   0.136   0.354
 6436SOL     OW20206   0.690   3.369   3.440
 6436SOL    HW120207   0.691   3.434   3.516
 6436SOL    HW220208   0.641   3.286   3.468
 6437SOL     OW20209   1.106   1.979   5.456
 6437SOL    HW120210   1.109   1.985   5.556
 6437SOL    HW220211   1.132   1.887   5.427
 6438SOL     OW20212   1.263   5.089   6.200
 6438SOL    HW120213   1.192   5.080   6.130
 6438SOL    HW220214   1.349   5.119   6.156
 6439SOL     OW20215   6.156   1.157   2.877
 6439SOL    HW120216   6.164   1.127   2.972
 6439SOL    HW220217   6.247   1.159   2.835
 6440SOL     OW20218   2.598   1.135   6.447
 6440SOL    HW120219   2.678   1.121   6.388
 6440SOL    HW220220   2.593   1.232   6.474
 6441SOL     OW20221   0.142   1.029   2.634
 6441SOL    HW120222   0.049   1.063   2.616
 6441SOL    HW220223   0.170   0.967   2.560
 6442SOL     OW20224   2.639   2.053   4.896
 6442SOL    HW120225   2.591   2.135   4.925
 6442SOL    HW220226   2.685   2.011   4.974
 6443SOL     OW20227   3.599   2.276   6.205
 6443SOL    HW120228   3.674   2.337   6.228
 6443SOL    HW220229   3.606   2.249   6.109
 6444SOL     OW20230   6.788   2.758   4.660
 6444SOL    HW120231   6.727   2.685   4.690
 6444SOL    HW220232   6.867   2.763   4.721
 6445SOL     OW20233   3.705   3.263   3.134
 6445SOL    HW120234   3.621   3.211   3.151
 6445SOL    HW220235   3.682   3.351   3.092
 6446SOL     OW20236   0.930   2.033   0.045
 6446SOL    HW120237   0.880   1.967   0.101
 6446SOL    HW220238   0.981   1.984   6.993
 6447SOL     OW20239   6.900   4.360   1.982
 6447SOL    HW120240   6.933   4.337   2.073
 6447SOL    HW220241   6.929   4.453   1.958
 6448SOL     OW20242   4.946   5.478   1.489
 6448SOL    HW120243   4.863   5.451   1.537
 6448SOL    HW220244   5.001   5.397   1.470
 6449SOL     OW20245   2.510   4.903   1.891
 6449SOL    HW120246   2.575   4.977   1.908
 6449SOL    HW220247   2.420   4.928   1.924
 6450SOL     OW20248   1.121   3.790   0.388
 6450SOL    HW120249   1.131   3.726   0.312
 6450SOL    HW220250   1.174   3.873   0.370
 6451SOL     OW20251   3.132   1.897   6.057
 6451SOL    HW120252   3.128   1.913   5.959
 6451SOL    HW220253   3.040   1.886   6.094
 6452SOL     OW20254   5.085   4.225   2.437
 6452SOL    HW120255   5.025   4.165   2.491
 6452SOL    HW220256   5.147   4.273   2.498
 6453SOL     OW20257   3.198   6.783   1.209
 6453SOL    HW120258   3.229   6.787   1.115
 6453SOL    HW220259   3.126   6.714   1.218
 6454SOL     OW20260   0.331   1.635   1.614
 6454SOL    HW120261   0.322   1.690   1.531
 6454SOL    HW220262   0.299   1.688   1.693
 6455SOL     OW20263   6.478   3.382   3.519
 6455SOL    HW120264   6.558   3.385   3.460
 6455SOL    HW220265   6.396   3.365   3.463
 6456SOL     OW20266   1.013   0.459   2.868
 6456SOL    HW120267   0.959   0.507   2.800
 6456SOL    HW220268   1.024   0.517   2.949
 6457SOL     OW20269   4.810   6.614   1.957
 6457SOL    HW120270   4.862   6.529   1.943
 6457SOL    HW220271   4.867   6.680   2.005
 6458SOL     OW20272   1.374   4.934   4.624
 6458SOL    HW120273   1.342   5.026   4.646
 6458SOL    HW220274   1.383   4.925   4.525
 6459SOL     OW20275   6.218   2.042   2.827
 6459SOL    HW120276   6.157   1.995   2.763
 6459SOL    HW220277   6.305   1.993   2.832
 6460SOL     OW20278   5.856   5.850   5.824
 6460SOL    HW120279   5.860   5.812   5.917
 6460SOL    HW220280   5.761   5.859   5.796
 6461SOL     OW20281   3.158   4.933   0.295
 6461SOL    HW120282   3.180   5.027   0.271
 6461SOL    HW220283   3.232   4.872   0.264
 6462SOL     OW20284   0.859   2.935   4.424
 6462SOL    HW120285   0.913   2.984   4.354
 6462SOL    HW220286   0.810   2.860   4.380
 6463SOL     OW20287   5.417   6.891   0.792
 6463SOL    HW120288   5.491   6.825   0.786
 6463SOL    HW220289   5.417   6.933   0.883
 6464SOL     OW20290   1.311   5.381   4.883
 6464SOL    HW120291   1.268   5.458   4.836
 6464SOL    HW220292   1.249   5.345   4.952
 6465SOL     OW20293   6.488   2.329   2.228
 6465SOL    HW120294   6.392   2.313   2.205
 6465SOL    HW220295   6.523   2.253   2.283
 6466SOL     OW20296   6.961   2.214   6.601
 6466SOL    HW120297   0.039   2.229   6.583
 6466SOL    HW220298   6.907   2.264   6.533
 6467SOL     OW20299   4.415   0.796   0.417
 6467SOL    HW120300   4.439   0.888   0.450
 6467SOL    HW220301   4.486   0.764   0.355
 6468SOL     OW20302   3.493   6.279   1.471
 6468SOL    HW120303   3.467   6.268   1.375
 6468SOL    HW220304   3.500   6.377   1.492
 6469SOL     OW20305   3.230   2.051   4.182
 6469SOL    HW120306   3.274   2.089   4.263
 6469SOL    HW220307   3.246   1.952   4.180
 6470SOL     OW20308   5.534   2.461   0.399
 6470SOL    HW120309   5.601   2.422   0.461
 6470SOL    HW220310   5.454   2.492   0.451
 6471SOL     OW20311   0.726   6.181   5.192
 6471SOL    HW120312   0.656   6.235   5.238
 6471SOL    HW220313   0.729   6.089   5.231
 6472SOL     OW20314   6.172   5.887   2.363
 6472SOL    HW120315   6.234   5.887   2.441
 6472SOL    HW220316   6.190   5.807   2.306
 6473SOL     OW20317   1.685   1.608   4.670
 6473SOL    HW120318   1.783   1.597   4.683
 6473SOL    HW220319   1.668   1.673   4.596
 6474SOL     OW20320   3.878   5.575   5.679
 6474SOL    HW120321   3.963   5.565   5.628
 6474SOL    HW220322   3.801   5.559   5.618
 6475SOL     OW20323   5.813   5.040   4.046
 6475SOL    HW120324   5.846   5.001   3.960
 6475SOL    HW220325   5.716   5.061   4.038
 6476SOL     OW20326   4.163   2.760   6.363
 6476SOL    HW120327   4.175   2.856   6.338
 6476SOL    HW220328   4.209   2.742   6.450
 6477SOL     OW20329   6.662   5.290   0.881
 6477SOL    HW120330   6.732   5.263   0.947
 6477SOL    HW220331   6.581   5.323   0.929
 6478SOL     OW20332   2.595   6.177   2.044
 6478SOL    HW120333   2.692   6.191   2.022
 6478SOL    HW220334   2.573   6.227   2.128
 6479SOL     OW20335   3.093   4.999   4.115
 6479SOL    HW120336   3.125   4.954   4.199
 6479SOL    HW220337   3.000   5.031   4.128
 6480SOL     OW20338   2.240   1.578   0.004
 6480SOL    HW120339   2.300   1.521   6.967
 6480SOL    HW220340   2.292   1.615   0.081
 6481SOL     OW20341   3.351   2.778   1.732
 6481SOL    HW120342   3.313   2.699   1.684
 6481SOL    HW220343   3.449   2.764   1.745
 6482SOL     OW20344   6.322   2.316   5.575
 6482SOL    HW120345   6.403   2.374   5.590
 6482SOL    HW220346   6.346   2.242   5.512
 6483SOL     OW20347   0.645   6.376   4.163
 6483SOL    HW120348   0.686   6.466   4.153
 6483SOL    HW220349   0.550   6.386   4.191
 6484SOL     OW20350   2.444   1.647   2.594
 6484SOL    HW120351   2.462   1.604   2.682
 6484SOL    HW220352   2.485   1.738   2.592
 6485SOL     OW20353   2.301   5.691   4.356
 6485SOL    HW120354   2.364   5.730   4.424
 6485SOL    HW220355   2.350   5.626   4.298
 6486SOL     OW20356   0.591   5.089   2.821
 6486SOL    HW120357   0.663   5.151   2.790
 6486SOL    HW220358   0.542   5.131   2.898
 6487SOL     OW20359   1.421   6.506   4.515
 6487SOL    HW120360   1.418   6.606   4.515
 6487SOL    HW220361   1.514   6.476   4.537
 6488SOL     OW20362   4.543   5.944   4.929
 6488SOL    HW120363   4.525   5.919   4.834
 6488SOL    HW220364   4.541   6.043   4.939
 6489SOL     OW20365   3.144   3.487   6.289
 6489SOL    HW120366   3.047   3.504   6.305
 6489SOL    HW220367   3.193   3.489   6.376
 6490SOL     OW20368   2.506   1.793   6.467
 6490SOL    HW120369   2.570   1.724   6.499
 6490SOL    HW220370   2.458   1.834   6.545
 6491SOL     OW20371   2.447   0.921   1.657
 6491SOL    HW120372   2.510   0.857   1.701
 6491SOL    HW220373   2.387   0.961   1.727
 6492SOL     OW20374   4.111   3.684   4.504
 6492SOL    HW120375   4.065   3.767   4.473
 6492SOL    HW220376   4.154   3.700   4.593
 6493SOL     OW20377   1.279   4.664   6.400
 6493SOL    HW120378   1.307   4.750   6.442
 6493SOL    HW220379   1.223   4.612   6.465
 6494SOL     OW20380   6.718   6.653   2.327
 6494SOL    HW120381   6.634   6.706   2.327
 6494SOL    HW220382   6.748   6.639   2.232
 6495SOL     OW20383   0.086   0.239   4.404
 6495SOL    HW120384   0.088   0.172   4.479
 6495SOL    HW220385   0.028   0.316   4.430
 6496SOL     OW20386   5.720   6.759   1.263
 6496SOL    HW120387   5.714   6.856   1.239
 6496SOL    HW220388   5.634   6.730   1.306
 6497SOL     OW20389   1.272   0.839   0.855
 6497SOL    HW120390   1.337   0.883   0.794
 6497SOL    HW220391   1.190   0.813   0.804
 6498SOL     OW20392   1.012   3.784   3.971
 6498SOL    HW120393   1.087   3.850   3.968
 6498SOL    HW220394   0.995   3.757   4.066
 6499SOL     OW20395   5.455   3.643   4.258
 6499SOL    HW120396   5.462   3.673   4.163
 6499SOL    HW220397   5.539   3.596   4.284
 6500SOL     OW20398   0.392   4.041   1.982
 6500SOL    HW120399   0.468   4.105   1.977
 6500SOL    HW220400   0.348   4.033   1.892
 6501SOL     OW20401   0.741   0.982   1.274
 6501SOL    HW120402   0.747   0.950   1.369
 6501SOL    HW220403   0.700   1.073   1.272
 6502SOL     OW20404   6.731   3.612   1.459
 6502SOL    HW120405   6.721   3.543   1.531
 6502SOL    HW220406   6.757   3.568   1.374
 6503SOL     OW20407   5.864   0.661   4.265
 6503SOL    HW120408   5.780   0.649   4.318
 6503SOL    HW220409   5.856   0.741   4.207
 6504SOL     OW20410   4.940   6.271   0.032
 6504SOL    HW120411   4.861   6.210   0.031
 6504SOL    HW220412   4.912   6.363   0.005
 6505SOL     OW20413   5.240   6.751   6.596
 6505SOL    HW120414   5.254   6.789   6.687
 6505SOL    HW220415   5.267   6.654   6.596
 6506SOL     OW20416   6.865   3.091   3.389
 6506SOL    HW120417   6.892   3.074   3.294
 6506SOL    HW220418   6.939   3.138   3.437
 6507SOL     OW20419   2.773   5.856   6.427
 6507SOL    HW120420   2.681   5.869   6.391
 6507SOL    HW220421   2.770   5.858   6.527
 6508SOL     OW20422   1.959   0.326   2.866
 6508SOL    HW120423   1.997   0.266   2.935
 6508SOL    HW220424   1.875   0.368   2.901
 6509SOL     OW20425   5.121   1.419   4.946
 6509SOL    HW120426   5.220   1.409   4.959
 6509SOL    HW220427   5.076   1.421   5.035
 6510SOL     OW20428   4.313   5.562   6.998
 6510SOL    HW120429   4.397   5.512   6.977
 6510SOL    HW220430   4.239   5.527   6.940
 6511SOL     OW20431   4.196   0.922   5.230
 6511SOL    HW120432   4.214   1.009   5.184
 6511SOL    HW220433   4.128   0.935   5.302
 6512SOL     OW20434   3.132   6.768   2.846
 6512SOL    HW120435   3.206   6.702   2.857
 6512SOL    HW220436   3.061   6.751   2.914
 6513SOL     OW20437   2.153   5.895   4.263
 6513SOL    HW120438   2.058   5.880   4.288
 6513SOL    HW220439   2.207   5.814   4.283
 6514SOL     OW20440   5.788   0.484   4.833
 6514SOL    HW120441   5.811   0.581   4.826
 6514SOL    HW220442   5.772   0.446   4.742
 6515SOL     OW20443   1.251   3.798   2.621
 6515SOL    HW120444   1.290   3.830   2.535
 6515SOL    HW220445   1.153   3.818   2.622
 6516SOL     OW20446   6.551   3.319   1.983
 6516SOL    HW120447   6.529   3.260   1.905
 6516SOL    HW220448   6.466   3.354   2.023
 6517SOL     OW20449   0.132   2.114   0.895
 6517SOL    HW120450   0.034   2.132   0.893
 6517SOL    HW220451   0.169   2.122   0.802
 6518SOL     OW20452   6.458   0.383   2.248
 6518SOL    HW120453   6.383   0.323   2.221
 6518SOL    HW220454   6.421   0.474   2.268
 6519SOL     OW20455   0.655   1.037   3.080
 6519SOL    HW120456   0.737   1.095   3.080
 6519SOL    HW220457   0.674   0.952   3.128
 6520SOL     OW20458   6.970   5.364   6.840
 6520SOL    HW120459   0.001   5.309   6.774
 6520SOL    HW220460   6.891   5.407   6.795
 6521SOL     OW20461   1.328   2.921   3.580
 6521SOL    HW120462   1.364   2.835   3.616
 6521SOL    HW220463   1.253   2.901   3.516
 6522SOL     OW20464   2.097   4.409   5.456
 6522SOL    HW120465   2.052   4.395   5.544
 6522SOL    HW220466   2.029   4.422   5.385
 6523SOL     OW20467   4.268   6.941   0.388
 6523SOL    HW120468   4.333   6.891   0.445
 6523SOL    HW220469   4.196   6.878   0.358
 6524SOL     OW20470   2.768   2.241   1.739
 6524SOL    HW120471   2.819   2.281   1.814
 6524SOL    HW220472   2.825   2.239   1.657
 6525SOL     OW20473   2.105   5.443   3.336
 6525SOL    HW120474   2.060   5.435   3.425
 6525SOL    HW220475   2.154   5.358   3.315
 6526SOL     OW20476   0.820   0.470   1.351
 6526SOL    HW120477   0.870   0.556   1.336
 6526SOL    HW220478   0.829   0.412   1.270
 6527SOL     OW20479   0.351   2.100   0.162
 6527SOL    HW120480   0.310   2.014   0.131
 6527SOL    HW220481   0.281   2.160   0.199
 6528SOL     OW20482   6.516   1.388   6.020
 6528SOL    HW120483   6.436   1.448   6.030
 6528SOL    HW220484   6.496   1.299   6.061
 6529SOL     OW20485   1.279   0.401   2.439
 6529SOL    HW120486   1.280   0.325   2.504
 6529SOL    HW220487   1.345   0.384   2.366
 6530SOL     OW20488   0.445   1.781   0.835
 6530SOL    HW120489   0.452   1.876   0.866
 6530SOL    HW220490   0.461   1.719   0.911
 6531SOL     OW20491   4.706   3.782   5.620
 6531SOL    HW120492   4.698   3.761   5.522
 6531SOL    HW220493   4.791   3.743   5.656
 6532SOL     OW20494   2.012   0.947   1.318
 6532SOL    HW120495   1.979   0.895   1.397
 6532SOL    HW220496   2.093   0.903   1.279
 6533SOL     OW20497   4.447   6.234   0.620
 6533SOL    HW120498   4.486   6.153   0.575
 6533SOL    HW220499   4.521   6.298   0.642
 6534SOL     OW20500   4.880   5.089   2.010
 6534SOL    HW120501   4.852   5.022   2.079
 6534SOL    HW220502   4.798   5.132   1.971
 6535SOL     OW20503   5.861   4.570   4.646
 6535SOL    HW120504   5.956   4.590   4.670
 6535SOL    HW220505   5.801   4.610   4.714
 6536SOL     OW20506   0.123   1.838   5.110
 6536SOL    HW120507   0.144   1.885   5.024
 6536SOL    HW220508   0.070   1.755   5.090
 6537SOL     OW20509   0.007   4.928   4.546
 6537SOL    HW120510   0.100   4.958   4.526
 6537SOL    HW220511   7.008   4.843   4.497
 6538SOL     OW20512   1.033   3.859   5.384
 6538SOL    HW120513   1.042   3.762   5.409
 6538SOL    HW220514   1.081   3.874   5.297
 6539SOL     OW20515   4.618   0.287   6.947
 6539SOL    HW120516   4.618   0.274   6.848
 6539SOL    HW220517   4.588   0.202   6.992
 6540SOL     OW20518   2.449   2.513   5.944
 6540SOL    HW120519   2.490   2.428   5.975
 6540SOL    HW220520   2.522   2.576   5.915
 6541SOL     OW20521   5.314   2.555   5.681
 6541SOL    HW120522   5.341   2.571   5.776
 6541SOL    HW220523   5.215   2.547   5.675
 6542SOL     OW20524   1.454   3.012   4.736
 6542SOL    HW120525   1.503   3.064   4.805
 6542SOL    HW220526   1.393   2.946   4.780
 6543SOL     OW20527   3.900   2.506   5.901
 6543SOL    HW120528   3.835   2.524   5.827
 6543SOL    HW220529   3.909   2.587   5.958
 6544SOL     OW20530   0.704   6.781   2.371
 6544SOL    HW120531   0.739   6.771   2.278
 6544SOL    HW220532   0.617   6.831   2.369
 6545SOL     OW20533   3.876   6.886   0.538
 6545SOL    HW120534   3.879   6.974   0.586
 6545SOL    HW220535   3.899   6.900   0.442
 6546SOL     OW20536   4.053   4.111   6.127
 6546SOL    HW120537   4.128   4.046   6.133
 6546SOL    HW220538   4.010   4.122   6.216
 6547SOL     OW20539   5.095   0.777   6.135
 6547SOL    HW120540   5.065   0.729   6.053
 6547SOL    HW220541   5.039   0.750   6.212
 6548SOL     OW20542   1.363   2.915   0.310
 6548SOL    HW120543   1.410   2.870   0.387
 6548SOL    HW220544   1.267   2.931   0.334
 6549SOL     OW20545   4.728   0.308   1.989
 6549SOL    HW120546   4.732   0.353   1.899
 6549SOL    HW220547   4.660   0.235   1.987
 6550SOL     OW20548   6.964   6.973   3.728
 6550SOL    HW120549   6.959   0.047   3.693
 6550SOL    HW220550   0.034   6.934   3.706
 6551SOL     OW20551   2.612   3.395   1.792
 6551SOL    HW120552   2.642   3.458   1.721
 6551SOL    HW220553   2.516   3.413   1.815
 6552SOL     OW20554   2.494   0.150   0.882
 6552SOL    HW120555   2.396   0.131   0.892
 6552SOL    HW220556   2.541   0.066   0.852
 6553SOL     OW20557   0.612   1.922   3.344
 6553SOL    HW120558   0.579   1.834   3.310
 6553SOL    HW220559   0.555   1.995   3.307
 6554SOL     OW20560   2.467   0.795   4.588
 6554SOL    HW120561   2.438   0.886   4.559
 6554SOL    HW220562   2.467   0.790   4.688
 6555SOL     OW20563   5.816   1.717   3.734
 6555SOL    HW120564   5.833   1.637   3.790
 6555SOL    HW220565   5.722   1.749   3.749
 6556SOL     OW20566   5.871   3.133   2.970
 6556SOL    HW120567   5.937   3.186   3.023
 6556SOL    HW220568   5.779   3.152   3.002
 6557SOL     OW20569   2.693   0.791   2.686
 6557SOL    HW120570   2.707   0.852   2.608
 6557SOL    HW220571   2.595   0.782   2.704
 6558SOL     OW20572   5.871   5.725   0.289
 6558SOL    HW120573   5.942   5.671   0.335
 6558SOL    HW220574   5.821   5.780   0.357
 6559SOL     OW20575   6.973   3.669   5.929
 6559SOL    HW120576   6.882   3.687   5.966
 6559SOL    HW220577   6.966   3.650   5.831
 6560SOL     OW20578   3.776   4.852   1.042
 6560SOL    HW120579   3.742   4.929   0.988
 6560SOL    HW220580   3.873   4.837   1.023
 6561SOL     OW20581   3.829   4.558   1.158
 6561SOL    HW120582   3.884   4.614   1.096
 6561SOL    HW220583   3.867   4.562   1.250
 6562SOL     OW20584   5.552   2.270   1.153
 6562SOL    HW120585   5.456   2.259   1.178
 6562SOL    HW220586   5.598   2.331   1.217
 6563SOL     OW20587   5.270   0.120   5.681
 6563SOL    HW120588   5.243   0.081   5.592
 6563SOL    HW220589   5.285   0.046   5.746
 6564SOL     OW20590   6.481   3.144   1.783
 6564SOL    HW120591   6.507   3.191   1.699
 6564SOL    HW220592   6.384   3.120   1.780
 6565SOL     OW20593   6.097   6.151   2.960
 6565SOL    HW120594   6.163   6.226   2.950
 6565SOL    HW220595   6.103   6.091   2.881
 6566SOL     OW20596   3.356   5.537   2.214
 6566SOL    HW120597   3.343   5.636   2.223
 6566SOL    HW220598   3.374   5.497   2.304
 6567SOL     OW20599   4.974   1.093   1.713
 6567SOL    HW120600   4.898   1.076   1.776
 6567SOL    HW220601   5.042   1.150   1.758
 6568SOL     OW20602   3.665   1.912   3.209
 6568SOL    HW120603   3.605   1.985   3.178
 6568SOL    HW220604   3.657   1.902   3.308
 6569SOL     OW20605   1.679   3.263   6.312
 6569SOL    HW120606   1.661   3.179   6.260
 6569SOL    HW220607   1.736   3.241   6.391
 6570SOL     OW20608   3.321   0.977   2.731
 6570SOL    HW120609   3.247   1.044   2.736
 6570SOL    HW220610   3.283   0.888   2.706
 6571SOL     OW20611   2.740   4.947   2.494
 6571SOL    HW120612   2.646   4.915   2.493
 6571SOL    HW220613   2.780   4.931   2.585
 6572SOL     OW20614   0.119   4.334   4.177
 6572SOL    HW120615   0.189   4.400   4.148
 6572SOL    HW220616   0.029   4.378   4.174
 6573SOL     OW20617   0.994   0.672   3.408
 6573SOL    HW120618   0.937   0.645   3.330
 6573SOL    HW220619   1.078   0.617   3.407
 6574SOL     OW20620   2.464   5.835   3.205
 6574SOL    HW120621   2.435   5.874   3.292
 6574SOL    HW220622   2.560   5.807   3.211
 6575SOL     OW20623   0.370   6.447   3.356
 6575SOL    HW120624   0.465   6.480   3.359
 6575SOL    HW220625   0.310   6.517   3.396
 6576SOL     OW20626   3.108   5.931   0.662
 6576SOL    HW120627   3.119   6.029   0.681
 6576SOL    HW220628   3.140   5.911   0.569
 6577SOL     OW20629   1.172   1.838   3.281
 6577SOL    HW120630   1.202   1.906   3.348
 6577SOL    HW220631   1.077   1.855   3.256
 6578SOL     OW20632   1.022   6.019   1.839
 6578SOL    HW120633   0.964   6.074   1.779
 6578SOL    HW220634   1.115   6.017   1.803
 6579SOL     OW20635   0.186   2.991   4.218
 6579SOL    HW120636   0.104   3.043   4.241
 6579SOL    HW220637   0.244   2.983   4.300
 6580SOL     OW20638   0.650   1.788   0.329
 6580SOL    HW120639   0.749   1.780   0.338
 6580SOL    HW220640   0.624   1.885   0.331
 6581SOL     OW20641   1.883   0.996   1.070
 6581SOL    HW120642   1.847   0.903   1.072
 6581SOL    HW220643   1.932   1.014   1.155
 6582SOL     OW20644   0.186   0.140   2.831
 6582SOL    HW120645   0.201   0.204   2.756
 6582SOL    HW220646   0.096   0.097   2.820
 6583SOL     OW20647   5.104   6.265   5.104
 6583SOL    HW120648   5.005   6.259   5.112
 6583SOL    HW220649   5.146   6.260   5.195
 6584SOL     OW20650   3.423   2.023   0.801
 6584SOL    HW120651   3.423   1.971   0.886
 6584SOL    HW220652   3.500   1.993   0.745
 6585SOL     OW20653   6.545   6.376   6.786
 6585SOL    HW120654   6.526   6.278   6.780
 6585SOL    HW220655   6.643   6.390   6.801
 6586SOL     OW20656   6.599   1.797   6.014
 6586SOL    HW120657   6.612   1.774   6.111
 6586SOL    HW220658   6.538   1.731   5.972
 6587SOL     OW20659   1.481   4.843   6.653
 6587SOL    HW120660   1.385   4.871   6.647
 6587SOL    HW220661   1.535   4.915   6.697
 6588SOL     OW20662   0.546   3.478   1.509
 6588SOL    HW120663   0.545   3.410   1.435
 6588SOL    HW220664   0.454   3.515   1.521
 6589SOL     OW20665   4.350   1.027   2.023
 6589SOL    HW120666   4.289   1.043   2.101
 6589SOL    HW220667   4.433   0.981   2.055
 6590SOL     OW20668   0.623   0.135   5.674
 6590SOL    HW120669   0.631   0.172   5.767
 6590SOL    HW220670   0.578   0.046   5.677
 6591SOL     OW20671   5.556   5.879   4.027
 6591SOL    HW120672   5.508   5.808   3.976
 6591SOL    HW220673   5.531   5.969   3.990
 6592SOL     OW20674   5.070   6.628   2.643
 6592SOL    HW120675   5.080   6.708   2.703
 6592SOL    HW220676   5.122   6.643   2.559
 6593SOL     OW20677   2.794   2.252   2.350
 6593SOL    HW120678   2.729   2.177   2.347
 6593SOL    HW220679   2.811   2.285   2.257
 6594SOL     OW20680   3.293   1.415   5.684
 6594SOL    HW120681   3.193   1.419   5.686
 6594SOL    HW220682   3.326   1.440   5.593
 6595SOL     OW20683   1.332   3.543   5.976
 6595SOL    HW120684   1.379   3.489   6.045
 6595SOL    HW220685   1.375   3.633   5.968
 6596SOL     OW20686   3.416   6.307   3.667
 6596SOL    HW120687   3.505   6.345   3.690
 6596SOL    HW220688   3.422   6.258   3.580
 6597SOL     OW20689   1.993   4.985   2.170
 6597SOL    HW120690   2.074   5.023   2.126
 6597SOL    HW220691   1.938   4.936   2.103
 6598SOL     OW20692   1.892   4.930   4.128
 6598SOL    HW120693   1.874   4.930   4.030
 6598SOL    HW220694   1.856   5.014   4.168
 6599SOL     OW20695   4.553   6.087   6.701
 6599SOL    HW120696   4.575   6.180   6.730
 6599SOL    HW220697   4.532   6.087   6.603
 6600SOL     OW20698   3.881   6.921   4.376
 6600SOL    HW120699   3.792   6.875   4.384
 6600SOL    HW220700   3.954   6.855   4.393
 6601SOL     OW20701   0.581   2.006   3.801
 6601SOL    HW120702   0.573   1.957   3.887
 6601SOL    HW220703   0.678   2.020   3.779
 6602SOL     OW20704   1.910   0.487   1.583
 6602SOL    HW120705   1.937   0.522   1.494
 6602SOL    HW220706   1.863   0.559   1.635
 6603SOL     OW20707   0.835   2.881   3.860
 6603SOL    HW120708   0.834   2.897   3.762
 6603SOL    HW220709   0.879   2.793   3.879
 6604SOL     OW20710   1.986   6.862   1.723
 6604SOL    HW120711   2.083   6.879   1.708
 6604SOL    HW220712   1.963   6.769   1.694
 6605SOL     OW20713   5.664   6.099   2.480
 6605SOL    HW120714   5.703   6.180   2.523
 6605SOL    HW220715   5.693   6.017   2.530
 6606SOL     OW20716   6.541   4.522   1.994
 6606SOL    HW120717   6.522   4.437   2.044
 6606SOL    HW220718   6.471   4.590   2.015
 6607SOL     OW20719   0.148   4.895   3.274
 6607SOL    HW120720   0.137   4.989   3.307
 6607SOL    HW220721   0.243   4.866   3.286
 6608SOL     OW20722   6.818   6.766   0.141
 6608SOL    HW120723   6.846   6.852   0.099
 6608SOL    HW220724   6.737   6.781   0.198
 6609SOL     OW20725   5.336   1.097   6.531
 6609SOL    HW120726   5.356   1.190   6.501
 6609SOL    HW220727   5.355   1.034   6.456
 6610SOL     OW20728   2.356   6.798   0.330
 6610SOL    HW120729   2.380   6.742   0.250
 6610SOL    HW220730   2.432   6.858   0.353
 6611SOL     OW20731   4.826   3.026   3.381
 6611SOL    HW120732   4.806   2.936   3.342
 6611SOL    HW220733   4.869   3.084   3.312
 6612SOL     OW20734   0.048   2.698   6.157
 6612SOL    HW120735   0.042   2.599   6.165
 6612SOL    HW220736   0.097   2.736   6.235
 6613SOL     OW20737   5.938   6.494   5.145
 6613SOL    HW120738   5.956   6.479   5.048
 6613SOL    HW220739   5.860   6.440   5.173
 6614SOL     OW20740   4.713   6.491   0.269
 6614SOL    HW120741   4.690   6.506   0.173
 6614SOL    HW220742   4.630   6.475   0.321
 6615SOL     OW20743   1.324   5.916   1.264
 6615SOL    HW120744   1.383   5.854   1.316
 6615SOL    HW220745   1.285   5.984   1.326
 6616SOL     OW20746   4.838   0.087   6.179
 6616SOL    HW120747   4.768   0.025   6.213
 6616SOL    HW220748   4.925   0.039   6.170
 6617SOL     OW20749   4.123   6.082   3.621
 6617SOL    HW120750   4.161   6.078   3.529
 6617SOL    HW220751   4.189   6.127   3.682
 6618SOL     OW20752   1.034   1.659   2.386
 6618SOL    HW120753   0.980   1.607   2.452
 6618SOL    HW220754   1.081   1.733   2.433
 6619SOL     OW20755   4.420   0.035   3.559
 6619SOL    HW120756   4.344   0.094   3.588
 6619SOL    HW220757   4.497   0.049   3.620
 6620SOL     OW20758   2.087   3.239   4.734
 6620SOL    HW120759   2.116   3.330   4.761
 6620SOL    HW220760   2.136   3.171   4.790
 6621SOL     OW20761   3.658   2.677   5.291
 6621SOL    HW120762   3.758   2.668   5.289
 6621SOL    HW220763   3.630   2.745   5.222
 6622SOL     OW20764   6.381   5.520   1.726
 6622SOL    HW120765   6.379   5.441   1.665
 6622SOL    HW220766   6.295   5.525   1.777
 6623SOL     OW20767   3.577   3.876   4.913
 6623SOL    HW120768   3.648   3.824   4.959
 6623SOL    HW220769   3.503   3.815   4.884
 6624SOL     OW20770   0.782   3.446   5.434
 6624SOL    HW120771   0.733   3.403   5.509
 6624SOL    HW220772   0.831   3.376   5.382
 6625SOL     OW20773   5.077   1.719   4.906
 6625SOL    HW120774   5.157   1.737   4.963
 6625SOL    HW220775   5.104   1.671   4.823
 6626SOL     OW20776   3.253   0.060   5.637
 6626SOL    HW120777   3.294   0.089   5.724
 6626SOL    HW220778   3.234   6.981   5.641
 6627SOL     OW20779   2.434   6.639   4.299
 6627SOL    HW120780   2.525   6.597   4.305
 6627SOL    HW220781   2.389   6.610   4.215
 6628SOL     OW20782   5.468   4.821   4.235
 6628SOL    HW120783   5.427   4.737   4.272
 6628SOL    HW220784   5.407   4.898   4.252
 6629SOL     OW20785   5.185   5.930   6.118
 6629SOL    HW120786   5.273   5.898   6.085
 6629SOL    HW220787   5.111   5.886   6.067
 6630SOL     OW20788   3.562   2.025   1.482
 6630SOL    HW120789   3.626   2.093   1.517
 6630SOL    HW220790   3.487   2.013   1.547
 6631SOL     OW20791   2.046   5.679   4.509
 6631SOL    HW120792   2.142   5.688   4.483
 6631SOL    HW220793   2.037   5.694   4.607
 6632SOL     OW20794   1.456   0.973   0.713
 6632SOL    HW120795   1.536   0.945   0.766
 6632SOL    HW220796   1.483   0.988   0.618
 6633SOL     OW20797   2.423   4.805   5.838
 6633SOL    HW120798   2.423   4.708   5.814
 6633SOL    HW220799   2.498   4.852   5.791
 6634SOL     OW20800   4.732   1.881   5.203
 6634SOL    HW120801   4.796   1.840   5.139
 6634SOL    HW220802   4.651   1.914   5.154
 6635SOL     OW20803   4.762   4.370   3.353
 6635SOL    HW120804   4.730   4.401   3.264
 6635SOL    HW220805   4.691   4.388   3.422
 6636SOL     OW20806   4.101   1.955   0.418
 6636SOL    HW120807   4.048   1.873   0.441
 6636SOL    HW220808   4.181   1.928   0.363
 6637SOL     OW20809   2.492   6.918   6.469
 6637SOL    HW120810   2.537   7.002   6.500
 6637SOL    HW220811   2.445   6.936   6.383
 6638SOL     OW20812   3.463   3.158   3.103
 6638SOL    HW120813   3.394   3.159   3.177
 6638SOL    HW220814   3.443   3.084   3.040
 6639SOL     OW20815   3.559   3.905   6.948
 6639SOL    HW120816   3.516   3.864   0.009
 6639SOL    HW220817   3.602   3.834   6.894
 6640SOL     OW20818   0.192   1.830   4.602
 6640SOL    HW120819   0.198   1.888   4.683
 6640SOL    HW220820   0.156   1.883   4.526
 6641SOL     OW20821   3.526   1.571   0.158
 6641SOL    HW120822   3.477   1.490   0.189
 6641SOL    HW220823   3.460   1.645   0.142
 6642SOL     OW20824   2.511   5.310   5.926
 6642SOL    HW120825   2.468   5.258   5.853
 6642SOL    HW220826   2.573   5.251   5.977
 6643SOL     OW20827   6.502   6.608   6.934
 6643SOL    HW120828   6.582   6.667   6.924
 6643SOL    HW220829   6.497   6.544   6.857
 6644SOL     OW20830   2.270   5.894   2.589
 6644SOL    HW120831   2.209   5.838   2.532
 6644SOL    HW220832   2.248   5.880   2.685
 6645SOL     OW20833   5.460   3.587   0.568
 6645SOL    HW120834   5.445   3.612   0.664
 6645SOL    HW220835   5.557   3.596   0.545
 6646SOL     OW20836   4.071   1.551   5.309
 6646SOL    HW120837   4.067   1.556   5.409
 6646SOL    HW220838   4.161   1.517   5.281
 6647SOL     OW20839   4.578   6.634   0.669
 6647SOL    HW120840   4.607   6.543   0.699
 6647SOL    HW220841   4.647   6.702   0.694
 6648SOL     OW20842   3.044   6.603   4.679
 6648SOL    HW120843   3.073   6.513   4.647
 6648SOL    HW220844   3.094   6.627   4.762
 6649SOL     OW20845   5.873   2.683   5.865
 6649SOL    HW120846   5.925   2.720   5.943
 6649SOL    HW220847   5.875   2.749   5.790
 6650SOL     OW20848   4.203   1.717   4.608
 6650SOL    HW120849   4.246   1.660   4.538
 6650SOL    HW220850   4.267   1.789   4.637
 6651SOL     OW20851   1.926   1.597   6.391
 6651SOL    HW120852   1.948   1.694   6.397
 6651SOL    HW220853   1.830   1.584   6.416
 6652SOL     OW20854   0.455   4.849   6.875
 6652SOL    HW120855   0.395   4.926   6.852
 6652SOL    HW220856   0.456   4.836   6.974
 6653SOL     OW20857   4.124   2.787   0.991
 6653SOL    HW120858   4.028   2.782   0.963
 6653SOL    HW220859   4.161   2.695   1.000
 6654SOL     OW20860   1.138   5.586   2.559
 6654SOL    HW120861   1.202   5.551   2.490
 6654SOL    HW220862   1.162   5.680   2.581
 6655SOL     OW20863   0.044   6.333   2.455
 6655SOL    HW120864   0.091   6.293   2.533
 6655SOL    HW220865   0.062   6.279   2.373
 6656SOL     OW20866   5.746   2.239   2.899
 6656SOL    HW120867   5.695   2.320   2.925
 6656SOL    HW220868   5.822   2.225   2.963
 6657SOL     OW20869   6.218   3.673   5.086
 6657SOL    HW120870   6.310   3.641   5.064
 6657SOL    HW220871   6.168   3.600   5.133
 6658SOL     OW20872   5.723   6.989   5.687
 6658SOL    HW120873   5.682   7.012   5.776
 6658SOL    HW220874   5.697   6.896   5.661
 6659SOL     OW20875   1.377   3.293   1.316
 6659SOL    HW120876   1.477   3.299   1.315
 6659SOL    HW220877   1.348   3.202   1.287
 6660SOL     OW20878   1.829   5.014   1.444
 6660SOL    HW120879   1.768   5.082   1.486
 6660SOL    HW220880   1.856   4.946   1.512
 6661SOL     OW20881   2.597   0.309   5.518
 6661SOL    HW120882   2.508   0.354   5.529
 6661SOL    HW220883   2.613   0.290   5.421
 6662SOL     OW20884   1.916   0.552   0.613
 6662SOL    HW120885   1.970   0.500   0.679
 6662SOL    HW220886   1.937   0.649   0.622
 6663SOL     OW20887   6.800   6.028   5.040
 6663SOL    HW120888   6.760   6.021   5.131
 6663SOL    HW220889   6.848   5.943   5.018
 6664SOL     OW20890   2.636   0.420   1.177
 6664SOL    HW120891   2.543   0.381   1.175
 6664SOL    HW220892   2.677   0.414   1.086
 6665SOL     OW20893   2.261   6.670   5.296
 6665SOL    HW120894   2.266   6.768   5.273
 6665SOL    HW220895   2.245   6.660   5.394
 6666SOL     OW20896   6.533   5.807   5.810
 6666SOL    HW120897   6.614   5.781   5.863
 6666SOL    HW220898   6.492   5.889   5.850
 6667SOL     OW20899   0.231   6.914   5.294
 6667SOL    HW120900   0.294   6.983   5.330
 6667SOL    HW220901   0.185   6.951   5.213
 6668SOL     OW20902   6.538   6.334   1.170
 6668SOL    HW120903   6.606   6.405   1.150
 6668SOL    HW220904   6.448   6.366   1.144
 6669SOL     OW20905   3.181   2.231   1.818
 6669SOL    HW120906   3.129   2.150   1.790
 6669SOL    HW220907   3.125   2.287   1.878
 6670SOL     OW20908   3.191   1.195   6.524
 6670SOL    HW120909   3.209   1.291   6.545
 6670SOL    HW220910   3.092   1.179   6.520
 6671SOL     OW20911   5.579   6.510   0.032
 6671SOL    HW120912   5.556   6.511   0.129
 6671SOL    HW220913   5.552   6.598   7.010
 6672SOL     OW20914   0.476   2.320   0.324
 6672SOL    HW120915   0.377   2.304   0.329
 6672SOL    HW220916   0.493   2.400   0.267
 6673SOL     OW20917   4.777   4.093   3.663
 6673SOL    HW120918   4.815   4.002   3.679
 6673SOL    HW220919   4.773   4.144   3.750
 6674SOL     OW20920   0.607   3.724   0.089
 6674SOL    HW120921   0.685   3.775   0.052
 6674SOL    HW220922   0.558   3.782   0.155
 6675SOL     OW20923   5.930   2.930   0.272
 6675SOL    HW120924   5.993   2.863   0.234
 6675SOL    HW220925   5.968   2.969   0.356
 6676SOL     OW20926   0.983   3.537   4.187
 6676SOL    HW120927   1.081   3.554   4.192
 6676SOL    HW220928   0.944   3.538   4.279
 6677SOL     OW20929   0.861   1.234   6.452
 6677SOL    HW120930   0.943   1.236   6.395
 6677SOL    HW220931   0.848   1.142   6.488
 6678SOL     OW20932   2.837   4.754   0.697
 6678SOL    HW120933   2.909   4.692   0.728
 6678SOL    HW220934   2.878   4.836   0.657
 6679SOL     OW20935   3.896   0.733   4.033
 6679SOL    HW120936   3.974   0.788   4.002
 6679SOL    HW220937   3.877   0.753   4.129
 6680SOL     OW20938   4.441   6.442   6.893
 6680SOL    HW120939   4.389   6.425   6.977
 6680SOL    HW220940   4.378   6.449   6.815
 6681SOL     OW20941   4.832   5.490   1.191
 6681SOL    HW120942   4.854   5.502   1.288
 6681SOL    HW220943   4.858   5.398   1.162
 6682SOL     OW20944   2.487   4.911   7.011
 6682SOL    HW120945   2.437   4.953   6.935
 6682SOL    HW220946   2.522   4.982   0.052
 6683SOL     OW20947   6.450   3.443   5.659
 6683SOL    HW120948   6.398   3.407   5.736
 6683SOL    HW220949   6.392   3.443   5.577
 6684SOL     OW20950   4.411   6.625   2.264
 6684SOL    HW120951   4.363   6.695   2.317
 6684SOL    HW220952   4.375   6.535   2.289
 6685SOL     OW20953   5.019   2.682   5.882
 6685SOL    HW120954   5.003   2.780   5.872
 6685SOL    HW220955   5.012   2.638   5.792
 6686SOL     OW20956   5.627   5.585   3.735
 6686SOL    HW120957   5.723   5.610   3.753
 6686SOL    HW220958   5.620   5.545   3.644
 6687SOL     OW20959   0.787   2.796   2.701
 6687SOL    HW120960   0.713   2.852   2.666
 6687SOL    HW220961   0.873   2.846   2.695
 6688SOL     OW20962   4.022   4.774   1.011
 6688SOL    HW120963   4.052   4.829   0.933
 6688SOL    HW220964   4.086   4.785   1.087
 6689SOL     OW20965   4.084   3.988   5.600
 6689SOL    HW120966   4.088   4.065   5.664
 6689SOL    HW220967   4.142   3.914   5.633
 6690SOL     OW20968   0.507   6.854   1.069
 6690SOL    HW120969   0.459   6.781   1.118
 6690SOL    HW220970   0.584   6.816   1.019
 6691SOL     OW20971   2.116   0.686   2.708
 6691SOL    HW120972   2.175   0.716   2.782
 6691SOL    HW220973   2.140   0.593   2.681
 6692SOL     OW20974   3.924   3.916   2.937
 6692SOL    HW120975   4.015   3.957   2.923
 6692SOL    HW220976   3.865   3.982   2.983
 6693SOL     OW20977   4.546   2.569   4.953
 6693SOL    HW120978   4.595   2.490   4.991
 6693SOL    HW220979   4.448   2.559   4.972
 6694SOL     OW20980   4.486   6.644   1.610
 6694SOL    HW120981   4.390   6.621   1.589
 6694SOL    HW220982   4.494   6.742   1.623
 6695SOL     OW20983   3.023   2.358   6.786
 6695SOL    HW120984   3.098   2.424   6.794
 6695SOL    HW220985   3.013   2.330   6.691
 6696SOL     OW20986   3.918   3.028   3.717
 6696SOL    HW120987   3.875   3.111   3.752
 6696SOL    HW220988   3.889   2.950   3.772
 6697SOL     OW20989   5.009   2.147   3.330
 6697SOL    HW120990   4.910   2.133   3.338
 6697SOL    HW220991   5.035   2.148   3.234
 6698SOL     OW20992   2.840   3.467   1.226
 6698SOL    HW120993   2.798   3.556   1.210
 6698SOL    HW220994   2.832   3.410   1.144
 6699SOL     OW20995   2.000   6.879   5.592
 6699SOL    HW120996   1.930   6.815   5.624
 6699SOL    HW220997   1.978   6.909   5.499
 6700SOL     OW20998   6.830   1.691   1.409
 6700SOL    HW120999   6.752   1.754   1.410
 6700SOL    HW221000   6.913   1.743   1.390
 6701SOL     OW21001   5.542   6.134   1.979
 6701SOL    HW121002   5.604   6.112   2.055
 6701SOL    HW221003   5.596   6.154   1.897
 6702SOL     OW21004   1.853   2.580   2.002
 6702SOL    HW121005   1.912   2.561   2.080
 6702SOL    HW221006   1.823   2.493   1.962
 6703SOL     OW21007   7.006   0.150   0.995
 6703SOL    HW121008   0.011   0.054   1.011
 6703SOL    HW221009   7.010   0.169   0.897
 6704SOL     OW21010   3.949   2.181   3.837
 6704SOL    HW121011   3.944   2.270   3.790
 6704SOL    HW221012   4.030   2.132   3.807
 6705SOL     OW21013   6.055   3.046   0.541
 6705SOL    HW121014   6.117   3.064   0.618
 6705SOL    HW221015   5.970   3.005   0.575
 6706SOL     OW21016   0.797   5.696   0.858
 6706SOL    HW121017   0.716   5.745   0.891
 6706SOL    HW221018   0.790   5.600   0.883
 6707SOL     OW21019   5.523   6.258   3.614
 6707SOL    HW121020   5.516   6.164   3.647
 6707SOL    HW221021   5.619   6.284   3.607
 6708SOL     OW21022   5.508   5.387   1.314
 6708SOL    HW121023   5.607   5.378   1.325
 6708SOL    HW221024   5.488   5.430   1.226
 6709SOL     OW21025   0.760   5.255   2.666
 6709SOL    HW121026   0.786   5.347   2.695
 6709SOL    HW221027   0.684   5.261   2.601
 6710SOL     OW21028   3.828   0.772   6.682
 6710SOL    HW121029   3.875   0.705   6.624
 6710SOL    HW221030   3.771   0.831   6.624
 6711SOL     OW21031   4.985   6.158   5.867
 6711SOL    HW121032   4.890   6.169   5.895
 6711SOL    HW221033   5.045   6.188   5.942
 6712SOL     OW21034   5.518   3.602   1.159
 6712SOL    HW121035   5.419   3.603   1.175
 6712SOL    HW221036   5.542   3.524   1.102
 6713SOL     OW21037   1.018   0.623   3.072
 6713SOL    HW121038   0.930   0.626   3.119
 6713SOL    HW221039   1.039   0.713   3.034
 6714SOL     OW21040   6.423   1.735   6.885
 6714SOL    HW121041   6.449   1.829   6.867
 6714SOL    HW221042   6.343   1.712   6.830
 6715SOL     OW21043   1.823   0.589   1.257
 6715SOL    HW121044   1.789   0.498   1.284
 6715SOL    HW221045   1.914   0.603   1.296
 6716SOL     OW21046   0.527   5.551   1.914
 6716SOL    HW121047   0.454   5.520   1.976
 6716SOL    HW221048   0.615   5.548   1.962
 6717SOL     OW21049   3.127   2.979   6.238
 6717SOL    HW121050   3.057   2.909   6.226
 6717SOL    HW221051   3.105   3.058   6.181
 6718SOL     OW21052   4.853   6.822   0.889
 6718SOL    HW121053   4.774   6.825   0.950
 6718SOL    HW221054   4.825   6.845   0.796
 6719SOL     OW21055   2.223   0.004   0.222
 6719SOL    HW121056   2.253   6.947   0.279
 6719SOL    HW221057   2.227   0.088   0.276
 6720SOL     OW21058   2.117   1.026   3.540
 6720SOL    HW121059   2.101   1.000   3.635
 6720SOL    HW221060   2.048   0.984   3.482
 6721SOL     OW21061   0.236   6.549   0.711
 6721SOL    HW121062   0.213   6.471   0.652
 6721SOL    HW221063   0.301   6.609   0.664
 6722SOL     OW21064   0.048   2.738   0.304
 6722SOL    HW121065   0.091   2.718   0.392
 6722SOL    HW221066   6.992   2.674   0.288
 6723SOL     OW21067   1.568   0.029   5.244
 6723SOL    HW121068   1.620   0.003   5.162
 6723SOL    HW221069   1.628   0.026   5.324
 6724SOL     OW21070   1.882   3.098   6.165
 6724SOL    HW121071   1.940   3.098   6.083
 6724SOL    HW221072   1.796   3.051   6.146
 6725SOL     OW21073   0.197   2.390   2.206
 6725SOL    HW121074   0.211   2.416   2.111
 6725SOL    HW221075   0.286   2.378   2.251
 6726SOL     OW21076   0.280   2.522   3.842
 6726SOL    HW121077   0.333   2.599   3.806
 6726SOL    HW221078   0.279   2.448   3.775
 6727SOL     OW21079   0.296   4.770   5.676
 6727SOL    HW121080   0.333   4.752   5.585
 6727SOL    HW221081   0.357   4.832   5.726
 6728SOL     OW21082   4.163   2.219   2.769
 6728SOL    HW121083   4.226   2.186   2.698
 6728SOL    HW221084   4.209   2.218   2.858
 6729SOL     OW21085   0.152   1.521   0.369
 6729SOL    HW121086   0.067   1.498   0.417
 6729SOL    HW221087   0.228   1.522   0.433
 6730SOL     OW21088   2.248   6.983   1.115
 6730SOL    HW121089   2.260   0.003   1.024
 6730SOL    HW221090   2.152   6.985   1.140
 6731SOL     OW21091   1.689   6.729   0.765
 6731SOL    HW121092   1.621   6.673   0.814
 6731SOL    HW221093   1.690   6.703   0.668
 6732SOL     OW21094   5.468   4.738   4.558
 6732SOL    HW121095   5.404   4.793   4.504
 6732SOL    HW221096   5.549   4.791   4.579
 6733SOL     OW21097   3.746   5.474   6.482
 6733SOL    HW121098   3.775   5.427   6.565
 6733SOL    HW221099   3.775   5.422   6.401
 6734SOL     OW21100   5.687   2.514   5.366
 6734SOL    HW121101   5.736   2.431   5.391
 6734SOL    HW221102   5.658   2.562   5.449
 6735SOL     OW21103   6.022   3.860   4.732
 6735SOL    HW121104   6.033   3.819   4.642
 6735SOL    HW221105   5.929   3.847   4.764
 6736SOL     OW21106   2.858   3.517   6.357
 6736SOL    HW121107   2.793   3.462   6.304
 6736SOL    HW221108   2.808   3.585   6.411
 6737SOL     OW21109   1.437   3.120   0.901
 6737SOL    HW121110   1.392   3.073   0.977
 6737SOL    HW221111   1.391   3.095   0.815
 6738SOL     OW21112   1.608   5.876   4.190
 6738SOL    HW121113   1.612   5.869   4.091
 6738SOL    HW221114   1.518   5.908   4.218
 6739SOL     OW21115   5.865   6.126   3.967
 6739SOL    HW121116   5.853   6.049   4.029
 6739SOL    HW221117   5.849   6.096   3.873
 6740SOL     OW21118   6.673   0.103   5.368
 6740SOL    HW121119   6.574   0.103   5.356
 6740SOL    HW221120   6.715   0.166   5.302
 6741SOL     OW21121   3.431   2.541   5.414
 6741SOL    HW121122   3.511   2.565   5.359
 6741SOL    HW221123   3.459   2.482   5.489
 6742SOL     OW21124   6.100   5.700   3.338
 6742SOL    HW121125   6.096   5.631   3.410
 6742SOL    HW221126   6.010   5.711   3.297
 6743SOL     OW21127   3.629   4.353   6.619
 6743SOL    HW121128   3.542   4.315   6.649
 6743SOL    HW221129   3.618   4.394   6.528
 6744SOL     OW21130   0.504   5.937   5.691
 6744SOL    HW121131   0.534   5.892   5.607
 6744SOL    HW221132   0.537   6.032   5.692
 6745SOL     OW21133   0.139   6.063   3.414
 6745SOL    HW121134   0.105   6.127   3.345
 6745SOL    HW221135   0.062   6.034   3.472
 6746SOL     OW21136   0.772   0.003   3.905
 6746SOL    HW121137   0.754   0.083   3.963
 6746SOL    HW221138   0.694   6.960   3.908
 6747SOL     OW21139   5.731   0.668   6.828
 6747SOL    HW121140   5.770   0.700   6.742
 6747SOL    HW221141   5.724   0.568   6.827
 6748SOL     OW21142   4.162   1.599   3.072
 6748SOL    HW121143   4.236   1.608   3.005
 6748SOL    HW221144   4.081   1.561   3.027
 6749SOL     OW21145   3.869   4.491   0.882
 6749SOL    HW121146   3.788   4.548   0.893
 6749SOL    HW221147   3.944   4.547   0.845
 6750SOL     OW21148   3.550   1.822   4.159
 6750SOL    HW121149   3.632   1.776   4.124
 6750SOL    HW221150   3.487   1.754   4.196
 6751SOL     OW21151   4.976   0.766   3.301
 6751SOL    HW121152   4.972   0.734   3.395
 6751SOL    HW221153   4.999   0.690   3.241
 6752SOL     OW21154   2.419   0.109   2.836
 6752SOL    HW121155   2.380   0.111   2.928
 6752SOL    HW221156   2.344   0.104   2.769
 6753SOL     OW21157   3.348   1.084   6.349
 6753SOL    HW121158   3.292   1.028   6.288
 6753SOL    HW221159   3.294   1.111   6.428
 6754SOL     OW21160   6.540   0.850   0.890
 6754SOL    HW121161   6.578   0.896   0.970
 6754SOL    HW221162   6.536   0.915   0.814
 6755SOL     OW21163   4.344   2.851   1.429
 6755SOL    HW121164   4.305   2.940   1.408
 6755SOL    HW221165   4.273   2.781   1.420
 6756SOL     OW21166   4.126   6.238   5.160
 6756SOL    HW121167   4.149   6.143   5.136
 6756SOL    HW221168   4.112   6.245   5.259
 6757SOL     OW21169   3.349   2.328   6.905
 6757SOL    HW121170   3.322   2.414   6.862
 6757SOL    HW221171   3.267   2.273   6.923
 6758SOL     OW21172   5.988   2.884   1.822
 6758SOL    HW121173   5.937   2.857   1.903
 6758SOL    HW221174   5.926   2.927   1.756
 6759SOL     OW21175   0.570   3.814   3.103
 6759SOL    HW121176   0.633   3.797   3.026
 6759SOL    HW221177   0.623   3.838   3.184
 6760SOL     OW21178   6.854   3.104   2.463
 6760SOL    HW121179   6.944   3.125   2.500
 6760SOL    HW221180   6.859   3.097   2.363
 6761SOL     OW21181   6.342   2.743   4.980
 6761SOL    HW121182   6.257   2.796   4.969
 6761SOL    HW221183   6.326   2.648   4.950
 6762SOL     OW21184   0.989   4.083   4.489
 6762SOL    HW121185   0.936   4.126   4.561
 6762SOL    HW221186   1.016   4.152   4.421
 6763SOL     OW21187   6.550   5.450   3.862
 6763SOL    HW121188   6.586   5.543   3.863
 6763SOL    HW221189   6.473   5.443   3.926
 6764SOL     OW21190   1.926   5.873   1.777
 6764SOL    HW121191   1.921   5.957   1.723
 6764SOL    HW221192   1.879   5.886   1.864
 6765SOL     OW21193   5.622   4.878   3.768
 6765SOL    HW121194   5.693   4.946   3.751
 6765SOL    HW221195   5.566   4.905   3.846
 6766SOL     OW21196   5.273   6.237   5.351
 6766SOL    HW121197   5.310   6.266   5.440
 6766SOL    HW221198   5.348   6.212   5.290
 6767SOL     OW21199   2.518   0.932   1.390
 6767SOL    HW121200   2.518   0.962   1.486
 6767SOL    HW221201   2.545   0.836   1.385
 6768SOL     OW21202   1.791   0.743   5.347
 6768SOL    HW121203   1.704   0.697   5.365
 6768SOL    HW221204   1.788   0.785   5.257
 6769SOL     OW21205   3.317   0.809   6.777
 6769SOL    HW121206   3.336   0.888   6.719
 6769SOL    HW221207   3.218   0.793   6.780
 6770SOL     OW21208   0.149   0.914   2.142
 6770SOL    HW121209   0.061   0.961   2.145
 6770SOL    HW221210   0.154   0.846   2.215
 6771SOL     OW21211   5.182   1.946   3.369
 6771SOL    HW121212   5.150   1.935   3.463
 6771SOL    HW221213   5.134   2.024   3.327
 6772SOL     OW21214   3.973   2.005   2.873
 6772SOL    HW121215   3.993   1.929   2.811
 6772SOL    HW221216   4.004   2.091   2.831
 6773SOL     OW21217   6.453   4.829   2.331
 6773SOL    HW121218   6.498   4.844   2.419
 6773SOL    HW221219   6.497   4.884   2.260
 6774SOL     OW21220   1.165   2.824   5.507
 6774SOL    HW121221   1.211   2.737   5.491
 6774SOL    HW221222   1.231   2.891   5.541
 6775SOL     OW21223   2.147   2.551   1.703
 6775SOL    HW121224   2.113   2.482   1.639
 6775SOL    HW221225   2.215   2.509   1.764
 6776SOL     OW21226   4.401   5.005   6.924
 6776SOL    HW121227   4.468   4.943   6.883
 6776SOL    HW221228   4.317   5.003   6.869
 6777SOL     OW21229   4.354   4.593   0.661
 6777SOL    HW121230   4.339   4.585   0.563
 6777SOL    HW221231   4.299   4.525   0.710
 6778SOL     OW21232   6.069   5.186   1.716
 6778SOL    HW121233   6.081   5.099   1.670
 6778SOL    HW221234   6.106   5.260   1.660
 6779SOL     OW21235   5.848   5.288   6.733
 6779SOL    HW121236   5.887   5.371   6.771
 6779SOL    HW221237   5.778   5.252   6.795
 6780SOL     OW21238   1.514   2.747   2.434
 6780SOL    HW121239   1.490   2.785   2.345
 6780SOL    HW221240   1.549   2.819   2.493
 6781SOL     OW21241   6.522   1.459   4.222
 6781SOL    HW121242   6.568   1.382   4.177
 6781SOL    HW221243   6.513   1.440   4.320
 6782SOL     OW21244   0.114   0.958   3.534
 6782SOL    HW121245   0.018   0.983   3.524
 6782SOL    HW221246   0.122   0.876   3.591
 6783SOL     OW21247   6.390   1.841   5.600
 6783SOL    HW121248   6.311   1.783   5.618
 6783SOL    HW221249   6.359   1.924   5.553
 6784SOL     OW21250   2.026   3.430   0.720
 6784SOL    HW121251   1.950   3.408   0.781
 6784SOL    HW221252   2.112   3.399   0.760
 6785SOL     OW21253   6.181   5.159   3.792
 6785SOL    HW121254   6.216   5.189   3.703
 6785SOL    HW221255   6.167   5.239   3.851
 6786SOL     OW21256   1.925   2.569   0.228
 6786SOL    HW121257   1.851   2.631   0.202
 6786SOL    HW221258   1.901   2.521   0.312
 6787SOL     OW21259   1.855   2.565   1.019
 6787SOL    HW121260   1.864   2.544   0.921
 6787SOL    HW221261   1.828   2.660   1.031
 6788SOL     OW21262   2.025   4.214   1.337
 6788SOL    HW121263   2.018   4.148   1.263
 6788SOL    HW221264   2.090   4.181   1.406
 6789SOL     OW21265   0.345   5.370   3.193
 6789SOL    HW121266   0.280   5.391   3.265
 6789SOL    HW221267   0.390   5.453   3.162
 6790SOL     OW21268   0.622   3.714   1.401
 6790SOL    HW121269   0.717   3.693   1.376
 6790SOL    HW221270   0.591   3.650   1.472
 6791SOL     OW21271   4.197   2.371   1.565
 6791SOL    HW121272   4.127   2.422   1.616
 6791SOL    HW221273   4.194   2.398   1.469
 6792SOL     OW21274   6.624   6.035   5.277
 6792SOL    HW121275   6.602   5.983   5.360
 6792SOL    HW221276   6.713   6.079   5.288
 6793SOL     OW21277   1.190   2.220   1.157
 6793SOL    HW121278   1.250   2.157   1.107
 6793SOL    HW221279   1.212   2.217   1.254
 6794SOL     OW21280   4.948   1.719   5.928
 6794SOL    HW121281   5.031   1.669   5.906
 6794SOL    HW221282   4.930   1.787   5.857
 6795SOL     OW21283   2.796   6.762   1.245
 6795SOL    HW121284   2.816   6.842   1.189
 6795SOL    HW221285   2.828   6.778   1.338
 6796SOL     OW21286   6.640   0.290   2.071
 6796SOL    HW121287   6.577   0.308   2.146
 6796SOL    HW221288   6.673   0.377   2.034
 6797SOL     OW21289   6.206   2.217   1.711
 6797SOL    HW121290   6.293   2.266   1.706
 6797SOL    HW221291   6.208   2.154   1.789
 6798SOL     OW21292   4.815   6.831   2.309
 6798SOL    HW121293   4.726   6.801   2.272
 6798SOL    HW221294   4.805   6.923   2.348
 6799SOL     OW21295   6.388   6.421   1.905
 6799SOL    HW121296   6.374   6.327   1.935
 6799SOL    HW221297   6.486   6.439   1.896
 6800SOL     OW21298   2.226   3.758   1.789
 6800SOL    HW121299   2.234   3.675   1.844
 6800SOL    HW221300   2.195   3.734   1.697
 6801SOL     OW21301   0.924   6.934   3.201
 6801SOL    HW121302   0.845   6.972   3.153
 6801SOL    HW221303   0.899   6.918   3.297
 6802SOL     OW21304   3.346   6.247   1.242
 6802SOL    HW121305   3.430   6.271   1.193
 6802SOL    HW221306   3.322   6.152   1.223
 6803SOL     OW21307   4.735   2.907   5.776
 6803SOL    HW121308   4.682   2.844   5.719
 6803SOL    HW221309   4.695   2.912   5.868
 6804SOL     OW21310   3.565   5.359   3.571
 6804SOL    HW121311   3.649   5.335   3.620
 6804SOL    HW221312   3.533   5.449   3.602
 6805SOL     OW21313   0.082   4.908   6.212
 6805SOL    HW121314   0.039   4.896   6.302
 6805SOL    HW221315   0.075   4.822   6.161
 6806SOL     OW21316   5.882   0.158   3.465
 6806SOL    HW121317   5.964   0.177   3.412
 6806SOL    HW221318   5.861   0.235   3.524
 6807SOL     OW21319   2.987   2.995   0.755
 6807SOL    HW121320   2.921   3.062   0.721
 6807SOL    HW221321   3.080   3.031   0.744
 6808SOL     OW21322   6.826   2.343   5.324
 6808SOL    HW121323   6.869   2.253   5.319
 6808SOL    HW221324   6.746   2.338   5.383
 6809SOL     OW21325   0.757   2.755   1.589
 6809SOL    HW121326   0.672   2.807   1.584
 6809SOL    HW221327   0.805   2.760   1.502
 6810SOL     OW21328   1.566   1.072   2.312
 6810SOL    HW121329   1.488   1.105   2.259
 6810SOL    HW221330   1.537   1.052   2.405
 6811SOL     OW21331   5.974   3.890   1.346
 6811SOL    HW121332   6.031   3.972   1.356
 6811SOL    HW221333   6.001   3.823   1.415
 6812SOL     OW21334   3.151   3.458   3.632
 6812SOL    HW121335   3.175   3.492   3.541
 6812SOL    HW221336   3.156   3.358   3.632
 6813SOL     OW21337   4.943   2.552   2.321
 6813SOL    HW121338   4.924   2.455   2.333
 6813SOL    HW221339   4.928   2.600   2.407
 6814SOL     OW21340   3.323   1.712   6.235
 6814SOL    HW121341   3.421   1.709   6.215
 6814SOL    HW221342   3.276   1.767   6.166
 6815SOL     OW21343   3.265   6.988   1.402
 6815SOL    HW121344   3.260   6.904   1.348
 6815SOL    HW221345   3.268   6.964   1.499
 6816SOL     OW21346   6.704   0.081   6.821
 6816SOL    HW121347   6.733   0.065   6.727
 6816SOL    HW221348   6.745   0.165   6.855
 6817SOL     OW21349   2.001   2.376   2.492
 6817SOL    HW121350   2.043   2.410   2.576
 6817SOL    HW221351   2.061   2.310   2.449
 6818SOL     OW21352   3.231   6.031   2.320
 6818SOL    HW121353   3.167   6.083   2.264
 6818SOL    HW221354   3.271   6.091   2.389
 6819SOL     OW21355   5.226   1.442   3.901
 6819SOL    HW121356   5.325   1.451   3.892
 6819SOL    HW221357   5.188   1.400   3.819
 6820SOL     OW21358   2.039   5.390   2.152
 6820SOL    HW121359   2.031   5.294   2.122
 6820SOL    HW221360   1.950   5.423   2.181
 6821SOL     OW21361   4.072   2.206   4.785
 6821SOL    HW121362   4.148   2.197   4.850
 6821SOL    HW221363   4.018   2.287   4.808
 6822SOL     OW21364   5.449   2.613   6.350
 6822SOL    HW121365   5.477   2.556   6.273
 6822SOL    HW221366   5.396   2.558   6.414
 6823SOL     OW21367   4.169   3.292   5.294
 6823SOL    HW121368   4.160   3.352   5.215
 6823SOL    HW221369   4.132   3.338   5.375
 6824SOL     OW21370   1.091   2.051   6.155
 6824SOL    HW121371   1.033   2.107   6.097
 6824SOL    HW221372   1.054   2.049   6.248
 6825SOL     OW21373   4.872   6.430   1.742
 6825SOL    HW121374   4.915   6.341   1.759
 6825SOL    HW221375   4.803   6.420   1.670
 6826SOL     OW21376   1.953   3.894   3.184
 6826SOL    HW121377   2.016   3.825   3.149
 6826SOL    HW221378   1.926   3.871   3.277
 6827SOL     OW21379   4.676   5.470   5.948
 6827SOL    HW121380   4.597   5.490   5.891
 6827SOL    HW221381   4.757   5.458   5.890
 6828SOL     OW21382   2.813   1.967   1.562
 6828SOL    HW121383   2.762   2.040   1.516
 6828SOL    HW221384   2.752   1.917   1.623
 6829SOL     OW21385   4.313   6.596   4.000
 6829SOL    HW121386   4.328   6.498   4.010
 6829SOL    HW221387   4.332   6.642   4.087
 6830SOL     OW21388   5.379   0.660   3.739
 6830SOL    HW121389   5.462   0.617   3.776
 6830SOL    HW221390   5.357   0.618   3.651
 6831SOL     OW21391   1.878   0.532   6.814
 6831SOL    HW121392   1.887   0.594   6.892
 6831SOL    HW221393   1.817   0.456   6.837
 6832SOL     OW21394   3.237   4.148   1.147
 6832SOL    HW121395   3.308   4.098   1.097
 6832SOL    HW221396   3.234   4.242   1.114
 6833SOL     OW21397   3.406   4.645   6.613
 6833SOL    HW121398   3.335   4.579   6.590
 6833SOL    HW221399   3.365   4.724   6.659
 6834SOL     OW21400   4.864   6.584   1.109
 6834SOL    HW121401   4.942   6.534   1.071
 6834SOL    HW221402   4.892   6.678   1.130
 6835SOL     OW21403   4.160   0.104   4.274
 6835SOL    HW121404   4.093   0.049   4.224
 6835SOL    HW221405   4.237   0.046   4.300
 6836SOL     OW21406   2.403   5.250   6.903
 6836SOL    HW121407   2.370   5.343   6.920
 6836SOL    HW221408   2.443   5.212   6.986
 6837SOL     OW21409   0.354   1.819   1.974
 6837SOL    HW121410   0.396   1.903   1.941
 6837SOL    HW221411   0.380   1.803   2.069
 6838SOL     OW21412   3.223   6.138   0.238
 6838SOL    HW121413   3.297   6.166   0.177
 6838SOL    HW221414   3.207   6.209   0.306
 6839SOL     OW21415   5.426   0.735   6.655
 6839SOL    HW121416   5.520   0.755   6.626
 6839SOL    HW221417   5.400   0.797   6.728
 6840SOL     OW21418   3.492   0.616   4.670
 6840SOL    HW121419   3.477   0.660   4.759
 6840SOL    HW221420   3.444   0.668   4.599
 6841SOL     OW21421   4.107   3.922   6.848
 6841SOL    HW121422   4.074   3.848   6.907
 6841SOL    HW221423   4.150   3.993   6.904
 6842SOL     OW21424   2.280   4.377   0.728
 6842SOL    HW121425   2.278   4.477   0.721
 6842SOL    HW221426   2.373   4.346   0.747
 6843SOL     OW21427   6.331   0.136   0.784
 6843SOL    HW121428   6.390   0.134   0.703
 6843SOL    HW221429   6.376   0.189   0.856
 6844SOL     OW21430   5.344   0.487   4.124
 6844SOL    HW121431   5.270   0.499   4.058
 6844SOL    HW221432   5.426   0.534   4.090
 6845SOL     OW21433   6.501   3.311   2.860
 6845SOL    HW121434   6.543   3.232   2.904
 6845SOL    HW221435   6.415   3.334   2.905
 6846SOL     OW21436   3.655   3.263   0.218
 6846SOL    HW121437   3.697   3.354   0.220
 6846SOL    HW221438   3.698   3.208   0.147
 6847SOL     OW21439   0.329   3.424   4.506
 6847SOL    HW121440   0.428   3.420   4.519
 6847SOL    HW221441   0.306   3.395   4.413
 6848SOL     OW21442   4.707   5.097   3.681
 6848SOL    HW121443   4.611   5.107   3.654
 6848SOL    HW221444   4.712   5.042   3.764
 6849SOL     OW21445   4.587   4.523   5.568
 6849SOL    HW121446   4.507   4.531   5.628
 6849SOL    HW221447   4.640   4.608   5.573
 6850SOL     OW21448   5.395   3.443   2.963
 6850SOL    HW121449   5.331   3.369   2.983
 6850SOL    HW221450   5.435   3.476   3.048
 6851SOL     OW21451   6.895   1.710   3.395
 6851SOL    HW121452   6.879   1.676   3.302
 6851SOL    HW221453   6.993   1.727   3.408
 6852SOL     OW21454   2.775   4.552   1.363
 6852SOL    HW121455   2.719   4.616   1.416
 6852SOL    HW221456   2.758   4.459   1.394
 6853SOL     OW21457   5.263   4.673   0.186
 6853SOL    HW121458   5.302   4.742   0.125
 6853SOL    HW221459   5.298   4.582   0.162
 6854SOL     OW21460   4.785   0.694   5.668
 6854SOL    HW121461   4.813   0.712   5.762
 6854SOL    HW221462   4.732   0.771   5.634
 6855SOL     OW21463   4.051   6.552   3.909
 6855SOL    HW121464   4.010   6.586   3.825
 6855SOL    HW221465   4.134   6.603   3.930
 6856SOL     OW21466   0.137   2.337   5.274
 6856SOL    HW121467   0.053   2.388   5.294
 6856SOL    HW221468   0.120   2.239   5.287
 6857SOL     OW21469   1.768   2.415   6.511
 6857SOL    HW121470   1.822   2.353   6.568
 6857SOL    HW221471   1.815   2.503   6.504
 6858SOL     OW21472   4.113   3.621   2.081
 6858SOL    HW121473   4.148   3.528   2.064
 6858SOL    HW221474   4.013   3.620   2.073
 6859SOL     OW21475   1.305   1.297   1.029
 6859SOL    HW121476   1.321   1.230   1.102
 6859SOL    HW221477   1.294   1.249   0.942
 6860SOL     OW21478   0.103   5.333   1.595
 6860SOL    HW121479   0.123   5.352   1.692
 6860SOL    HW221480   0.171   5.269   1.559
 6861SOL     OW21481   4.277   4.118   0.274
 6861SOL    HW121482   4.336   4.132   0.353
 6861SOL    HW221483   4.259   4.020   0.262
 6862SOL     OW21484   0.824   5.465   5.903
 6862SOL    HW121485   0.791   5.546   5.951
 6862SOL    HW221486   0.922   5.473   5.886
 6863SOL     OW21487   6.074   6.680   5.922
 6863SOL    HW121488   6.167   6.667   5.888
 6863SOL    HW221489   6.069   6.765   5.974
 6864SOL     OW21490   2.175   4.820   4.618
 6864SOL    HW121491   2.262   4.803   4.571
 6864SOL    HW221492   2.103   4.767   4.573
 6865SOL     OW21493   0.752   6.170   4.636
 6865SOL    HW121494   0.682   6.159   4.706
 6865SOL    HW221495   0.768   6.267   4.620
 6866SOL     OW21496   5.692   5.473   2.978
 6866SOL    HW121497   5.654   5.494   2.888
 6866SOL    HW221498   5.642   5.523   3.048
 6867SOL     OW21499   2.263   4.098   2.352
 6867SOL    HW121500   2.177   4.060   2.387
 6867SOL    HW221501   2.265   4.197   2.369
 6868SOL     OW21502   1.597   6.553   6.335
 6868SOL    HW121503   1.641   6.522   6.250
 6868SOL    HW221504   1.567   6.648   6.325
 6869SOL     OW21505   4.723   0.979   6.215
 6869SOL    HW121506   4.737   0.913   6.289
 6869SOL    HW221507   4.795   1.048   6.217
 6870SOL     OW21508   0.080   4.314   1.208
 6870SOL    HW121509   0.027   4.399   1.215
 6870SOL    HW221510   0.158   4.318   1.270
 6871SOL     OW21511   6.245   4.032   3.263
 6871SOL    HW121512   6.298   4.030   3.348
 6871SOL    HW221513   6.147   4.030   3.285
 6872SOL     OW21514   0.126   2.604   1.233
 6872SOL    HW121515   0.187   2.580   1.157
 6872SOL    HW221516   0.172   2.668   1.294
 6873SOL     OW21517   0.022   3.937   3.763
 6873SOL    HW121518   0.004   3.851   3.811
 6873SOL    HW221519   6.956   3.973   3.726
 6874SOL     OW21520   6.867   5.269   3.100
 6874SOL    HW121521   6.917   5.306   3.021
 6874SOL    HW221522   6.885   5.171   3.108
 6875SOL     OW21523   2.240   2.730   2.212
 6875SOL    HW121524   2.226   2.820   2.171
 6875SOL    HW221525   2.327   2.692   2.182
 6876SOL     OW21526   3.694   7.013   3.836
 6876SOL    HW121527   3.666   0.077   3.883
 6876SOL    HW221528   3.645   6.935   3.876
 6877SOL     OW21529   3.224   4.169   1.430
 6877SOL    HW121530   3.241   4.161   1.332
 6877SOL    HW221531   3.213   4.078   1.469
 6878SOL     OW21532   3.900   0.993   4.221
 6878SOL    HW121533   3.891   1.060   4.295
 6878SOL    HW221534   3.995   0.964   4.214
 6879SOL     OW21535   1.394   2.775   0.757
 6879SOL    HW121536   1.449   2.746   0.835
 6879SOL    HW221537   1.444   2.844   0.705
 6880SOL     OW21538   1.901   5.385   5.998
 6880SOL    HW121539   1.959   5.462   5.974
 6880SOL    HW221540   1.839   5.364   5.922
 6881SOL     OW21541   1.638   3.730   1.505
 6881SOL    HW121542   1.688   3.725   1.592
 6881SOL    HW221543   1.600   3.822   1.493
 6882SOL     OW21544   2.998   0.556   0.140
 6882SOL    HW121545   2.986   0.544   0.238
 6882SOL    HW221546   2.909   0.575   0.098
 6883SOL     OW21547   5.101   2.434   0.311
 6883SOL    HW121548   5.179   2.373   0.296
 6883SOL    HW221549   5.059   2.457   0.224
 6884SOL     OW21550   1.079   4.316   3.523
 6884SOL    HW121551   1.036   4.229   3.503
 6884SOL    HW221552   1.031   4.389   3.475
 6885SOL     OW21553   4.951   4.929   3.541
 6885SOL    HW121554   4.875   4.990   3.564
 6885SOL    HW221555   4.925   4.835   3.559
 6886SOL     OW21556   6.761   1.216   4.530
 6886SOL    HW121557   6.799   1.195   4.440
 6886SOL    HW221558   6.710   1.302   4.525
 6887SOL     OW21559   4.754   5.125   6.687
 6887SOL    HW121560   4.770   5.047   6.627
 6887SOL    HW221561   4.798   5.206   6.649
 6888SOL     OW21562   5.331   5.529   6.412
 6888SOL    HW121563   5.288   5.602   6.360
 6888SOL    HW221564   5.376   5.567   6.493
 6889SOL     OW21565   1.038   3.061   5.895
 6889SOL    HW121566   0.990   2.974   5.907
 6889SOL    HW221567   0.973   3.133   5.872
 6890SOL     OW21568   4.082   6.333   2.203
 6890SOL    HW121569   4.074   6.301   2.108
 6890SOL    HW221570   3.999   6.381   2.230
 6891SOL     OW21571   2.010   4.053   2.500
 6891SOL    HW121572   1.987   3.994   2.577
 6891SOL    HW221573   1.925   4.090   2.461
 6892SOL     OW21574   3.404   1.827   3.859
 6892SOL    HW121575   3.451   1.880   3.930
 6892SOL    HW221576   3.379   1.888   3.784
 6893SOL     OW21577   4.519   4.470   0.374
 6893SOL    HW121578   4.555   4.428   0.457
 6893SOL    HW221579   4.419   4.467   0.376
 6894SOL     OW21580   5.884   4.417   0.752
 6894SOL    HW121581   5.900   4.403   0.655
 6894SOL    HW221582   5.787   4.401   0.772
 6895SOL     OW21583   1.897   4.852   0.862
 6895SOL    HW121584   1.840   4.884   0.787
 6895SOL    HW221585   1.919   4.929   0.923
 6896SOL     OW21586   2.796   1.424   4.074
 6896SOL    HW121587   2.826   1.336   4.037
 6896SOL    HW221588   2.868   1.461   4.134
 6897SOL     OW21589   4.958   3.807   4.835
 6897SOL    HW121590   4.915   3.725   4.874
 6897SOL    HW221591   4.958   3.880   4.902
 6898SOL     OW21592   4.391   1.645   1.493
 6898SOL    HW121593   4.293   1.637   1.476
 6898SOL    HW221594   4.425   1.560   1.533
 6899SOL     OW21595   4.576   6.005   2.007
 6899SOL    HW121596   4.616   6.087   1.967
 6899SOL    HW221597   4.637   5.969   2.078
 6900SOL     OW21598   6.181   5.086   4.985
 6900SOL    HW121599   6.198   5.031   4.903
 6900SOL    HW221600   6.192   5.030   5.066
 6901SOL     OW21601   6.504   6.369   6.287
 6901SOL    HW121602   6.512   6.457   6.333
 6901SOL    HW221603   6.513   6.295   6.354
 6902SOL     OW21604   6.485   5.822   6.382
 6902SOL    HW121605   6.484   5.725   6.356
 6902SOL    HW221606   6.562   5.868   6.339
 6903SOL     OW21607   3.200   5.221   4.919
 6903SOL    HW121608   3.227   5.130   4.889
 6903SOL    HW221609   3.100   5.225   4.928
 6904SOL     OW21610   6.006   0.469   5.846
 6904SOL    HW121611   6.011   0.381   5.799
 6904SOL    HW221612   6.094   0.515   5.840
 6905SOL     OW21613   5.414   5.720   0.202
 6905SOL    HW121614   5.446   5.806   0.241
 6905SOL    HW221615   5.353   5.739   0.125
 6906SOL     OW21616   3.462   1.535   3.946
 6906SOL    HW121617   3.451   1.632   3.925
 6906SOL    HW221618   3.557   1.508   3.934
 6907SOL     OW21619   5.634   2.542   1.563
 6907SOL    HW121620   5.553   2.492   1.533
 6907SOL    HW221621   5.675   2.495   1.642
 6908SOL     OW21622   1.583   5.676   6.801
 6908SOL    HW121623   1.639   5.610   6.851
 6908SOL    HW221624   1.488   5.670   6.832
 6909SOL     OW21625   5.088   3.852   0.969
 6909SOL    HW121626   5.177   3.872   1.010
 6909SOL    HW221627   5.024   3.819   1.039
 6910SOL     OW21628   1.363   3.666   3.621
 6910SOL    HW121629   1.372   3.715   3.534
 6910SOL    HW221630   1.444   3.682   3.677
 6911SOL     OW21631   3.825   6.775   4.023
 6911SOL    HW121632   3.823   6.770   3.924
 6911SOL    HW221633   3.741   6.736   4.061
 6912SOL     OW21634   2.574   3.525   6.265
 6912SOL    HW121635   2.619   3.438   6.245
 6912SOL    HW221636   2.482   3.506   6.301
 6913SOL     OW21637   5.678   6.003   4.252
 6913SOL    HW121638   5.620   5.989   4.333
 6913SOL    HW221639   5.638   5.954   4.174
 6914SOL     OW21640   5.839   4.211   3.786
 6914SOL    HW121641   5.923   4.249   3.825
 6914SOL    HW221642   5.776   4.187   3.859
 6915SOL     OW21643   6.205   2.705   1.791
 6915SOL    HW121644   6.274   2.699   1.863
 6915SOL    HW221645   6.129   2.761   1.822
 6916SOL     OW21646   5.448   1.866   6.832
 6916SOL    HW121647   5.483   1.939   6.774
 6916SOL    HW221648   5.456   1.779   6.784
 6917SOL     OW21649   3.883   6.737   0.928
 6917SOL    HW121650   3.877   6.667   0.999
 6917SOL    HW221651   3.792   6.776   0.912
 6918SOL     OW21652   0.704   2.428   4.232
 6918SOL    HW121653   0.614   2.451   4.268
 6918SOL    HW221654   0.774   2.476   4.285
 6919SOL     OW21655   5.599   5.672   4.575
 6919SOL    HW121656   5.676   5.616   4.545
 6919SOL    HW221657   5.528   5.673   4.504
 6920SOL     OW21658   4.444   0.003   5.574
 6920SOL    HW121659   4.470   0.098   5.594
 6920SOL    HW221660   4.525   6.964   5.580
 6921SOL     OW21661   4.542   6.043   4.187
 6921SOL    HW121662   4.589   5.957   4.168
 6921SOL    HW221663   4.477   6.063   4.114
 6922SOL     OW21664   2.049   5.651   5.168
 6922SOL    HW121665   2.139   5.609   5.172
 6922SOL    HW221666   1.979   5.580   5.177
 6923SOL     OW21667   5.244   5.712   2.745
 6923SOL    HW121668   5.265   5.677   2.836
 6923SOL    HW221669   5.179   5.651   2.699
 6924SOL     OW21670   1.761   4.443   0.219
 6924SOL    HW121671   1.686   4.455   0.155
 6924SOL    HW221672   1.781   4.345   0.229
 6925SOL     OW21673   5.020   5.910   4.559
 6925SOL    HW121674   5.077   5.882   4.637
 6925SOL    HW221675   4.924   5.892   4.580
 6926SOL     OW21676   2.467   2.644   0.907
 6926SOL    HW121677   2.564   2.635   0.887
 6926SOL    HW221678   2.419   2.681   0.826
 6927SOL     OW21679   3.737   2.931   5.720
 6927SOL    HW121680   3.771   2.868   5.650
 6927SOL    HW221681   3.658   2.892   5.765
 6928SOL     OW21682   5.521   5.414   1.015
 6928SOL    HW121683   5.618   5.389   1.019
 6928SOL    HW221684   5.512   5.509   0.985
 6929SOL     OW21685   4.963   5.588   2.091
 6929SOL    HW121686   4.921   5.522   2.153
 6929SOL    HW221687   5.045   5.548   2.050
 6930SOL     OW21688   1.765   0.712   1.673
 6930SOL    HW121689   1.675   0.743   1.643
 6930SOL    HW221690   1.760   0.684   1.769
 6931SOL     OW21691   1.606   1.386   2.386
 6931SOL    HW121692   1.676   1.314   2.388
 6931SOL    HW221693   1.526   1.353   2.337
 6932SOL     OW21694   4.551   0.253   0.360
 6932SOL    HW121695   4.467   0.216   0.320
 6932SOL    HW221696   4.531   0.297   0.447
 6933SOL     OW21697   3.705   6.118   5.643
 6933SOL    HW121698   3.668   6.029   5.616
 6933SOL    HW221699   3.703   6.126   5.742
 6934SOL     OW21700   4.463   3.147   6.086
 6934SOL    HW121701   4.562   3.156   6.097
 6934SOL    HW221702   4.426   3.231   6.047
 6935SOL     OW21703   4.797   5.641   2.967
 6935SOL    HW121704   4.755   5.578   2.901
 6935SOL    HW221705   4.865   5.697   2.921
 6936SOL     OW21706   6.248   3.154   4.154
 6936SOL    HW121707   6.251   3.059   4.185
 6936SOL    HW221708   6.244   3.215   4.234
 6937SOL     OW21709   6.017   6.001   0.740
 6937SOL    HW121710   5.988   6.011   0.645
 6937SOL    HW221711   5.954   6.051   0.800
 6938SOL     OW21712   6.633   2.719   5.013
 6938SOL    HW121713   6.544   2.746   4.975
 6938SOL    HW221714   6.630   2.623   5.040
 6939SOL     OW21715   0.204   5.231   2.309
 6939SOL    HW121716   0.174   5.218   2.403
 6939SOL    HW221717   0.279   5.296   2.307
 6940SOL     OW21718   3.900   0.287   6.712
 6940SOL    HW121719   3.823   0.348   6.696
 6940SOL    HW221720   3.965   0.295   6.637
 6941SOL     OW21721   3.034   3.880   1.860
 6941SOL    HW121722   2.973   3.874   1.939
 6941SOL    HW221723   3.123   3.840   1.882
 6942SOL     OW21724   6.158   6.570   2.698
 6942SOL    HW121725   6.157   6.474   2.723
 6942SOL    HW221726   6.177   6.579   2.600
 6943SOL     OW21727   4.248   6.122   1.078
 6943SOL    HW121728   4.343   6.123   1.049
 6943SOL    HW221729   4.188   6.123   0.998
 6944SOL     OW21730   1.218   4.927   6.595
 6944SOL    HW121731   1.172   4.945   6.682
 6944SOL    HW221732   1.227   5.012   6.543
 6945SOL     OW21733   6.713   1.611   0.383
 6945SOL    HW121734   6.648   1.631   0.456
 6945SOL    HW221735   6.715   1.688   0.318
 6946SOL     OW21736   4.285   0.023   1.327
 6946SOL    HW121737   4.257   6.947   1.319
 6946SOL    HW221738   4.208   0.079   1.357
 6947SOL     OW21739   3.605   5.491   0.268
 6947SOL    HW121740   3.546   5.570   0.260
 6947SOL    HW221741   3.673   5.492   0.195
 6948SOL     OW21742   0.935   6.424   0.949
 6948SOL    HW121743   0.913   6.505   0.895
 6948SOL    HW221744   0.992   6.450   1.027
 6949SOL     OW21745   3.673   6.796   3.427
 6949SOL    HW121746   3.681   6.853   3.345
 6949SOL    HW221747   3.730   6.833   3.500
 6950SOL     OW21748   1.738   1.293   5.186
 6950SOL    HW121749   1.740   1.355   5.107
 6950SOL    HW221750   1.678   1.215   5.165
 6951SOL     OW21751   6.718   5.664   6.014
 6951SOL    HW121752   6.639   5.605   6.028
 6951SOL    HW221753   6.788   5.615   5.963
 6952SOL     OW21754   1.020   5.376   3.039
 6952SOL    HW121755   1.075   5.433   2.979
 6952SOL    HW221756   1.037   5.401   3.134
 6953SOL     OW21757   4.477   6.671   1.302
 6953SOL    HW121758   4.519   6.598   1.249
 6953SOL    HW221759   4.540   6.700   1.374
 6954SOL     OW21760   0.854   3.942   2.044
 6954SOL    HW121761   0.812   3.855   2.070
 6954SOL    HW221762   0.953   3.930   2.033
 6955SOL     OW21763   5.415   0.927   2.076
 6955SOL    HW121764   5.366   0.849   2.115
 6955SOL    HW221765   5.499   0.896   2.033
 6956SOL     OW21766   5.378   5.548   3.383
 6956SOL    HW121767   5.429   5.495   3.451
 6956SOL    HW221768   5.281   5.545   3.404
 6957SOL     OW21769   5.985   5.735   0.801
 6957SOL    HW121770   6.069   5.709   0.848
 6957SOL    HW221771   5.993   5.829   0.767
 6958SOL     OW21772   4.032   3.164   4.531
 6958SOL    HW121773   4.002   3.143   4.438
 6958SOL    HW221774   4.069   3.257   4.534
 6959SOL     OW21775   2.185   3.069   3.094
 6959SOL    HW121776   2.180   3.149   3.035
 6959SOL    HW221777   2.149   3.091   3.185
 6960SOL     OW21778   2.124   4.042   1.520
 6960SOL    HW121779   2.149   4.059   1.615
 6960SOL    HW221780   2.097   3.946   1.509
 6961SOL     OW21781   5.813   0.276   4.542
 6961SOL    HW121782   5.786   0.267   4.446
 6961SOL    HW221783   5.884   0.347   4.550
 6962SOL     OW21784   4.125   5.833   1.654
 6962SOL    HW121785   4.216   5.794   1.665
 6962SOL    HW221786   4.132   5.933   1.646
 6963SOL     OW21787   5.259   5.452   1.434
 6963SOL    HW121788   5.253   5.450   1.534
 6963SOL    HW221789   5.355   5.445   1.407
 6964SOL     OW21790   3.620   1.404   5.739
 6964SOL    HW121791   3.655   1.311   5.727
 6964SOL    HW221792   3.657   1.444   5.822
 6965SOL     OW21793   2.013   1.176   0.066
 6965SOL    HW121794   1.998   1.268   0.030
 6965SOL    HW221795   1.989   1.174   0.163
 6966SOL     OW21796   0.643   1.383   2.379
 6966SOL    HW121797   0.678   1.297   2.341
 6966SOL    HW221798   0.548   1.395   2.351
 6967SOL     OW21799   2.916   0.959   6.422
 6967SOL    HW121800   2.907   0.997   6.514
 6967SOL    HW221801   2.858   0.878   6.413
 6968SOL     OW21802   3.931   0.930   3.563
 6968SOL    HW121803   3.974   0.883   3.487
 6968SOL    HW221804   3.831   0.922   3.555
 6969SOL     OW21805   2.959   2.280   1.520
 6969SOL    HW121806   3.040   2.255   1.467
 6969SOL    HW221807   2.882   2.294   1.457
 6970SOL     OW21808   3.750   3.642   5.632
 6970SOL    HW121809   3.791   3.712   5.690
 6970SOL    HW221810   3.772   3.661   5.536
 6971SOL     OW21811   6.237   4.687   0.668
 6971SOL    HW121812   6.232   4.759   0.737
 6971SOL    HW221813   6.215   4.599   0.710
 6972SOL     OW21814   5.320   4.546   3.258
 6972SOL    HW121815   5.356   4.639   3.267
 6972SOL    HW221816   5.323   4.500   3.346
 6973SOL     OW21817   0.351   2.983   3.282
 6973SOL    HW121818   0.331   2.998   3.185
 6973SOL    HW221819   0.278   3.024   3.338
 6974SOL     OW21820   3.216   3.952   2.421
 6974SOL    HW121821   3.275   4.032   2.425
 6974SOL    HW221822   3.257   3.878   2.475
 6975SOL     OW21823   1.666   6.526   5.227
 6975SOL    HW121824   1.583   6.577   5.205
 6975SOL    HW221825   1.714   6.502   5.143
 6976SOL     OW21826   6.677   5.238   5.890
 6976SOL    HW121827   6.768   5.265   5.857
 6976SOL    HW221828   6.677   5.140   5.910
 6977SOL     OW21829   3.486   2.951   0.840
 6977SOL    HW121830   3.538   2.920   0.919
 6977SOL    HW221831   3.448   2.872   0.792
 6978SOL     OW21832   5.185   2.429   2.039
 6978SOL    HW121833   5.275   2.448   2.078
 6978SOL    HW221834   5.150   2.343   2.076
 6979SOL     OW21835   1.249   3.922   1.513
 6979SOL    HW121836   1.300   4.003   1.484
 6979SOL    HW221837   1.279   3.895   1.605
 6980SOL     OW21838   1.943   0.531   3.363
 6980SOL    HW121839   1.991   0.545   3.277
 6980SOL    HW221840   1.844   0.526   3.347
 6981SOL     OW21841   3.392   4.147   5.456
 6981SOL    HW121842   3.294   4.134   5.471
 6981SOL    HW221843   3.423   4.086   5.384
 6982SOL     OW21844   0.888   0.938   4.670
 6982SOL    HW121845   0.846   1.000   4.736
 6982SOL    HW221846   0.913   0.852   4.715
 6983SOL     OW21847   4.537   2.080   4.474
 6983SOL    HW121848   4.613   2.073   4.539
 6983SOL    HW221849   4.571   2.067   4.381
 6984SOL     OW21850   2.216   1.710   3.338
 6984SOL    HW121851   2.310   1.674   3.330
 6984SOL    HW221852   2.199   1.774   3.264
 6985SOL     OW21853   5.815   5.551   1.016
 6985SOL    HW121854   5.795   5.504   0.930
 6985SOL    HW221855   5.914   5.553   1.031
 6986SOL     OW21856   3.230   0.040   6.660
 6986SOL    HW121857   3.152   0.034   6.597
 6986SOL    HW221858   3.212   7.005   6.741
 6987SOL     OW21859   6.288   1.563   5.963
 6987SOL    HW121860   6.268   1.614   5.880
 6987SOL    HW221861   6.236   1.600   6.040
 6988SOL     OW21862   1.099   0.080   6.750
 6988SOL    HW121863   1.180   0.043   6.705
 6988SOL    HW221864   1.032   0.007   6.763
 6989SOL     OW21865   0.519   4.500   2.887
 6989SOL    HW121866   0.534   4.461   2.796
 6989SOL    HW221867   0.434   4.463   2.926
 6990SOL     OW21868   4.284   2.534   0.972
 6990SOL    HW121869   4.213   2.468   0.999
 6990SOL    HW221870   4.370   2.485   0.957
 6991SOL     OW21871   4.600   4.390   3.567
 6991SOL    HW121872   4.545   4.447   3.627
 6991SOL    HW221873   4.582   4.294   3.587
 6992SOL     OW21874   5.718   0.466   6.463
 6992SOL    HW121875   5.644   0.433   6.404
 6992SOL    HW221876   5.774   0.389   6.494
 6993SOL     OW21877   5.932   6.667   2.433
 6993SOL    HW121878   5.881   6.751   2.410
 6993SOL    HW221879   5.911   6.641   2.527
 6994SOL     OW21880   0.045   2.271   3.728
 6994SOL    HW121881   0.001   2.324   3.800
 6994SOL    HW221882   0.125   2.321   3.694
 6995SOL     OW21883   1.158   4.155   6.446
 6995SOL    HW121884   1.067   4.159   6.488
 6995SOL    HW221885   1.159   4.210   6.362
 6996SOL     OW21886   2.151   0.433   0.186
 6996SOL    HW121887   2.087   0.414   0.261
 6996SOL    HW221888   2.162   0.532   0.175
 6997SOL     OW21889   0.492   4.943   5.094
 6997SOL    HW121890   0.530   4.918   5.005
 6997SOL    HW221891   0.564   4.942   5.163
 6998SOL     OW21892   1.463   1.684   1.395
 6998SOL    HW121893   1.480   1.781   1.383
 6998SOL    HW221894   1.387   1.670   1.458
 6999SOL     OW21895   1.525   3.417   6.151
 6999SOL    HW121896   1.545   3.396   6.056
 6999SOL    HW221897   1.577   3.356   6.211
 7000SOL     OW21898   6.020   6.568   2.019
 7000SOL    HW121899   6.114   6.551   2.048
 7000SOL    HW221900   5.966   6.484   2.028
 7001SOL     OW21901   1.648   3.388   5.434
 7001SOL    HW121902   1.683   3.482   5.438
 7001SOL    HW221903   1.698   3.337   5.365
 7002SOL     OW21904   1.644   5.663   4.447
 7002SOL    HW121905   1.548   5.644   4.428
 7002SOL    HW221906   1.667   5.756   4.417
 7003SOL     OW21907   4.386   5.920   1.353
 7003SOL    HW121908   4.474   5.877   1.372
 7003SOL    HW221909   4.379   5.939   1.255
 7004SOL     OW21910   0.538   5.889   1.278
 7004SOL    HW121911   0.601   5.840   1.216
 7004SOL    HW221912   0.461   5.829   1.301
 7005SOL     OW21913   1.279   0.388   1.058
 7005SOL    HW121914   1.210   0.447   1.017
 7005SOL    HW221915   1.242   0.345   1.140
 7006SOL     OW21916   5.598   5.458   3.520
 7006SOL    HW121917   5.618   5.366   3.487
 7006SOL    HW221918   5.608   5.523   3.445
 7007SOL     OW21919   3.981   0.703   4.635
 7007SOL    HW121920   3.904   0.641   4.645
 7007SOL    HW221921   3.953   0.782   4.579
 7008SOL     OW21922   0.748   3.945   4.142
 7008SOL    HW121923   0.676   4.014   4.151
 7008SOL    HW221924   0.770   3.933   4.045
 7009SOL     OW21925   4.126   6.515   2.703
 7009SOL    HW121926   4.126   6.592   2.767
 7009SOL    HW221927   4.085   6.544   2.616
 7010SOL     OW21928   5.601   4.171   3.954
 7010SOL    HW121929   5.647   4.116   4.025
 7010SOL    HW221930   5.544   4.240   3.998
 7011SOL     OW21931   3.272   6.703   6.622
 7011SOL    HW121932   3.193   6.660   6.578
 7011SOL    HW221933   3.261   6.701   6.721
 7012SOL     OW21934   1.292   1.932   0.773
 7012SOL    HW121935   1.231   1.963   0.700
 7012SOL    HW221936   1.244   1.866   0.831
 7013SOL     OW21937   1.075   6.686   6.930
 7013SOL    HW121938   1.069   6.600   6.980
 7013SOL    HW221939   1.170   6.702   6.903
 7014SOL     OW21940   4.828   3.166   0.677
 7014SOL    HW121941   4.842   3.072   0.709
 7014SOL    HW221942   4.736   3.196   0.701
 7015SOL     OW21943   5.460   4.112   1.181
 7015SOL    HW121944   5.406   4.195   1.167
 7015SOL    HW221945   5.557   4.136   1.182
 7016SOL     OW21946   3.758   4.821   1.325
 7016SOL    HW121947   3.759   4.852   1.230
 7016SOL    HW221948   3.669   4.842   1.366
 7017SOL     OW21949   2.975   5.311   3.220
 7017SOL    HW121950   2.955   5.305   3.318
 7017SOL    HW221951   3.073   5.324   3.207
 7018SOL     OW21952   5.112   3.877   4.096
 7018SOL    HW121953   5.169   3.811   4.144
 7018SOL    HW221954   5.016   3.848   4.101
 7019SOL     OW21955   3.825   4.849   0.410
 7019SOL    HW121956   3.738   4.880   0.450
 7019SOL    HW221957   3.825   4.749   0.404
 7020SOL     OW21958   6.864   4.292   5.351
 7020SOL    HW121959   6.866   4.382   5.394
 7020SOL    HW221960   6.777   4.246   5.373
 7021SOL     OW21961   1.900   2.344   4.819
 7021SOL    HW121962   1.957   2.268   4.852
 7021SOL    HW221963   1.804   2.326   4.840
 7022SOL     OW21964   4.785   6.914   6.781
 7022SOL    HW121965   4.818   6.935   6.689
 7022SOL    HW221966   4.699   6.864   6.774
 7023SOL     OW21967   1.224   3.125   2.582
 7023SOL    HW121968   1.291   3.063   2.622
 7023SOL    HW221969   1.269   3.188   2.520
 7024SOL     OW21970   3.054   3.888   4.512
 7024SOL    HW121971   3.042   3.791   4.531
 7024SOL    HW221972   3.037   3.905   4.415
 7025SOL     OW21973   3.998   1.174   1.063
 7025SOL    HW121974   4.000   1.084   1.107
 7025SOL    HW221975   3.904   1.207   1.058
 7026SOL     OW21976   3.620   2.070   2.245
 7026SOL    HW121977   3.628   2.129   2.164
 7026SOL    HW221978   3.640   1.976   2.220
 7027SOL     OW21979   2.752   5.676   4.557
 7027SOL    HW121980   2.674   5.626   4.595
 7027SOL    HW221981   2.778   5.749   4.620
 7028SOL     OW21982   3.950   1.205   3.245
 7028SOL    HW121983   3.862   1.225   3.287
 7028SOL    HW221984   3.942   1.124   3.187
 7029SOL     OW21985   4.113   4.470   5.304
 7029SOL    HW121986   4.192   4.452   5.246
 7029SOL    HW221987   4.061   4.385   5.317
 7030SOL     OW21988   0.206   1.250   5.085
 7030SOL    HW121989   0.190   1.233   4.987
 7030SOL    HW221990   0.302   1.232   5.106
 7031SOL     OW21991   3.989   6.057   0.027
 7031SOL    HW121992   3.911   6.094   0.076
 7031SOL    HW221993   4.004   6.110   6.963
 7032SOL     OW21994   4.468   1.379   3.622
 7032SOL    HW121995   4.412   1.302   3.652
 7032SOL    HW221996   4.417   1.464   3.633
 7033SOL     OW21997   1.322   2.497   3.389
 7033SOL    HW121998   1.318   2.427   3.317
 7033SOL    HW221999   1.249   2.563   3.375
 7034SOL     OW22000   7.009   1.528   2.842
 7034SOL    HW122001   7.010   1.627   2.855
 7034SOL    HW222002   0.080   1.491   2.863
 7035SOL     OW22003   1.407   0.303   0.534
 7035SOL    HW122004   1.474   0.363   0.578
 7035SOL    HW222005   1.384   0.227   0.595
 7036SOL     OW22006   6.637   1.374   2.483
 7036SOL    HW122007   6.721   1.402   2.531
 7036SOL    HW222008   6.652   1.378   2.385
 7037SOL     OW22009   0.788   1.005   6.599
 7037SOL    HW122010   0.750   0.935   6.539
 7037SOL    HW222011   0.854   0.963   6.662
 7038SOL     OW22012   2.286   4.274   5.040
 7038SOL    HW122013   2.354   4.311   5.103
 7038SOL    HW222014   2.322   4.190   4.998
 7039SOL     OW22015   0.384   6.230   2.798
 7039SOL    HW122016   0.461   6.244   2.735
 7039SOL    HW222017   0.400   6.284   2.881
 7040SOL     OW22018   5.636   2.951   5.856
 7040SOL    HW122019   5.554   2.913   5.899
 7040SOL    HW222020   5.714   2.939   5.916
 7041SOL     OW22021   6.675   1.609   2.147
 7041SOL    HW122022   6.703   1.702   2.171
 7041SOL    HW222023   6.576   1.602   2.153
 7042SOL     OW22024   4.219   6.108   4.431
 7042SOL    HW122025   4.318   6.115   4.422
 7042SOL    HW222026   4.196   6.064   4.518
 7043SOL     OW22027   2.437   4.751   3.518
 7043SOL    HW122028   2.504   4.824   3.507
 7043SOL    HW222029   2.369   4.777   3.586
 7044SOL     OW22030   5.615   5.391   5.305
 7044SOL    HW122031   5.663   5.410   5.391
 7044SOL    HW222032   5.579   5.298   5.308
 7045SOL     OW22033   5.221   5.633   2.241
 7045SOL    HW122034   5.273   5.677   2.314
 7045SOL    HW222035   5.213   5.535   2.261
 7046SOL     OW22036   3.116   1.829   3.539
 7046SOL    HW122037   3.200   1.879   3.521
 7046SOL    HW222038   3.083   1.787   3.455
 7047SOL     OW22039   6.529   0.832   2.142
 7047SOL    HW122040   6.456   0.851   2.208
 7047SOL    HW222041   6.594   0.768   2.182
 7048SOL     OW22042   5.724   6.403   4.540
 7048SOL    HW122043   5.699   6.497   4.519
 7048SOL    HW222044   5.822   6.390   4.525
 7049SOL     OW22045   3.804   2.025   1.001
 7049SOL    HW122046   3.801   2.124   1.012
 7049SOL    HW222047   3.822   2.002   0.905
 7050SOL     OW22048   4.157   3.357   1.463
 7050SOL    HW122049   4.218   3.431   1.487
 7050SOL    HW222050   4.079   3.355   1.526
 7051SOL     OW22051   6.984   6.165   1.170
 7051SOL    HW122052   0.000   6.157   1.263
 7051SOL    HW222053   7.016   6.089   1.115
 7052SOL     OW22054   6.665   0.767   4.038
 7052SOL    HW122055   6.646   0.736   3.945
 7052SOL    HW222056   6.640   0.864   4.046
 7053SOL     OW22057   1.673   3.414   4.667
 7053SOL    HW122058   1.727   3.360   4.603
 7053SOL    HW222059   1.705   3.509   4.665
 7054SOL     OW22060   0.128   6.475   0.938
 7054SOL    HW122061   0.169   6.494   0.849
 7054SOL    HW222062   0.110   6.561   0.985
 7055SOL     OW22063   3.194   0.281   0.190
 7055SOL    HW122064   3.130   0.303   0.116
 7055SOL    HW222065   3.145   0.233   0.263
 7056SOL     OW22066   6.299   4.875   1.574
 7056SOL    HW122067   6.307   4.878   1.474
 7056SOL    HW222068   6.375   4.822   1.612
 7057SOL     OW22069   3.138   4.879   3.674
 7057SOL    HW122070   3.187   4.837   3.598
 7057SOL    HW222071   3.041   4.885   3.653
 7058SOL     OW22072   5.316   2.289   5.996
 7058SOL    HW122073   5.345   2.202   5.954
 7058SOL    HW222074   5.386   2.320   6.060
 7059SOL     OW22075   1.177   0.823   4.015
 7059SOL    HW122076   1.255   0.851   4.070
 7059SOL    HW222077   1.112   0.772   4.072
 7060SOL     OW22078   3.364   0.386   0.731
 7060SOL    HW122079   3.365   0.332   0.815
 7060SOL    HW222080   3.271   0.391   0.695
 7061SOL     OW22081   0.210   2.800   3.727
 7061SOL    HW122082   0.112   2.798   3.746
 7061SOL    HW222083   0.261   2.777   3.810
 7062SOL     OW22084   3.507   2.165   5.284
 7062SOL    HW122085   3.590   2.108   5.277
 7062SOL    HW222086   3.433   2.122   5.232
 7063SOL     OW22087   1.726   6.908   2.202
 7063SOL    HW122088   1.715   6.978   2.273
 7063SOL    HW222089   1.819   6.914   2.165
 7064SOL     OW22090   3.985   2.160   6.980
 7064SOL    HW122091   4.084   2.175   6.975
 7064SOL    HW222092   3.961   2.130   0.053
 7065SOL     OW22093   3.319   3.805   5.129
 7065SOL    HW122094   3.326   3.902   5.150
 7065SOL    HW222095   3.336   3.790   5.032
 7066SOL     OW22096   4.292   6.867   6.201
 7066SOL    HW122097   4.291   6.910   6.291
 7066SOL    HW222098   4.376   6.892   6.154
 7067SOL     OW22099   1.028   3.586   5.467
 7067SOL    HW122100   0.942   3.537   5.459
 7067SOL    HW222101   1.104   3.525   5.443
 7068SOL     OW22102   5.602   4.075   4.927
 7068SOL    HW122103   5.680   4.119   4.883
 7068SOL    HW222104   5.600   4.097   5.024
 7069SOL     OW22105   5.937   1.386   5.555
 7069SOL    HW122106   5.915   1.358   5.461
 7069SOL    HW222107   6.021   1.440   5.554
 7070SOL     OW22108   1.223   6.641   3.987
 7070SOL    HW122109   1.153   6.712   3.983
 7070SOL    HW222110   1.293   6.667   4.053
 7071SOL     OW22111   3.594   5.836   0.119
 7071SOL    HW122112   3.633   5.925   0.143
 7071SOL    HW222113   3.538   5.803   0.195
 7072SOL     OW22114   1.872   5.106   0.009
 7072SOL    HW122115   1.898   5.109   6.932
 7072SOL    HW222116   1.773   5.101   0.017
 7073SOL     OW22117   4.023   7.003   3.438
 7073SOL    HW122118   4.047   0.080   3.424
 7073SOL    HW222119   4.106   6.948   3.440
 7074SOL     OW22120   6.145   2.838   2.643
 7074SOL    HW122121   6.229   2.883   2.673
 7074SOL    HW222122   6.067   2.899   2.658
 7075SOL     OW22123   2.036   4.678   4.407
 7075SOL    HW122124   1.966   4.661   4.337
 7075SOL    HW222125   2.121   4.633   4.381
 7076SOL     OW22126   5.401   3.338   0.508
 7076SOL    HW122127   5.428   3.431   0.533
 7076SOL    HW222128   5.317   3.341   0.453
 7077SOL     OW22129   2.224   4.084   3.810
 7077SOL    HW122130   2.184   4.048   3.725
 7077SOL    HW222131   2.156   4.083   3.882
 7078SOL     OW22132   6.294   6.295   0.987
 7078SOL    HW122133   6.261   6.201   0.994
 7078SOL    HW222134   6.217   6.358   0.992
 7079SOL     OW22135   0.989   6.661   3.695
 7079SOL    HW122136   0.896   6.646   3.663
 7079SOL    HW222137   1.019   6.581   3.747
 7080SOL     OW22138   3.714   1.407   3.946
 7080SOL    HW122139   3.755   1.480   4.000
 7080SOL    HW222140   3.756   1.320   3.970
 7081SOL     OW22141   1.253   5.363   0.487
 7081SOL    HW122142   1.310   5.415   0.423
 7081SOL    HW222143   1.285   5.380   0.581
 7082SOL     OW22144   0.050   4.176   0.347
 7082SOL    HW122145   0.014   4.089   0.381
 7082SOL    HW222146   7.004   4.249   0.367
 7083SOL     OW22147   6.813   1.121   2.346
 7083SOL    HW122148   6.834   1.217   2.332
 7083SOL    HW222149   6.851   1.090   2.433
 7084SOL     OW22150   1.292   5.177   5.676
 7084SOL    HW122151   1.304   5.116   5.597
 7084SOL    HW222152   1.195   5.203   5.682
 7085SOL     OW22153   6.955   2.071   2.419
 7085SOL    HW122154   0.017   2.013   2.427
 7085SOL    HW222155   6.916   2.086   2.509
 7086SOL     OW22156   5.262   1.010   5.970
 7086SOL    HW122157   5.244   0.959   5.886
 7086SOL    HW222158   5.355   0.990   6.001
 7087SOL     OW22159   5.938   4.180   2.789
 7087SOL    HW122160   5.882   4.098   2.800
 7087SOL    HW222161   6.012   4.178   2.856
 7088SOL     OW22162   5.022   2.582   5.079
 7088SOL    HW122163   4.947   2.545   5.134
 7088SOL    HW222164   5.067   2.508   5.030
 7089SOL     OW22165   1.996   3.191   3.354
 7089SOL    HW122166   2.069   3.123   3.363
 7089SOL    HW222167   2.033   3.282   3.372
 7090SOL     OW22168   2.417   1.655   0.228
 7090SOL    HW122169   2.478   1.575   0.231
 7090SOL    HW222170   2.466   1.736   0.258
 7091SOL     OW22171   0.811   0.886   0.993
 7091SOL    HW122172   0.771   0.914   1.080
 7091SOL    HW222173   0.739   0.885   0.923
 7092SOL     OW22174   4.025   3.060   5.586
 7092SOL    HW122175   4.049   3.019   5.498
 7092SOL    HW222176   3.934   3.029   5.613
 7093SOL     OW22177   3.228   4.337   1.658
 7093SOL    HW122178   3.217   4.288   1.571
 7093SOL    HW222179   3.234   4.272   1.733
 7094SOL     OW22180   0.540   6.906   5.697
 7094SOL    HW122181   0.616   6.843   5.679
 7094SOL    HW222182   0.474   6.861   5.758
 7095SOL     OW22183   2.950   4.815   6.111
 7095SOL    HW122184   2.947   4.887   6.041
 7095SOL    HW222185   2.890   4.740   6.084
 7096SOL     OW22186   6.513   6.947   1.724
 7096SOL    HW122187   6.561   6.935   1.637
 7096SOL    HW222188   6.416   6.964   1.706
 7097SOL     OW22189   5.366   1.153   1.611
 7097SOL    HW122190   5.419   1.237   1.600
 7097SOL    HW222191   5.319   1.154   1.700
 7098SOL     OW22192   1.503   5.253   5.799
 7098SOL    HW122193   1.420   5.229   5.748
 7098SOL    HW222194   1.583   5.213   5.753
 7099SOL     OW22195   3.375   2.130   4.433
 7099SOL    HW122196   3.415   2.159   4.520
 7099SOL    HW222197   3.444   2.134   4.361
 7100SOL     OW22198   6.042   3.267   0.387
 7100SOL    HW122199   6.120   3.256   0.326
 7100SOL    HW222200   6.051   3.205   0.465
 7101SOL     OW22201   2.462   1.046   5.079
 7101SOL    HW122202   2.396   1.055   5.005
 7101SOL    HW222203   2.419   1.072   5.166
 7102SOL     OW22204   5.764   0.159   0.887
 7102SOL    HW122205   5.824   0.107   0.826
 7102SOL    HW222206   5.724   0.097   0.955
 7103SOL     OW22207   5.599   5.146   1.768
 7103SOL    HW122208   5.558   5.232   1.738
 7103SOL    HW222209   5.692   5.139   1.732
 7104SOL     OW22210   6.394   3.695   2.648
 7104SOL    HW122211   6.427   3.618   2.593
 7104SOL    HW222212   6.342   3.660   2.726
 7105SOL     OW22213   3.250   3.300   4.647
 7105SOL    HW122214   3.156   3.329   4.629
 7105SOL    HW222215   3.254   3.200   4.656
 7106SOL     OW22216   3.455   2.972   1.407
 7106SOL    HW122217   3.385   2.967   1.478
 7106SOL    HW222218   3.413   2.999   1.321
 7107SOL     OW22219   4.734   0.297   0.845
 7107SOL    HW122220   4.762   0.225   0.908
 7107SOL    HW222221   4.638   0.283   0.820
 7108SOL     OW22222   2.623   5.569   2.851
 7108SOL    HW122223   2.689   5.556   2.925
 7108SOL    HW222224   2.635   5.496   2.783
 7109SOL     OW22225   1.830   0.873   6.687
 7109SOL    HW122226   1.827   0.936   6.610
 7109SOL    HW222227   1.856   0.782   6.655
 7110SOL     OW22228   2.788   5.703   4.282
 7110SOL    HW122229   2.749   5.732   4.370
 7110SOL    HW222230   2.803   5.604   4.284
 7111SOL     OW22231   1.784   2.128   4.290
 7111SOL    HW122232   1.852   2.061   4.260
 7111SOL    HW222233   1.830   2.207   4.330
 7112SOL     OW22234   1.889   5.242   4.477
 7112SOL    HW122235   1.807   5.202   4.518
 7112SOL    HW222236   1.970   5.201   4.519
 7113SOL     OW22237   3.652   4.190   4.572
 7113SOL    HW122238   3.742   4.233   4.572
 7113SOL    HW222239   3.631   4.157   4.664
 7114SOL     OW22240   4.323   5.170   1.339
 7114SOL    HW122241   4.314   5.176   1.438
 7114SOL    HW222242   4.253   5.227   1.295
 7115SOL     OW22243   5.270   3.317   6.538
 7115SOL    HW122244   5.276   3.322   6.438
 7115SOL    HW222245   5.254   3.222   6.565
 7116SOL     OW22246   5.241   4.380   3.474
 7116SOL    HW122247   5.293   4.308   3.428
 7116SOL    HW222248   5.270   4.385   3.570
 7117SOL     OW22249   0.258   0.044   4.712
 7117SOL    HW122250   0.304   0.126   4.679
 7117SOL    HW222251   0.315   7.018   4.780
 7118SOL     OW22252   3.698   4.485   6.002
 7118SOL    HW122253   3.783   4.449   6.040
 7118SOL    HW222254   3.642   4.410   5.967
 7119SOL     OW22255   4.963   0.690   4.999
 7119SOL    HW122256   4.890   0.747   4.961
 7119SOL    HW222257   4.984   0.616   4.936
 7120SOL     OW22258   3.608   1.808   1.322
 7120SOL    HW122259   3.583   1.725   1.371
 7120SOL    HW222260   3.576   1.888   1.373
 7121SOL     OW22261   0.949   6.764   2.860
 7121SOL    HW122262   0.907   6.693   2.803
 7121SOL    HW222263   0.899   6.850   2.849
 7122SOL     OW22264   1.685   0.708   5.649
 7122SOL    HW122265   1.748   0.755   5.712
 7122SOL    HW222266   1.606   0.767   5.631
 7123SOL     OW22267   0.675   5.050   3.802
 7123SOL    HW122268   0.702   4.984   3.872
 7123SOL    HW222269   0.691   5.143   3.836
 7124SOL     OW22270   0.913   2.524   1.560
 7124SOL    HW122271   0.826   2.567   1.584
 7124SOL    HW222272   0.986   2.592   1.562
 7125SOL     OW22273   1.050   1.296   0.895
 7125SOL    HW122274   0.978   1.228   0.889
 7125SOL    HW222275   1.136   1.257   0.860
 7126SOL     OW22276   4.220   5.929   0.617
 7126SOL    HW122277   4.179   6.020   0.619
 7126SOL    HW222278   4.147   5.861   0.610
 7127SOL     OW22279   2.795   6.198   6.327
 7127SOL    HW122280   2.776   6.179   6.231
 7127SOL    HW222281   2.767   6.120   6.383
 7128SOL     OW22282   3.893   4.096   6.918
 7128SOL    HW122283   3.852   4.036   6.987
 7128SOL    HW222284   3.972   4.051   6.876
 7129SOL     OW22285   1.857   1.358   0.918
 7129SOL    HW122286   1.826   1.413   0.995
 7129SOL    HW222287   1.782   1.345   0.853
 7130SOL     OW22288   3.677   6.501   4.502
 7130SOL    HW122289   3.686   6.411   4.545
 7130SOL    HW222290   3.760   6.554   4.520
 7131SOL     OW22291   3.229   0.817   1.696
 7131SOL    HW122292   3.274   0.873   1.767
 7131SOL    HW222293   3.151   0.867   1.659
 7132SOL     OW22294   4.510   4.168   0.476
 7132SOL    HW122295   4.593   4.218   0.500
 7132SOL    HW222296   4.532   4.071   0.463
 7133SOL     OW22297   4.156   4.838   5.144
 7133SOL    HW122298   4.084   4.768   5.140
 7133SOL    HW222299   4.131   4.906   5.213
 7134SOL     OW22300   5.400   6.626   2.381
 7134SOL    HW122301   5.455   6.582   2.452
 7134SOL    HW222302   5.321   6.568   2.358
 7135SOL     OW22303   2.385   2.508   3.085
 7135SOL    HW122304   2.397   2.548   3.175
 7135SOL    HW222305   2.474   2.498   3.040
 7136SOL     OW22306   3.039   1.857   0.795
 7136SOL    HW122307   3.127   1.809   0.784
 7136SOL    HW222308   2.969   1.791   0.821
 7137SOL     OW22309   2.904   1.977   0.402
 7137SOL    HW122310   2.806   1.985   0.417
 7137SOL    HW222311   2.950   2.060   0.434
 7138SOL     OW22312   1.603   1.292   0.829
 7138SOL    HW122313   1.530   1.361   0.834
 7138SOL    HW222314   1.611   1.247   0.918
 7139SOL     OW22315   5.350   4.715   2.581
 7139SOL    HW122316   5.443   4.685   2.564
 7139SOL    HW222317   5.350   4.786   2.652
 7140SOL     OW22318   6.373   3.949   0.884
 7140SOL    HW122319   6.363   3.896   0.799
 7140SOL    HW222320   6.295   3.929   0.944
 7141SOL     OW22321   4.385   7.019   0.987
 7141SOL    HW122322   4.368   0.019   1.084
 7141SOL    HW222323   4.305   6.973   0.948
 7142SOL     OW22324   3.529   6.821   3.942
 7142SOL    HW122325   3.466   6.788   4.013
 7142SOL    HW222326   3.477   6.847   3.861
 7143SOL     OW22327   1.726   3.821   6.666
 7143SOL    HW122328   1.698   3.882   6.740
 7143SOL    HW222329   1.666   3.741   6.664
 7144SOL     OW22330   0.719   0.835   3.277
 7144SOL    HW122331   0.722   0.742   3.242
 7144SOL    HW222332   0.806   0.881   3.258
 7145SOL     OW22333   4.727   0.666   6.646
 7145SOL    HW122334   4.763   0.643   6.555
 7145SOL    HW222335   4.757   0.596   6.711
 7146SOL     OW22336   1.795   1.199   6.273
 7146SOL    HW122337   1.734   1.264   6.318
 7146SOL    HW222338   1.748   1.159   6.194
 7147SOL     OW22339   6.647   5.937   3.279
 7147SOL    HW122340   6.590   5.859   3.257
 7147SOL    HW222341   6.685   5.926   3.371
 7148SOL     OW22342   6.335   6.176   1.988
 7148SOL    HW122343   6.237   6.170   2.007
 7148SOL    HW222344   6.386   6.171   2.074
 7149SOL     OW22345   0.394   5.030   3.759
 7149SOL    HW122346   0.493   5.040   3.750
 7149SOL    HW222347   0.349   5.113   3.725
 7150SOL     OW22348   3.362   3.233   0.239
 7150SOL    HW122349   3.369   3.142   0.198
 7150SOL    HW222350   3.452   3.277   0.239
 7151SOL     OW22351   2.878   6.462   1.036
 7151SOL    HW122352   2.822   6.398   1.089
 7151SOL    HW222353   2.868   6.443   0.939
 7152SOL     OW22354   6.601   0.840   6.480
 7152SOL    HW122355   6.577   0.886   6.395
 7152SOL    HW222356   6.587   0.741   6.470
 7153SOL     OW22357   3.705   5.193   1.601
 7153SOL    HW122358   3.764   5.190   1.682
 7153SOL    HW222359   3.646   5.274   1.605
 7154SOL     OW22360   4.241   6.568   3.111
 7154SOL    HW122361   4.274   6.626   3.186
 7154SOL    HW222362   4.194   6.624   3.043
 7155SOL     OW22363   3.532   3.261   1.487
 7155SOL    HW122364   3.621   3.239   1.449
 7155SOL    HW222365   3.469   3.185   1.473
 7156SOL     OW22366   4.986   3.652   2.517
 7156SOL    HW122367   4.948   3.745   2.517
 7156SOL    HW222368   4.924   3.591   2.467
 7157SOL     OW22369   0.026   4.610   1.928
 7157SOL    HW122370   0.033   4.660   1.841
 7157SOL    HW222371   0.085   4.530   1.925
 7158SOL     OW22372   0.736   6.616   2.731
 7158SOL    HW122373   0.690   6.609   2.643
 7158SOL    HW222374   0.683   6.567   2.800
 7159SOL     OW22375   1.194   4.826   4.164
 7159SOL    HW122376   1.124   4.803   4.097
 7159SOL    HW222377   1.152   4.872   4.242
 7160SOL     OW22378   6.235   6.136   2.284
 7160SOL    HW122379   6.325   6.150   2.244
 7160SOL    HW222380   6.220   6.039   2.302
 7161SOL     OW22381   3.298   3.720   2.515
 7161SOL    HW122382   3.232   3.667   2.461
 7161SOL    HW222383   3.305   3.681   2.607
 7162SOL     OW22384   0.822   5.008   6.527
 7162SOL    HW122385   0.798   4.992   6.623
 7162SOL    HW222386   0.740   5.032   6.476
 7163SOL     OW22387   3.438   0.610   2.691
 7163SOL    HW122388   3.442   0.685   2.625
 7163SOL    HW222389   3.357   0.621   2.749
 7164SOL     OW22390   1.775   0.221   5.160
 7164SOL    HW122391   1.723   0.165   5.096
 7164SOL    HW222392   1.869   0.189   5.164
 7165SOL     OW22393   5.926   6.349   1.721
 7165SOL    HW122394   5.921   6.392   1.811
 7165SOL    HW222395   6.021   6.349   1.689
 7166SOL     OW22396   5.489   1.614   0.128
 7166SOL    HW122397   5.537   1.558   0.060
 7166SOL    HW222398   5.390   1.597   0.120
 7167SOL     OW22399   4.807   2.948   4.772
 7167SOL    HW122400   4.796   3.026   4.833
 7167SOL    HW222401   4.717   2.910   4.749
 7168SOL     OW22402   2.928   1.967   3.100
 7168SOL    HW122403   2.938   2.063   3.073
 7168SOL    HW222404   2.846   1.956   3.155
 7169SOL     OW22405   0.320   4.102   4.801
 7169SOL    HW122406   0.383   4.030   4.830
 7169SOL    HW222407   0.346   4.135   4.711
 7170SOL     OW22408   4.282   0.247   2.411
 7170SOL    HW122409   4.291   0.167   2.470
 7170SOL    HW222410   4.372   0.275   2.379
 7171SOL     OW22411   5.981   3.468   0.873
 7171SOL    HW122412   5.956   3.372   0.887
 7171SOL    HW222413   6.051   3.495   0.939
 7172SOL     OW22414   2.220   1.418   5.463
 7172SOL    HW122415   2.264   1.394   5.377
 7172SOL    HW222416   2.227   1.517   5.477
 7173SOL     OW22417   6.169   4.858   6.571
 7173SOL    HW122418   6.157   4.841   6.473
 7173SOL    HW222419   6.259   4.899   6.587
 7174SOL     OW22420   0.154   4.938   0.844
 7174SOL    HW122421   0.211   5.004   0.892
 7174SOL    HW222422   0.112   4.981   0.764
 7175SOL     OW22423   7.010   3.383   4.893
 7175SOL    HW122424   0.003   3.285   4.906
 7175SOL    HW222425   0.029   3.410   4.804
 7176SOL     OW22426   6.781   1.717   4.525
 7176SOL    HW122427   6.730   1.702   4.440
 7176SOL    HW222428   6.718   1.715   4.602
 7177SOL     OW22429   1.541   4.405   5.853
 7177SOL    HW122430   1.624   4.400   5.908
 7177SOL    HW222431   1.566   4.413   5.757
 7178SOL     OW22432   0.621   1.324   6.326
 7178SOL    HW122433   0.664   1.412   6.306
 7178SOL    HW222434   0.680   1.272   6.388
 7179SOL     OW22435   1.685   3.912   4.565
 7179SOL    HW122436   1.618   3.886   4.495
 7179SOL    HW222437   1.721   3.829   4.608
 7180SOL     OW22438   2.576   3.946   0.486
 7180SOL    HW122439   2.564   3.847   0.489
 7180SOL    HW222440   2.655   3.972   0.540
 7181SOL     OW22441   2.281   0.826   6.590
 7181SOL    HW122442   2.200   0.869   6.630
 7181SOL    HW222443   2.259   0.731   6.564
 7182SOL     OW22444   0.797   3.808   3.296
 7182SOL    HW122445   0.886   3.814   3.341
 7182SOL    HW222446   0.773   3.896   3.256
 7183SOL     OW22447   1.831   6.150   2.219
 7183SOL    HW122448   1.891   6.073   2.241
 7183SOL    HW222449   1.886   6.233   2.209
 7184SOL     OW22450   6.803   0.846   3.680
 7184SOL    HW122451   6.863   0.882   3.751
 7184SOL    HW222452   6.819   0.895   3.595
 7185SOL     OW22453   5.212   0.795   5.479
 7185SOL    HW122454   5.305   0.829   5.464
 7185SOL    HW222455   5.177   0.755   5.395
 7186SOL     OW22456   6.777   1.431   1.511
 7186SOL    HW122457   6.827   1.516   1.493
 7186SOL    HW222458   6.684   1.438   1.475
 7187SOL     OW22459   2.802   3.768   5.333
 7187SOL    HW122460   2.783   3.716   5.417
 7187SOL    HW222461   2.722   3.822   5.308
 7188SOL     OW22462   4.868   5.646   0.010
 7188SOL    HW122463   4.887   5.560   0.057
 7188SOL    HW222464   4.835   5.713   0.076
 7189SOL     OW22465   6.262   3.144   5.626
 7189SOL    HW122466   6.336   3.087   5.591
 7189SOL    HW222467   6.174   3.100   5.606
 7190SOL     OW22468   6.044   6.145   1.170
 7190SOL    HW122469   6.099   6.103   1.098
 7190SOL    HW222470   6.003   6.229   1.135
 7191SOL     OW22471   0.151   4.389   2.743
 7191SOL    HW122472   0.060   4.349   2.727
 7191SOL    HW222473   0.185   4.358   2.832
 7192SOL     OW22474   1.711   4.033   6.815
 7192SOL    HW122475   1.778   4.074   6.754
 7192SOL    HW222476   1.623   4.027   6.769
 7193SOL     OW22477   2.221   2.053   2.627
 7193SOL    HW122478   2.189   2.051   2.533
 7193SOL    HW222479   2.165   1.993   2.684
 7194SOL     OW22480   1.885   2.860   6.915
 7194SOL    HW122481   1.974   2.898   6.889
 7194SOL    HW222482   1.823   2.934   6.939
 7195SOL     OW22483   6.186   4.278   6.924
 7195SOL    HW122484   6.252   4.307   6.992
 7195SOL    HW222485   6.234   4.237   6.846
 7196SOL     OW22486   2.710   3.877   1.520
 7196SOL    HW122487   2.780   3.925   1.573
 7196SOL    HW222488   2.752   3.831   1.442
 7197SOL     OW22489   0.887   3.291   5.249
 7197SOL    HW122490   0.918   3.199   5.226
 7197SOL    HW222491   0.946   3.358   5.204
 7198SOL     OW22492   0.832   1.124   0.042
 7198SOL    HW122493   0.819   1.041   0.097
 7198SOL    HW222494   0.780   1.199   0.082
 7199SOL     OW22495   1.142   0.232   3.076
 7199SOL    HW122496   1.099   0.299   3.016
 7199SOL    HW222497   1.136   0.141   3.035
 7200SOL     OW22498   1.765   3.120   6.562
 7200SOL    HW122499   1.701   3.135   6.637
 7200SOL    HW222500   1.803   3.028   6.568
 7201SOL     OW22501   0.329   5.893   4.170
 7201SOL    HW122502   0.412   5.896   4.224
 7201SOL    HW222503   0.342   5.833   4.091
 7202SOL     OW22504   5.020   6.412   6.690
 7202SOL    HW122505   5.113   6.445   6.671
 7202SOL    HW222506   4.987   6.360   6.612
 7203SOL     OW22507   6.883   1.206   1.769
 7203SOL    HW122508   6.828   1.205   1.686
 7203SOL    HW222509   6.979   1.191   1.747
 7204SOL     OW22510   6.949   1.501   6.662
 7204SOL    HW122511   6.859   1.495   6.619
 7204SOL    HW222512   6.938   1.511   6.761
 7205SOL     OW22513   1.880   3.988   5.319
 7205SOL    HW122514   1.910   4.073   5.276
 7205SOL    HW222515   1.879   4.000   5.418
 7206SOL     OW22516   1.440   1.369   1.428
 7206SOL    HW122517   1.380   1.448   1.434
 7206SOL    HW222518   1.409   1.309   1.353
 7207SOL     OW22519   2.853   0.527   4.646
 7207SOL    HW122520   2.944   0.545   4.683
 7207SOL    HW222521   2.820   0.439   4.679
 7208SOL     OW22522   4.685   0.712   3.313
 7208SOL    HW122523   4.585   0.715   3.306
 7208SOL    HW222524   4.719   0.803   3.335
 7209SOL     OW22525   1.871   2.975   1.844
 7209SOL    HW122526   1.934   2.912   1.799
 7209SOL    HW222527   1.854   3.054   1.785
 7210SOL     OW22528   3.851   2.148   4.115
 7210SOL    HW122529   3.910   2.168   4.037
 7210SOL    HW222530   3.765   2.110   4.082
 7211SOL     OW22531   2.986   6.217   5.126
 7211SOL    HW122532   3.064   6.276   5.104
 7211SOL    HW222533   3.015   6.122   5.124
 7212SOL     OW22534   0.620   5.844   5.455
 7212SOL    HW122535   0.684   5.851   5.378
 7212SOL    HW222536   0.615   5.748   5.485
 7213SOL     OW22537   3.489   6.188   6.276
 7213SOL    HW122538   3.447   6.207   6.187
 7213SOL    HW222539   3.419   6.155   6.340
 7214SOL     OW22540   6.325   0.592   5.650
 7214SOL    HW122541   6.422   0.609   5.634
 7214SOL    HW222542   6.300   0.626   5.741
 7215SOL     OW22543   5.610   2.850   4.360
 7215SOL    HW122544   5.561   2.936   4.371
 7215SOL    HW222545   5.649   2.845   4.268
 7216SOL     OW22546   2.850   6.620   2.348
 7216SOL    HW122547   2.827   6.554   2.277
 7216SOL    HW222548   2.766   6.656   2.389
 7217SOL     OW22549   1.736   3.072   3.304
 7217SOL    HW122550   1.834   3.093   3.310
 7217SOL    HW222551   1.683   3.147   3.344
 7218SOL     OW22552   6.784   2.560   4.270
 7218SOL    HW122553   6.794   2.641   4.327
 7218SOL    HW222554   6.793   2.586   4.174
 7219SOL     OW22555   3.128   0.494   2.287
 7219SOL    HW122556   3.211   0.475   2.340
 7219SOL    HW222557   3.110   0.593   2.288
 7220SOL     OW22558   6.472   4.316   4.075
 7220SOL    HW122559   6.451   4.247   4.144
 7220SOL    HW222560   6.518   4.272   3.998
 7221SOL     OW22561   3.840   6.271   4.617
 7221SOL    HW122562   3.789   6.201   4.667
 7221SOL    HW222563   3.926   6.290   4.664
 7222SOL     OW22564   6.131   6.323   3.352
 7222SOL    HW122565   6.036   6.308   3.326
 7222SOL    HW222566   6.143   6.416   3.387
 7223SOL     OW22567   3.060   0.999   1.184
 7223SOL    HW122568   3.120   1.079   1.188
 7223SOL    HW222569   2.972   1.025   1.144
 7224SOL     OW22570   4.913   3.223   4.304
 7224SOL    HW122571   4.936   3.310   4.349
 7224SOL    HW222572   4.859   3.167   4.366
 7225SOL     OW22573   1.686   6.341   0.669
 7225SOL    HW122574   1.782   6.358   0.694
 7225SOL    HW222575   1.626   6.379   0.739
 7226SOL     OW22576   5.670   6.962   1.058
 7226SOL    HW122577   5.580   6.942   1.096
 7226SOL    HW222578   5.710   6.878   1.020
 7227SOL     OW22579   2.608   1.846   1.707
 7227SOL    HW122580   2.520   1.806   1.682
 7227SOL    HW222581   2.597   1.905   1.787
 7228SOL     OW22582   1.494   1.133   2.607
 7228SOL    HW122583   1.568   1.071   2.633
 7228SOL    HW222584   1.411   1.080   2.589
 7229SOL     OW22585   1.021   6.732   4.939
 7229SOL    HW122586   0.977   6.649   4.970
 7229SOL    HW222587   1.119   6.717   4.930
 7230SOL     OW22588   3.218   5.919   3.601
 7230SOL    HW122589   3.148   5.926   3.673
 7230SOL    HW222590   3.195   5.844   3.539
 7231SOL     OW22591   4.396   0.460   6.777
 7231SOL    HW122592   4.387   0.527   6.851
 7231SOL    HW222593   4.488   0.420   6.779
 7232SOL     OW22594   5.026   5.927   2.937
 7232SOL    HW122595   5.094   5.973   2.881
 7232SOL    HW222596   5.003   5.838   2.897
 7233SOL     OW22597   1.162   1.127   5.029
 7233SOL    HW122598   1.191   1.032   5.015
 7233SOL    HW222599   1.241   1.188   5.016
 7234SOL     OW22600   5.966   2.882   3.234
 7234SOL    HW122601   5.875   2.852   3.203
 7234SOL    HW222602   6.033   2.867   3.162
 7235SOL     OW22603   6.668   4.311   1.861
 7235SOL    HW122604   6.600   4.377   1.895
 7235SOL    HW222605   6.752   4.320   1.915
 7236SOL     OW22606   2.861   2.259   2.611
 7236SOL    HW122607   2.950   2.214   2.600
 7236SOL    HW222608   2.831   2.295   2.523
 7237SOL     OW22609   3.873   0.130   5.960
 7237SOL    HW122610   3.954   0.071   5.954
 7237SOL    HW222611   3.815   0.099   6.036
 7238SOL     OW22612   4.212   2.219   5.739
 7238SOL    HW122613   4.287   2.214   5.804
 7238SOL    HW222614   4.164   2.131   5.737
 7239SOL     OW22615   0.947   2.660   1.874
 7239SOL    HW122616   0.904   2.578   1.913
 7239SOL    HW222617   1.045   2.645   1.865
 7240SOL     OW22618   0.392   1.316   6.177
 7240SOL    HW122619   0.365   1.409   6.155
 7240SOL    HW222620   0.473   1.317   6.236
 7241SOL     OW22621   2.566   0.340   0.713
 7241SOL    HW122622   2.552   0.250   0.754
 7241SOL    HW222623   2.596   0.329   0.618
 7242SOL     OW22624   6.498   5.531   6.412
 7242SOL    HW122625   6.598   5.530   6.409
 7242SOL    HW222626   6.465   5.454   6.467
 7243SOL     OW22627   6.854   4.458   6.239
 7243SOL    HW122628   6.830   4.376   6.188
 7243SOL    HW222629   6.949   4.452   6.270
 7244SOL     OW22630   0.416   0.463   1.313
 7244SOL    HW122631   0.479   0.530   1.353
 7244SOL    HW222632   0.344   0.511   1.262
 7245SOL     OW22633   1.262   2.945   5.255
 7245SOL    HW122634   1.350   2.990   5.264
 7245SOL    HW222635   1.240   2.896   5.340
 7246SOL     OW22636   1.492   0.164   3.524
 7246SOL    HW122637   1.537   0.104   3.590
 7246SOL    HW222638   1.420   0.114   3.476
 7247SOL     OW22639   2.698   1.398   4.864
 7247SOL    HW122640   2.761   1.474   4.879
 7247SOL    HW222641   2.748   1.320   4.826
 7248SOL     OW22642   3.373   0.776   2.450
 7248SOL    HW122643   3.311   0.797   2.375
 7248SOL    HW222644   3.455   0.833   2.443
 7249SOL     OW22645   5.180   4.899   2.042
 7249SOL    HW122646   5.205   4.889   2.138
 7249SOL    HW222647   5.163   4.809   2.002
 7250SOL     OW22648   5.624   5.909   5.698
 7250SOL    HW122649   5.567   5.906   5.616
 7250SOL    HW222650   5.576   5.960   5.770
 7251SOL     OW22651   0.930   6.972   5.459
 7251SOL    HW122652   1.022   6.993   5.493
 7251SOL    HW222653   0.877   0.038   5.453
 7252SOL     OW22654   3.421   3.532   1.905
 7252SOL    HW122655   3.340   3.476   1.922
 7252SOL    HW222656   3.455   3.515   1.812
 7253SOL     OW22657   1.463   5.620   0.266
 7253SOL    HW122658   1.514   5.663   0.341
 7253SOL    HW222659   1.440   5.689   0.198
 7254SOL     OW22660   5.067   5.199   4.483
 7254SOL    HW122661   5.126   5.266   4.528
 7254SOL    HW222662   4.973   5.231   4.484
 7255SOL     OW22663   4.205   3.798   0.177
 7255SOL    HW122664   4.172   3.751   0.259
 7255SOL    HW222665   4.129   3.811   0.113
 7256SOL     OW22666   3.259   6.029   5.288
 7256SOL    HW122667   3.274   6.040   5.386
 7256SOL    HW222668   3.287   6.112   5.240
 7257SOL     OW22669   0.122   1.732   3.794
 7257SOL    HW122670   0.176   1.816   3.782
 7257SOL    HW222671   0.031   1.745   3.754
 7258SOL     OW22672   5.022   2.572   3.284
 7258SOL    HW122673   5.074   2.501   3.236
 7258SOL    HW222674   5.086   2.632   3.332
 7259SOL     OW22675   1.968   3.635   1.988
 7259SOL    HW122676   1.938   3.671   2.077
 7259SOL    HW222677   2.061   3.600   1.996
 7260SOL     OW22678   5.383   1.647   1.735
 7260SOL    HW122679   5.480   1.656   1.758
 7260SOL    HW222680   5.351   1.730   1.690
 7261SOL     OW22681   1.628   4.472   1.935
 7261SOL    HW122682   1.630   4.379   1.897
 7261SOL    HW222683   1.596   4.468   2.030
 7262SOL     OW22684   5.473   2.212   6.529
 7262SOL    HW122685   5.394   2.267   6.503
 7262SOL    HW222686   5.516   2.252   6.610
 7263SOL     OW22687   0.675   6.841   6.986
 7263SOL    HW122688   0.680   6.781   0.046
 7263SOL    HW222689   0.607   6.805   6.922
 7264SOL     OW22690   5.581   1.443   6.925
 7264SOL    HW122691   5.563   1.387   6.844
 7264SOL    HW222692   5.674   1.480   6.919
 7265SOL     OW22693   5.352   5.060   6.432
 7265SOL    HW122694   5.282   5.085   6.499
 7265SOL    HW222695   5.371   5.139   6.374
 7266SOL     OW22696   5.441   0.389   2.940
 7266SOL    HW122697   5.529   0.416   2.978
 7266SOL    HW222698   5.427   0.434   2.852
 7267SOL     OW22699   6.261   6.461   4.843
 7267SOL    HW122700   6.280   6.376   4.794
 7267SOL    HW222701   6.219   6.440   4.931
 7268SOL     OW22702   6.568   5.559   4.232
 7268SOL    HW122703   6.521   5.647   4.227
 7268SOL    HW222704   6.666   5.572   4.216
 7269SOL     OW22705   1.678   6.167   6.001
 7269SOL    HW122706   1.712   6.133   5.914
 7269SOL    HW222707   1.598   6.225   5.985
 7270SOL     OW22708   0.810   3.065   5.023
 7270SOL    HW122709   0.905   3.068   5.052
 7270SOL    HW222710   0.792   2.980   4.973
 7271SOL     OW22711   1.179   5.167   4.130
 7271SOL    HW122712   1.253   5.125   4.078
 7271SOL    HW222713   1.119   5.216   4.067
 7272SOL     OW22714   6.075   5.420   2.584
 7272SOL    HW122715   6.035   5.497   2.634
 7272SOL    HW222716   6.100   5.348   2.648
 7273SOL     OW22717   6.390   4.113   1.089
 7273SOL    HW122718   6.399   4.210   1.067
 7273SOL    HW222719   6.404   4.058   1.007
 7274SOL     OW22720   0.689   5.395   6.204
 7274SOL    HW122721   0.629   5.319   6.230
 7274SOL    HW222722   0.649   5.481   6.234
 7275SOL     OW22723   0.588   5.829   2.657
 7275SOL    HW122724   0.552   5.882   2.734
 7275SOL    HW222725   0.685   5.810   2.672
 7276SOL     OW22726   5.256   0.308   3.112
 7276SOL    HW122727   5.338   0.331   3.059
 7276SOL    HW222728   5.270   0.219   3.156
 7277SOL     OW22729   5.418   0.714   4.375
 7277SOL    HW122730   5.498   0.769   4.351
 7277SOL    HW222731   5.426   0.623   4.333
 7278SOL     OW22732   3.924   2.547   1.310
 7278SOL    HW122733   4.022   2.531   1.316
 7278SOL    HW222734   3.875   2.468   1.347
 7279SOL     OW22735   3.907   4.598   6.533
 7279SOL    HW122736   3.842   4.661   6.574
 7279SOL    HW222737   3.877   4.574   6.440
 7280SOL     OW22738   0.215   1.882   4.155
 7280SOL    HW122739   0.275   1.802   4.146
 7280SOL    HW222740   0.236   1.948   4.084
 7281SOL     OW22741   3.109   2.045   6.890
 7281SOL    HW122742   3.031   2.006   6.841
 7281SOL    HW222743   3.077   2.085   6.977
 7282SOL     OW22744   5.945   4.702   3.583
 7282SOL    HW122745   5.904   4.668   3.498
 7282SOL    HW222746   5.933   4.801   3.588
 7283SOL     OW22747   4.422   1.285   2.611
 7283SOL    HW122748   4.511   1.244   2.591
 7283SOL    HW222749   4.379   1.236   2.687
 7284SOL     OW22750   0.376   2.715   6.040
 7284SOL    HW122751   0.388   2.626   6.085
 7284SOL    HW222752   0.342   2.781   6.107
 7285SOL     OW22753   5.105   3.279   2.289
 7285SOL    HW122754   5.053   3.215   2.233
 7285SOL    HW222755   5.049   3.359   2.311
 7286SOL     OW22756   2.319   1.092   0.613
 7286SOL    HW122757   2.371   1.091   0.528
 7286SOL    HW222758   2.318   1.184   0.651
 7287SOL     OW22759   0.174   2.703   5.847
 7287SOL    HW122760   0.230   2.722   5.928
 7287SOL    HW222761   0.227   2.726   5.765
 7288SOL     OW22762   2.568   0.970   0.713
 7288SOL    HW122763   2.561   0.939   0.808
 7288SOL    HW222764   2.506   0.916   0.656
 7289SOL     OW22765   4.802   2.517   4.313
 7289SOL    HW122766   4.866   2.561   4.376
 7289SOL    HW222767   4.808   2.418   4.323
 7290SOL     OW22768   3.544   0.423   5.073
 7290SOL    HW122769   3.486   0.408   5.153
 7290SOL    HW222770   3.601   0.504   5.086
 7291SOL     OW22771   2.099   6.524   0.775
 7291SOL    HW122772   2.048   6.610   0.782
 7291SOL    HW222773   2.194   6.543   0.752
 7292SOL     OW22774   3.578   1.164   3.562
 7292SOL    HW122775   3.495   1.157   3.506
 7292SOL    HW222776   3.592   1.079   3.612
 7293SOL     OW22777   1.262   2.095   4.677
 7293SOL    HW122778   1.345   2.038   4.672
 7293SOL    HW222779   1.195   2.050   4.736
 7294SOL     OW22780   2.491   4.986   6.529
 7294SOL    HW122781   2.566   4.919   6.522
 7294SOL    HW222782   2.528   5.078   6.518
 7295SOL     OW22783   6.970   3.018   1.127
 7295SOL    HW122784   0.047   3.006   1.150
 7295SOL    HW222785   6.915   2.952   1.177
 7296SOL     OW22786   3.340   5.804   2.281
 7296SOL    HW122787   3.367   5.806   2.184
 7296SOL    HW222788   3.295   5.890   2.304
 7297SOL     OW22789   3.861   0.161   1.844
 7297SOL    HW122790   3.917   0.087   1.883
 7297SOL    HW222791   3.911   0.247   1.849
 7298SOL     OW22792   5.207   4.932   5.897
 7298SOL    HW122793   5.155   4.848   5.913
 7298SOL    HW222794   5.180   5.001   5.965
 7299SOL     OW22795   1.404   2.122   0.432
 7299SOL    HW122796   1.473   2.126   0.360
 7299SOL    HW222797   1.349   2.039   0.422
 7300SOL     OW22798   0.638   6.342   3.237
 7300SOL    HW122799   0.545   6.305   3.237
 7300SOL    HW222800   0.702   6.269   3.263
 7301SOL     OW22801   5.070   1.213   4.727
 7301SOL    HW122802   5.168   1.207   4.745
 7301SOL    HW222803   5.025   1.260   4.803
 7302SOL     OW22804   0.836   2.395   4.981
 7302SOL    HW122805   0.757   2.361   5.033
 7302SOL    HW222806   0.812   2.483   4.939
 7303SOL     OW22807   3.852   0.505   0.279
 7303SOL    HW122808   3.827   0.561   0.358
 7303SOL    HW222809   3.950   0.515   0.260
 7304SOL     OW22810   3.470   5.411   1.262
 7304SOL    HW122811   3.540   5.466   1.306
 7304SOL    HW222812   3.449   5.332   1.319
 7305SOL     OW22813   4.642   1.035   0.318
 7305SOL    HW122814   4.552   1.060   0.281
 7305SOL    HW222815   4.706   1.109   0.300
 7306SOL     OW22816   5.068   1.475   0.688
 7306SOL    HW122817   5.166   1.459   0.694
 7306SOL    HW222818   5.035   1.514   0.774
 7307SOL     OW22819   2.088   6.467   2.491
 7307SOL    HW122820   2.086   6.551   2.545
 7307SOL    HW222821   2.169   6.468   2.432
 7308SOL     OW22822   6.737   2.852   5.584
 7308SOL    HW122823   6.827   2.865   5.625
 7308SOL    HW222824   6.674   2.921   5.619
 7309SOL     OW22825   4.366   5.661   1.692
 7309SOL    HW122826   4.390   5.565   1.709
 7309SOL    HW222827   4.446   5.719   1.707
 7310SOL     OW22828   2.575   3.977   1.129
 7310SOL    HW122829   2.654   3.918   1.111
 7310SOL    HW222830   2.506   3.927   1.180
 7311SOL     OW22831   2.162   1.771   1.678
 7311SOL    HW122832   2.224   1.744   1.752
 7311SOL    HW222833   2.096   1.697   1.662
 7312SOL     OW22834   0.842   3.549   4.405
 7312SOL    HW122835   0.775   3.617   4.432
 7312SOL    HW222836   0.888   3.513   4.486
 7313SOL     OW22837   2.439   1.119   7.015
 7313SOL    HW122838   2.490   1.033   7.004
 7313SOL    HW222839   2.486   1.192   6.966
 7314SOL     OW22840   6.976   5.589   5.919
 7314SOL    HW122841   7.018   5.580   6.009
 7314SOL    HW222842   0.022   5.562   5.849
 7315SOL     OW22843   6.166   0.237   2.250
 7315SOL    HW122844   6.125   0.279   2.169
 7315SOL    HW222845   6.248   0.186   2.224
 7316SOL     OW22846   2.816   4.282   6.532
 7316SOL    HW122847   2.803   4.319   6.440
 7316SOL    HW222848   2.875   4.201   6.528
 7317SOL     OW22849   4.918   1.373   2.929
 7317SOL    HW122850   4.879   1.431   3.000
 7317SOL    HW222851   5.018   1.374   2.936
 7318SOL     OW22852   2.037   0.835   1.832
 7318SOL    HW122853   2.022   0.828   1.733
 7318SOL    HW222854   2.108   0.903   1.850
 7319SOL     OW22855   0.156   3.735   6.358
 7319SOL    HW122856   0.057   3.739   6.354
 7319SOL    HW222857   0.187   3.647   6.321
 7320SOL     OW22858   0.029   3.395   2.524
 7320SOL    HW122859   0.043   3.467   2.591
 7320SOL    HW222860   0.090   3.409   2.446
 7321SOL     OW22861   1.902   0.658   6.234
 7321SOL    HW122862   1.912   0.620   6.142
 7321SOL    HW222863   1.971   0.619   6.294
 7322SOL     OW22864   6.905   2.799   3.426
 7322SOL    HW122865   6.946   2.883   3.460
 7322SOL    HW222866   6.944   2.721   3.475
 7323SOL     OW22867   1.286   2.313   1.918
 7323SOL    HW122868   1.210   2.353   1.969
 7323SOL    HW222869   1.366   2.305   1.978
 7324SOL     OW22870   4.617   5.570   2.244
 7324SOL    HW122871   4.579   5.522   2.324
 7324SOL    HW222872   4.547   5.577   2.173
 7325SOL     OW22873   3.430   6.854   0.365
 7325SOL    HW122874   3.421   6.942   0.413
 7325SOL    HW222875   3.340   6.814   0.351
 7326SOL     OW22876   2.772   6.170   6.059
 7326SOL    HW122877   2.829   6.228   6.001
 7326SOL    HW222878   2.806   6.075   6.054
 7327SOL     OW22879   6.008   1.296   6.218
 7327SOL    HW122880   5.976   1.379   6.173
 7327SOL    HW222881   6.089   1.317   6.273
 7328SOL     OW22882   3.143   0.965   6.222
 7328SOL    HW122883   3.145   0.881   6.170
 7328SOL    HW222884   3.076   0.958   6.296
 7329SOL     OW22885   6.652   4.034   1.519
 7329SOL    HW122886   6.590   4.021   1.442
 7329SOL    HW222887   6.727   3.967   1.514
 7330SOL     OW22888   2.434   2.766   0.342
 7330SOL    HW122889   2.340   2.749   0.310
 7330SOL    HW222890   2.488   2.802   0.266
 7331SOL     OW22891   5.401   6.319   1.498
 7331SOL    HW122892   5.354   6.292   1.582
 7331SOL    HW222893   5.335   6.353   1.432
 7332SOL     OW22894   2.402   6.424   0.015
 7332SOL    HW122895   2.377   6.426   6.938
 7332SOL    HW222896   2.342   6.360   0.063
 7333SOL     OW22897   0.568   2.850   2.558
 7333SOL    HW122898   0.527   2.759   2.552
 7333SOL    HW222899   0.592   2.882   2.467
 7334SOL     OW22900   2.544   5.917   6.293
 7334SOL    HW122901   2.474   5.966   6.345
 7334SOL    HW222902   2.530   5.932   6.195
 7335SOL     OW22903   1.990   2.438   3.053
 7335SOL    HW122904   2.064   2.372   3.037
 7335SOL    HW222905   2.029   2.528   3.070
 7336SOL     OW22906   1.421   6.406   2.770
 7336SOL    HW122907   1.491   6.350   2.725
 7336SOL    HW222908   1.350   6.429   2.703
 7337SOL     OW22909   0.309   3.257   1.629
 7337SOL    HW122910   0.352   3.269   1.540
 7337SOL    HW222911   0.217   3.296   1.627
 7338SOL     OW22912   6.014   1.590   1.729
 7338SOL    HW122913   5.956   1.636   1.662
 7338SOL    HW222914   5.991   1.493   1.733
 7339SOL     OW22915   5.742   6.478   4.218
 7339SOL    HW122916   5.654   6.464   4.264
 7339SOL    HW222917   5.771   6.573   4.229
 7340SOL     OW22918   3.094   1.493   0.854
 7340SOL    HW122919   3.124   1.422   0.790
 7340SOL    HW222920   2.995   1.507   0.843
 7341SOL     OW22921   0.570   3.726   6.478
 7341SOL    HW122922   0.660   3.754   6.445
 7341SOL    HW222923   0.575   3.633   6.515
 7342SOL     OW22924   0.346   2.218   1.095
 7342SOL    HW122925   0.261   2.176   1.063
 7342SOL    HW222926   0.423   2.158   1.075
 7343SOL     OW22927   6.138   3.854   1.015
 7343SOL    HW122928   6.053   3.815   0.981
 7343SOL    HW222929   6.174   3.797   1.088
 7344SOL     OW22930   1.076   1.191   6.290
 7344SOL    HW122931   1.141   1.258   6.326
 7344SOL    HW222932   1.113   1.099   6.302
 7345SOL     OW22933   3.983   4.763   5.793
 7345SOL    HW122934   3.942   4.838   5.846
 7345SOL    HW222935   3.937   4.757   5.704
 7346SOL     OW22936   3.852   5.165   2.093
 7346SOL    HW122937   3.930   5.204   2.142
 7346SOL    HW222938   3.769   5.180   2.147
 7347SOL     OW22939   0.895   1.915   0.471
 7347SOL    HW122940   0.849   1.988   0.422
 7347SOL    HW222941   0.866   1.917   0.567
 7348SOL     OW22942   1.711   3.900   4.123
 7348SOL    HW122943   1.784   3.941   4.179
 7348SOL    HW222944   1.747   3.879   4.032
 7349SOL     OW22945   4.766   1.341   1.846
 7349SOL    HW122946   4.751   1.246   1.818
 7349SOL    HW222947   4.837   1.344   1.917
 7350SOL     OW22948   2.793   2.467   5.593
 7350SOL    HW122949   2.850   2.541   5.558
 7350SOL    HW222950   2.700   2.501   5.606
 7351SOL     OW22951   5.407   5.663   4.782
 7351SOL    HW122952   5.483   5.671   4.717
 7351SOL    HW222953   5.429   5.713   4.865
 7352SOL     OW22954   1.554   1.360   3.131
 7352SOL    HW122955   1.531   1.429   3.062
 7352SOL    HW222956   1.564   1.404   3.220
 7353SOL     OW22957   0.215   0.114   6.404
 7353SOL    HW122958   0.306   0.152   6.420
 7353SOL    HW222959   0.206   0.088   6.308
 7354SOL     OW22960   0.685   2.161   4.745
 7354SOL    HW122961   0.695   2.245   4.692
 7354SOL    HW222962   0.739   2.088   4.703
 7355SOL     OW22963   1.456   0.512   0.810
 7355SOL    HW122964   1.362   0.486   0.831
 7355SOL    HW222965   1.502   0.545   0.893
 7356SOL     OW22966   3.850   3.595   6.336
 7356SOL    HW122967   3.939   3.617   6.296
 7356SOL    HW222968   3.812   3.677   6.379
 7357SOL     OW22969   3.204   6.806   1.880
 7357SOL    HW122970   3.198   6.778   1.976
 7357SOL    HW222971   3.281   6.760   1.836
 7358SOL     OW22972   6.034   3.112   2.679
 7358SOL    HW122973   6.006   3.124   2.774
 7358SOL    HW222974   6.092   3.188   2.652
 7359SOL     OW22975   4.103   1.967   5.721
 7359SOL    HW122976   4.146   1.891   5.673
 7359SOL    HW222977   4.006   1.947   5.736
 7360SOL     OW22978   3.144   3.013   5.589
 7360SOL    HW122979   3.208   3.010   5.666
 7360SOL    HW222980   3.194   2.996   5.504
 7361SOL     OW22981   5.004   0.670   2.177
 7361SOL    HW122982   5.091   0.695   2.220
 7361SOL    HW222983   4.973   0.744   2.118
 7362SOL     OW22984   1.400   5.650   6.495
 7362SOL    HW122985   1.413   5.748   6.486
 7362SOL    HW222986   1.451   5.617   6.574
 7363SOL     OW22987   4.705   1.777   1.157
 7363SOL    HW122988   4.638   1.703   1.159
 7363SOL    HW222989   4.657   1.865   1.155
 7364SOL     OW22990   4.632   0.643   1.413
 7364SOL    HW122991   4.624   0.684   1.323
 7364SOL    HW222992   4.540   0.628   1.451
 7365SOL     OW22993   0.466   6.084   2.074
 7365SOL    HW122994   0.500   6.062   1.983
 7365SOL    HW222995   0.371   6.053   2.082
 7366SOL     OW22996   2.179   6.427   6.429
 7366SOL    HW122997   2.129   6.368   6.366
 7366SOL    HW222998   2.276   6.426   6.405
 7367SOL     OW22999   5.377   2.804   1.095
 7367SOL    HW123000   5.395   2.710   1.124
 7367SOL    HW223001   5.310   2.805   1.021
 7368SOL     OW23002   3.764   2.959   2.653
 7368SOL    HW123003   3.759   2.894   2.729
 7368SOL    HW223004   3.791   3.049   2.689
 7369SOL     OW23005   3.363   2.033   0.299
 7369SOL    HW123006   3.434   1.987   0.246
 7369SOL    HW223007   3.325   2.108   0.244
 7370SOL     OW23008   2.640   0.736   4.868
 7370SOL    HW123009   2.601   0.769   4.954
 7370SOL    HW223010   2.613   0.641   4.853
 7371SOL     OW23011   2.473   0.024   3.508
 7371SOL    HW123012   2.417   0.091   3.459
 7371SOL    HW223013   2.563   0.018   3.465
 7372SOL     OW23014   4.310   0.488   3.953
 7372SOL    HW123015   4.215   0.479   3.923
 7372SOL    HW223016   4.324   0.438   4.038
 7373SOL     OW23017   6.096   1.529   3.851
 7373SOL    HW123018   6.009   1.487   3.877
 7373SOL    HW223019   6.119   1.501   3.758
 7374SOL     OW23020   2.901   1.840   5.080
 7374SOL    HW123021   2.940   1.925   5.047
 7374SOL    HW223022   2.949   1.811   5.163
 7375SOL     OW23023   2.195   2.256   2.363
 7375SOL    HW123024   2.242   2.301   2.288
 7375SOL    HW223025   2.258   2.242   2.439
 7376SOL     OW23026   1.549   1.896   0.836
 7376SOL    HW123027   1.462   1.937   0.810
 7376SOL    HW223028   1.543   1.796   0.830
 7377SOL     OW23029   5.200   4.527   0.662
 7377SOL    HW123030   5.179   4.624   0.653
 7377SOL    HW223031   5.231   4.491   0.574
 7378SOL     OW23032   0.208   0.719   5.618
 7378SOL    HW123033   0.184   0.624   5.597
 7378SOL    HW223034   0.302   0.737   5.587
 7379SOL     OW23035   3.009   1.880   2.351
 7379SOL    HW123036   3.043   1.834   2.432
 7379SOL    HW223037   2.995   1.813   2.278
 7380SOL     OW23038   6.973   4.238   3.435
 7380SOL    HW123039   6.931   4.296   3.365
 7380SOL    HW223040   0.014   4.295   3.491
 7381SOL     OW23041   4.129   3.345   0.731
 7381SOL    HW123042   4.163   3.273   0.791
 7381SOL    HW223043   4.029   3.346   0.734
 7382SOL     OW23044   0.462   1.132   5.353
 7382SOL    HW123045   0.470   1.158   5.257
 7382SOL    HW223046   0.551   1.103   5.388
 7383SOL     OW23047   2.751   6.655   0.670
 7383SOL    HW123048   2.715   6.706   0.748
 7383SOL    HW223049   2.745   6.557   0.689
 7384SOL     OW23050   6.670   6.249   2.755
 7384SOL    HW123051   6.576   6.279   2.736
 7384SOL    HW223052   6.734   6.315   2.715
 7385SOL     OW23053   3.387   5.401   2.452
 7385SOL    HW123054   3.442   5.337   2.505
 7385SOL    HW223055   3.290   5.382   2.466
 7386SOL     OW23056   0.182   2.566   0.083
 7386SOL    HW123057   0.164   2.637   0.152
 7386SOL    HW223058   0.132   2.588   7.019
 7387SOL     OW23059   6.289   5.461   5.885
 7387SOL    HW123060   6.319   5.528   5.817
 7387SOL    HW223061   6.361   5.446   5.952
 7388SOL     OW23062   1.254   5.227   1.730
 7388SOL    HW123063   1.205   5.150   1.691
 7388SOL    HW223064   1.191   5.283   1.785
 7389SOL     OW23065   5.928   3.851   6.407
 7389SOL    HW123066   5.830   3.857   6.421
 7389SOL    HW223067   5.971   3.937   6.434
 7390SOL     OW23068   1.996   2.728   1.825
 7390SOL    HW123069   2.053   2.666   1.771
 7390SOL    HW223070   1.948   2.675   1.896
 7391SOL     OW23071   4.138   3.529   3.739
 7391SOL    HW123072   4.083   3.607   3.768
 7391SOL    HW223073   4.215   3.517   3.802
 7392SOL     OW23074   3.146   5.667   6.546
 7392SOL    HW123075   3.168   5.740   6.611
 7392SOL    HW223076   3.177   5.579   6.584
 7393SOL     OW23077   6.076   4.413   2.320
 7393SOL    HW123078   6.101   4.329   2.369
 7393SOL    HW223079   6.158   4.464   2.296
 7394SOL     OW23080   1.793   3.014   5.571
 7394SOL    HW123081   1.759   3.064   5.650
 7394SOL    HW223082   1.868   2.954   5.599
 7395SOL     OW23083   1.972   3.714   1.253
 7395SOL    HW123084   1.994   3.811   1.251
 7395SOL    HW223085   1.987   3.674   1.162
 7396SOL     OW23086   2.399   6.739   1.159
 7396SOL    HW123087   2.419   6.719   1.255
 7396SOL    HW223088   2.353   6.827   1.152
 7397SOL     OW23089   4.747   5.877   4.699
 7397SOL    HW123090   4.649   5.878   4.684
 7397SOL    HW223091   4.777   5.785   4.723
 7398SOL     OW23092   1.284   4.580   3.773
 7398SOL    HW123093   1.221   4.524   3.827
 7398SOL    HW223094   1.366   4.528   3.752
 7399SOL     OW23095   0.667   2.736   4.348
 7399SOL    HW123096   0.598   2.673   4.312
 7399SOL    HW223097   0.655   2.745   4.447
 7400SOL     OW23098   4.205   3.011   5.778
 7400SOL    HW123099   4.156   2.935   5.820
 7400SOL    HW223100   4.146   3.057   5.711
 7401SOL     OW23101   1.119   2.535   3.639
 7401SOL    HW123102   1.195   2.541   3.703
 7401SOL    HW223103   1.098   2.439   3.621
 7402SOL     OW23104   3.298   4.833   6.089
 7402SOL    HW123105   3.314   4.770   6.013
 7402SOL    HW223106   3.211   4.880   6.075
 7403SOL     OW23107   1.500   4.322   2.173
 7403SOL    HW123108   1.430   4.252   2.156
 7403SOL    HW223109   1.485   4.363   2.263
 7404SOL     OW23110   2.906   4.289   1.630
 7404SOL    HW123111   2.953   4.343   1.561
 7404SOL    HW223112   2.890   4.346   1.711
 7405SOL     OW23113   3.490   4.889   4.274
 7405SOL    HW123114   3.550   4.869   4.352
 7405SOL    HW223115   3.443   4.976   4.289
 7406SOL     OW23116   0.358   2.320   3.649
 7406SOL    HW123117   0.448   2.362   3.660
 7406SOL    HW223118   0.364   2.223   3.671
 7407SOL     OW23119   0.549   6.679   5.241
 7407SOL    HW123120   0.522   6.751   5.305
 7407SOL    HW223121   0.649   6.668   5.244
 7408SOL     OW23122   3.519   4.094   6.416
 7408SOL    HW123123   3.583   4.108   6.341
 7408SOL    HW223124   3.570   4.078   6.501
 7409SOL     OW23125   5.024   3.193   6.958
 7409SOL    HW123126   5.057   3.170   6.867
 7409SOL    HW223127   5.093   3.167   0.007
 7410SOL     OW23128   0.599   0.566   0.496
 7410SOL    HW123129   0.562   0.607   0.413
 7410SOL    HW223130   0.563   0.474   0.507
 7411SOL     OW23131   2.181   1.185   6.878
 7411SOL    HW123132   2.271   1.184   6.920
 7411SOL    HW223133   2.111   1.181   6.949
 7412SOL     OW23134   4.405   0.633   1.211
 7412SOL    HW123135   4.345   0.564   1.172
 7412SOL    HW223136   4.495   0.629   1.166
 7413SOL     OW23137   4.425   5.080   3.594
 7413SOL    HW123138   4.351   5.075   3.662
 7413SOL    HW223139   4.458   5.174   3.588
 7414SOL     OW23140   1.072   0.863   2.976
 7414SOL    HW123141   1.009   0.856   2.899
 7414SOL    HW223142   1.035   0.927   3.044
 7415SOL     OW23143   1.859   4.532   4.275
 7415SOL    HW123144   1.834   4.464   4.344
 7415SOL    HW223145   1.798   4.611   4.282
 7416SOL     OW23146   1.831   0.858   2.018
 7416SOL    HW123147   1.838   0.926   2.091
 7416SOL    HW223148   1.907   0.869   1.954
 7417SOL     OW23149   2.128   2.193   1.335
 7417SOL    HW123150   2.146   2.225   1.241
 7417SOL    HW223151   2.087   2.102   1.331
 7418SOL     OW23152   1.686   5.409   0.401
 7418SOL    HW123153   1.596   5.383   0.365
 7418SOL    HW223154   1.676   5.448   0.492
 7419SOL     OW23155   6.609   3.874   4.138
 7419SOL    HW123156   6.673   3.808   4.098
 7419SOL    HW223157   6.659   3.956   4.165
 7420SOL     OW23158   0.428   6.323   1.788
 7420SOL    HW123159   0.518   6.355   1.757
 7420SOL    HW223160   0.420   6.225   1.770
 7421SOL     OW23161   4.654   3.630   1.199
 7421SOL    HW123162   4.589   3.623   1.276
 7421SOL    HW223163   4.717   3.553   1.202
 7422SOL     OW23164   0.224   4.429   1.974
 7422SOL    HW123165   0.214   4.362   2.048
 7422SOL    HW223166   0.302   4.488   1.994
 7423SOL     OW23167   5.723   2.957   5.310
 7423SOL    HW123168   5.656   2.921   5.375
 7423SOL    HW223169   5.683   2.957   5.218
 7424SOL     OW23170   6.660   1.193   5.745
 7424SOL    HW123171   6.635   1.096   5.743
 7424SOL    HW223172   6.760   1.202   5.746
 7425SOL     OW23173   4.988   6.843   0.448
 7425SOL    HW123174   5.075   6.851   0.497
 7425SOL    HW223175   4.988   6.759   0.395
 7426SOL     OW23176   3.196   1.691   5.122
 7426SOL    HW123177   3.276   1.697   5.181
 7426SOL    HW223178   3.113   1.690   5.178
 7427SOL     OW23179   5.133   0.722   3.577
 7427SOL    HW123180   5.197   0.685   3.510
 7427SOL    HW223181   5.184   0.760   3.654
 7428SOL     OW23182   4.136   1.590   5.007
 7428SOL    HW123183   4.084   1.568   5.090
 7428SOL    HW223184   4.092   1.549   4.928
 7429SOL     OW23185   0.364   6.408   4.284
 7429SOL    HW123186   0.341   6.386   4.189
 7429SOL    HW223187   0.346   6.505   4.301
 7430SOL     OW23188   1.123   3.562   1.018
 7430SOL    HW123189   1.171   3.650   1.025
 7430SOL    HW223190   1.024   3.578   1.021
 7431SOL     OW23191   0.463   2.638   3.218
 7431SOL    HW123192   0.443   2.704   3.290
 7431SOL    HW223193   0.399   2.651   3.142
 7432SOL     OW23194   1.675   0.533   3.358
 7432SOL    HW123195   1.602   0.483   3.312
 7432SOL    HW223196   1.637   0.615   3.402
 7433SOL     OW23197   4.445   6.319   6.396
 7433SOL    HW123198   4.481   6.233   6.433
 7433SOL    HW223199   4.457   6.320   6.297
 7434SOL     OW23200   4.902   5.240   5.369
 7434SOL    HW123201   4.815   5.235   5.321
 7434SOL    HW223202   4.946   5.150   5.369
 7435SOL     OW23203   4.286   6.347   1.480
 7435SOL    HW123204   4.351   6.275   1.506
 7435SOL    HW223205   4.228   6.313   1.406
 7436SOL     OW23206   4.432   4.256   6.636
 7436SOL    HW123207   4.430   4.161   6.669
 7436SOL    HW223208   4.392   4.316   6.705
 7437SOL     OW23209   2.154   6.124   6.754
 7437SOL    HW123210   2.060   6.155   6.743
 7437SOL    HW223211   2.164   6.032   6.715
 7438SOL     OW23212   0.809   6.387   0.349
 7438SOL    HW123213   0.855   6.298   0.355
 7438SOL    HW223214   0.718   6.373   0.308
 7439SOL     OW23215   1.987   6.256   6.255
 7439SOL    HW123216   1.988   6.353   6.232
 7439SOL    HW223217   2.050   6.206   6.196
 7440SOL     OW23218   6.973   2.838   3.763
 7440SOL    HW123219   6.884   2.801   3.736
 7440SOL    HW223220   6.961   2.932   3.794
 7441SOL     OW23221   5.532   0.159   4.344
 7441SOL    HW123222   5.457   0.169   4.278
 7441SOL    HW223223   5.533   0.065   4.379
 7442SOL     OW23224   6.078   1.786   6.718
 7442SOL    HW123225   6.143   1.711   6.702
 7442SOL    HW223226   6.078   1.847   6.640
 7443SOL     OW23227   6.488   6.183   1.426
 7443SOL    HW123228   6.566   6.155   1.482
 7443SOL    HW223229   6.520   6.210   1.336
 7444SOL     OW23230   5.044   2.485   0.039
 7444SOL    HW123231   5.113   2.421   0.005
 7444SOL    HW223232   5.068   2.578   0.010
 7445SOL     OW23233   3.606   0.553   1.086
 7445SOL    HW123234   3.571   0.460   1.082
 7445SOL    HW223235   3.610   0.583   1.182
 7446SOL     OW23236   5.672   3.083   0.323
 7446SOL    HW123237   5.763   3.041   0.329
 7446SOL    HW223238   5.632   3.088   0.415
 7447SOL     OW23239   6.639   4.300   6.881
 7447SOL    HW123240   6.588   4.376   6.922
 7447SOL    HW223241   6.713   4.337   6.825
 7448SOL     OW23242   6.264   6.712   5.044
 7448SOL    HW123243   6.330   6.636   5.047
 7448SOL    HW223244   6.210   6.712   5.128
 7449SOL     OW23245   0.811   4.936   1.142
 7449SOL    HW123246   0.818   4.982   1.231
 7449SOL    HW223247   0.822   5.003   1.069
 7450SOL     OW23248   5.209   2.800   4.590
 7450SOL    HW123249   5.177   2.799   4.685
 7450SOL    HW223250   5.295   2.749   4.583
 7451SOL     OW23251   6.832   5.999   2.605
 7451SOL    HW123252   6.877   5.970   2.689
 7451SOL    HW223253   6.886   5.968   2.526
 7452SOL     OW23254   6.148   6.020   4.227
 7452SOL    HW123255   6.157   5.939   4.285
 7452SOL    HW223256   6.149   6.102   4.284
 7453SOL     OW23257   5.445   5.017   4.691
 7453SOL    HW123258   5.501   4.936   4.708
 7453SOL    HW223259   5.444   5.073   4.774
 7454SOL     OW23260   1.855   2.064   0.885
 7454SOL    HW123261   1.815   1.974   0.869
 7454SOL    HW223262   1.818   2.103   0.970
 7455SOL     OW23263   0.020   2.902   1.788
 7455SOL    HW123264   7.008   2.824   1.734
 7455SOL    HW223265   6.978   2.916   1.865
 7456SOL     OW23266   1.800   1.046   4.805
 7456SOL    HW123267   1.789   1.032   4.707
 7456SOL    HW223268   1.808   1.144   4.824
 7457SOL     OW23269   3.065   0.817   5.250
 7457SOL    HW123270   3.080   0.910   5.217
 7457SOL    HW223271   2.990   0.775   5.199
 7458SOL     OW23272   1.738   0.329   6.407
 7458SOL    HW123273   1.795   0.343   6.487
 7458SOL    HW223274   1.792   0.286   6.335
 7459SOL     OW23275   5.277   0.762   2.252
 7459SOL    HW123276   5.259   0.797   2.344
 7459SOL    HW223277   5.336   0.681   2.258
 7460SOL     OW23278   0.622   5.246   0.491
 7460SOL    HW123279   0.690   5.198   0.546
 7460SOL    HW223280   0.667   5.293   0.416
 7461SOL     OW23281   6.273   0.298   6.769
 7461SOL    HW123282   6.187   0.263   6.733
 7461SOL    HW223283   6.323   0.223   6.813
 7462SOL     OW23284   1.351   4.656   2.285
 7462SOL    HW123285   1.288   4.585   2.315
 7462SOL    HW223286   1.320   4.694   2.198
 7463SOL     OW23287   3.283   4.505   0.364
 7463SOL    HW123288   3.256   4.487   0.269
 7463SOL    HW223289   3.269   4.423   0.419
 7464SOL     OW23290   5.782   6.931   6.166
 7464SOL    HW123291   5.695   6.883   6.176
 7464SOL    HW223292   5.783   7.012   6.225
 7465SOL     OW23293   2.522   5.539   6.408
 7465SOL    HW123294   2.437   5.488   6.411
 7465SOL    HW223295   2.514   5.621   6.465
 7466SOL     OW23296   6.746   0.641   5.046
 7466SOL    HW123297   6.819   0.574   5.054
 7466SOL    HW223298   6.660   0.600   5.077
 7467SOL     OW23299   0.122   1.692   6.380
 7467SOL    HW123300   0.174   1.733   6.455
 7467SOL    HW223301   0.164   1.717   6.293
 7468SOL     OW23302   5.534   3.049   4.065
 7468SOL    HW123303   5.478   3.029   4.145
 7468SOL    HW223304   5.477   3.051   3.983
 7469SOL     OW23305   7.009   0.041   6.830
 7469SOL    HW123306   6.962   0.091   6.757
 7469SOL    HW223307   0.077   0.007   6.796
 7470SOL     OW23308   5.681   3.263   3.440
 7470SOL    HW123309   5.682   3.349   3.388
 7470SOL    HW223310   5.655   3.281   3.535
 7471SOL     OW23311   4.846   6.584   6.098
 7471SOL    HW123312   4.841   6.631   6.010
 7471SOL    HW223313   4.931   6.608   6.144
 7472SOL     OW23314   6.199   0.864   5.951
 7472SOL    HW123315   6.246   0.934   5.898
 7472SOL    HW223316   6.101   0.885   5.954
 7473SOL     OW23317   5.195   5.551   3.755
 7473SOL    HW123318   5.127   5.616   3.722
 7473SOL    HW223319   5.217   5.571   3.850
 7474SOL     OW23320   0.053   2.007   6.173
 7474SOL    HW123321   0.000   1.923   6.166
 7474SOL    HW223322   0.049   2.057   6.087
 7475SOL     OW23323   4.746   2.440   2.158
 7475SOL    HW123324   4.814   2.490   2.212
 7475SOL    HW223325   4.770   2.445   2.061
 7476SOL     OW23326   3.218   1.285   3.171
 7476SOL    HW123327   3.252   1.295   3.078
 7476SOL    HW223328   3.120   1.301   3.174
 7477SOL     OW23329   6.589   2.226   5.003
 7477SOL    HW123330   6.679   2.185   5.019
 7477SOL    HW223331   6.549   2.185   4.920
 7478SOL     OW23332   6.436   3.847   5.723
 7478SOL    HW123333   6.484   3.933   5.708
 7478SOL    HW223334   6.379   3.826   5.643
 7479SOL     OW23335   4.188   2.233   2.054
 7479SOL    HW123336   4.162   2.235   2.151
 7479SOL    HW223337   4.287   2.247   2.046
 7480SOL     OW23338   1.457   4.886   2.150
 7480SOL    HW123339   1.512   4.841   2.220
 7480SOL    HW223340   1.382   4.936   2.193
 7481SOL     OW23341   6.007   5.302   0.928
 7481SOL    HW123342   5.965   5.212   0.929
 7481SOL    HW223343   6.016   5.336   1.022
 7482SOL     OW23344   4.531   2.477   2.972
 7482SOL    HW123345   4.625   2.459   3.003
 7482SOL    HW223346   4.533   2.548   2.902
 7483SOL     OW23347   5.140   3.213   4.547
 7483SOL    HW123348   5.145   3.174   4.639
 7483SOL    HW223349   5.119   3.141   4.482
 7484SOL     OW23350   1.404   6.219   4.160
 7484SOL    HW123351   1.395   6.317   4.178
 7484SOL    HW223352   1.443   6.204   4.069
 7485SOL     OW23353   2.360   0.266   4.647
 7485SOL    HW123354   2.434   0.200   4.664
 7485SOL    HW223355   2.364   0.297   4.552
 7486SOL     OW23356   1.432   6.529   0.113
 7486SOL    HW123357   1.476   6.592   0.049
 7486SOL    HW223358   1.378   6.462   0.062
 7487SOL     OW23359   2.258   0.742   2.979
 7487SOL    HW123360   2.191   0.685   3.028
 7487SOL    HW223361   2.349   0.705   2.995
 7488SOL     OW23362   2.575   5.596   5.299
 7488SOL    HW123363   2.665   5.575   5.335
 7488SOL    HW223364   2.541   5.681   5.338
 7489SOL     OW23365   6.696   3.050   6.554
 7489SOL    HW123366   6.686   2.970   6.613
 7489SOL    HW223367   6.645   3.037   6.470
 7490SOL     OW23368   1.237   0.496   3.472
 7490SOL    HW123369   1.262   0.524   3.379
 7490SOL    HW223370   1.320   0.490   3.528
 7491SOL     OW23371   4.544   3.175   6.370
 7491SOL    HW123372   4.593   3.200   6.454
 7491SOL    HW223373   4.519   3.258   6.320
 7492SOL     OW23374   2.057   0.566   3.616
 7492SOL    HW123375   2.014   0.642   3.665
 7492SOL    HW223376   1.996   0.535   3.543
 7493SOL     OW23377   0.447   2.391   6.103
 7493SOL    HW123378   0.347   2.383   6.114
 7493SOL    HW223379   0.486   2.434   6.184
 7494SOL     OW23380   5.894   1.358   3.156
 7494SOL    HW123381   5.835   1.380   3.233
 7494SOL    HW223382   5.851   1.288   3.099
 7495SOL     OW23383   1.504   2.537   6.703
 7495SOL    HW123384   1.455   2.531   6.616
 7495SOL    HW223385   1.595   2.577   6.686
 7496SOL     OW23386   6.336   3.794   4.045
 7496SOL    HW123387   6.422   3.840   4.069
 7496SOL    HW223388   6.281   3.856   3.989
 7497SOL     OW23389   2.032   4.447   1.204
 7497SOL    HW123390   2.079   4.441   1.116
 7497SOL    HW223391   2.037   4.358   1.250
 7498SOL     OW23392   3.124   0.979   4.832
 7498SOL    HW123393   3.032   0.981   4.870
 7498SOL    HW223394   3.139   1.061   4.777
 7499SOL     OW23395   4.549   2.157   3.185
 7499SOL    HW123396   4.520   2.089   3.252
 7499SOL    HW223397   4.646   2.147   3.166
 7500SOL     OW23398   3.782   5.736   3.286
 7500SOL    HW123399   3.792   5.648   3.332
 7500SOL    HW223400   3.860   5.751   3.225
 7501SOL     OW23401   5.133   4.182   4.570
 7501SOL    HW123402   5.180   4.112   4.517
 7501SOL    HW223403   5.041   4.150   4.593
 7502SOL     OW23404   3.337   0.852   4.629
 7502SOL    HW123405   3.287   0.865   4.715
 7502SOL    HW223406   3.404   0.926   4.618
 7503SOL     OW23407   2.442   0.077   1.326
 7503SOL    HW123408   2.358   0.022   1.328
 7503SOL    HW223409   2.506   0.041   1.394
 7504SOL     OW23410   0.941   6.398   3.822
 7504SOL    HW123411   0.930   6.300   3.802
 7504SOL    HW223412   0.977   6.409   3.915
 7505SOL     OW23413   1.127   2.755   6.059
 7505SOL    HW123414   1.173   2.680   6.011
 7505SOL    HW223415   1.188   2.833   6.065
 7506SOL     OW23416   5.220   2.353   3.818
 7506SOL    HW123417   5.196   2.359   3.722
 7506SOL    HW223418   5.320   2.347   3.827
 7507SOL     OW23419   5.779   1.928   2.729
 7507SOL    HW123420   5.762   1.988   2.651
 7507SOL    HW223421   5.736   1.966   2.811
 7508SOL     OW23422   2.055   5.690   0.719
 7508SOL    HW123423   2.111   5.709   0.638
 7508SOL    HW223424   1.985   5.760   0.728
 7509SOL     OW23425   6.189   4.170   0.889
 7509SOL    HW123426   6.248   4.098   0.854
 7509SOL    HW223427   6.131   4.133   0.962
 7510SOL     OW23428   3.645   3.507   4.865
 7510SOL    HW123429   3.570   3.503   4.799
 7510SOL    HW223430   3.710   3.577   4.837
 7511SOL     OW23431   2.909   6.034   3.169
 7511SOL    HW123432   2.881   5.940   3.188
 7511SOL    HW223433   2.861   6.097   3.230
 7512SOL     OW23434   2.912   1.138   6.637
 7512SOL    HW123435   2.922   1.079   6.717
 7512SOL    HW223436   2.872   1.225   6.664
 7513SOL     OW23437   1.112   1.298   1.721
 7513SOL    HW123438   1.044   1.293   1.647
 7513SOL    HW223439   1.109   1.390   1.761
 7514SOL     OW23440   2.372   4.809   2.803
 7514SOL    HW123441   2.291   4.750   2.803
 7514SOL    HW223442   2.368   4.871   2.725
 7515SOL     OW23443   6.964   4.718   4.383
 7515SOL    HW123444   6.974   4.631   4.334
 7515SOL    HW223445   6.940   4.790   4.319
 7516SOL     OW23446   0.005   5.534   6.194
 7516SOL    HW123447   0.042   5.515   6.285
 7516SOL    HW223448   7.000   5.447   6.151
 7517SOL     OW23449   0.649   1.969   6.973
 7517SOL    HW123450   0.568   1.928   6.931
 7517SOL    HW223451   0.622   2.043   0.015
 7518SOL     OW23452   4.843   3.719   4.368
 7518SOL    HW123453   4.876   3.629   4.395
 7518SOL    HW223454   4.847   3.780   4.448
 7519SOL     OW23455   6.539   6.154   4.887
 7519SOL    HW123456   6.628   6.197   4.875
 7519SOL    HW223457   6.545   6.085   4.959
 7520SOL     OW23458   2.067   0.162   3.076
 7520SOL    HW123459   2.014   0.174   3.160
 7520SOL    HW223460   2.165   0.160   3.099
 7521SOL     OW23461   4.974   2.926   5.477
 7521SOL    HW123462   5.036   2.952   5.552
 7521SOL    HW223463   4.906   2.862   5.512
 7522SOL     OW23464   1.349   1.206   5.747
 7522SOL    HW123465   1.414   1.258   5.803
 7522SOL    HW223466   1.304   1.136   5.803
 7523SOL     OW23467   4.869   0.517   6.436
 7523SOL    HW123468   4.877   0.471   6.525
 7523SOL    HW223469   4.872   0.448   6.363
 7524SOL     OW23470   0.728   2.603   5.178
 7524SOL    HW123471   0.710   2.610   5.276
 7524SOL    HW223472   0.747   2.507   5.155
 7525SOL     OW23473   3.902   6.949   0.245
 7525SOL    HW123474   3.925   0.023   0.220
 7525SOL    HW223475   3.811   6.926   0.210
 7526SOL     OW23476   2.928   3.047   1.662
 7526SOL    HW123477   2.914   3.137   1.705
 7526SOL    HW223478   2.980   2.988   1.724
 7527SOL     OW23479   3.368   5.872   3.973
 7527SOL    HW123480   3.398   5.935   3.902
 7527SOL    HW223481   3.269   5.858   3.965
 7528SOL     OW23482   6.195   2.304   6.087
 7528SOL    HW123483   6.263   2.372   6.111
 7528SOL    HW223484   6.213   2.269   5.995
 7529SOL     OW23485   5.681   1.142   4.680
 7529SOL    HW123486   5.678   1.135   4.780
 7529SOL    HW223487   5.678   1.239   4.654
 7530SOL     OW23488   6.568   1.967   2.043
 7530SOL    HW123489   6.622   2.010   1.970
 7530SOL    HW223490   6.630   1.927   2.110
 7531SOL     OW23491   5.331   3.307   4.290
 7531SOL    HW123492   5.370   3.370   4.356
 7531SOL    HW223493   5.373   3.322   4.200
 7532SOL     OW23494   5.014   6.161   0.937
 7532SOL    HW123495   5.063   6.097   0.996
 7532SOL    HW223496   5.054   6.161   0.846
 7533SOL     OW23497   3.401   1.950   1.694
 7533SOL    HW123498   3.490   1.917   1.724
 7533SOL    HW223499   3.361   2.007   1.766
 7534SOL     OW23500   4.811   5.772   4.333
 7534SOL    HW123501   4.735   5.741   4.392
 7534SOL    HW223502   4.886   5.804   4.391
 7535SOL     OW23503   1.896   6.808   5.101
 7535SOL    HW123504   1.993   6.822   5.082
 7535SOL    HW223505   1.866   6.722   5.061
 7536SOL     OW23506   5.155   4.686   4.042
 7536SOL    HW123507   5.239   4.728   4.077
 7536SOL    HW223508   5.117   4.626   4.112
 7537SOL     OW23509   1.723   4.997   3.066
 7537SOL    HW123510   1.657   4.930   3.033
 7537SOL    HW223511   1.696   5.088   3.035
 7538SOL     OW23512   1.710   2.184   1.449
 7538SOL    HW123513   1.622   2.210   1.408
 7538SOL    HW223514   1.749   2.263   1.497
 7539SOL     OW23515   1.303   3.667   4.497
 7539SOL    HW123516   1.383   3.626   4.452
 7539SOL    HW223517   1.249   3.594   4.540
 7540SOL     OW23518   4.230   0.554   4.620
 7540SOL    HW123519   4.140   0.592   4.638
 7540SOL    HW223520   4.221   0.464   4.579
 7541SOL     OW23521   0.832   3.769   5.062
 7541SOL    HW123522   0.742   3.808   5.042
 7541SOL    HW223523   0.903   3.833   5.034
 7542SOL     OW23524   0.341   5.875   0.212
 7542SOL    HW123525   0.386   5.933   0.144
 7542SOL    HW223526   0.408   5.846   0.280
 7543SOL     OW23527   3.755   0.924   5.326
 7543SOL    HW123528   3.758   0.833   5.366
 7543SOL    HW223529   3.768   0.918   5.227
 7544SOL     OW23530   6.506   2.640   4.662
 7544SOL    HW123531   6.448   2.610   4.737
 7544SOL    HW223532   6.490   2.737   4.643
 7545SOL     OW23533   0.815   6.406   6.260
 7545SOL    HW123534   0.765   6.428   6.176
 7545SOL    HW223535   0.886   6.339   6.239
 7546SOL     OW23536   4.791   2.041   1.471
 7546SOL    HW123537   4.872   1.992   1.439
 7546SOL    HW223538   4.766   2.008   1.563
 7547SOL     OW23539   5.383   1.656   0.926
 7547SOL    HW123540   5.435   1.611   0.998
 7547SOL    HW223541   5.386   1.600   0.843
 7548SOL     OW23542   4.585   2.256   6.339
 7548SOL    HW123543   4.665   2.203   6.368
 7548SOL    HW223544   4.601   2.291   6.246
 7549SOL     OW23545   3.367   3.499   6.452
 7549SOL    HW123546   3.379   3.415   6.504
 7549SOL    HW223547   3.392   3.577   6.508
 7550SOL     OW23548   1.844   4.382   4.028
 7550SOL    HW123549   1.934   4.396   3.986
 7550SOL    HW223550   1.835   4.441   4.108
 7551SOL     OW23551   5.972   3.130   5.059
 7551SOL    HW123552   5.891   3.125   5.000
 7551SOL    HW223553   5.945   3.115   5.154
 7552SOL     OW23554   1.544   5.823   3.928
 7552SOL    HW123555   1.596   5.764   3.866
 7552SOL    HW223556   1.479   5.878   3.875
 7553SOL     OW23557   4.547   6.731   5.930
 7553SOL    HW123558   4.507   6.740   5.839
 7553SOL    HW223559   4.545   6.635   5.958
 7554SOL     OW23560   4.944   0.784   6.391
 7554SOL    HW123561   4.998   0.834   6.458
 7554SOL    HW223562   4.938   0.688   6.419
 7555SOL     OW23563   2.975   5.220   6.324
 7555SOL    HW123564   2.918   5.251   6.400
 7555SOL    HW223565   2.967   5.284   6.248
 7556SOL     OW23566   2.564   2.156   0.140
 7556SOL    HW123567   2.590   2.222   0.211
 7556SOL    HW223568   2.502   2.199   0.075
 7557SOL     OW23569   5.369   0.684   6.074
 7557SOL    HW123570   5.428   0.685   6.155
 7557SOL    HW223571   5.277   0.713   6.100
 7558SOL     OW23572   2.018   2.867   4.210
 7558SOL    HW123573   2.018   2.873   4.310
 7558SOL    HW223574   2.055   2.778   4.182
 7559SOL     OW23575   3.812   3.202   5.808
 7559SOL    HW123576   3.819   3.106   5.783
 7559SOL    HW223577   3.819   3.258   5.725
 7560SOL     OW23578   5.259   6.827   0.411
 7560SOL    HW123579   5.269   6.746   0.469
 7560SOL    HW223580   5.262   6.800   0.315
 7561SOL     OW23581   6.625   3.131   5.566
 7561SOL    HW123582   6.580   3.216   5.594
 7561SOL    HW223583   6.555   3.064   5.540
 7562SOL     OW23584   0.489   4.728   5.455
 7562SOL    HW123585   0.546   4.671   5.514
 7562SOL    HW223586   0.536   4.814   5.435
 7563SOL     OW23587   3.245   6.986   1.674
 7563SOL    HW123588   3.212   6.911   1.733
 7563SOL    HW223589   3.292   0.034   1.730
 7564SOL     OW23590   3.778   0.536   4.663
 7564SOL    HW123591   3.785   0.438   4.684
 7564SOL    HW223592   3.682   0.564   4.668
 7565SOL     OW23593   5.490   3.710   6.372
 7565SOL    HW123594   5.514   3.779   6.441
 7565SOL    HW223595   5.391   3.699   6.370
 7566SOL     OW23596   5.702   5.439   2.419
 7566SOL    HW123597   5.776   5.372   2.414
 7566SOL    HW223598   5.619   5.399   2.380
 7567SOL     OW23599   1.674   1.134   6.033
 7567SOL    HW123600   1.665   1.217   5.977
 7567SOL    HW223601   1.770   1.104   6.033
 7568SOL     OW23602   5.819   4.874   2.366
 7568SOL    HW123603   5.792   4.951   2.308
 7568SOL    HW223604   5.856   4.908   2.452
 7569SOL     OW23605   2.765   4.602   6.065
 7569SOL    HW123606   2.758   4.542   6.145
 7569SOL    HW223607   2.719   4.559   5.988
 7570SOL     OW23608   5.200   4.009   4.390
 7570SOL    HW123609   5.236   3.917   4.404
 7570SOL    HW223610   5.109   4.003   4.350
 7571SOL     OW23611   4.948   4.221   3.477
 7571SOL    HW123612   4.888   4.288   3.432
 7571SOL    HW223613   4.894   4.160   3.533
 7572SOL     OW23614   4.936   0.603   2.685
 7572SOL    HW123615   4.906   0.692   2.651
 7572SOL    HW223616   5.001   0.616   2.760
 7573SOL     OW23617   6.759   0.511   5.333
 7573SOL    HW123618   6.835   0.571   5.358
 7573SOL    HW223619   6.677   0.567   5.317
 7574SOL     OW23620   5.728   0.911   4.985
 7574SOL    HW123621   5.710   1.009   4.988
 7574SOL    HW223622   5.684   0.866   5.062
 7575SOL     OW23623   5.398   0.013   0.165
 7575SOL    HW123624   5.385   0.071   0.084
 7575SOL    HW223625   5.355   6.944   0.148
 7576SOL     OW23626   4.933   3.140   0.413
 7576SOL    HW123627   4.862   3.149   0.344
 7576SOL    HW223628   4.895   3.166   0.502
 7577SOL     OW23629   0.540   6.321   6.747
 7577SOL    HW123630   0.451   6.284   6.722
 7577SOL    HW223631   0.612   6.266   6.705
 7578SOL     OW23632   2.881   5.163   2.410
 7578SOL    HW123633   2.827   5.080   2.423
 7578SOL    HW223634   2.873   5.195   2.316
 7579SOL     OW23635   0.435   2.069   1.563
 7579SOL    HW123636   0.517   2.027   1.602
 7579SOL    HW223637   0.397   2.009   1.493
 7580SOL     OW23638   0.896   3.973   3.667
 7580SOL    HW123639   0.866   4.036   3.596
 7580SOL    HW223640   0.936   3.891   3.625
 7581SOL     OW23641   0.768   1.951   1.063
 7581SOL    HW123642   0.843   2.009   1.030
 7581SOL    HW223643   0.801   1.857   1.075
 7582SOL     OW23644   4.298   1.571   3.764
 7582SOL    HW123645   4.374   1.635   3.775
 7582SOL    HW223646   4.234   1.581   3.840
 7583SOL     OW23647   5.191   2.996   1.978
 7583SOL    HW123648   5.216   3.069   1.915
 7583SOL    HW223649   5.106   2.953   1.948
 7584SOL     OW23650   1.556   0.451   2.731
 7584SOL    HW123651   1.460   0.450   2.757
 7584SOL    HW223652   1.613   0.448   2.813
 7585SOL     OW23653   1.528   2.860   5.847
 7585SOL    HW123654   1.448   2.848   5.788
 7585SOL    HW223655   1.560   2.771   5.878
 7586SOL     OW23656   1.826   6.762   3.582
 7586SOL    HW123657   1.834   6.764   3.681
 7586SOL    HW223658   1.803   6.669   3.552
 7587SOL     OW23659   2.501   1.695   6.898
 7587SOL    HW123660   2.576   1.715   6.961
 7587SOL    HW223661   2.524   1.615   6.843
 7588SOL     OW23662   2.292   2.375   3.440
 7588SOL    HW123663   2.350   2.443   3.394
 7588SOL    HW223664   2.331   2.284   3.428
 7589SOL     OW23665   0.518   0.813   2.692
 7589SOL    HW123666   0.542   0.737   2.631
 7589SOL    HW223667   0.530   0.900   2.644
 7590SOL     OW23668   4.804   1.720   6.926
 7590SOL    HW123669   4.878   1.779   6.958
 7590SOL    HW223670   4.747   1.771   6.861
 7591SOL     OW23671   4.871   4.589   0.566
 7591SOL    HW123672   4.957   4.623   0.528
 7591SOL    HW223673   4.876   4.591   0.666
 7592SOL     OW23674   6.272   5.565   4.410
 7592SOL    HW123675   6.319   5.588   4.325
 7592SOL    HW223676   6.329   5.591   4.488
 7593SOL     OW23677   6.827   2.855   6.803
 7593SOL    HW123678   6.740   2.902   6.815
 7593SOL    HW223679   6.811   2.757   6.792
 7594SOL     OW23680   2.221   4.563   1.477
 7594SOL    HW123681   2.140   4.620   1.463
 7594SOL    HW223682   2.272   4.597   1.557
 7595SOL     OW23683   6.271   3.421   5.852
 7595SOL    HW123684   6.281   3.520   5.856
 7595SOL    HW223685   6.272   3.383   5.945
 7596SOL     OW23686   3.278   6.740   4.352
 7596SOL    HW123687   3.306   6.659   4.404
 7596SOL    HW223688   3.270   6.818   4.414
 7597SOL     OW23689   2.175   6.220   3.135
 7597SOL    HW123690   2.258   6.209   3.081
 7597SOL    HW223691   2.106   6.156   3.102
 7598SOL     OW23692   6.393   0.707   3.411
 7598SOL    HW123693   6.308   0.757   3.392
 7598SOL    HW223694   6.378   0.610   3.395
 7599SOL     OW23695   5.255   2.304   1.760
 7599SOL    HW123696   5.191   2.227   1.764
 7599SOL    HW223697   5.208   2.388   1.789
 7600SOL     OW23698   0.762   0.857   3.992
 7600SOL    HW123699   0.783   0.919   4.067
 7600SOL    HW223700   0.733   0.909   3.912
 7601SOL     OW23701   2.560   4.646   2.065
 7601SOL    HW123702   2.647   4.612   2.029
 7601SOL    HW223703   2.537   4.733   2.021
 7602SOL     OW23704   1.120   3.384   6.877
 7602SOL    HW123705   1.182   3.403   6.952
 7602SOL    HW223706   1.037   3.341   6.913
 7603SOL     OW23707   2.543   6.410   6.597
 7603SOL    HW123708   2.461   6.406   6.653
 7603SOL    HW223709   2.565   6.506   6.577
 7604SOL     OW23710   0.867   2.672   4.957
 7604SOL    HW123711   0.834   2.664   5.051
 7604SOL    HW223712   0.837   2.760   4.919
 7605SOL     OW23713   0.997   0.616   0.826
 7605SOL    HW123714   1.073   0.562   0.789
 7605SOL    HW223715   0.917   0.607   0.766
 7606SOL     OW23716   5.435   3.203   4.621
 7606SOL    HW123717   5.385   3.208   4.707
 7606SOL    HW223718   5.380   3.156   4.553
 7607SOL     OW23719   4.495   5.335   0.615
 7607SOL    HW123720   4.512   5.384   0.700
 7607SOL    HW223721   4.397   5.337   0.595
 7608SOL     OW23722   4.908   3.045   1.089
 7608SOL    HW123723   4.882   3.023   0.995
 7608SOL    HW223724   4.834   3.095   1.133
 7609SOL     OW23725   1.790   3.278   4.431
 7609SOL    HW123726   1.873   3.225   4.415
 7609SOL    HW223727   1.711   3.227   4.395
 7610SOL     OW23728   3.877   4.712   6.069
 7610SOL    HW123729   3.973   4.717   6.042
 7610SOL    HW223730   3.819   4.723   5.988
 7611SOL     OW23731   5.170   4.546   1.186
 7611SOL    HW123732   5.162   4.626   1.126
 7611SOL    HW223733   5.109   4.557   1.264
 7612SOL     OW23734   4.769   2.907   2.851
 7612SOL    HW123735   4.670   2.903   2.842
 7612SOL    HW223736   4.806   2.814   2.860
 7613SOL     OW23737   0.484   1.638   1.064
 7613SOL    HW123738   0.517   1.550   1.029
 7613SOL    HW223739   0.395   1.624   1.109
 7614SOL     OW23740   5.246   3.050   1.423
 7614SOL    HW123741   5.170   3.009   1.473
 7614SOL    HW223742   5.227   3.047   1.325
 7615SOL     OW23743   4.498   3.948   6.387
 7615SOL    HW123744   4.555   4.026   6.361
 7615SOL    HW223745   4.460   3.964   6.478
 7616SOL     OW23746   6.685   6.611   4.556
 7616SOL    HW123747   6.636   6.683   4.605
 7616SOL    HW223748   6.680   6.629   4.457
 7617SOL     OW23749   4.275   6.174   3.109
 7617SOL    HW123750   4.214   6.211   3.038
 7617SOL    HW223751   4.326   6.249   3.151
 7618SOL     OW23752   0.969   2.837   6.668
 7618SOL    HW123753   1.030   2.861   6.593
 7618SOL    HW223754   0.974   2.738   6.684
 7619SOL     OW23755   0.143   3.163   4.713
 7619SOL    HW123756   0.138   3.228   4.638
 7619SOL    HW223757   0.051   3.137   4.742
 7620SOL     OW23758   3.929   5.672   1.745
 7620SOL    HW123759   3.856   5.669   1.677
 7620SOL    HW223760   4.012   5.710   1.704
 7621SOL     OW23761   0.113   1.013   0.887
 7621SOL    HW123762   0.076   1.078   0.954
 7621SOL    HW223763   0.103   1.050   0.795
 7622SOL     OW23764   4.891   4.475   6.727
 7622SOL    HW123765   4.833   4.450   6.805
 7622SOL    HW223766   4.860   4.562   6.689
 7623SOL     OW23767   4.065   4.615   0.725
 7623SOL    HW123768   4.156   4.634   0.688
 7623SOL    HW223769   3.997   4.622   0.653
 7624SOL     OW23770   6.750   3.663   4.036
 7624SOL    HW123771   6.835   3.694   3.993
 7624SOL    HW223772   6.770   3.586   4.096
 7625SOL     OW23773   5.541   1.053   6.858
 7625SOL    HW123774   5.468   0.984   6.863
 7625SOL    HW223775   5.615   1.028   6.920
 7626SOL     OW23776   6.243   0.609   5.906
 7626SOL    HW123777   6.340   0.592   5.924
 7626SOL    HW223778   6.217   0.697   5.946
 7627SOL     OW23779   3.261   2.482   0.375
 7627SOL    HW123780   3.329   2.417   0.408
 7627SOL    HW223781   3.171   2.459   0.412
 7628SOL     OW23782   3.588   2.982   1.666
 7628SOL    HW123783   3.559   3.059   1.723
 7628SOL    HW223784   3.566   3.001   1.571
 7629SOL     OW23785   0.121   4.034   3.145
 7629SOL    HW123786   0.057   4.094   3.098
 7629SOL    HW223787   0.075   3.991   3.223
 7630SOL     OW23788   1.124   0.870   0.040
 7630SOL    HW123789   1.069   0.787   0.048
 7630SOL    HW223790   1.221   0.846   0.041
 7631SOL     OW23791   0.841   1.421   5.115
 7631SOL    HW123792   0.820   1.352   5.184
 7631SOL    HW223793   0.831   1.513   5.154
 7632SOL     OW23794   4.428   4.560   1.041
 7632SOL    HW123795   4.333   4.530   1.055
 7632SOL    HW223796   4.459   4.610   1.122
 7633SOL     OW23797   5.486   0.870   1.643
 7633SOL    HW123798   5.407   0.931   1.654
 7633SOL    HW223799   5.483   0.798   1.712
 7634SOL     OW23800   2.290   1.241   1.215
 7634SOL    HW123801   2.255   1.203   1.129
 7634SOL    HW223802   2.305   1.339   1.204
 7635SOL     OW23803   3.294   5.003   4.558
 7635SOL    HW123804   3.282   5.102   4.559
 7635SOL    HW223805   3.271   4.967   4.468
 7636SOL     OW23806   1.506   3.421   3.993
 7636SOL    HW123807   1.463   3.511   3.992
 7636SOL    HW223808   1.519   3.389   3.900
 7637SOL     OW23809   2.710   5.935   2.610
 7637SOL    HW123810   2.647   5.935   2.688
 7637SOL    HW223811   2.747   5.843   2.598
 7638SOL     OW23812   1.620   5.503   2.409
 7638SOL    HW123813   1.563   5.584   2.397
 7638SOL    HW223814   1.713   5.531   2.435
 7639SOL     OW23815   0.137   1.159   0.449
 7639SOL    HW123816   0.054   1.146   0.395
 7639SOL    HW223817   0.209   1.195   0.389
 7640SOL     OW23818   2.599   2.816   6.486
 7640SOL    HW123819   2.544   2.734   6.505
 7640SOL    HW223820   2.616   2.864   6.572
 7641SOL     OW23821   0.090   3.225   2.789
 7641SOL    HW123822   0.153   3.232   2.711
 7641SOL    HW223823   7.019   3.198   2.756
 7642SOL     OW23824   4.596   0.958   2.131
 7642SOL    HW123825   4.653   0.879   2.150
 7642SOL    HW223826   4.622   1.034   2.191
 7643SOL     OW23827   4.970   1.738   2.729
 7643SOL    HW123828   5.025   1.740   2.813
 7643SOL    HW223829   4.908   1.659   2.732
 7644SOL     OW23830   4.952   2.882   1.949
 7644SOL    HW123831   4.991   2.801   1.992
 7644SOL    HW223832   4.863   2.903   1.990
 7645SOL     OW23833   4.916   3.593   5.933
 7645SOL    HW123834   4.868   3.544   5.860
 7645SOL    HW223835   4.877   3.685   5.941
 7646SOL     OW23836   0.501   2.678   3.799
 7646SOL    HW123837   0.561   2.599   3.814
 7646SOL    HW223838   0.545   2.741   3.735
 7647SOL     OW23839   6.983   2.427   4.683
 7647SOL    HW123840   6.891   2.460   4.705
 7647SOL    HW223841   7.009   2.355   4.747
 7648SOL     OW23842   2.103   1.852   2.440
 7648SOL    HW123843   2.015   1.895   2.459
 7648SOL    HW223844   2.102   1.757   2.471
 7649SOL     OW23845   1.503   0.743   3.794
 7649SOL    HW123846   1.420   0.693   3.770
 7649SOL    HW223847   1.582   0.684   3.781
 7650SOL     OW23848   6.108   0.876   1.010
 7650SOL    HW123849   6.078   0.937   0.936
 7650SOL    HW223850   6.191   0.828   0.982
 7651SOL     OW23851   2.147   6.961   4.726
 7651SOL    HW123852   2.236   6.980   4.684
 7651SOL    HW223853   2.087   0.020   4.716
 7652SOL     OW23854   5.281   2.094   4.645
 7652SOL    HW123855   5.367   2.062   4.604
 7652SOL    HW223856   5.300   2.177   4.698
 7653SOL     OW23857   1.238   1.626   0.569
 7653SOL    HW123858   1.202   1.670   0.651
 7653SOL    HW223859   1.209   1.678   0.488
 7654SOL     OW23860   5.106   3.194   4.107
 7654SOL    HW123861   5.178   3.137   4.148
 7654SOL    HW223862   5.030   3.203   4.171
 7655SOL     OW23863   3.828   6.900   3.627
 7655SOL    HW123864   3.899   6.966   3.605
 7655SOL    HW223865   3.773   6.934   3.704
 7656SOL     OW23866   4.097   3.691   6.550
 7656SOL    HW123867   4.088   3.680   6.451
 7656SOL    HW223868   4.053   3.777   6.578
 7657SOL     OW23869   2.225   1.950   3.581
 7657SOL    HW123870   2.237   2.037   3.628
 7657SOL    HW223871   2.243   1.875   3.645
 7658SOL     OW23872   2.371   0.504   0.942
 7658SOL    HW123873   2.420   0.507   0.855
 7658SOL    HW223874   2.400   0.423   0.994
 7659SOL     OW23875   4.282   4.654   6.974
 7659SOL    HW123876   4.359   4.672   0.015
 7659SOL    HW223877   4.203   4.707   7.004
 7660SOL     OW23878   6.983   5.901   4.148
 7660SOL    HW123879   7.014   5.996   4.137
 7660SOL    HW223880   6.891   5.901   4.188
 7661SOL     OW23881   5.457   2.619   5.225
 7661SOL    HW123882   5.468   2.574   5.136
 7661SOL    HW223883   5.532   2.591   5.285
 7662SOL     OW23884   1.260   2.256   3.593
 7662SOL    HW123885   1.317   2.235   3.673
 7662SOL    HW223886   1.300   2.333   3.543
 7663SOL     OW23887   5.795   4.936   6.099
 7663SOL    HW123888   5.740   4.947   6.182
 7663SOL    HW223889   5.790   5.020   6.045
 7664SOL     OW23890   4.199   1.051   2.230
 7664SOL    HW123891   4.110   1.031   2.270
 7664SOL    HW223892   4.243   1.125   2.281
 7665SOL     OW23893   5.648   0.750   5.247
 7665SOL    HW123894   5.696   0.685   5.188
 7665SOL    HW223895   5.576   0.701   5.297
 7666SOL     OW23896   0.688   4.910   3.152
 7666SOL    HW123897   0.643   4.863   3.077
 7666SOL    HW223898   0.779   4.940   3.123
 7667SOL     OW23899   4.547   0.566   2.463
 7667SOL    HW123900   4.637   0.609   2.448
 7667SOL    HW223901   4.523   0.510   2.384
 7668SOL     OW23902   2.822   4.673   0.994
 7668SOL    HW123903   2.880   4.694   0.915
 7668SOL    HW223904   2.732   4.715   0.981
 7669SOL     OW23905   4.424   1.143   5.317
 7669SOL    HW123906   4.493   1.100   5.258
 7669SOL    HW223907   4.457   1.144   5.411
 7670SOL     OW23908   0.961   5.653   0.589
 7670SOL    HW123909   0.912   5.673   0.674
 7670SOL    HW223910   0.937   5.721   0.520
 7671SOL     OW23911   3.966   0.933   2.357
 7671SOL    HW123912   3.919   0.901   2.275
 7671SOL    HW223913   3.902   0.986   2.414
 7672SOL     OW23914   0.189   5.813   3.044
 7672SOL    HW123915   0.123   5.814   3.119
 7672SOL    HW223916   0.273   5.859   3.072
 7673SOL     OW23917   1.749   5.607   2.143
 7673SOL    HW123918   1.749   5.527   2.083
 7673SOL    HW223919   1.655   5.637   2.158
 7674SOL     OW23920   5.086   0.793   3.907
 7674SOL    HW123921   5.117   0.761   3.997
 7674SOL    HW223922   4.986   0.791   3.903
 7675SOL     OW23923   5.821   6.821   2.991
 7675SOL    HW123924   5.895   6.767   3.032
 7675SOL    HW223925   5.735   6.802   3.039
 7676SOL     OW23926   3.175   2.625   6.259
 7676SOL    HW123927   3.119   2.708   6.262
 7676SOL    HW223928   3.199   2.597   6.352
 7677SOL     OW23929   0.509   4.327   1.151
 7677SOL    HW123930   0.480   4.382   1.073
 7677SOL    HW223931   0.558   4.246   1.118
 7678SOL     OW23932   2.442   2.523   5.344
 7678SOL    HW123933   2.420   2.518   5.247
 7678SOL    HW223934   2.448   2.618   5.372
 7679SOL     OW23935   2.441   5.627   5.653
 7679SOL    HW123936   2.411   5.576   5.572
 7679SOL    HW223937   2.537   5.605   5.673
 7680SOL     OW23938   1.651   0.533   0.539
 7680SOL    HW123939   1.746   0.556   0.559
 7680SOL    HW223940   1.593   0.568   0.612
 7681SOL     OW23941   2.686   1.211   0.317
 7681SOL    HW123942   2.750   1.215   0.394
 7681SOL    HW223943   2.603   1.162   0.345
 7682SOL     OW23944   4.536   0.569   2.172
 7682SOL    HW123945   4.475   0.630   2.223
 7682SOL    HW223946   4.494   0.543   2.086
 7683SOL     OW23947   0.196   1.547   4.649
 7683SOL    HW123948   0.245   1.487   4.586
 7683SOL    HW223949   0.211   1.643   4.623
 7684SOL     OW23950   4.232   1.849   1.164
 7684SOL    HW123951   4.227   1.750   1.173
 7684SOL    HW223952   4.149   1.891   1.200
 7685SOL     OW23953   3.078   1.423   6.049
 7685SOL    HW123954   3.067   1.424   5.950
 7685SOL    HW223955   3.175   1.421   6.072
 7686SOL     OW23956   6.595   6.935   3.541
 7686SOL    HW123957   6.509   6.914   3.586
 7686SOL    HW223958   6.639   7.013   3.586
 7687SOL     OW23959   5.340   5.008   4.404
 7687SOL    HW123960   5.388   5.031   4.489
 7687SOL    HW223961   5.241   5.015   4.418
 7688SOL     OW23962   0.274   5.990   5.496
 7688SOL    HW123963   0.351   5.987   5.560
 7688SOL    HW223964   0.215   5.911   5.511
 7689SOL     OW23965   5.462   6.465   2.850
 7689SOL    HW123966   5.435   6.372   2.826
 7689SOL    HW223967   5.472   6.472   2.949
 7690SOL     OW23968   4.957   5.397   0.919
 7690SOL    HW123969   5.041   5.447   0.939
 7690SOL    HW223970   4.948   5.320   0.982
 7691SOL     OW23971   5.788   3.974   2.831
 7691SOL    HW123972   5.717   4.014   2.773
 7691SOL    HW223973   5.746   3.941   2.916
 7692SOL     OW23974   0.816   5.832   1.987
 7692SOL    HW123975   0.895   5.868   1.938
 7692SOL    HW223976   0.793   5.893   2.062
 7693SOL     OW23977   2.745   0.404   0.940
 7693SOL    HW123978   2.785   0.491   0.913
 7693SOL    HW223979   2.683   0.372   0.869
 7694SOL     OW23980   6.177   2.638   3.641
 7694SOL    HW123981   6.111   2.701   3.600
 7694SOL    HW223982   6.192   2.562   3.579
 7695SOL     OW23983   5.688   1.163   1.746
 7695SOL    HW123984   5.697   1.097   1.671
 7695SOL    HW223985   5.621   1.233   1.721
 7696SOL     OW23986   6.475   2.056   5.922
 7696SOL    HW123987   6.506   1.973   5.969
 7696SOL    HW223988   6.553   2.100   5.877
 7697SOL     OW23989   2.531   0.619   2.951
 7697SOL    HW123990   2.506   0.538   2.898
 7697SOL    HW223991   2.540   0.594   3.048
 7698SOL     OW23992   5.822   0.987   4.488
 7698SOL    HW123993   5.752   1.032   4.544
 7698SOL    HW223994   5.872   0.921   4.545
 7699SOL     OW23995   2.272   5.459   5.962
 7699SOL    HW123996   2.249   5.418   6.051
 7699SOL    HW223997   2.355   5.416   5.927
 7700SOL     OW23998   4.458   5.939   3.717
 7700SOL    HW123999   4.507   6.024   3.698
 7700SOL    HW224000   4.513   5.862   3.687
 7701SOL     OW24001   0.401   2.536   6.898
 7701SOL    HW124002   0.356   2.620   6.931
 7701SOL    HW224003   0.500   2.551   6.895
 7702SOL     OW24004   4.625   5.549   5.172
 7702SOL    HW124005   4.601   5.582   5.263
 7702SOL    HW224006   4.541   5.526   5.121
 7703SOL     OW24007   6.140   6.205   6.689
 7703SOL    HW124008   6.176   6.219   6.781
 7703SOL    HW224009   6.102   6.112   6.682
 7704SOL     OW24010   5.921   1.025   3.299
 7704SOL    HW124011   5.896   0.986   3.211
 7704SOL    HW224012   5.858   1.099   3.322
 7705SOL     OW24013   2.279   6.268   0.979
 7705SOL    HW124014   2.211   6.319   0.927
 7705SOL    HW224015   2.282   6.173   0.945
 7706SOL     OW24016   3.481   3.170   4.356
 7706SOL    HW124017   3.426   3.134   4.432
 7706SOL    HW224018   3.434   3.154   4.270
 7707SOL     OW24019   0.466   4.741   6.374
 7707SOL    HW124020   0.505   4.701   6.457
 7707SOL    HW224021   0.514   4.704   6.294
 7708SOL     OW24022   1.446   6.010   4.626
 7708SOL    HW124023   1.412   6.093   4.580
 7708SOL    HW224024   1.527   5.976   4.577
 7709SOL     OW24025   0.048   4.772   1.722
 7709SOL    HW124026   0.087   4.757   1.631
 7709SOL    HW224027   0.115   4.820   1.779
 7710SOL     OW24028   1.997   2.403   0.505
 7710SOL    HW124029   2.088   2.393   0.545
 7710SOL    HW224030   1.950   2.315   0.506
 7711SOL     OW24031   5.441   5.973   5.470
 7711SOL    HW124032   5.471   6.069   5.465
 7711SOL    HW224033   5.422   5.940   5.377
 7712SOL     OW24034   6.331   5.327   0.405
 7712SOL    HW124035   6.272   5.365   0.334
 7712SOL    HW224036   6.404   5.273   0.363
 7713SOL     OW24037   1.795   3.537   0.340
 7713SOL    HW124038   1.870   3.603   0.337
 7713SOL    HW224039   1.813   3.468   0.410
 7714SOL     OW24040   0.151   5.419   5.339
 7714SOL    HW124041   0.086   5.493   5.320
 7714SOL    HW224042   0.167   5.367   5.255
 7715SOL     OW24043   3.175   2.989   6.527
 7715SOL    HW124044   3.134   2.984   6.436
 7715SOL    HW224045   3.139   3.069   6.575
 7716SOL     OW24046   6.553   4.636   0.395
 7716SOL    HW124047   6.472   4.577   0.394
 7716SOL    HW224048   6.618   4.605   0.325
 7717SOL     OW24049   1.377   1.939   5.650
 7717SOL    HW124050   1.364   2.031   5.687
 7717SOL    HW224051   1.433   1.944   5.567
 7718SOL     OW24052   6.516   3.647   3.139
 7718SOL    HW124053   6.515   3.678   3.234
 7718SOL    HW224054   6.607   3.614   3.115
 7719SOL     OW24055   1.322   3.939   4.449
 7719SOL    HW124056   1.304   3.844   4.474
 7719SOL    HW224057   1.329   3.995   4.532
 7720SOL     OW24058   6.729   2.608   6.160
 7720SOL    HW124059   6.677   2.548   6.099
 7720SOL    HW224060   6.807   2.557   6.197
 7721SOL     OW24061   0.734   5.992   2.169
 7721SOL    HW124062   0.640   5.979   2.199
 7721SOL    HW224063   0.765   6.084   2.195
 7722SOL     OW24064   1.913   4.580   3.656
 7722SOL    HW124065   1.834   4.622   3.612
 7722SOL    HW224066   1.886   4.493   3.698
 7723SOL     OW24067   3.810   3.542   6.669
 7723SOL    HW124068   3.866   3.532   6.751
 7723SOL    HW224069   3.865   3.581   6.596
 7724SOL     OW24070   3.487   4.662   0.458
 7724SOL    HW124071   3.409   4.606   0.431
 7724SOL    HW224072   3.460   4.726   0.530
 7725SOL     OW24073   6.441   1.816   2.992
 7725SOL    HW124074   6.387   1.757   3.051
 7725SOL    HW224075   6.495   1.880   3.047
 7726SOL     OW24076   1.958   4.005   6.554
 7726SOL    HW124077   1.926   4.097   6.530
 7726SOL    HW224078   1.887   3.958   6.608
 7727SOL     OW24079   6.318   2.742   2.294
 7727SOL    HW124080   6.362   2.683   2.362
 7727SOL    HW224081   6.222   2.754   2.318
 7728SOL     OW24082   2.187   3.039   4.868
 7728SOL    HW124083   2.272   3.047   4.921
 7728SOL    HW224084   2.182   2.948   4.827
 7729SOL     OW24085   5.601   1.103   2.154
 7729SOL    HW124086   5.621   1.081   2.249
 7729SOL    HW224087   5.535   1.037   2.117
 7730SOL     OW24088   6.999   4.872   6.474
 7730SOL    HW124089   0.025   4.892   6.561
 7730SOL    HW224090   6.911   4.829   6.492
 7731SOL     OW24091   6.408   6.963   0.156
 7731SOL    HW124092   6.351   6.936   0.234
 7731SOL    HW224093   6.498   6.919   0.165
 7732SOL     OW24094   4.153   0.519   0.208
 7732SOL    HW124095   4.185   0.426   0.188
 7732SOL    HW224096   4.189   0.582   0.139
 7733SOL     OW24097   6.196   5.528   1.922
 7733SOL    HW124098   6.188   5.620   1.960
 7733SOL    HW224099   6.241   5.469   1.989
 7734SOL     OW24100   1.686   4.929   4.554
 7734SOL    HW124101   1.598   4.905   4.594
 7734SOL    HW224102   1.716   4.856   4.492
 7735SOL     OW24103   6.002   5.820   6.410
 7735SOL    HW124104   5.927   5.760   6.437
 7735SOL    HW224105   6.073   5.768   6.364
 7736SOL     OW24106   2.436   3.258   6.878
 7736SOL    HW124107   2.477   3.206   6.954
 7736SOL    HW224108   2.406   3.194   6.807
 7737SOL     OW24109   3.574   6.964   2.011
 7737SOL    HW124110   3.499   6.956   2.077
 7737SOL    HW224111   3.658   6.929   2.051
 7738SOL     OW24112   2.669   5.739   0.374
 7738SOL    HW124113   2.737   5.697   0.434
 7738SOL    HW224114   2.616   5.667   0.329
 7739SOL     OW24115   1.529   1.959   1.866
 7739SOL    HW124116   1.606   1.911   1.826
 7739SOL    HW224117   1.558   2.050   1.898
 7740SOL     OW24118   1.816   1.327   3.051
 7740SOL    HW124119   1.815   1.299   2.955
 7740SOL    HW224120   1.722   1.330   3.086
 7741SOL     OW24121   0.606   3.899   5.010
 7741SOL    HW124122   0.581   3.914   4.914
 7741SOL    HW224123   0.522   3.891   5.065
 7742SOL     OW24124   4.257   1.776   4.052
 7742SOL    HW124125   4.356   1.783   4.038
 7742SOL    HW224126   4.227   1.849   4.113
 7743SOL     OW24127   4.478   1.626   6.630
 7743SOL    HW124128   4.487   1.629   6.730
 7743SOL    HW224129   4.394   1.578   6.606
 7744SOL     OW24130   1.361   6.434   3.516
 7744SOL    HW124131   1.371   6.438   3.615
 7744SOL    HW224132   1.264   6.441   3.492
 7745SOL     OW24133   2.977   6.905   0.709
 7745SOL    HW124134   3.004   6.823   0.758
 7745SOL    HW224135   2.978   6.983   0.771
 7746SOL     OW24136   1.017   0.042   0.455
 7746SOL    HW124137   1.033   0.042   0.554
 7746SOL    HW224138   0.919   0.035   0.438
 7747SOL     OW24139   6.706   6.129   1.201
 7747SOL    HW124140   6.791   6.175   1.178
 7747SOL    HW224141   6.630   6.194   1.194
 7748SOL     OW24142   3.583   4.031   3.592
 7748SOL    HW124143   3.602   4.066   3.500
 7748SOL    HW224144   3.576   4.107   3.656
 7749SOL     OW24145   3.439   3.578   3.707
 7749SOL    HW124146   3.364   3.640   3.728
 7749SOL    HW224147   3.524   3.615   3.744
 7750SOL     OW24148   6.334   5.749   6.842
 7750SOL    HW124149   6.281   5.830   6.867
 7750SOL    HW224150   6.407   5.775   6.778
 7751SOL     OW24151   0.730   2.202   3.041
 7751SOL    HW124152   0.769   2.119   3.001
 7751SOL    HW224153   0.643   2.180   3.084
 7752SOL     OW24154   5.181   5.770   5.087
 7752SOL    HW124155   5.210   5.862   5.113
 7752SOL    HW224156   5.203   5.706   5.161
 7753SOL     OW24157   2.480   0.388   3.895
 7753SOL    HW124158   2.471   0.464   3.830
 7753SOL    HW224159   2.525   0.421   3.978
 7754SOL     OW24160   5.556   6.421   1.783
 7754SOL    HW124161   5.545   6.446   1.879
 7754SOL    HW224162   5.618   6.342   1.777
 7755SOL     OW24163   1.487   1.867   5.887
 7755SOL    HW124164   1.425   1.911   5.822
 7755SOL    HW224165   1.549   1.805   5.839
 7756SOL     OW24166   3.238   4.884   2.606
 7756SOL    HW124167   3.335   4.861   2.598
 7756SOL    HW224168   3.191   4.861   2.521
 7757SOL     OW24169   5.060   5.862   3.998
 7757SOL    HW124170   4.964   5.887   4.012
 7757SOL    HW224171   5.069   5.763   3.997
 7758SOL     OW24172   1.817   2.004   6.736
 7758SOL    HW124173   1.894   1.943   6.718
 7758SOL    HW224174   1.848   2.099   6.734
 7759SOL     OW24175   1.083   1.991   4.851
 7759SOL    HW124176   1.053   2.082   4.880
 7759SOL    HW224177   1.088   1.931   4.931
 7760SOL     OW24178   5.766   3.036   2.717
 7760SOL    HW124179   5.859   3.070   2.702
 7760SOL    HW224180   5.717   3.100   2.776
 7761SOL     OW24181   1.290   0.016   6.364
 7761SOL    HW124182   1.355   0.091   6.356
 7761SOL    HW224183   1.197   0.050   6.346
 7762SOL     OW24184   4.437   0.634   4.256
 7762SOL    HW124185   4.497   0.634   4.176
 7762SOL    HW224186   4.343   0.616   4.227
 7763SOL     OW24187   1.034   1.307   1.184
 7763SOL    HW124188   1.043   1.407   1.187
 7763SOL    HW224189   1.056   1.275   1.092
 7764SOL     OW24190   3.623   2.850   3.254
 7764SOL    HW124191   3.544   2.909   3.269
 7764SOL    HW224192   3.683   2.854   3.335
 7765SOL     OW24193   5.817   2.646   4.300
 7765SOL    HW124194   5.738   2.679   4.351
 7765SOL    HW224195   5.793   2.563   4.250
 7766SOL     OW24196   5.222   1.931   0.433
 7766SOL    HW124197   5.179   1.884   0.355
 7766SOL    HW224198   5.247   2.024   0.406
 7767SOL     OW24199   3.908   6.384   3.694
 7767SOL    HW124200   3.939   6.407   3.602
 7767SOL    HW224201   3.810   6.398   3.701
 7768SOL     OW24202   4.396   5.158   2.449
 7768SOL    HW124203   4.379   5.110   2.363
 7768SOL    HW224204   4.338   5.120   2.521
 7769SOL     OW24205   4.996   2.300   2.864
 7769SOL    HW124206   5.089   2.330   2.843
 7769SOL    HW224207   4.965   2.237   2.793
 7770SOL     OW24208   0.670   3.929   2.782
 7770SOL    HW124209   0.645   3.841   2.823
 7770SOL    HW224210   0.646   3.928   2.685
 7771SOL     OW24211   2.812   2.322   4.819
 7771SOL    HW124212   2.854   2.328   4.910
 7771SOL    HW224213   2.723   2.366   4.821
 7772SOL     OW24214   5.377   1.044   3.334
 7772SOL    HW124215   5.320   0.965   3.311
 7772SOL    HW224216   5.427   1.073   3.252
 7773SOL     OW24217   3.479   5.471   5.155
 7773SOL    HW124218   3.467   5.491   5.252
 7773SOL    HW224219   3.522   5.382   5.144
 7774SOL     OW24220   6.065   2.801   6.552
 7774SOL    HW124221   5.981   2.852   6.570
 7774SOL    HW224222   6.054   2.745   6.470
 7775SOL     OW24223   4.131   6.715   2.902
 7775SOL    HW124224   4.033   6.736   2.906
 7775SOL    HW224225   4.183   6.796   2.930
 7776SOL     OW24226   3.367   4.273   6.723
 7776SOL    HW124227   3.328   4.318   6.642
 7776SOL    HW224228   3.299   4.270   6.796
 7777SOL     OW24229   1.524   0.758   5.232
 7777SOL    HW124230   1.474   0.711   5.160
 7777SOL    HW224231   1.461   0.816   5.285
 7778SOL     OW24232   4.966   5.807   0.521
 7778SOL    HW124233   4.937   5.760   0.604
 7778SOL    HW224234   4.901   5.880   0.500
 7779SOL     OW24235   2.834   3.107   1.136
 7779SOL    HW124236   2.912   3.165   1.116
 7779SOL    HW224237   2.838   3.023   1.082
 7780SOL     OW24238   1.331   5.234   5.160
 7780SOL    HW124239   1.306   5.209   5.067
 7780SOL    HW224240   1.268   5.303   5.194
 7781SOL     OW24241   1.491   4.996   6.994
 7781SOL    HW124242   1.402   5.033   6.966
 7781SOL    HW224243   1.551   4.989   6.914
 7782SOL     OW24244   1.175   4.523   5.835
 7782SOL    HW124245   1.191   4.453   5.905
 7782SOL    HW224246   1.246   4.593   5.842
 7783SOL     OW24247   1.942   5.873   5.268
 7783SOL    HW124248   1.965   5.943   5.200
 7783SOL    HW224249   1.964   5.783   5.232
 7784SOL     OW24250   3.054   2.761   0.577
 7784SOL    HW124251   3.042   2.839   0.639
 7784SOL    HW224252   3.146   2.764   0.537
 7785SOL     OW24253   1.872   6.740   4.100
 7785SOL    HW124254   1.963   6.756   4.138
 7785SOL    HW224255   1.873   6.760   4.002
 7786SOL     OW24256   2.985   5.716   6.813
 7786SOL    HW124257   3.035   5.776   6.752
 7786SOL    HW224258   2.986   5.753   6.906
 7787SOL     OW24259   2.579   2.773   5.858
 7787SOL    HW124260   2.679   2.781   5.860
 7787SOL    HW224261   2.541   2.816   5.939
 7788SOL     OW24262   2.037   6.346   2.214
 7788SOL    HW124263   2.111   6.307   2.158
 7788SOL    HW224264   2.072   6.367   2.306
 7789SOL     OW24265   3.157   6.801   0.278
 7789SOL    HW124266   3.144   6.710   0.237
 7789SOL    HW224267   3.070   6.835   0.313
 7790SOL     OW24268   5.831   5.189   2.678
 7790SOL    HW124269   5.930   5.196   2.691
 7790SOL    HW224270   5.784   5.230   2.756
 7791SOL     OW24271   2.544   6.147   3.777
 7791SOL    HW124272   2.637   6.182   3.769
 7791SOL    HW224273   2.497   6.193   3.852
 7792SOL     OW24274   2.043   5.269   5.785
 7792SOL    HW124275   2.108   5.194   5.785
 7792SOL    HW224276   2.010   5.284   5.878
 7793SOL     OW24277   3.010   0.313   6.995
 7793SOL    HW124278   2.981   0.390   0.033
 7793SOL    HW224279   2.929   0.270   6.955
 7794SOL     OW24280   5.806   5.072   3.722
 7794SOL    HW124281   5.861   5.011   3.665
 7794SOL    HW224282   5.840   5.166   3.714
 7795SOL     OW24283   2.152   3.738   5.562
 7795SOL    HW124284   2.059   3.706   5.580
 7795SOL    HW224285   2.159   3.768   5.467
 7796SOL     OW24286   3.296   3.799   2.987
 7796SOL    HW124287   3.231   3.874   2.980
 7796SOL    HW224288   3.267   3.736   3.060
 7797SOL     OW24289   1.171   6.659   3.249
 7797SOL    HW124290   1.138   6.572   3.286
 7797SOL    HW224291   1.103   6.730   3.265
 7798SOL     OW24292   1.632   4.934   6.108
 7798SOL    HW124293   1.551   4.992   6.107
 7798SOL    HW224294   1.604   4.838   6.113
 7799SOL     OW24295   0.403   6.358   2.100
 7799SOL    HW124296   0.441   6.271   2.069
 7799SOL    HW224297   0.328   6.385   2.040
 7800SOL     OW24298   1.299   5.376   0.770
 7800SOL    HW124299   1.350   5.444   0.823
 7800SOL    HW224300   1.317   5.285   0.806
 7801SOL     OW24301   1.606   2.196   1.944
 7801SOL    HW124302   1.584   2.175   2.039
 7801SOL    HW224303   1.681   2.262   1.941
 7802SOL     OW24304   5.898   1.969   1.335
 7802SOL    HW124305   5.843   2.039   1.381
 7802SOL    HW224306   5.969   1.936   1.396
 7803SOL     OW24307   4.135   2.396   6.240
 7803SOL    HW124308   4.223   2.444   6.242
 7803SOL    HW224309   4.150   2.302   6.208
 7804SOL     OW24310   5.195   1.174   4.348
 7804SOL    HW124311   5.203   1.193   4.250
 7804SOL    HW224312   5.128   1.237   4.388
 7805SOL     OW24313   5.570   1.511   1.076
 7805SOL    HW124314   5.523   1.446   1.136
 7805SOL    HW224315   5.648   1.551   1.124
 7806SOL     OW24316   5.707   2.240   5.946
 7806SOL    HW124317   5.773   2.265   6.017
 7806SOL    HW224318   5.650   2.320   5.924
 7807SOL     OW24319   0.549   4.188   5.339
 7807SOL    HW124320   0.451   4.209   5.328
 7807SOL    HW224321   0.596   4.270   5.372
 7808SOL     OW24322   6.849   2.805   4.401
 7808SOL    HW124323   6.827   2.791   4.497
 7808SOL    HW224324   6.800   2.884   4.366
 7809SOL     OW24325   2.399   5.815   4.573
 7809SOL    HW124326   2.403   5.800   4.672
 7809SOL    HW224327   2.437   5.905   4.551
 7810SOL     OW24328   3.388   0.174   4.864
 7810SOL    HW124329   3.473   0.147   4.908
 7810SOL    HW224330   3.405   0.248   4.800
 7811SOL     OW24331   0.622   4.956   3.420
 7811SOL    HW124332   0.640   4.965   3.322
 7811SOL    HW224333   0.679   5.021   3.470
 7812SOL     OW24334   1.535   2.077   3.244
 7812SOL    HW124335   1.554   2.125   3.158
 7812SOL    HW224336   1.547   1.979   3.231
 7813SOL     OW24337   3.597   2.946   6.694
 7813SOL    HW124338   3.582   3.020   6.759
 7813SOL    HW224339   3.692   2.917   6.698
 7814SOL     OW24340   6.541   3.189   3.749
 7814SOL    HW124341   6.559   3.131   3.670
 7814SOL    HW224342   6.607   3.171   3.821
 7815SOL     OW24343   5.120   0.180   6.357
 7815SOL    HW124344   5.156   0.194   6.449
 7815SOL    HW224345   5.026   0.214   6.351
 7816SOL     OW24346   1.523   2.298   6.352
 7816SOL    HW124347   1.540   2.206   6.316
 7816SOL    HW224348   1.610   2.343   6.371
 7817SOL     OW24349   5.460   4.200   3.465
 7817SOL    HW124350   5.480   4.161   3.375
 7817SOL    HW224351   5.403   4.136   3.517
 7818SOL     OW24352   4.505   0.962   3.137
 7818SOL    HW124353   4.464   0.876   3.170
 7818SOL    HW224354   4.434   1.032   3.132
 7819SOL     OW24355   6.609   2.957   1.992
 7819SOL    HW124356   6.580   3.033   1.934
 7819SOL    HW224357   6.579   2.974   2.086
 7820SOL     OW24358   1.066   2.342   4.367
 7820SOL    HW124359   1.067   2.248   4.333
 7820SOL    HW224360   1.159   2.369   4.394
 7821SOL     OW24361   5.240   5.980   1.379
 7821SOL    HW124362   5.165   6.044   1.393
 7821SOL    HW224363   5.274   5.948   1.468
 7822SOL     OW24364   0.705   1.098   5.722
 7822SOL    HW124365   0.653   1.021   5.758
 7822SOL    HW224366   0.642   1.164   5.680
 7823SOL     OW24367   2.592   3.964   5.339
 7823SOL    HW124368   2.552   3.984   5.428
 7823SOL    HW224369   2.522   3.972   5.268
 7824SOL     OW24370   5.959   1.259   4.393
 7824SOL    HW124371   5.899   1.181   4.410
 7824SOL    HW224372   6.053   1.235   4.417
 7825SOL     OW24373   1.024   2.943   1.095
 7825SOL    HW124374   0.948   2.971   1.036
 7825SOL    HW224375   1.049   2.849   1.075
 7826SOL     OW24376   6.297   1.194   1.044
 7826SOL    HW124377   6.215   1.246   1.019
 7826SOL    HW224378   6.332   1.146   0.964
 7827SOL     OW24379   1.872   5.646   1.200
 7827SOL    HW124380   1.871   5.669   1.297
 7827SOL    HW224381   1.940   5.575   1.183
 7828SOL     OW24382   0.321   4.773   0.071
 7828SOL    HW124383   0.224   4.758   0.092
 7828SOL    HW224384   0.364   4.820   0.149
 7829SOL     OW24385   2.102   3.748   1.537
 7829SOL    HW124386   2.097   3.703   1.448
 7829SOL    HW224387   2.033   3.708   1.598
 7830SOL     OW24388   2.634   4.652   5.326
 7830SOL    HW124389   2.711   4.650   5.263
 7830SOL    HW224390   2.549   4.667   5.275
 7831SOL     OW24391   1.678   6.693   1.602
 7831SOL    HW124392   1.764   6.649   1.629
 7831SOL    HW224393   1.654   6.765   1.667
 7832SOL     OW24394   5.937   0.975   3.908
 7832SOL    HW124395   5.954   0.880   3.883
 7832SOL    HW224396   5.866   0.979   3.978
 7833SOL     OW24397   0.481   0.739   5.553
 7833SOL    HW124398   0.543   0.785   5.617
 7833SOL    HW224399   0.527   0.727   5.465
 7834SOL     OW24400   6.744   1.250   3.597
 7834SOL    HW124401   6.679   1.210   3.662
 7834SOL    HW224402   6.695   1.284   3.517
 7835SOL     OW24403   3.427   2.154   5.563
 7835SOL    HW124404   3.335   2.115   5.559
 7835SOL    HW224405   3.458   2.175   5.470
 7836SOL     OW24406   3.475   3.102   4.897
 7836SOL    HW124407   3.463   3.054   4.811
 7836SOL    HW224408   3.570   3.092   4.927
 7837SOL     OW24409   4.649   5.145   6.965
 7837SOL    HW124410   4.565   5.091   6.965
 7837SOL    HW224411   4.694   5.136   6.876
 7838SOL     OW24412   4.317   6.576   0.998
 7838SOL    HW124413   4.340   6.609   0.907
 7838SOL    HW224414   4.387   6.512   1.029
 7839SOL     OW24415   5.603   4.506   4.978
 7839SOL    HW124416   5.643   4.457   5.055
 7839SOL    HW224417   5.515   4.545   5.005
 7840SOL     OW24418   6.523   3.283   4.155
 7840SOL    HW124419   6.450   3.215   4.157
 7840SOL    HW224420   6.572   3.282   4.242
 7841SOL     OW24421   3.839   1.817   6.280
 7841SOL    HW124422   3.797   1.830   6.369
 7841SOL    HW224423   3.933   1.851   6.283
 7842SOL     OW24424   2.719   2.186   2.851
 7842SOL    HW124425   2.679   2.096   2.866
 7842SOL    HW224426   2.767   2.188   2.763
 7843SOL     OW24427   0.795   6.095   3.265
 7843SOL    HW124428   0.776   6.001   3.238
 7843SOL    HW224429   0.893   6.114   3.256
 7844SOL     OW24430   3.110   0.962   3.183
 7844SOL    HW124431   3.183   0.897   3.204
 7844SOL    HW224432   3.144   1.055   3.195
 7845SOL     OW24433   5.487   2.019   2.892
 7845SOL    HW124434   5.410   1.965   2.859
 7845SOL    HW224435   5.481   2.112   2.855
 7846SOL     OW24436   0.499   2.244   0.803
 7846SOL    HW124437   0.524   2.254   0.707
 7846SOL    HW224438   0.408   2.282   0.818
 7847SOL     OW24439   6.426   1.313   3.155
 7847SOL    HW124440   6.483   1.290   3.076
 7847SOL    HW224441   6.353   1.374   3.125
 7848SOL     OW24442   3.614   4.934   0.604
 7848SOL    HW124443   3.537   4.882   0.641
 7848SOL    HW224444   3.665   4.975   0.680
 7849SOL     OW24445   6.372   4.483   4.686
 7849SOL    HW124446   6.394   4.532   4.770
 7849SOL    HW224447   6.289   4.429   4.699
 7850SOL     OW24448   0.213   1.527   4.258
 7850SOL    HW124449   0.196   1.490   4.167
 7850SOL    HW224450   0.126   1.556   4.299
 7851SOL     OW24451   6.598   1.823   1.234
 7851SOL    HW124452   6.568   1.858   1.323
 7851SOL    HW224453   6.518   1.800   1.179
 7852SOL     OW24454   3.580   1.825   6.506
 7852SOL    HW124455   3.500   1.789   6.458
 7852SOL    HW224456   3.551   1.870   6.591
 7853SOL     OW24457   4.921   2.548   1.468
 7853SOL    HW124458   4.875   2.572   1.553
 7853SOL    HW224459   4.927   2.629   1.410
 7854SOL     OW24460   3.466   3.476   6.171
 7854SOL    HW124461   3.497   3.381   6.177
 7854SOL    HW224462   3.444   3.510   6.263
 7855SOL     OW24463   4.338   6.596   4.470
 7855SOL    HW124464   4.256   6.559   4.513
 7855SOL    HW224465   4.412   6.528   4.476
 7856SOL     OW24466   6.400   5.630   5.162
 7856SOL    HW124467   6.318   5.585   5.127
 7856SOL    HW224468   6.415   5.715   5.111
 7857SOL     OW24469   4.548   2.692   0.204
 7857SOL    HW124470   4.577   2.654   0.116
 7857SOL    HW224471   4.517   2.786   0.190
 7858SOL     OW24472   6.343   6.414   4.103
 7858SOL    HW124473   6.443   6.414   4.102
 7858SOL    HW224474   6.311   6.360   4.180
 7859SOL     OW24475   4.270   3.012   6.291
 7859SOL    HW124476   4.359   3.050   6.263
 7859SOL    HW224477   4.253   3.035   6.387
 7860SOL     OW24478   4.465   0.888   4.030
 7860SOL    HW124479   4.379   0.931   4.057
 7860SOL    HW224480   4.541   0.939   4.072
 7861SOL     OW24481   3.374   4.779   1.672
 7861SOL    HW124482   3.439   4.736   1.734
 7861SOL    HW224483   3.350   4.715   1.599
 7862SOL     OW24484   2.077   5.155   1.611
 7862SOL    HW124485   2.068   5.060   1.642
 7862SOL    HW224486   2.007   5.175   1.543
 7863SOL     OW24487   0.098   4.045   4.093
 7863SOL    HW124488   0.008   4.007   4.069
 7863SOL    HW224489   0.092   4.145   4.094
 7864SOL     OW24490   0.668   5.131   5.522
 7864SOL    HW124491   0.708   5.132   5.613
 7864SOL    HW224492   0.568   5.136   5.529
 7865SOL     OW24493   6.690   5.951   3.934
 7865SOL    HW124494   6.686   6.037   3.884
 7865SOL    HW224495   6.675   5.967   4.031
 7866SOL     OW24496   0.704   0.986   5.478
 7866SOL    HW124497   0.770   1.024   5.413
 7866SOL    HW224498   0.725   1.018   5.570
 7867SOL     OW24499   6.190   5.996   3.468
 7867SOL    HW124500   6.272   6.052   3.453
 7867SOL    HW224501   6.134   5.997   3.385
 7868SOL     OW24502   4.377   6.048   1.781
 7868SOL    HW124503   4.361   6.082   1.873
 7868SOL    HW224504   4.442   5.972   1.784
 7869SOL     OW24505   5.297   4.220   6.724
 7869SOL    HW124506   5.287   4.225   6.823
 7869SOL    HW224507   5.357   4.293   6.693
 7870SOL     OW24508   5.474   6.126   3.961
 7870SOL    HW124509   5.405   6.196   3.939
 7870SOL    HW224510   5.559   6.170   3.989
 7871SOL     OW24511   4.599   1.968   1.705
 7871SOL    HW124512   4.530   1.957   1.633
 7871SOL    HW224513   4.669   1.898   1.695
 7872SOL     OW24514   2.148   3.436   3.143
 7872SOL    HW124515   2.230   3.387   3.115
 7872SOL    HW224516   2.143   3.439   3.243
 7873SOL     OW24517   6.000   6.616   6.722
 7873SOL    HW124518   6.006   6.628   6.821
 7873SOL    HW224519   6.033   6.699   6.676
 7874SOL     OW24520   4.993   2.106   0.642
 7874SOL    HW124521   5.088   2.086   0.667
 7874SOL    HW224522   4.989   2.196   0.600
 7875SOL     OW24523   4.511   2.432   6.533
 7875SOL    HW124524   4.412   2.447   6.540
 7875SOL    HW224525   4.530   2.367   6.460
 7876SOL     OW24526   1.425   6.690   3.342
 7876SOL    HW124527   1.452   6.598   3.370
 7876SOL    HW224528   1.325   6.697   3.340
 7877SOL     OW24529   0.587   1.489   2.903
 7877SOL    HW124530   0.545   1.578   2.923
 7877SOL    HW224531   0.582   1.471   2.805
 7878SOL     OW24532   4.830   4.477   4.662
 7878SOL    HW124533   4.744   4.467   4.712
 7878SOL    HW224534   4.900   4.419   4.704
 7879SOL     OW24535   3.876   5.286   3.208
 7879SOL    HW124536   3.781   5.259   3.220
 7879SOL    HW224537   3.935   5.205   3.210
 7880SOL     OW24538   2.012   3.988   2.036
 7880SOL    HW124539   2.112   3.989   2.029
 7880SOL    HW224540   1.983   4.055   2.104
 7881SOL     OW24541   5.872   4.863   5.416
 7881SOL    HW124542   5.885   4.873   5.318
 7881SOL    HW224543   5.944   4.804   5.453
 7882SOL     OW24544   1.574   3.736   1.864
 7882SOL    HW124545   1.544   3.691   1.948
 7882SOL    HW224546   1.533   3.689   1.785
 7883SOL     OW24547   0.987   0.641   0.064
 7883SOL    HW124548   0.911   0.606   0.010
 7883SOL    HW224549   1.049   0.566   0.088
 7884SOL     OW24550   2.043   4.258   4.874
 7884SOL    HW124551   1.944   4.269   4.868
 7884SOL    HW224552   2.068   4.235   4.968
 7885SOL     OW24553   6.574   5.508   1.111
 7885SOL    HW124554   6.639   5.534   1.039
 7885SOL    HW224555   6.529   5.422   1.087
 7886SOL     OW24556   3.901   5.588   0.290
 7886SOL    HW124557   3.814   5.606   0.336
 7886SOL    HW224558   3.977   5.613   0.350
 7887SOL     OW24559   3.100   2.471   5.941
 7887SOL    HW124560   3.185   2.448   5.893
 7887SOL    HW224561   3.090   2.570   5.947
 7888SOL     OW24562   6.408   0.166   5.374
 7888SOL    HW124563   6.396   0.245   5.434
 7888SOL    HW224564   6.319   0.137   5.339
 7889SOL     OW24565   1.563   3.639   2.493
 7889SOL    HW124566   1.631   3.568   2.510
 7889SOL    HW224567   1.473   3.596   2.485
 7890SOL     OW24568   1.880   3.156   2.837
 7890SOL    HW124569   1.817   3.078   2.827
 7890SOL    HW224570   1.857   3.206   2.921
 7891SOL     OW24571   1.738   2.784   3.689
 7891SOL    HW124572   1.740   2.699   3.742
 7891SOL    HW224573   1.646   2.823   3.691
 7892SOL     OW24574   2.374   1.596   3.928
 7892SOL    HW124575   2.331   1.507   3.940
 7892SOL    HW224576   2.472   1.585   3.916
 7893SOL     OW24577   6.989   6.635   2.825
 7893SOL    HW124578   6.945   6.683   2.749
 7893SOL    HW224579   6.936   6.552   2.846
 7894SOL     OW24580   3.101   0.691   1.193
 7894SOL    HW124581   3.138   0.600   1.211
 7894SOL    HW224582   3.159   0.760   1.235
 7895SOL     OW24583   6.327   1.077   5.821
 7895SOL    HW124584   6.362   1.086   5.728
 7895SOL    HW224585   6.237   1.120   5.827
 7896SOL     OW24586   4.947   3.501   6.643
 7896SOL    HW124587   4.996   3.576   6.688
 7896SOL    HW224588   4.986   3.485   6.553
 7897SOL     OW24589   2.800   4.068   0.008
 7897SOL    HW124590   2.785   4.167   0.009
 7897SOL    HW224591   2.835   4.039   0.097
 7898SOL     OW24592   5.163   1.848   3.786
 7898SOL    HW124593   5.226   1.924   3.767
 7898SOL    HW224594   5.180   1.773   3.723
 7899SOL     OW24595   6.176   1.089   1.288
 7899SOL    HW124596   6.214   1.107   1.198
 7899SOL    HW224597   6.155   0.991   1.297
 7900SOL     OW24598   1.585   5.908   1.502
 7900SOL    HW124599   1.542   5.822   1.475
 7900SOL    HW224600   1.543   5.941   1.586
 7901SOL     OW24601   4.898   1.215   6.203
 7901SOL    HW124602   4.832   1.275   6.247
 7901SOL    HW224603   4.956   1.172   6.272
 7902SOL     OW24604   5.520   5.596   1.608
 7902SOL    HW124605   5.581   5.612   1.685
 7902SOL    HW224606   5.567   5.618   1.522
 7903SOL     OW24607   5.696   1.484   0.448
 7903SOL    HW124608   5.776   1.528   0.406
 7903SOL    HW224609   5.619   1.547   0.446
 7904SOL     OW24610   5.648   6.789   3.415
 7904SOL    HW124611   5.571   6.737   3.450
 7904SOL    HW224612   5.662   6.768   3.318
 7905SOL     OW24613   4.496   2.546   0.645
 7905SOL    HW124614   4.525   2.450   0.638
 7905SOL    HW224615   4.499   2.575   0.740
 7906SOL     OW24616   6.977   5.298   0.287
 7906SOL    HW124617   7.002   5.389   0.317
 7906SOL    HW224618   6.900   5.303   0.223
 7907SOL     OW24619   5.879   2.067   3.519
 7907SOL    HW124620   5.963   2.052   3.466
 7907SOL    HW224621   5.899   2.056   3.616
 7908SOL     OW24622   0.527   1.526   4.699
 7908SOL    HW124623   0.475   1.476   4.630
 7908SOL    HW224624   0.528   1.623   4.677
 7909SOL     OW24625   5.417   3.517   5.154
 7909SOL    HW124626   5.389   3.540   5.060
 7909SOL    HW224627   5.340   3.473   5.202
 7910SOL     OW24628   2.944   3.150   5.716
 7910SOL    HW124629   3.020   3.111   5.663
 7910SOL    HW224630   2.952   3.250   5.715
 7911SOL     OW24631   1.366   2.857   6.555
 7911SOL    HW124632   1.304   2.929   6.522
 7911SOL    HW224633   1.370   2.859   6.655
 7912SOL     OW24634   0.128   5.093   0.269
 7912SOL    HW124635   0.073   5.170   0.303
 7912SOL    HW224636   0.120   5.089   0.169
 7913SOL     OW24637   1.295   5.270   1.122
 7913SOL    HW124638   1.251   5.181   1.113
 7913SOL    HW224639   1.388   5.264   1.085
 7914SOL     OW24640   0.122   4.693   6.040
 7914SOL    HW124641   0.204   4.744   6.013
 7914SOL    HW224642   0.144   4.596   6.044
 7915SOL     OW24643   4.869   2.934   2.383
 7915SOL    HW124644   4.900   2.991   2.307
 7915SOL    HW224645   4.793   2.877   2.353
 7916SOL     OW24646   0.014   3.812   5.565
 7916SOL    HW124647   6.952   3.865   5.543
 7916SOL    HW224648   7.008   3.733   5.622
 7917SOL     OW24649   3.231   3.609   3.378
 7917SOL    HW124650   3.252   3.703   3.404
 7917SOL    HW224651   3.313   3.567   3.337
 7918SOL     OW24652   0.311   1.860   0.022
 7918SOL    HW124653   0.216   1.835   0.040
 7918SOL    HW224654   0.372   1.800   0.073
 7919SOL     OW24655   1.204   4.866   3.074
 7919SOL    HW124656   1.164   4.835   2.988
 7919SOL    HW224657   1.281   4.806   3.098
 7920SOL     OW24658   0.691   5.254   1.135
 7920SOL    HW124659   0.616   5.188   1.126
 7920SOL    HW224660   0.654   5.344   1.155
 7921SOL     OW24661   4.441   6.103   0.881
 7921SOL    HW124662   4.407   6.133   0.792
 7921SOL    HW224663   4.541   6.112   0.884
 7922SOL     OW24664   6.475   5.801   0.271
 7922SOL    HW124665   6.454   5.898   0.258
 7922SOL    HW224666   6.471   5.754   0.182
 7923SOL     OW24667   3.124   0.760   2.260
 7923SOL    HW124668   3.075   0.846   2.265
 7923SOL    HW224669   3.143   0.738   2.165
 7924SOL     OW24670   4.387   6.415   2.905
 7924SOL    HW124671   4.351   6.423   2.812
 7924SOL    HW224672   4.341   6.481   2.964
 7925SOL     OW24673   0.517   1.969   6.184
 7925SOL    HW124674   0.532   1.918   6.269
 7925SOL    HW224675   0.498   2.065   6.206
 7926SOL     OW24676   5.051   1.397   5.197
 7926SOL    HW124677   5.119   1.348   5.252
 7926SOL    HW224678   4.978   1.430   5.257
 7927SOL     OW24679   3.992   5.459   4.711
 7927SOL    HW124680   4.049   5.460   4.629
 7927SOL    HW224681   3.975   5.553   4.741
 7928SOL     OW24682   1.522   2.604   4.558
 7928SOL    HW124683   1.509   2.696   4.522
 7928SOL    HW224684   1.619   2.590   4.579
 7929SOL     OW24685   3.758   4.219   5.458
 7929SOL    HW124686   3.733   4.153   5.530
 7929SOL    HW224687   3.712   4.194   5.373
 7930SOL     OW24688   4.680   5.763   3.721
 7930SOL    HW124689   4.758   5.815   3.757
 7930SOL    HW224690   4.667   5.682   3.778
 7931SOL     OW24691   1.340   1.740   6.405
 7931SOL    HW124692   1.347   1.798   6.486
 7931SOL    HW224693   1.417   1.676   6.404
 7932SOL     OW24694   3.325   6.262   6.740
 7932SOL    HW124695   3.393   6.189   6.740
 7932SOL    HW224696   3.372   6.350   6.725
 7933SOL     OW24697   0.177   6.202   0.004
 7933SOL    HW124698   0.227   6.210   0.090
 7933SOL    HW224699   0.240   6.173   6.951
 7934SOL     OW24700   2.344   4.628   6.794
 7934SOL    HW124701   2.394   4.576   6.863
 7934SOL    HW224702   2.355   4.584   6.705
 7935SOL     OW24703   5.694   5.855   7.017
 7935SOL    HW124704   5.706   5.756   0.006
 7935SOL    HW224705   5.778   5.901   0.025
 7936SOL     OW24706   3.870   4.832   2.845
 7936SOL    HW124707   3.785   4.853   2.893
 7936SOL    HW224708   3.945   4.824   2.911
 7937SOL     OW24709   6.080   6.819   3.712
 7937SOL    HW124710   6.021   6.776   3.644
 7937SOL    HW224711   6.031   6.828   3.799
 7938SOL     OW24712   6.148   4.995   5.245
 7938SOL    HW124713   6.213   4.921   5.227
 7938SOL    HW224714   6.056   4.965   5.219
 7939SOL     OW24715   0.797   2.500   5.733
 7939SOL    HW124716   0.851   2.584   5.725
 7939SOL    HW224717   0.700   2.522   5.725
 7940SOL     OW24718   1.730   3.912   2.811
 7940SOL    HW124719   1.774   3.822   2.812
 7940SOL    HW224720   1.691   3.928   2.720
 7941SOL     OW24721   6.814   6.694   0.813
 7941SOL    HW124722   6.888   6.724   0.752
 7941SOL    HW224723   6.853   6.659   0.898
 7942SOL     OW24724   6.373   6.034   2.880
 7942SOL    HW124725   6.420   6.068   2.962
 7942SOL    HW224726   6.441   6.007   2.812
 7943SOL     OW24727   5.772   2.420   0.236
 7943SOL    HW124728   5.694   2.459   0.285
 7943SOL    HW224729   5.811   2.489   0.175
 7944SOL     OW24730   0.344   3.230   1.331
 7944SOL    HW124731   0.284   3.301   1.294
 7944SOL    HW224732   0.434   3.238   1.289
 7945SOL     OW24733   5.322   6.224   2.285
 7945SOL    HW124734   5.325   6.126   2.304
 7945SOL    HW224735   5.234   6.262   2.316
 7946SOL     OW24736   2.245   2.215   5.742
 7946SOL    HW124737   2.329   2.241   5.693
 7946SOL    HW224738   2.177   2.288   5.733
 7947SOL     OW24739   3.737   2.867   6.381
 7947SOL    HW124740   3.697   2.939   6.324
 7947SOL    HW224741   3.804   2.815   6.328
 7948SOL     OW24742   0.527   6.240   1.072
 7948SOL    HW124743   0.464   6.317   1.085
 7948SOL    HW224744   0.477   6.161   1.037
 7949SOL     OW24745   4.440   4.557   3.971
 7949SOL    HW124746   4.518   4.500   3.996
 7949SOL    HW224747   4.380   4.568   4.051
 7950SOL     OW24748   5.246   5.634   4.023
 7950SOL    HW124749   5.176   5.616   4.093
 7950SOL    HW224750   5.333   5.595   4.052
 7951SOL     OW24751   1.561   3.648   1.078
 7951SOL    HW124752   1.610   3.601   1.152
 7951SOL    HW224753   1.482   3.593   1.051
 7952SOL     OW24754   0.774   3.485   6.934
 7952SOL    HW124755   0.778   3.549   7.010
 7952SOL    HW224756   0.678   3.473   6.905
 7953SOL     OW24757   2.104   2.657   3.153
 7953SOL    HW124758   2.025   2.655   3.215
 7953SOL    HW224759   2.188   2.664   3.206
 7954SOL     OW24760   4.527   4.548   5.290
 7954SOL    HW124761   4.544   4.529   5.386
 7954SOL    HW224762   4.437   4.590   5.279
 7955SOL     OW24763   1.272   6.551   6.196
 7955SOL    HW124764   1.315   6.640   6.206
 7955SOL    HW224765   1.176   6.556   6.224
 7956SOL     OW24766   2.513   6.208   2.779
 7956SOL    HW124767   2.504   6.302   2.746
 7956SOL    HW224768   2.465   6.146   2.717
 7957SOL     OW24769   2.053   1.444   0.483
 7957SOL    HW124770   2.151   1.429   0.499
 7957SOL    HW224771   2.038   1.539   0.457
 7958SOL     OW24772   3.131   5.357   4.223
 7958SOL    HW124773   3.121   5.448   4.264
 7958SOL    HW224774   3.050   5.337   4.167
 7959SOL     OW24775   4.278   5.682   1.423
 7959SOL    HW124776   4.292   5.665   1.521
 7959SOL    HW224777   4.311   5.773   1.400
 7960SOL     OW24778   3.303   1.760   0.587
 7960SOL    HW124779   3.343   1.737   0.498
 7960SOL    HW224780   3.337   1.696   0.656
 7961SOL     OW24781   0.913   6.121   0.441
 7961SOL    HW124782   0.827   6.110   0.491
 7961SOL    HW224783   0.988   6.086   0.497
 7962SOL     OW24784   1.745   0.182   0.147
 7962SOL    HW124785   1.676   0.132   0.093
 7962SOL    HW224786   1.750   0.277   0.114
 7963SOL     OW24787   6.682   0.696   3.458
 7963SOL    HW124788   6.714   0.718   3.550
 7963SOL    HW224789   6.582   0.701   3.455
 7964SOL     OW24790   6.572   5.183   3.121
 7964SOL    HW124791   6.661   5.226   3.107
 7964SOL    HW224792   6.519   5.237   3.187
 7965SOL     OW24793   3.302   3.324   6.697
 7965SOL    HW124794   3.294   3.345   6.794
 7965SOL    HW224795   3.240   3.249   6.674
 7966SOL     OW24796   0.277   3.256   5.402
 7966SOL    HW124797   0.375   3.239   5.400
 7966SOL    HW224798   0.249   3.299   5.316
 7967SOL     OW24799   3.041   6.105   4.080
 7967SOL    HW124800   2.965   6.071   4.134
 7967SOL    HW224801   3.111   6.144   4.140
 7968SOL     OW24802   2.090   2.491   3.571
 7968SOL    HW124803   2.022   2.512   3.501
 7968SOL    HW224804   2.168   2.445   3.529
 7969SOL     OW24805   4.495   6.992   2.378
 7969SOL    HW124806   4.565   0.043   2.369
 7969SOL    HW224807   4.527   6.921   2.441
 7970SOL     OW24808   0.015   3.301   3.176
 7970SOL    HW124809   0.032   3.363   3.253
 7970SOL    HW224810   0.086   3.230   3.174
 7971SOL     OW24811   3.761   1.429   0.755
 7971SOL    HW124812   3.725   1.519   0.778
 7971SOL    HW224813   3.844   1.440   0.700
 7972SOL     OW24814   0.984   3.899   1.601
 7972SOL    HW124815   0.934   3.921   1.517
 7972SOL    HW224816   1.082   3.894   1.581
 7973SOL     OW24817   5.220   4.187   3.133
 7973SOL    HW124818   5.189   4.126   3.060
 7973SOL    HW224819   5.188   4.280   3.115
 7974SOL     OW24820   5.443   0.602   4.925
 7974SOL    HW124821   5.536   0.580   4.894
 7974SOL    HW224822   5.377   0.544   4.877
 7975SOL     OW24823   6.086   0.556   3.170
 7975SOL    HW124824   6.111   0.631   3.108
 7975SOL    HW224825   6.149   0.479   3.157
 7976SOL     OW24826   0.729   0.390   5.941
 7976SOL    HW124827   0.823   0.400   5.907
 7976SOL    HW224828   0.674   0.468   5.911
 7977SOL     OW24829   4.670   5.256   1.911
 7977SOL    HW124830   4.640   5.351   1.922
 7977SOL    HW224831   4.594   5.194   1.931
 7978SOL     OW24832   5.689   3.430   6.127
 7978SOL    HW124833   5.702   3.450   6.224
 7978SOL    HW224834   5.728   3.504   6.072
 7979SOL     OW24835   3.779   0.680   5.388
 7979SOL    HW124836   3.859   0.660   5.445
 7979SOL    HW224837   3.717   0.601   5.390
 7980SOL     OW24838   2.438   5.842   0.036
 7980SOL    HW124839   2.431   5.850   6.956
 7980SOL    HW224840   2.519   5.789   0.060
 7981SOL     OW24841   0.527   5.999   2.422
 7981SOL    HW124842   0.572   6.088   2.427
 7981SOL    HW224843   0.547   5.947   2.505
 7982SOL     OW24844   6.873   2.098   0.183
 7982SOL    HW124845   6.911   2.123   0.094
 7982SOL    HW224846   6.796   2.159   0.204
 7983SOL     OW24847   5.727   2.047   2.449
 7983SOL    HW124848   5.660   2.063   2.377
 7983SOL    HW224849   5.723   2.122   2.515
 7984SOL     OW24850   1.454   1.944   1.505
 7984SOL    HW124851   1.532   1.936   1.567
 7984SOL    HW224852   1.486   1.949   1.411
 7985SOL     OW24853   2.571   7.016   3.796
 7985SOL    HW124854   2.523   0.002   3.708
 7985SOL    HW224855   2.654   0.052   3.793
 7986SOL     OW24856   3.043   0.541   6.802
 7986SOL    HW124857   2.977   0.502   6.738
 7986SOL    HW224858   3.060   0.477   6.877
 7987SOL     OW24859   1.254   3.567   6.755
 7987SOL    HW124860   1.192   3.497   6.790
 7987SOL    HW224861   1.220   3.600   6.667
 7988SOL     OW24862   1.474   1.685   4.159
 7988SOL    HW124863   1.526   1.709   4.076
 7988SOL    HW224864   1.379   1.666   4.134
 7989SOL     OW24865   3.146   2.557   5.367
 7989SOL    HW124866   3.246   2.566   5.372
 7989SOL    HW224867   3.123   2.483   5.303
 7990SOL     OW24868   5.987   3.907   3.647
 7990SOL    HW124869   5.918   3.834   3.637
 7990SOL    HW224870   5.958   3.970   3.718
 7991SOL     OW24871   6.498   0.478   4.909
 7991SOL    HW124872   6.427   0.482   4.980
 7991SOL    HW224873   6.458   0.502   4.821
 7992SOL     OW24874   1.483   6.691   1.034
 7992SOL    HW124875   1.519   6.725   1.121
 7992SOL    HW224876   1.424   6.762   0.993
 7993SOL     OW24877   1.616   6.106   6.924
 7993SOL    HW124878   1.671   6.054   6.858
 7993SOL    HW224879   1.522   6.072   6.923
 7994SOL     OW24880   4.697   0.182   3.071
 7994SOL    HW124881   4.746   0.172   2.984
 7994SOL    HW224882   4.763   0.187   3.145
 7995SOL     OW24883   4.208   5.319   3.654
 7995SOL    HW124884   4.219   5.387   3.581
 7995SOL    HW224885   4.131   5.345   3.712
 7996SOL     OW24886   2.964   6.932   5.057
 7996SOL    HW124887   3.018   6.867   5.004
 7996SOL    HW224888   2.942   7.012   5.001
 7997SOL     OW24889   0.005   1.497   0.733
 7997SOL    HW124890   7.000   1.481   0.637
 7997SOL    HW224891   0.086   1.556   0.737
 7998SOL     OW24892   3.794   5.309   1.152
 7998SOL    HW124893   3.813   5.285   1.247
 7998SOL    HW224894   3.866   5.273   1.093
 7999SOL     OW24895   1.547   0.403   6.143
 7999SOL    HW124896   1.524   0.337   6.215
 7999SOL    HW224897   1.537   0.496   6.179
 8000SOL     OW24898   5.300   0.919   6.864
 8000SOL    HW124899   5.269   1.009   6.835
 8000SOL    HW224900   5.267   0.900   6.956
 8001SOL     OW24901   3.676   6.006   1.122
 8001SOL    HW124902   3.639   5.962   1.040
 8001SOL    HW224903   3.707   5.935   1.186
 8002SOL     OW24904   0.830   2.658   5.428
 8002SOL    HW124905   0.880   2.734   5.386
 8002SOL    HW224906   0.892   2.580   5.440
 8003SOL     OW24907   2.280   4.702   2.464
 8003SOL    HW124908   2.332   4.781   2.431
 8003SOL    HW224909   2.343   4.633   2.498
 8004SOL     OW24910   1.464   4.090   3.568
 8004SOL    HW124911   1.386   4.127   3.518
 8004SOL    HW224912   1.435   4.062   3.660
 8005SOL     OW24913   3.392   1.741   2.198
 8005SOL    HW124914   3.397   1.808   2.271
 8005SOL    HW224915   3.352   1.783   2.116
 8006SOL     OW24916   2.714   6.714   0.412
 8006SOL    HW124917   2.720   6.690   0.509
 8006SOL    HW224918   2.696   6.631   0.359
 8007SOL     OW24919   1.184   0.056   4.478
 8007SOL    HW124920   1.100   0.095   4.517
 8007SOL    HW224921   1.238   0.128   4.435
 8008SOL     OW24922   4.413   6.643   6.428
 8008SOL    HW124923   4.408   6.615   6.332
 8008SOL    HW224924   4.420   6.743   6.433
 8009SOL     OW24925   6.444   0.561   2.896
 8009SOL    HW124926   6.465   0.544   2.992
 8009SOL    HW224927   6.514   0.520   2.838
 8010SOL     OW24928   1.330   1.472   0.268
 8010SOL    HW124929   1.362   1.522   0.187
 8010SOL    HW224930   1.408   1.454   0.328
 8011SOL     OW24931   2.581   2.911   0.800
 8011SOL    HW124932   2.528   2.911   0.885
 8011SOL    HW224933   2.552   2.835   0.742
 8012SOL     OW24934   2.491   6.300   1.373
 8012SOL    HW124935   2.557   6.247   1.425
 8012SOL    HW224936   2.534   6.383   1.338
 8013SOL     OW24937   0.544   5.087   4.544
 8013SOL    HW124938   0.599   5.038   4.476
 8013SOL    HW224939   0.592   5.088   4.631
 8014SOL     OW24940   0.505   5.888   5.159
 8014SOL    HW124941   0.549   5.858   5.243
 8014SOL    HW224942   0.414   5.847   5.153
 8015SOL     OW24943   3.087   1.477   0.136
 8015SOL    HW124944   3.161   1.545   0.134
 8015SOL    HW224945   3.073   1.441   0.044
 8016SOL     OW24946   4.552   0.257   6.683
 8016SOL    HW124947   4.634   0.255   6.627
 8016SOL    HW224948   4.472   0.274   6.625
 8017SOL     OW24949   6.751   5.914   6.734
 8017SOL    HW124950   6.837   5.965   6.733
 8017SOL    HW224951   6.762   5.831   6.789
 8018SOL     OW24952   3.633   2.597   6.179
 8018SOL    HW124953   3.718   2.551   6.204
 8018SOL    HW224954   3.591   2.637   6.261
 8019SOL     OW24955   2.414   3.545   6.799
 8019SOL    HW124956   2.380   3.606   6.870
 8019SOL    HW224957   2.358   3.462   6.798
 8020SOL     OW24958   6.452   5.650   0.865
 8020SOL    HW124959   6.444   5.650   0.765
 8020SOL    HW224960   6.406   5.569   0.902
 8021SOL     OW24961   1.016   2.124   1.379
 8021SOL    HW124962   1.106   2.125   1.422
 8021SOL    HW224963   1.010   2.196   1.310
 8022SOL     OW24964   4.305   0.374   2.942
 8022SOL    HW124965   4.228   0.429   2.910
 8022SOL    HW224966   4.375   0.370   2.871
 8023SOL     OW24967   5.948   5.499   3.092
 8023SOL    HW124968   5.857   5.489   3.051
 8023SOL    HW224969   5.975   5.413   3.135
 8024SOL     OW24970   3.589   5.249   6.964
 8024SOL    HW124971   3.642   5.287   0.021
 8024SOL    HW224972   3.492   5.272   6.976
 8025SOL     OW24973   2.354   6.044   6.484
 8025SOL    HW124974   2.255   6.052   6.483
 8025SOL    HW224975   2.387   6.051   6.578
 8026SOL     OW24976   0.724   4.973   6.788
 8026SOL    HW124977   0.637   4.924   6.787
 8026SOL    HW224978   0.791   4.923   6.843
 8027SOL     OW24979   3.902   1.695   5.154
 8027SOL    HW124980   3.956   1.767   5.110
 8027SOL    HW224981   3.961   1.645   5.219
 8028SOL     OW24982   3.207   5.485   5.094
 8028SOL    HW124983   3.190   5.488   4.996
 8028SOL    HW224984   3.305   5.496   5.111
 8029SOL     OW24985   5.382   3.714   0.346
 8029SOL    HW124986   5.400   3.685   0.440
 8029SOL    HW224987   5.305   3.777   0.344
 8030SOL     OW24988   4.861   4.252   0.120
 8030SOL    HW124989   4.872   4.314   0.043
 8030SOL    HW224990   4.803   4.175   0.093
 8031SOL     OW24991   4.723   5.824   2.616
 8031SOL    HW124992   4.723   5.918   2.650
 8031SOL    HW224993   4.779   5.819   2.533
 8032SOL     OW24994   5.887   4.692   5.980
 8032SOL    HW124995   5.812   4.699   5.915
 8032SOL    HW224996   5.881   4.768   6.045
 8033SOL     OW24997   4.872   3.809   6.961
 8033SOL    HW124998   4.896   3.712   6.968
 8033SOL    HW224999   4.942   3.857   6.909
 8034SOL     OW25000   6.426   1.323   5.072
 8034SOL    HW125001   6.465   1.237   5.105
 8034SOL    HW225002   6.498   1.392   5.064
 8035SOL     OW25003   4.373   0.475   5.310
 8035SOL    HW125004   4.389   0.573   5.309
 8035SOL    HW225005   4.281   0.455   5.276
 8036SOL     OW25006   0.610   3.860   2.513
 8036SOL    HW125007   0.588   3.951   2.478
 8036SOL    HW225008   0.526   3.808   2.527
 8037SOL     OW25009   1.558   3.631   2.116
 8037SOL    HW125010   1.605   3.545   2.093
 8037SOL    HW225011   1.626   3.700   2.141
 8038SOL     OW25012   4.684   0.930   2.941
 8038SOL    HW125013   4.634   0.954   3.025
 8038SOL    HW225014   4.635   0.966   2.862
 8039SOL     OW25015   1.124   6.908   3.473
 8039SOL    HW125016   1.141   6.941   3.566
 8039SOL    HW225017   1.174   6.965   3.408
 8040SOL     OW25018   1.315   5.997   1.001
 8040SOL    HW125019   1.340   6.093   0.997
 8040SOL    HW225020   1.308   5.968   1.096
 8041SOL     OW25021   2.906   2.058   2.057
 8041SOL    HW125022   2.850   2.003   2.118
 8041SOL    HW225023   2.893   2.155   2.079
 8042SOL     OW25024   3.900   3.086   3.202
 8042SOL    HW125025   3.824   3.146   3.176
 8042SOL    HW225026   3.910   3.085   3.301
 8043SOL     OW25027   3.712   6.587   1.477
 8043SOL    HW125028   3.730   6.653   1.404
 8043SOL    HW225029   3.613   6.577   1.490
 8044SOL     OW25030   3.806   3.556   0.305
 8044SOL    HW125031   3.758   3.547   0.218
 8044SOL    HW225032   3.896   3.513   0.297
 8045SOL     OW25033   5.567   0.458   1.688
 8045SOL    HW125034   5.564   0.504   1.599
 8045SOL    HW225035   5.537   0.363   1.678
 8046SOL     OW25036   6.499   4.525   6.923
 8046SOL    HW125037   6.587   4.573   6.928
 8046SOL    HW225038   6.426   4.591   6.910
 8047SOL     OW25039   3.670   4.881   5.083
 8047SOL    HW125040   3.614   4.889   5.165
 8047SOL    HW225041   3.744   4.816   5.098
 8048SOL     OW25042   5.452   0.680   5.796
 8048SOL    HW125043   5.368   0.648   5.752
 8048SOL    HW225044   5.436   0.692   5.894
 8049SOL     OW25045   1.896   0.292   1.103
 8049SOL    HW125046   1.885   0.193   1.097
 8049SOL    HW225047   1.842   0.327   1.180
 8050SOL     OW25048   0.815   4.490   1.979
 8050SOL    HW125049   0.727   4.537   1.989
 8050SOL    HW225050   0.824   4.420   2.049
 8051SOL     OW25051   4.735   6.449   3.710
 8051SOL    HW125052   4.794   6.488   3.780
 8051SOL    HW225053   4.736   6.507   3.628
 8052SOL     OW25054   3.759   1.563   1.982
 8052SOL    HW125055   3.818   1.632   2.023
 8052SOL    HW225056   3.719   1.598   1.898
 8053SOL     OW25057   3.710   4.051   3.047
 8053SOL    HW125058   3.692   4.074   3.142
 8053SOL    HW225059   3.625   4.025   3.002
 8054SOL     OW25060   5.357   6.775   4.612
 8054SOL    HW125061   5.338   6.686   4.569
 8054SOL    HW225062   5.356   6.765   4.711
 8055SOL     OW25063   0.469   0.483   6.154
 8055SOL    HW125064   0.433   0.391   6.136
 8055SOL    HW225065   0.522   0.513   6.075
 8056SOL     OW25066   4.574   1.266   3.864
 8056SOL    HW125067   4.511   1.286   3.789
 8056SOL    HW225068   4.530   1.287   3.951
 8057SOL     OW25069   2.607   2.377   3.065
 8057SOL    HW125070   2.626   2.347   2.972
 8057SOL    HW225071   2.684   2.355   3.124
 8058SOL     OW25072   3.887   0.313   2.928
 8058SOL    HW125073   3.905   0.217   2.906
 8058SOL    HW225074   3.854   0.319   3.022
 8059SOL     OW25075   4.524   2.588   4.435
 8059SOL    HW125076   4.458   2.514   4.419
 8059SOL    HW225077   4.526   2.610   4.532
 8060SOL     OW25078   0.383   1.420   4.478
 8060SOL    HW125079   0.321   1.438   4.401
 8060SOL    HW225080   0.436   1.338   4.460
 8061SOL     OW25081   6.687   6.939   1.224
 8061SOL    HW125082   6.679   0.016   1.198
 8061SOL    HW225083   6.618   6.886   1.174
 8062SOL     OW25084   2.928   5.091   4.419
 8062SOL    HW125085   2.841   5.076   4.465
 8062SOL    HW225086   2.981   5.006   4.420
 8063SOL     OW25087   1.948   2.802   0.812
 8063SOL    HW125088   1.928   2.897   0.836
 8063SOL    HW225089   2.010   2.763   0.880
 8064SOL     OW25090   6.944   5.007   1.607
 8064SOL    HW125091   6.989   4.930   1.651
 8064SOL    HW225092   7.014   5.068   1.569
 8065SOL     OW25093   4.533   6.641   3.808
 8065SOL    HW125094   4.580   6.554   3.799
 8065SOL    HW225095   4.504   6.654   3.902
 8066SOL     OW25096   0.923   1.527   6.181
 8066SOL    HW125097   1.014   1.494   6.210
 8066SOL    HW225098   0.876   1.454   6.131
 8067SOL     OW25099   4.929   3.224   1.737
 8067SOL    HW125100   4.889   3.135   1.715
 8067SOL    HW225101   4.948   3.274   1.653
 8068SOL     OW25102   5.672   4.398   6.882
 8068SOL    HW125103   5.757   4.367   6.925
 8068SOL    HW225104   5.653   4.492   6.910
 8069SOL     OW25105   1.828   6.182   0.986
 8069SOL    HW125106   1.896   6.124   1.031
 8069SOL    HW225107   1.866   6.218   0.901
 8070SOL     OW25108   2.570   3.619   0.272
 8070SOL    HW125109   2.566   3.519   0.267
 8070SOL    HW225110   2.515   3.650   0.351
 8071SOL     OW25111   3.186   6.389   5.019
 8071SOL    HW125112   3.186   6.466   5.083
 8071SOL    HW225113   3.258   6.402   4.950
 8072SOL     OW25114   3.400   0.490   6.977
 8072SOL    HW125115   3.453   0.544   6.911
 8072SOL    HW225116   3.429   0.514   0.050
 8073SOL     OW25117   4.290   6.450   6.100
 8073SOL    HW125118   4.374   6.494   6.067
 8073SOL    HW225119   4.268   6.372   6.042
 8074SOL     OW25120   2.994   3.087   7.007
 8074SOL    HW125121   2.935   3.030   6.949
 8074SOL    HW225122   2.942   3.165   0.021
 8075SOL     OW25123   6.753   0.940   1.145
 8075SOL    HW125124   6.729   0.874   1.216
 8075SOL    HW225125   6.697   1.022   1.156
 8076SOL     OW25126   5.050   2.507   5.690
 8076SOL    HW125127   5.037   2.427   5.749
 8076SOL    HW225128   5.002   2.493   5.603
 8077SOL     OW25129   1.279   6.133   1.755
 8077SOL    HW125130   1.217   6.197   1.710
 8077SOL    HW225131   1.325   6.179   1.831
 8078SOL     OW25132   6.188   1.479   0.028
 8078SOL    HW125133   6.146   1.484   6.957
 8078SOL    HW225134   6.285   1.501   0.020
 8079SOL     OW25135   5.389   1.450   3.594
 8079SOL    HW125136   5.376   1.351   3.592
 8079SOL    HW225137   5.370   1.488   3.504
 8080SOL     OW25138   0.609   4.300   7.001
 8080SOL    HW125139   0.603   4.394   6.967
 8080SOL    HW225140   0.593   4.300   0.080
 8081SOL     OW25141   4.724   0.377   5.033
 8081SOL    HW125142   4.701   0.287   5.070
 8081SOL    HW225143   4.794   0.367   4.962
 8082SOL     OW25144   5.810   1.039   1.951
 8082SOL    HW125145   5.771   1.092   1.876
 8082SOL    HW225146   5.749   1.045   2.031
 8083SOL     OW25147   5.303   3.135   2.185
 8083SOL    HW125148   5.251   3.093   2.111
 8083SOL    HW225149   5.254   3.216   2.219
 8084SOL     OW25150   5.426   6.867   1.126
 8084SOL    HW125151   5.382   6.779   1.109
 8084SOL    HW225152   5.372   6.919   1.193
 8085SOL     OW25153   5.996   0.349   2.721
 8085SOL    HW125154   5.949   0.297   2.650
 8085SOL    HW225155   6.095   0.336   2.712
 8086SOL     OW25156   4.661   0.865   3.835
 8086SOL    HW125157   4.696   0.777   3.867
 8086SOL    HW225158   4.574   0.885   3.880
 8087SOL     OW25159   2.677   1.449   1.361
 8087SOL    HW125160   2.704   1.401   1.445
 8087SOL    HW225161   2.578   1.455   1.356
 8088SOL     OW25162   5.475   2.004   1.830
 8088SOL    HW125163   5.543   1.949   1.879
 8088SOL    HW225164   5.510   2.028   1.740
 8089SOL     OW25165   5.425   2.818   0.430
 8089SOL    HW125166   5.370   2.902   0.425
 8089SOL    HW225167   5.379   2.751   0.488
 8090SOL     OW25168   4.250   2.469   6.538
 8090SOL    HW125169   4.241   2.494   6.634
 8090SOL    HW225170   4.167   2.422   6.508
 8091SOL     OW25171   2.729   3.977   6.790
 8091SOL    HW125172   2.744   4.039   6.867
 8091SOL    HW225173   2.638   3.992   6.752
 8092SOL     OW25174   0.980   2.129   5.161
 8092SOL    HW125175   0.904   2.075   5.125
 8092SOL    HW225176   1.001   2.203   5.098
 8093SOL     OW25177   4.919   5.799   1.808
 8093SOL    HW125178   4.890   5.894   1.815
 8093SOL    HW225179   4.960   5.783   1.718
 8094SOL     OW25180   1.942   3.840   4.279
 8094SOL    HW125181   1.953   3.810   4.374
 8094SOL    HW225182   2.013   3.798   4.222
 8095SOL     OW25183   5.419   4.141   4.297
 8095SOL    HW125184   5.362   4.071   4.340
 8095SOL    HW225185   5.439   4.213   4.363
 8096SOL     OW25186   3.115   5.565   3.916
 8096SOL    HW125187   3.030   5.518   3.892
 8096SOL    HW225188   3.096   5.659   3.943
 8097SOL     OW25189   4.871   0.231   3.254
 8097SOL    HW125190   4.834   0.289   3.326
 8097SOL    HW225191   4.971   0.242   3.250
 8098SOL     OW25192   2.090   6.687   4.431
 8098SOL    HW125193   2.105   6.716   4.336
 8098SOL    HW225194   2.069   6.589   4.433
 8099SOL     OW25195   6.151   0.552   3.974
 8099SOL    HW125196   6.183   0.614   4.046
 8099SOL    HW225197   6.154   0.458   4.007
 8100SOL     OW25198   0.385   6.706   0.039
 8100SOL    HW125199   0.392   6.676   0.134
 8100SOL    HW225200   0.314   6.776   0.032
 8101SOL     OW25201   2.301   0.326   4.375
 8101SOL    HW125202   2.323   0.423   4.378
 8101SOL    HW225203   2.374   0.277   4.328
 8102SOL     OW25204   1.093   4.788   5.285
 8102SOL    HW125205   1.046   4.825   5.204
 8102SOL    HW225206   1.162   4.853   5.316
 8103SOL     OW25207   4.651   0.776   0.227
 8103SOL    HW125208   4.687   0.862   0.263
 8103SOL    HW225209   4.622   0.789   0.132
 8104SOL     OW25210   2.876   6.343   5.894
 8104SOL    HW125211   2.950   6.402   5.925
 8104SOL    HW225212   2.884   6.327   5.796
 8105SOL     OW25213   1.630   2.201   2.998
 8105SOL    HW125214   1.722   2.162   3.003
 8105SOL    HW225215   1.624   2.262   2.919
 8106SOL     OW25216   2.466   5.860   3.819
 8106SOL    HW125217   2.531   5.790   3.789
 8106SOL    HW225218   2.484   5.946   3.770
 8107SOL     OW25219   1.305   5.722   5.572
 8107SOL    HW125220   1.335   5.811   5.607
 8107SOL    HW225221   1.380   5.657   5.578
 8108SOL     OW25222   5.238   2.835   5.306
 8108SOL    HW125223   5.226   2.744   5.345
 8108SOL    HW225224   5.194   2.903   5.365
 8109SOL     OW25225   1.231   3.955   3.992
 8109SOL    HW125226   1.242   4.053   4.009
 8109SOL    HW225227   1.262   3.904   4.073
 8110SOL     OW25228   3.635   6.800   0.882
 8110SOL    HW125229   3.571   6.836   0.950
 8110SOL    HW225230   3.631   6.856   0.800
 8111SOL     OW25231   3.953   0.363   5.834
 8111SOL    HW125232   3.963   0.439   5.898
 8111SOL    HW225233   3.935   0.278   5.884
 8112SOL     OW25234   1.419   1.211   4.946
 8112SOL    HW125235   1.470   1.295   4.964
 8112SOL    HW225236   1.435   1.183   4.851
 8113SOL     OW25237   2.618   3.702   7.001
 8113SOL    HW125238   2.544   3.733   6.941
 8113SOL    HW225239   2.597   3.729   0.075
 8114SOL     OW25240   1.899   3.085   2.078
 8114SOL    HW125241   1.873   3.039   1.993
 8114SOL    HW225242   1.944   3.172   2.056
 8115SOL     OW25243   4.066   1.501   1.672
 8115SOL    HW125244   4.053   1.559   1.591
 8115SOL    HW225245   4.005   1.531   1.745
 8116SOL     OW25246   4.681   6.908   4.138
 8116SOL    HW125247   4.654   6.822   4.181
 8116SOL    HW225248   4.680   6.981   4.207
 8117SOL     OW25249   2.124   1.279   4.556
 8117SOL    HW125250   2.047   1.226   4.522
 8117SOL    HW225251   2.205   1.260   4.501
 8118SOL     OW25252   6.629   3.638   5.752
 8118SOL    HW125253   6.571   3.717   5.731
 8118SOL    HW225254   6.583   3.554   5.722
 8119SOL     OW25255   6.827   5.433   5.131
 8119SOL    HW125256   6.823   5.372   5.210
 8119SOL    HW225257   6.742   5.425   5.078
 8120SOL     OW25258   3.655   4.805   6.568
 8120SOL    HW125259   3.565   4.770   6.593
 8120SOL    HW225260   3.700   4.844   6.649
 8121SOL     OW25261   6.984   5.355   2.888
 8121SOL    HW125262   0.057   5.359   2.850
 8121SOL    HW225263   6.932   5.435   2.859
 8122SOL     OW25264   0.653   5.561   2.461
 8122SOL    HW125265   0.596   5.480   2.453
 8122SOL    HW225266   0.597   5.643   2.449
 8123SOL     OW25267   6.868   7.008   0.042
 8123SOL    HW125268   6.908   0.004   6.971
 8123SOL    HW225269   6.854   0.076   0.088
 8124SOL     OW25270   0.339   6.026   0.991
 8124SOL    HW125271   0.268   6.008   0.922
 8124SOL    HW225272   0.303   6.001   1.081
 8125SOL     OW25273   0.671   6.260   2.712
 8125SOL    HW125274   0.678   6.330   2.784
 8125SOL    HW225275   0.754   6.205   2.711
 8126SOL     OW25276   6.174   3.947   2.515
 8126SOL    HW125277   6.159   3.888   2.595
 8126SOL    HW225278   6.152   3.897   2.432
 8127SOL     OW25279   2.253   6.039   0.840
 8127SOL    HW125280   2.227   6.050   0.744
 8127SOL    HW225281   2.217   5.952   0.874
 8128SOL     OW25282   2.853   2.880   0.982
 8128SOL    HW125283   2.785   2.808   0.979
 8128SOL    HW225284   2.900   2.886   0.894
 8129SOL     OW25285   4.547   1.518   5.675
 8129SOL    HW125286   4.510   1.601   5.716
 8129SOL    HW225287   4.646   1.525   5.668
 8130SOL     OW25288   0.664   4.730   6.153
 8130SOL    HW125289   0.661   4.684   6.064
 8130SOL    HW225290   0.758   4.753   6.175
 8131SOL     OW25291   2.358   0.524   0.528
 8131SOL    HW125292   2.429   0.480   0.475
 8131SOL    HW225293   2.397   0.561   0.612
 8132SOL     OW25294   5.734   6.269   6.208
 8132SOL    HW125295   5.796   6.204   6.252
 8132SOL    HW225296   5.779   6.358   6.201
 8133SOL     OW25297   3.263   4.895   1.969
 8133SOL    HW125298   3.321   4.886   1.888
 8133SOL    HW225299   3.180   4.840   1.957
 8134SOL     OW25300   1.463   1.310   4.415
 8134SOL    HW125301   1.406   1.387   4.445
 8134SOL    HW225302   1.523   1.339   4.342
 8135SOL     OW25303   2.252   5.545   1.636
 8135SOL    HW125304   2.226   5.613   1.704
 8135SOL    HW225305   2.348   5.520   1.648
 8136SOL     OW25306   4.897   4.840   2.824
 8136SOL    HW125307   4.844   4.800   2.749
 8136SOL    HW225308   4.841   4.906   2.873
 8137SOL     OW25309   2.266   1.334   4.321
 8137SOL    HW125310   2.250   1.392   4.242
 8137SOL    HW225311   2.316   1.385   4.391
 8138SOL     OW25312   5.941   2.373   1.034
 8138SOL    HW125313   5.947   2.434   0.955
 8138SOL    HW225314   6.031   2.364   1.076
 8139SOL     OW25315   1.927   2.568   3.365
 8139SOL    HW125316   1.873   2.514   3.300
 8139SOL    HW225317   1.875   2.648   3.395
 8140SOL     OW25318   3.626   6.939   0.656
 8140SOL    HW125319   3.562   7.000   0.610
 8140SOL    HW225320   3.695   6.908   0.591
 8141SOL     OW25321   4.675   6.858   5.558
 8141SOL    HW125322   4.695   6.950   5.524
 8141SOL    HW225323   4.757   6.821   5.603
 8142SOL     OW25324   2.206   5.113   0.922
 8142SOL    HW125325   2.121   5.077   0.960
 8142SOL    HW225326   2.222   5.073   0.832
 8143SOL     OW25327   5.007   4.990   0.874
 8143SOL    HW125328   5.092   4.944   0.847
 8143SOL    HW225329   4.929   4.944   0.832
 8144SOL     OW25330   1.050   5.937   5.329
 8144SOL    HW125331   1.149   5.950   5.329
 8144SOL    HW225332   1.005   6.019   5.364
 8145SOL     OW25333   4.771   4.861   0.863
 8145SOL    HW125334   4.812   4.821   0.945
 8145SOL    HW225335   4.706   4.796   0.823
 8146SOL     OW25336   6.008   6.935   5.639
 8146SOL    HW125337   5.915   6.925   5.676
 8146SOL    HW225338   6.040   6.846   5.605
 8147SOL     OW25339   6.884   0.605   0.612
 8147SOL    HW125340   6.857   0.581   0.519
 8147SOL    HW225341   6.835   0.687   0.640
 8148SOL     OW25342   4.531   4.645   6.770
 8148SOL    HW125343   4.573   4.641   6.679
 8148SOL    HW225344   4.470   4.567   6.782
 8149SOL     OW25345   2.043   6.413   3.345
 8149SOL    HW125346   2.115   6.452   3.287
 8149SOL    HW225347   2.038   6.314   3.329
 8150SOL     OW25348   1.209   3.830   1.048
 8150SOL    HW125349   1.159   3.916   1.034
 8150SOL    HW225350   1.301   3.851   1.081
 8151SOL     OW25351   5.744   5.323   3.976
 8151SOL    HW125352   5.675   5.317   3.903
 8151SOL    HW225353   5.803   5.242   3.972
 8152SOL     OW25354   5.740   2.853   3.493
 8152SOL    HW125355   5.677   2.886   3.564
 8152SOL    HW225356   5.736   2.914   3.414
 8153SOL     OW25357   0.784   1.359   3.042
 8153SOL    HW125358   0.812   1.272   3.000
 8153SOL    HW225359   0.723   1.408   2.980
 8154SOL     OW25360   3.698   6.997   2.843
 8154SOL    HW125361   3.778   6.943   2.816
 8154SOL    HW225362   3.690   0.058   2.785
 8155SOL     OW25363   1.309   4.130   2.134
 8155SOL    HW125364   1.258   4.065   2.077
 8155SOL    HW225365   1.284   4.116   2.230
 8156SOL     OW25366   4.783   6.156   1.636
 8156SOL    HW125367   4.707   6.208   1.598
 8156SOL    HW225368   4.773   6.059   1.612
 8157SOL     OW25369   6.271   4.284   6.228
 8157SOL    HW125370   6.347   4.240   6.275
 8157SOL    HW225371   6.198   4.217   6.212
 8158SOL     OW25372   5.039   4.792   0.003
 8158SOL    HW125373   5.063   4.787   0.100
 8158SOL    HW225374   5.083   4.718   6.972
 8159SOL     OW25375   3.600   5.881   5.544
 8159SOL    HW125376   3.548   5.869   5.460
 8159SOL    HW225377   3.570   5.814   5.612
 8160SOL     OW25378   4.613   0.094   3.760
 8160SOL    HW125379   4.672   0.171   3.736
 8160SOL    HW225380   4.554   0.120   3.837
 8161SOL     OW25381   6.277   3.794   6.559
 8161SOL    HW125382   6.292   3.833   6.650
 8161SOL    HW225383   6.204   3.725   6.564
 8162SOL     OW25384   6.609   5.148   6.703
 8162SOL    HW125385   6.540   5.202   6.654
 8162SOL    HW225386   6.696   5.152   6.654
 8163SOL     OW25387   2.295   4.906   5.544
 8163SOL    HW125388   2.375   4.920   5.604
 8163SOL    HW225389   2.259   4.814   5.557
 8164SOL     OW25390   4.425   1.139   0.176
 8164SOL    HW125391   4.429   1.080   0.095
 8164SOL    HW225392   4.444   1.233   0.149
 8165SOL     OW25393   6.916   3.706   6.392
 8165SOL    HW125394   6.924   3.660   6.480
 8165SOL    HW225395   6.877   3.797   6.405
 8166SOL     OW25396   1.914   0.837   3.416
 8166SOL    HW125397   1.837   0.847   3.478
 8166SOL    HW225398   1.922   0.742   3.387
 8167SOL     OW25399   0.303   0.821   3.102
 8167SOL    HW125400   0.276   0.893   3.038
 8167SOL    HW225401   0.352   0.861   3.179
 8168SOL     OW25402   2.865   6.877   1.581
 8168SOL    HW125403   2.910   6.946   1.525
 8168SOL    HW225404   2.872   6.902   1.678
 8169SOL     OW25405   3.926   2.075   0.212
 8169SOL    HW125406   3.837   2.041   0.241
 8169SOL    HW225407   3.995   2.050   0.281
 8170SOL     OW25408   6.457   4.705   0.993
 8170SOL    HW125409   6.380   4.702   1.056
 8170SOL    HW225410   6.444   4.639   0.920
 8171SOL     OW25411   1.954   1.834   6.985
 8171SOL    HW125412   2.041   1.807   0.008
 8171SOL    HW225413   1.908   1.752   6.950
 8172SOL     OW25414   0.044   1.943   1.720
 8172SOL    HW125415   0.043   1.951   1.820
 8172SOL    HW225416   0.084   2.026   1.681
 8173SOL     OW25417   5.601   1.698   2.193
 8173SOL    HW125418   5.512   1.659   2.168
 8173SOL    HW225419   5.600   1.724   2.290
 8174SOL     OW25420   0.819   6.952   2.556
 8174SOL    HW125421   0.779   6.890   2.488
 8174SOL    HW225422   0.771   6.941   2.643
 8175SOL     OW25423   0.647   2.675   4.611
 8175SOL    HW125424   0.678   2.592   4.655
 8175SOL    HW225425   0.553   2.695   4.640
 8176SOL     OW25426   2.625   4.457   1.741
 8176SOL    HW125427   2.627   4.421   1.648
 8176SOL    HW225428   2.717   4.487   1.767
 8177SOL     OW25429   4.613   1.015   3.534
 8177SOL    HW125430   4.636   0.984   3.626
 8177SOL    HW225431   4.695   1.047   3.487
 8178SOL     OW25432   3.585   6.544   0.862
 8178SOL    HW125433   3.498   6.519   0.906
 8178SOL    HW225434   3.608   6.639   0.884
 8179SOL     OW25435   5.651   1.176   4.977
 8179SOL    HW125436   5.741   1.218   4.960
 8179SOL    HW225437   5.585   1.248   4.998
 8180SOL     OW25438   5.766   0.894   6.978
 8180SOL    HW125439   5.754   0.825   6.906
 8180SOL    HW225440   5.853   0.879   0.004
 8181SOL     OW25441   1.544   1.022   0.458
 8181SOL    HW125442   1.618   0.971   0.415
 8181SOL    HW225443   1.457   1.000   0.413
 8182SOL     OW25444   3.555   3.484   5.134
 8182SOL    HW125445   3.494   3.406   5.128
 8182SOL    HW225446   3.599   3.500   5.046
 8183SOL     OW25447   6.112   2.161   4.669
 8183SOL    HW125448   6.045   2.190   4.600
 8183SOL    HW225449   6.204   2.165   4.630
 8184SOL     OW25450   0.322   0.113   0.712
 8184SOL    HW125451   0.356   0.115   0.806
 8184SOL    HW225452   0.387   0.159   0.652
 8185SOL     OW25453   2.145   0.449   0.736
 8185SOL    HW125454   2.186   0.536   0.710
 8185SOL    HW225455   2.217   0.379   0.741
 8186SOL     OW25456   2.731   4.578   5.575
 8186SOL    HW125457   2.808   4.528   5.534
 8186SOL    HW225458   2.675   4.619   5.503
 8187SOL     OW25459   2.285   0.921   4.859
 8187SOL    HW125460   2.236   0.885   4.939
 8187SOL    HW225461   2.244   0.883   4.776
 8188SOL     OW25462   4.764   2.977   3.633
 8188SOL    HW125463   4.741   2.881   3.650
 8188SOL    HW225464   4.790   2.989   3.537
 8189SOL     OW25465   5.496   5.267   2.369
 8189SOL    HW125466   5.518   5.223   2.456
 8189SOL    HW225467   5.529   5.211   2.294
 8190SOL     OW25468   4.810   4.193   3.923
 8190SOL    HW125469   4.879   4.251   3.878
 8190SOL    HW225470   4.834   4.181   4.019
 8191SOL     OW25471   3.945   5.446   2.417
 8191SOL    HW125472   3.981   5.471   2.507
 8191SOL    HW225473   3.845   5.443   2.420
 8192SOL     OW25474   1.820   5.946   2.541
 8192SOL    HW125475   1.742   6.002   2.514
 8192SOL    HW225476   1.812   5.923   2.638
 8193SOL     OW25477   5.951   5.434   5.342
 8193SOL    HW125478   5.951   5.525   5.300
 8193SOL    HW225479   5.940   5.443   5.441
 8194SOL     OW25480   4.578   1.134   0.992
 8194SOL    HW125481   4.662   1.126   1.046
 8194SOL    HW225482   4.538   1.225   1.004
 8195SOL     OW25483   6.629   0.389   2.787
 8195SOL    HW125484   6.709   0.401   2.846
 8195SOL    HW225485   6.597   0.294   2.792
 8196SOL     OW25486   4.685   6.123   6.971
 8196SOL    HW125487   4.632   6.078   6.899
 8196SOL    HW225488   4.623   6.159   0.021
 8197SOL     OW25489   3.731   1.210   0.926
 8197SOL    HW125490   3.703   1.134   0.868
 8197SOL    HW225491   3.754   1.289   0.868
 8198SOL     OW25492   3.689   6.662   2.646
 8198SOL    HW125493   3.669   6.750   2.689
 8198SOL    HW225494   3.683   6.671   2.547
 8199SOL     OW25495   5.940   3.669   5.588
 8199SOL    HW125496   5.851   3.684   5.543
 8199SOL    HW225497   5.951   3.572   5.607
 8200SOL     OW25498   5.578   4.457   1.690
 8200SOL    HW125499   5.485   4.445   1.724
 8200SOL    HW225500   5.580   4.438   1.592
 8201SOL     OW25501   6.542   1.098   5.247
 8201SOL    HW125502   6.515   1.075   5.341
 8201SOL    HW225503   6.629   1.146   5.249
 8202SOL     OW25504   0.404   5.342   3.905
 8202SOL    HW125505   0.370   5.297   3.823
 8202SOL    HW225506   0.339   5.412   3.935
 8203SOL     OW25507   2.859   2.228   6.971
 8203SOL    HW125508   2.782   2.184   6.925
 8203SOL    HW225509   2.917   2.274   6.903
 8204SOL     OW25510   3.958   4.354   0.046
 8204SOL    HW125511   3.942   4.433   7.007
 8204SOL    HW225512   3.936   4.270   7.014
 8205SOL     OW25513   0.062   4.690   0.128
 8205SOL    HW125514   0.036   4.594   0.122
 8205SOL    HW225515   0.027   4.729   0.213
 8206SOL     OW25516   4.500   2.110   6.963
 8206SOL    HW125517   4.570   2.142   0.007
 8206SOL    HW225518   4.511   2.155   6.874
 8207SOL     OW25519   3.215   3.407   4.381
 8207SOL    HW125520   3.219   3.384   4.283
 8207SOL    HW225521   3.274   3.346   4.432
 8208SOL     OW25522   1.118   0.777   1.147
 8208SOL    HW125523   1.104   0.807   1.053
 8208SOL    HW225524   1.210   0.803   1.177
 8209SOL     OW25525   0.144   0.909   4.470
 8209SOL    HW125526   0.048   0.904   4.498
 8209SOL    HW225527   0.162   0.999   4.430
 8210SOL     OW25528   2.384   2.195   0.731
 8210SOL    HW125529   2.294   2.158   0.757
 8210SOL    HW225530   2.454   2.125   0.745
 8211SOL     OW25531   3.816   4.339   1.420
 8211SOL    HW125532   3.718   4.316   1.416
 8211SOL    HW225533   3.830   4.431   1.385
 8212SOL     OW25534   1.191   2.555   2.858
 8212SOL    HW125535   1.241   2.481   2.903
 8212SOL    HW225536   1.129   2.517   2.790
 8213SOL     OW25537   6.980   4.531   1.324
 8213SOL    HW125538   6.975   4.520   1.423
 8213SOL    HW225539   6.888   4.524   1.285
 8214SOL     OW25540   6.194   4.895   3.835
 8214SOL    HW125541   6.290   4.869   3.846
 8214SOL    HW225542   6.189   4.992   3.812
 8215SOL     OW25543   3.628   5.703   5.784
 8215SOL    HW125544   3.623   5.784   5.842
 8215SOL    HW225545   3.724   5.680   5.768
 8216SOL     OW25546   5.831   5.600   4.041
 8216SOL    HW125547   5.781   5.522   4.005
 8216SOL    HW225548   5.775   5.647   4.110
 8217SOL     OW25549   1.540   4.755   0.400
 8217SOL    HW125550   1.591   4.730   0.483
 8217SOL    HW225551   1.604   4.762   0.323
 8218SOL     OW25552   7.000   6.939   6.404
 8218SOL    HW125553   0.054   7.006   6.415
 8218SOL    HW225554   6.968   6.941   6.309
 8219SOL     OW25555   4.166   2.183   0.551
 8219SOL    HW125556   4.120   2.222   0.630
 8219SOL    HW225557   4.121   2.098   0.525
 8220SOL     OW25558   3.724   2.994   3.506
 8220SOL    HW125559   3.807   2.974   3.558
 8220SOL    HW225560   3.712   3.093   3.499
 8221SOL     OW25561   5.445   6.293   4.313
 8221SOL    HW125562   5.520   6.283   4.378
 8221SOL    HW225563   5.393   6.207   4.309
 8222SOL     OW25564   5.173   1.342   2.126
 8222SOL    HW125565   5.080   1.355   2.091
 8222SOL    HW225566   5.190   1.244   2.138
 8223SOL     OW25567   1.134   4.815   6.010
 8223SOL    HW125568   1.204   4.881   5.983
 8223SOL    HW225569   1.178   4.737   6.055
 8224SOL     OW25570   6.456   1.043   2.921
 8224SOL    HW125571   6.454   0.999   3.011
 8224SOL    HW225572   6.425   0.977   2.852
 8225SOL     OW25573   3.568   0.943   7.000
 8225SOL    HW125574   3.616   1.026   6.970
 8225SOL    HW225575   3.541   0.953   0.076
 8226SOL     OW25576   4.279   6.891   1.583
 8226SOL    HW125577   4.366   6.908   1.630
 8226SOL    HW225578   4.292   6.818   1.515
 8227SOL     OW25579   6.396   2.101   3.427
 8227SOL    HW125580   6.460   2.028   3.450
 8227SOL    HW225581   6.316   2.062   3.381
 8228SOL     OW25582   6.711   2.146   5.804
 8228SOL    HW125583   6.747   2.228   5.759
 8228SOL    HW225584   6.768   2.067   5.781
 8229SOL     OW25585   3.908   3.640   1.010
 8229SOL    HW125586   3.970   3.582   0.957
 8229SOL    HW225587   3.952   3.728   1.028
 8230SOL     OW25588   4.055   0.103   4.674
 8230SOL    HW125589   4.109   0.183   4.649
 8230SOL    HW225590   3.965   0.109   4.632
 8231SOL     OW25591   3.996   5.300   0.637
 8231SOL    HW125592   3.981   5.334   0.544
 8231SOL    HW225593   3.988   5.200   0.638
 8232SOL     OW25594   4.714   1.521   1.606
 8232SOL    HW125595   4.617   1.499   1.613
 8232SOL    HW225596   4.762   1.489   1.688
 8233SOL     OW25597   1.340   6.305   6.758
 8233SOL    HW125598   1.367   6.340   6.668
 8233SOL    HW225599   1.358   6.207   6.762
 8234SOL     OW25600   2.890   4.663   6.612
 8234SOL    HW125601   2.976   4.676   6.563
 8234SOL    HW225602   2.907   4.672   6.710
 8235SOL     OW25603   0.812   3.892   7.014
 8235SOL    HW125604   0.833   3.990   0.003
 8235SOL    HW225605   0.822   3.864   6.919
 8236SOL     OW25606   0.222   4.428   0.441
 8236SOL    HW125607   0.261   4.355   0.386
 8236SOL    HW225608   0.262   4.425   0.533
 8237SOL     OW25609   4.061   6.733   4.412
 8237SOL    HW125610   4.159   6.715   4.410
 8237SOL    HW225611   4.019   6.682   4.487
 8238SOL     OW25612   0.935   5.134   6.995
 8238SOL    HW125613   0.905   5.078   6.918
 8238SOL    HW225614   0.892   5.224   6.989
 8239SOL     OW25615   5.924   0.938   5.639
 8239SOL    HW125616   5.881   0.903   5.556
 8239SOL    HW225617   5.961   0.862   5.692
 8240SOL     OW25618   3.655   4.147   2.316
 8240SOL    HW125619   3.723   4.111   2.379
 8240SOL    HW225620   3.682   4.239   2.287
 8241SOL     OW25621   4.209   0.266   0.038
 8241SOL    HW125622   4.269   0.226   6.988
 8241SOL    HW225623   4.147   0.331   7.015
 8242SOL     OW25624   0.494   4.947   5.794
 8242SOL    HW125625   0.514   5.038   5.831
 8242SOL    HW225626   0.575   4.889   5.802
 8243SOL     OW25627   0.707   2.861   0.604
 8243SOL    HW125628   0.673   2.820   0.519
 8243SOL    HW225629   0.787   2.811   0.635
 8244SOL     OW25630   0.647   0.117   4.800
 8244SOL    HW125631   0.668   0.040   4.740
 8244SOL    HW225632   0.553   0.147   4.783
 8245SOL     OW25633   3.926   2.032   3.152
 8245SOL    HW125634   3.947   2.052   3.056
 8245SOL    HW225635   3.844   1.975   3.157
 8246SOL     OW25636   1.003   2.719   5.722
 8246SOL    HW125637   0.996   2.769   5.808
 8246SOL    HW225638   0.995   2.782   5.645
 8247SOL     OW25639   1.415   6.704   2.709
 8247SOL    HW125640   1.419   6.619   2.761
 8247SOL    HW225641   1.500   6.755   2.722
 8248SOL     OW25642   6.198   5.030   4.593
 8248SOL    HW125643   6.261   5.007   4.520
 8248SOL    HW225644   6.214   4.969   4.672
 8249SOL     OW25645   1.732   2.788   4.992
 8249SOL    HW125646   1.760   2.769   4.898
 8249SOL    HW225647   1.801   2.845   5.037
 8250SOL     OW25648   3.290   3.781   1.905
 8250SOL    HW125649   3.326   3.688   1.901
 8250SOL    HW225650   3.348   3.836   1.965
 8251SOL     OW25651   5.534   3.355   3.742
 8251SOL    HW125652   5.609   3.326   3.802
 8251SOL    HW225653   5.536   3.455   3.732
 8252SOL     OW25654   3.302   1.472   5.393
 8252SOL    HW125655   3.352   1.506   5.314
 8252SOL    HW225656   3.227   1.413   5.363
 8253SOL     OW25657   4.292   4.631   5.421
 8253SOL    HW125658   4.227   4.584   5.359
 8253SOL    HW225659   4.252   4.636   5.512
 8254SOL     OW25660   4.775   4.423   5.064
 8254SOL    HW125661   4.822   4.494   5.011
 8254SOL    HW225662   4.829   4.398   5.143
 8255SOL     OW25663   2.055   0.153   5.213
 8255SOL    HW125664   2.082   0.168   5.118
 8255SOL    HW225665   2.076   0.234   5.268
 8256SOL     OW25666   6.482   6.821   2.320
 8256SOL    HW125667   6.429   6.843   2.402
 8256SOL    HW225668   6.419   6.793   2.247
 8257SOL     OW25669   6.026   3.607   3.425
 8257SOL    HW125670   6.020   3.507   3.419
 8257SOL    HW225671   6.107   3.632   3.478
 8258SOL     OW25672   5.484   2.007   0.627
 8258SOL    HW125673   5.402   2.060   0.604
 8258SOL    HW225674   5.488   1.992   0.726
 8259SOL     OW25675   3.770   2.141   3.536
 8259SOL    HW125676   3.828   2.222   3.543
 8259SOL    HW225677   3.821   2.067   3.493
 8260SOL     OW25678   2.965   6.471   1.474
 8260SOL    HW125679   2.905   6.402   1.433
 8260SOL    HW225680   2.931   6.497   1.564
 8261SOL     OW25681   5.817   0.586   2.132
 8261SOL    HW125682   5.862   0.671   2.158
 8261SOL    HW225683   5.763   0.551   2.208
 8262SOL     OW25684   0.357   2.816   6.905
 8262SOL    HW125685   0.258   2.834   6.905
 8262SOL    HW225686   0.391   2.823   6.811
 8263SOL     OW25687   1.410   2.459   6.935
 8263SOL    HW125688   1.421   2.474   6.837
 8263SOL    HW225689   1.485   2.502   6.985
 8264SOL     OW25690   2.941   6.109   2.901
 8264SOL    HW125691   3.015   6.176   2.907
 8264SOL    HW225692   2.911   6.084   2.993
 8265SOL     OW25693   0.388   0.080   1.020
 8265SOL    HW125694   0.436   0.010   1.073
 8265SOL    HW225695   0.403   0.170   1.061
 8266SOL     OW25696   2.486   1.356   3.286
 8266SOL    HW125697   2.515   1.264   3.314
 8266SOL    HW225698   2.390   1.353   3.256
 8267SOL     OW25699   1.255   2.945   1.481
 8267SOL    HW125700   1.266   3.013   1.554
 8267SOL    HW225701   1.333   2.883   1.481
 8268SOL     OW25702   2.198   6.132   6.149
 8268SOL    HW125703   2.172   6.089   6.062
 8268SOL    HW225704   2.290   6.170   6.140
 8269SOL     OW25705   3.956   1.790   2.112
 8269SOL    HW125706   3.957   1.889   2.097
 8269SOL    HW225707   3.972   1.771   2.209
 8270SOL     OW25708   2.747   0.087   5.358
 8270SOL    HW125709   2.794   0.050   5.438
 8270SOL    HW225710   2.747   0.019   5.285
 8271SOL     OW25711   0.383   0.493   3.159
 8271SOL    HW125712   0.303   0.443   3.126
 8271SOL    HW225713   0.413   0.557   3.088
 8272SOL     OW25714   5.139   1.926   2.243
 8272SOL    HW125715   5.128   1.830   2.269
 8272SOL    HW225716   5.168   1.979   2.323
 8273SOL     OW25717   3.055   0.954   0.274
 8273SOL    HW125718   2.964   0.945   0.233
 8273SOL    HW225719   3.114   0.880   0.241
 8274SOL     OW25720   5.467   5.093   3.918
 8274SOL    HW125721   5.484   5.174   3.861
 8274SOL    HW225722   5.394   5.114   3.984
 8275SOL     OW25723   5.464   1.396   5.469
 8275SOL    HW125724   5.515   1.482   5.459
 8275SOL    HW225725   5.458   1.351   5.380
 8276SOL     OW25726   0.617   1.778   3.591
 8276SOL    HW125727   0.645   1.852   3.529
 8276SOL    HW225728   0.642   1.803   3.685
 8277SOL     OW25729   0.182   6.924   0.115
 8277SOL    HW125730   0.088   6.944   0.140
 8277SOL    HW225731   0.204   6.971   0.029
 8278SOL     OW25732   2.788   2.209   5.615
 8278SOL    HW125733   2.786   2.309   5.613
 8278SOL    HW225734   2.834   2.175   5.533
 8279SOL     OW25735   1.891   6.486   4.707
 8279SOL    HW125736   1.967   6.425   4.687
 8279SOL    HW225737   1.812   6.433   4.739
 8280SOL     OW25738   2.223   4.105   0.798
 8280SOL    HW125739   2.244   4.202   0.797
 8280SOL    HW225740   2.281   4.057   0.733
 8281SOL     OW25741   3.073   4.551   1.677
 8281SOL    HW125742   3.137   4.477   1.659
 8281SOL    HW225743   2.993   4.516   1.726
 8282SOL     OW25744   4.750   3.416   0.199
 8282SOL    HW125745   4.742   3.318   0.179
 8282SOL    HW225746   4.809   3.459   0.131
 8283SOL     OW25747   1.637   5.601   6.271
 8283SOL    HW125748   1.648   5.665   6.347
 8283SOL    HW225749   1.543   5.605   6.238
 8284SOL     OW25750   0.875   3.939   1.086
 8284SOL    HW125751   0.909   3.867   1.148
 8284SOL    HW225752   0.897   3.914   0.991
 8285SOL     OW25753   3.326   4.095   4.136
 8285SOL    HW125754   3.370   4.034   4.202
 8285SOL    HW225755   3.366   4.082   4.046
 8286SOL     OW25756   5.735   2.614   6.124
 8286SOL    HW125757   5.774   2.683   6.185
 8286SOL    HW225758   5.733   2.650   6.031
 8287SOL     OW25759   1.807   5.459   4.106
 8287SOL    HW125760   1.832   5.489   4.199
 8287SOL    HW225761   1.832   5.530   4.040
 8288SOL     OW25762   3.249   1.786   1.525
 8288SOL    HW125763   3.196   1.853   1.473
 8288SOL    HW225764   3.289   1.829   1.605
 8289SOL     OW25765   0.676   5.465   0.912
 8289SOL    HW125766   0.635   5.463   1.003
 8289SOL    HW225767   0.636   5.392   0.856
 8290SOL     OW25768   6.063   1.342   1.310
 8290SOL    HW125769   5.977   1.321   1.358
 8290SOL    HW225770   6.130   1.270   1.329
 8291SOL     OW25771   5.345   6.244   5.619
 8291SOL    HW125772   5.350   6.170   5.686
 8291SOL    HW225773   5.266   6.302   5.640
 8292SOL     OW25774   2.733   6.595   6.980
 8292SOL    HW125775   2.648   6.636   6.945
 8292SOL    HW225776   2.776   6.542   6.907
 8293SOL     OW25777   3.218   5.902   0.410
 8293SOL    HW125778   3.241   5.993   0.375
 8293SOL    HW225779   3.142   5.864   0.358
 8294SOL     OW25780   5.345   4.044   4.850
 8294SOL    HW125781   5.281   3.989   4.904
 8294SOL    HW225782   5.432   4.052   4.898
 8295SOL     OW25783   5.262   5.143   1.765
 8295SOL    HW125784   5.287   5.238   1.747
 8295SOL    HW225785   5.343   5.091   1.790
 8296SOL     OW25786   1.250   5.172   6.472
 8296SOL    HW125787   1.265   5.164   6.373
 8296SOL    HW225788   1.296   5.253   6.506
 8297SOL     OW25789   6.248   2.492   2.519
 8297SOL    HW125790   6.338   2.515   2.483
 8297SOL    HW225791   6.243   2.515   2.616
 8298SOL     OW25792   6.631   1.172   1.151
 8298SOL    HW125793   6.567   1.204   1.221
 8298SOL    HW225794   6.619   1.225   1.067
 8299SOL     OW25795   6.733   3.000   1.412
 8299SOL    HW125796   6.811   3.060   1.430
 8299SOL    HW225797   6.681   2.987   1.497
 8300SOL     OW25798   0.190   5.659   4.785
 8300SOL    HW125799   0.234   5.740   4.824
 8300SOL    HW225800   0.231   5.639   4.696
 8301SOL     OW25801   3.997   1.954   1.205
 8301SOL    HW125802   3.967   1.948   1.300
 8301SOL    HW225803   3.917   1.959   1.145
 8302SOL     OW25804   5.826   6.702   0.161
 8302SOL    HW125805   5.767   6.779   0.186
 8302SOL    HW225806   5.769   6.625   0.130
 8303SOL     OW25807   6.461   0.502   3.796
 8303SOL    HW125808   6.488   0.595   3.769
 8303SOL    HW225809   6.362   0.498   3.805
 8304SOL     OW25810   0.145   3.698   0.561
 8304SOL    HW125811   0.233   3.678   0.517
 8304SOL    HW225812   0.084   3.741   0.495
 8305SOL     OW25813   4.681   5.042   4.360
 8305SOL    HW125814   4.755   5.009   4.419
 8305SOL    HW225815   4.605   4.977   4.363
 8306SOL     OW25816   6.811   2.348   6.424
 8306SOL    HW125817   6.783   2.427   6.478
 8306SOL    HW225818   6.737   2.322   6.362
 8307SOL     OW25819   3.556   5.409   1.592
 8307SOL    HW125820   3.510   5.468   1.658
 8307SOL    HW225821   3.596   5.464   1.520
 8308SOL     OW25822   3.695   5.572   1.385
 8308SOL    HW125823   3.675   5.659   1.340
 8308SOL    HW225824   3.794   5.557   1.387
 8309SOL     OW25825   6.740   5.338   4.042
 8309SOL    HW125826   6.770   5.399   4.115
 8309SOL    HW225827   6.660   5.376   3.997
 8310SOL     OW25828   0.018   4.494   0.636
 8310SOL    HW125829   0.080   4.459   0.566
 8310SOL    HW225830   6.943   4.483   0.605
 8311SOL     OW25831   0.611   1.522   4.331
 8311SOL    HW125832   0.559   1.583   4.391
 8311SOL    HW225833   0.656   1.451   4.385
 8312SOL     OW25834   5.131   0.397   6.968
 8312SOL    HW125835   5.053   0.334   6.974
 8312SOL    HW225836   5.120   0.456   6.888
 8313SOL     OW25837   5.181   0.460   1.511
 8313SOL    HW125838   5.162   0.501   1.600
 8313SOL    HW225839   5.098   0.420   1.473
 8314SOL     OW25840   4.745   0.523   0.243
 8314SOL    HW125841   4.778   0.456   0.310
 8314SOL    HW225842   4.744   0.614   0.284
 8315SOL     OW25843   4.082   3.023   1.230
 8315SOL    HW125844   4.105   3.072   1.313
 8315SOL    HW225845   4.163   3.013   1.173
 8316SOL     OW25846   0.483   2.337   2.247
 8316SOL    HW125847   0.494   2.432   2.218
 8316SOL    HW225848   0.564   2.284   2.219
 8317SOL     OW25849   1.890   2.733   2.368
 8317SOL    HW125850   1.885   2.832   2.359
 8317SOL    HW225851   1.984   2.703   2.348
 8318SOL     OW25852   4.793   1.318   4.662
 8318SOL    HW125853   4.775   1.220   4.666
 8318SOL    HW225854   4.751   1.357   4.579
 8319SOL     OW25855   2.239   2.067   6.890
 8319SOL    HW125856   2.152   2.116   6.892
 8319SOL    HW225857   2.276   2.069   6.797
 8320SOL     OW25858   3.208   3.507   1.664
 8320SOL    HW125859   3.156   3.476   1.585
 8320SOL    HW225860   3.148   3.557   1.726
 8321SOL     OW25861   6.798   0.644   6.830
 8321SOL    HW125862   6.775   0.740   6.813
 8321SOL    HW225863   6.890   0.625   6.797
 8322SOL     OW25864   6.608   6.865   0.784
 8322SOL    HW125865   6.690   6.810   0.797
 8322SOL    HW225866   6.626   6.959   0.811
 8323SOL     OW25867   5.501   5.777   2.210
 8323SOL    HW125868   5.462   5.693   2.247
 8323SOL    HW225869   5.571   5.755   2.142
 8324SOL     OW25870   5.460   6.737   1.403
 8324SOL    HW125871   5.407   6.818   1.379
 8324SOL    HW225872   5.408   6.654   1.379
 8325SOL     OW25873   2.818   3.673   5.616
 8325SOL    HW125874   2.789   3.745   5.678
 8325SOL    HW225875   2.835   3.589   5.668
 8326SOL     OW25876   5.343   3.735   5.542
 8326SOL    HW125877   5.408   3.727   5.466
 8326SOL    HW225878   5.328   3.645   5.582
 8327SOL     OW25879   6.536   1.457   6.401
 8327SOL    HW125880   6.471   1.394   6.444
 8327SOL    HW225881   6.487   1.538   6.368
 8328SOL     OW25882   2.967   5.596   5.648
 8328SOL    HW125883   2.943   5.526   5.716
 8328SOL    HW225884   2.893   5.663   5.643
 8329SOL     OW25885   0.793   3.072   6.301
 8329SOL    HW125886   0.764   3.070   6.205
 8329SOL    HW225887   0.890   3.098   6.305
 8330SOL     OW25888   3.032   0.925   0.719
 8330SOL    HW125889   3.081   0.961   0.798
 8330SOL    HW225890   3.037   0.991   0.644
 8331SOL     OW25891   3.238   1.308   1.626
 8331SOL    HW125892   3.264   1.359   1.544
 8331SOL    HW225893   3.220   1.371   1.701
 8332SOL     OW25894   5.326   5.406   2.611
 8332SOL    HW125895   5.269   5.376   2.687
 8332SOL    HW225896   5.322   5.337   2.538
 8333SOL     OW25897   0.420   6.770   6.308
 8333SOL    HW125898   0.382   6.683   6.338
 8333SOL    HW225899   0.467   6.814   6.385
 8334SOL     OW25900   3.851   1.858   3.872
 8334SOL    HW125901   3.835   1.957   3.878
 8334SOL    HW225902   3.808   1.822   3.790
 8335SOL     OW25903   6.303   6.207   6.960
 8335SOL    HW125904   6.387   6.172   6.918
 8335SOL    HW225905   6.326   6.268   0.015
 8336SOL     OW25906   6.562   5.595   2.988
 8336SOL    HW125907   6.489   5.663   2.993
 8336SOL    HW225908   6.582   5.562   3.081
 8337SOL     OW25909   1.818   6.579   2.430
 8337SOL    HW125910   1.885   6.598   2.502
 8337SOL    HW225911   1.859   6.519   2.361
 8338SOL     OW25912   2.635   5.235   1.619
 8338SOL    HW125913   2.604   5.142   1.598
 8338SOL    HW225914   2.568   5.300   1.584
 8339SOL     OW25915   5.645   0.557   1.253
 8339SOL    HW125916   5.650   0.612   1.170
 8339SOL    HW225917   5.553   0.566   1.293
 8340SOL     OW25918   5.031   2.845   1.463
 8340SOL    HW125919   5.112   2.794   1.494
 8340SOL    HW225920   4.961   2.841   1.534
 8341SOL     OW25921   2.135   6.266   0.016
 8341SOL    HW125922   2.149   6.283   6.938
 8341SOL    HW225923   2.113   6.352   0.062
 8342SOL     OW25924   4.555   6.900   1.672
 8342SOL    HW125925   4.556   6.940   1.580
 8342SOL    HW225926   4.642   6.918   1.717
 8343SOL     OW25927   1.450   5.490   5.567
 8343SOL    HW125928   1.500   5.456   5.488
 8343SOL    HW225929   1.401   5.415   5.611
 8344SOL     OW25930   4.813   6.547   5.063
 8344SOL    HW125931   4.800   6.601   5.146
 8344SOL    HW225932   4.872   6.598   5.000
 8345SOL     OW25933   4.815   1.503   3.149
 8345SOL    HW125934   4.719   1.529   3.160
 8345SOL    HW225935   4.838   1.435   3.219
 8346SOL     OW25936   3.297   4.506   0.743
 8346SOL    HW125937   3.269   4.497   0.838
 8346SOL    HW225938   3.344   4.593   0.730
 8347SOL     OW25939   3.529   5.445   4.710
 8347SOL    HW125940   3.618   5.400   4.707
 8347SOL    HW225941   3.499   5.465   4.616
 8348SOL     OW25942   2.334   0.236   2.500
 8348SOL    HW125943   2.310   0.139   2.489
 8348SOL    HW225944   2.349   0.277   2.410
 8349SOL     OW25945   6.038   6.801   1.632
 8349SOL    HW125946   5.978   6.854   1.692
 8349SOL    HW225947   5.985   6.770   1.552
 8350SOL     OW25948   4.626   0.136   5.148
 8350SOL    HW125949   4.608   0.168   5.241
 8350SOL    HW225950   4.541   0.101   5.108
 8351SOL     OW25951   5.024   4.409   4.457
 8351SOL    HW125952   5.068   4.326   4.490
 8351SOL    HW225953   4.938   4.423   4.508
 8352SOL     OW25954   0.327   6.655   3.126
 8352SOL    HW125955   0.332   6.711   3.043
 8352SOL    HW225956   0.363   6.707   3.203
 8353SOL     OW25957   6.870   3.856   1.515
 8353SOL    HW125958   6.806   3.781   1.500
 8353SOL    HW225959   6.928   3.868   1.435
 8354SOL     OW25960   3.676   6.852   6.536
 8354SOL    HW125961   3.699   6.805   6.621
 8354SOL    HW225962   3.670   6.950   6.553
 8355SOL     OW25963   2.827   0.777   6.815
 8355SOL    HW125964   2.908   0.803   6.868
 8355SOL    HW225965   2.781   0.859   6.781
 8356SOL     OW25966   1.724   6.378   1.130
 8356SOL    HW125967   1.758   6.304   1.072
 8356SOL    HW225968   1.690   6.340   1.216
 8357SOL     OW25969   3.900   0.060   5.200
 8357SOL    HW125970   3.902   0.117   5.283
 8357SOL    HW225971   3.857   6.992   5.221
 8358SOL     OW25972   0.793   3.927   5.905
 8358SOL    HW125973   0.805   3.871   5.823
 8358SOL    HW225974   0.871   3.913   5.966
 8359SOL     OW25975   2.861   0.745   5.070
 8359SOL    HW125976   2.854   0.647   5.052
 8359SOL    HW225977   2.769   0.786   5.070
 8360SOL     OW25978   3.376   6.024   1.647
 8360SOL    HW125979   3.474   6.025   1.627
 8360SOL    HW225980   3.342   6.119   1.648
 8361SOL     OW25981   3.181   0.005   2.964
 8361SOL    HW125982   3.162   6.931   2.933
 8361SOL    HW225983   3.147   0.016   3.057
 8362SOL     OW25984   3.300   2.541   0.895
 8362SOL    HW125985   3.299   2.536   0.994
 8362SOL    HW225986   3.328   2.452   0.857
 8363SOL     OW25987   0.558   2.628   6.554
 8363SOL    HW125988   0.640   2.580   6.584
 8363SOL    HW225989   0.562   2.723   6.585
 8364SOL     OW25990   0.794   3.344   2.568
 8364SOL    HW125991   0.812   3.297   2.654
 8364SOL    HW225992   0.809   3.442   2.579
 8365SOL     OW25993   2.195   4.047   1.776
 8365SOL    HW125994   2.196   3.954   1.813
 8365SOL    HW225995   2.203   4.113   1.852
 8366SOL     OW25996   2.546   5.714   1.905
 8366SOL    HW125997   2.536   5.782   1.977
 8366SOL    HW225998   2.529   5.757   1.816
 8367SOL     OW25999   4.057   6.270   3.926
 8367SOL    HW126000   4.087   6.358   3.963
 8367SOL    HW226001   4.011   6.284   3.839
 8368SOL     OW26002   2.269   6.716   6.798
 8368SOL    HW126003   2.222   6.733   6.885
 8368SOL    HW226004   2.300   6.804   6.760
 8369SOL     OW26005   2.020   6.930   6.577
 8369SOL    HW126006   2.023   6.932   6.677
 8369SOL    HW226007   2.049   6.840   6.545
 8370SOL     OW26008   2.672   1.943   5.225
 8370SOL    HW126009   2.730   1.894   5.160
 8370SOL    HW226010   2.727   1.970   5.304
 8371SOL     OW26011   2.259   4.326   1.024
 8371SOL    HW126012   2.305   4.344   0.937
 8371SOL    HW226013   2.303   4.248   1.068
 8372SOL     OW26014   0.589   5.266   2.176
 8372SOL    HW126015   0.686   5.243   2.183
 8372SOL    HW226016   0.550   5.220   2.096
 8373SOL     OW26017   1.591   0.110   3.795
 8373SOL    HW126018   1.515   0.171   3.772
 8373SOL    HW226019   1.564   0.049   3.870
 8374SOL     OW26020   0.061   1.143   5.544
 8374SOL    HW126021   0.153   1.124   5.579
 8374SOL    HW226022   0.067   1.213   5.472
 8375SOL     OW26023   3.870   6.756   5.016
 8375SOL    HW126024   3.941   6.795   5.074
 8375SOL    HW226025   3.903   6.672   4.973
 8376SOL     OW26026   1.716   0.578   3.895
 8376SOL    HW126027   1.780   0.571   3.971
 8376SOL    HW226028   1.653   0.501   3.897
 8377SOL     OW26029   5.461   6.110   1.303
 8377SOL    HW126030   5.390   6.049   1.339
 8377SOL    HW226031   5.469   6.190   1.363
 8378SOL     OW26032   4.272   4.673   2.365
 8378SOL    HW126033   4.367   4.664   2.335
 8378SOL    HW226034   4.266   4.649   2.462
 8379SOL     OW26035   5.743   2.440   1.281
 8379SOL    HW126036   5.829   2.427   1.232
 8379SOL    HW226037   5.739   2.532   1.319
 8380SOL     OW26038   0.218   0.631   2.305
 8380SOL    HW126039   0.132   0.601   2.265
 8380SOL    HW226040   0.294   0.604   2.246
 8381SOL     OW26041   0.155   2.830   4.883
 8381SOL    HW126042   0.163   2.929   4.868
 8381SOL    HW226043   0.070   2.797   4.842
 8382SOL     OW26044   2.668   1.007   2.493
 8382SOL    HW126045   2.710   1.053   2.571
 8382SOL    HW226046   2.705   1.045   2.408
 8383SOL     OW26047   2.352   0.275   5.982
 8383SOL    HW126048   2.441   0.244   5.948
 8383SOL    HW226049   2.364   0.327   6.066
 8384SOL     OW26050   6.915   1.084   0.613
 8384SOL    HW126051   6.885   1.087   0.709
 8384SOL    HW226052   7.012   1.104   0.608
 8385SOL     OW26053   6.592   1.875   1.503
 8385SOL    HW126054   6.665   1.882   1.571
 8385SOL    HW226055   6.515   1.933   1.531
 8386SOL     OW26056   1.208   4.644   2.007
 8386SOL    HW126057   1.142   4.619   1.936
 8386SOL    HW226058   1.199   4.742   2.028
 8387SOL     OW26059   2.008   0.894   2.279
 8387SOL    HW126060   1.955   0.888   2.364
 8387SOL    HW226061   2.013   0.803   2.237
 8388SOL     OW26062   2.252   6.311   0.378
 8388SOL    HW126063   2.166   6.318   0.328
 8388SOL    HW226064   2.279   6.401   0.412
 8389SOL     OW26065   6.630   2.799   3.090
 8389SOL    HW126066   6.585   2.759   3.169
 8389SOL    HW226067   6.614   2.898   3.089
 8390SOL     OW26068   3.836   1.256   6.156
 8390SOL    HW126069   3.823   1.352   6.132
 8390SOL    HW226070   3.819   1.243   6.254
 8391SOL     OW26071   6.447   5.251   1.045
 8391SOL    HW126072   6.480   5.156   1.052
 8391SOL    HW226073   6.371   5.264   1.109
 8392SOL     OW26074   6.499   3.783   4.370
 8392SOL    HW126075   6.529   3.792   4.275
 8392SOL    HW226076   6.417   3.725   4.373
 8393SOL     OW26077   6.948   0.105   2.666
 8393SOL    HW126078   6.892   0.180   2.700
 8393SOL    HW226079   6.903   0.018   2.687
 8394SOL     OW26080   6.372   2.488   0.842
 8394SOL    HW126081   6.293   2.528   0.796
 8394SOL    HW226082   6.419   2.426   0.779
 8395SOL     OW26083   2.934   6.305   5.629
 8395SOL    HW126084   2.997   6.272   5.559
 8395SOL    HW226085   2.884   6.384   5.594
 8396SOL     OW26086   4.789   5.363   3.652
 8396SOL    HW126087   4.818   5.339   3.559
 8396SOL    HW226088   4.789   5.281   3.709
 8397SOL     OW26089   1.129   0.580   2.295
 8397SOL    HW126090   1.164   0.503   2.348
 8397SOL    HW226091   1.203   0.620   2.241
 8398SOL     OW26092   3.839   2.411   6.279
 8398SOL    HW126093   3.924   2.412   6.227
 8398SOL    HW226094   3.855   2.366   6.367
 8399SOL     OW26095   5.684   6.858   6.776
 8399SOL    HW126096   5.677   6.887   6.680
 8399SOL    HW226097   5.769   6.894   6.815
 8400SOL     OW26098   2.068   0.456   4.029
 8400SOL    HW126099   2.110   0.534   4.075
 8400SOL    HW226100   2.040   0.388   4.097
 8401SOL     OW26101   2.645   1.211   5.217
 8401SOL    HW126102   2.710   1.145   5.255
 8401SOL    HW226103   2.586   1.165   5.151
 8402SOL     OW26104   4.911   2.028   6.695
 8402SOL    HW126105   4.833   1.982   6.653
 8402SOL    HW226106   4.877   2.100   6.756
 8403SOL     OW26107   6.838   3.497   4.237
 8403SOL    HW126108   6.802   3.556   4.310
 8403SOL    HW226109   6.811   3.402   4.254
 8404SOL     OW26110   3.886   6.677   5.736
 8404SOL    HW126111   3.915   6.693   5.830
 8404SOL    HW226112   3.792   6.708   5.723
 8405SOL     OW26113   2.075   1.198   5.571
 8405SOL    HW126114   2.121   1.277   5.530
 8405SOL    HW226115   1.981   1.193   5.536
 8406SOL     OW26116   4.340   0.642   0.048
 8406SOL    HW126117   4.393   0.579   0.105
 8406SOL    HW226118   4.403   0.699   7.015
 8407SOL     OW26119   3.683   6.257   3.257
 8407SOL    HW126120   3.668   6.164   3.291
 8407SOL    HW226121   3.595   6.299   3.235
 8408SOL     OW26122   5.391   4.567   1.383
 8408SOL    HW126123   5.462   4.498   1.389
 8408SOL    HW226124   5.318   4.535   1.324
 8409SOL     OW26125   4.632   1.846   3.212
 8409SOL    HW126126   4.635   1.888   3.303
 8409SOL    HW226127   4.685   1.761   3.213
 8410SOL     OW26128   5.833   0.756   1.674
 8410SOL    HW126129   5.815   0.852   1.656
 8410SOL    HW226130   5.809   0.701   1.594
 8411SOL     OW26131   0.792   5.687   0.116
 8411SOL    HW126132   0.876   5.639   0.089
 8411SOL    HW226133   0.713   5.644   0.071
 8412SOL     OW26134   3.315   2.441   1.151
 8412SOL    HW126135   3.356   2.351   1.163
 8412SOL    HW226136   3.256   2.461   1.230
 8413SOL     OW26137   4.964   5.658   6.514
 8413SOL    HW126138   4.911   5.610   6.584
 8413SOL    HW226139   4.949   5.757   6.524
 8414SOL     OW26140   3.487   6.657   3.614
 8414SOL    HW126141   3.545   6.697   3.543
 8414SOL    HW226142   3.410   6.610   3.572
 8415SOL     OW26143   0.967   5.740   4.619
 8415SOL    HW126144   0.881   5.785   4.643
 8415SOL    HW226145   1.041   5.807   4.618
 8416SOL     OW26146   6.516   1.812   3.509
 8416SOL    HW126147   6.589   1.876   3.536
 8416SOL    HW226148   6.478   1.769   3.591
 8417SOL     OW26149   0.697   3.089   6.031
 8417SOL    HW126150   0.723   3.137   5.947
 8417SOL    HW226151   0.604   3.053   6.021
 8418SOL     OW26152   6.269   5.304   1.248
 8418SOL    HW126153   6.332   5.292   1.324
 8418SOL    HW226154   6.187   5.250   1.263
 8419SOL     OW26155   5.732   0.246   1.824
 8419SOL    HW126156   5.761   0.334   1.862
 8419SOL    HW226157   5.771   0.234   1.733
 8420SOL     OW26158   4.148   0.368   0.789
 8420SOL    HW126159   4.122   0.343   0.882
 8420SOL    HW226160   4.170   0.466   0.786
 8421SOL     OW26161   3.420   5.310   0.381
 8421SOL    HW126162   3.418   5.338   0.477
 8421SOL    HW226163   3.501   5.347   0.337
 8422SOL     OW26164   4.150   1.307   2.105
 8422SOL    HW126165   4.201   1.268   2.182
 8422SOL    HW226166   4.090   1.236   2.066
 8423SOL     OW26167   3.679   4.724   5.850
 8423SOL    HW126168   3.625   4.797   5.893
 8423SOL    HW226169   3.668   4.640   5.903
 8424SOL     OW26170   1.596   2.042   2.638
 8424SOL    HW126171   1.629   1.949   2.622
 8424SOL    HW226172   1.671   2.107   2.624
 8425SOL     OW26173   4.276   4.329   6.133
 8425SOL    HW126174   4.194   4.275   6.118
 8425SOL    HW226175   4.277   4.363   6.227
 8426SOL     OW26176   3.741   3.225   2.858
 8426SOL    HW126177   3.705   3.251   2.948
 8426SOL    HW226178   3.803   3.147   2.869
 8427SOL     OW26179   3.686   3.761   3.568
 8427SOL    HW126180   3.653   3.743   3.660
 8427SOL    HW226181   3.698   3.860   3.556
 8428SOL     OW26182   0.377   6.100   1.340
 8428SOL    HW126183   0.313   6.047   1.285
 8428SOL    HW226184   0.470   6.064   1.327
 8429SOL     OW26185   1.574   5.719   5.835
 8429SOL    HW126186   1.588   5.768   5.749
 8429SOL    HW226187   1.589   5.780   5.912
 8430SOL     OW26188   3.741   5.097   3.994
 8430SOL    HW126189   3.708   5.166   4.058
 8430SOL    HW226190   3.679   5.019   3.993
 8431SOL     OW26191   3.939   3.567   0.606
 8431SOL    HW126192   4.013   3.591   0.669
 8431SOL    HW226193   3.910   3.473   0.623
 8432SOL     OW26194   6.160   5.733   4.987
 8432SOL    HW126195   6.117   5.749   5.075
 8432SOL    HW226196   6.098   5.682   4.928
 8433SOL     OW26197   4.470   2.941   0.123
 8433SOL    HW126198   4.409   2.927   0.045
 8433SOL    HW226199   4.442   3.023   0.172
 8434SOL     OW26200   2.759   0.808   4.636
 8434SOL    HW126201   2.798   0.722   4.666
 8434SOL    HW226202   2.660   0.806   4.648
 8435SOL     OW26203   6.017   0.345   2.040
 8435SOL    HW126204   5.946   0.416   2.030
 8435SOL    HW226205   6.093   0.366   1.979
 8436SOL     OW26206   3.181   6.327   3.301
 8436SOL    HW126207   3.138   6.280   3.378
 8436SOL    HW226208   3.229   6.260   3.243
 8437SOL     OW26209   1.961   1.494   3.832
 8437SOL    HW126210   2.010   1.579   3.856
 8437SOL    HW226211   1.913   1.507   3.745
 8438SOL     OW26212   2.146   4.163   3.071
 8438SOL    HW126213   2.241   4.162   3.041
 8438SOL    HW226214   2.086   4.148   2.993
 8439SOL     OW26215   5.916   4.772   2.601
 8439SOL    HW126216   6.003   4.746   2.642
 8439SOL    HW226217   5.905   4.722   2.515
 8440SOL     OW26218   3.080   1.581   3.665
 8440SOL    HW126219   3.116   1.671   3.639
 8440SOL    HW226220   3.000   1.561   3.608
 8441SOL     OW26221   5.724   6.747   0.453
 8441SOL    HW126222   5.696   6.831   0.407
 8441SOL    HW226223   5.740   6.676   0.384
 8442SOL     OW26224   3.822   2.173   5.550
 8442SOL    HW126225   3.808   2.098   5.485
 8442SOL    HW226226   3.886   2.239   5.510
 8443SOL     OW26227   2.527   4.586   3.806
 8443SOL    HW126228   2.517   4.521   3.881
 8443SOL    HW226229   2.470   4.557   3.729
 8444SOL     OW26230   2.848   6.343   4.074
 8444SOL    HW126231   2.896   6.255   4.074
 8444SOL    HW226232   2.832   6.371   4.169
 8445SOL     OW26233   2.778   0.744   1.155
 8445SOL    HW126234   2.871   0.746   1.118
 8445SOL    HW226235   2.768   0.663   1.214
 8446SOL     OW26236   5.776   5.495   5.877
 8446SOL    HW126237   5.749   5.550   5.956
 8446SOL    HW226238   5.875   5.503   5.864
 8447SOL     OW26239   4.345   1.458   1.921
 8447SOL    HW126240   4.272   1.425   1.981
 8447SOL    HW226241   4.385   1.381   1.871
 8448SOL     OW26242   4.108   5.979   3.941
 8448SOL    HW126243   4.071   6.064   3.903
 8448SOL    HW226244   4.033   5.926   3.980
 8449SOL     OW26245   0.168   3.654   3.657
 8449SOL    HW126246   0.201   3.701   3.738
 8449SOL    HW226247   0.238   3.591   3.624
 8450SOL     OW26248   0.957   0.748   1.427
 8450SOL    HW126249   0.953   0.786   1.335
 8450SOL    HW226250   0.882   0.786   1.482
 8451SOL     OW26251   3.225   1.719   0.121
 8451SOL    HW126252   3.179   1.794   0.169
 8451SOL    HW226253   3.221   1.734   0.023
 8452SOL     OW26254   6.353   2.857   3.717
 8452SOL    HW126255   6.264   2.814   3.727
 8452SOL    HW226256   6.358   2.937   3.777
 8453SOL     OW26257   0.381   4.985   0.244
 8453SOL    HW126258   0.428   4.984   0.332
 8453SOL    HW226259   0.289   5.022   0.255
 8454SOL     OW26260   0.094   5.554   1.398
 8454SOL    HW126261   0.122   5.491   1.470
 8454SOL    HW226262   0.044   5.630   1.438
 8455SOL     OW26263   0.136   1.674   1.916
 8455SOL    HW126264   0.068   1.741   1.944
 8455SOL    HW226265   0.228   1.711   1.932
 8456SOL     OW26266   4.776   6.817   3.297
 8456SOL    HW126267   4.803   6.801   3.203
 8456SOL    HW226268   4.747   6.913   3.308
 8457SOL     OW26269   0.352   6.683   4.304
 8457SOL    HW126270   0.288   6.709   4.231
 8457SOL    HW226271   0.306   6.689   4.392
 8458SOL     OW26272   2.592   0.867   0.241
 8458SOL    HW126273   2.685   0.892   0.212
 8458SOL    HW226274   2.534   0.854   0.161
 8459SOL     OW26275   2.762   5.884   2.232
 8459SOL    HW126276   2.742   5.820   2.307
 8459SOL    HW226277   2.676   5.913   2.191
 8460SOL     OW26278   4.609   4.209   5.222
 8460SOL    HW126279   4.622   4.206   5.321
 8460SOL    HW226280   4.666   4.139   5.178
 8461SOL     OW26281   0.860   3.069   4.656
 8461SOL    HW126282   0.844   3.035   4.564
 8461SOL    HW226283   0.821   3.161   4.665
 8462SOL     OW26284   1.955   2.915   6.510
 8462SOL    HW126285   1.933   2.964   6.425
 8462SOL    HW226286   2.014   2.972   6.567
 8463SOL     OW26287   6.988   0.539   1.828
 8463SOL    HW126288   7.016   0.633   1.849
 8463SOL    HW226289   0.028   0.475   1.877
 8464SOL     OW26290   5.515   4.342   4.455
 8464SOL    HW126291   5.533   4.287   4.537
 8464SOL    HW226292   5.594   4.400   4.436
 8465SOL     OW26293   0.641   3.083   0.706
 8465SOL    HW126294   0.709   3.155   0.694
 8465SOL    HW226295   0.672   2.999   0.663
 8466SOL     OW26296   0.644   6.637   4.534
 8466SOL    HW126297   0.552   6.600   4.518
 8466SOL    HW226298   0.636   6.726   4.579
 8467SOL     OW26299   3.137   6.206   0.646
 8467SOL    HW126300   3.215   6.192   0.585
 8467SOL    HW226301   3.140   6.298   0.684
 8468SOL     OW26302   3.134   1.492   0.423
 8468SOL    HW126303   3.113   1.590   0.426
 8468SOL    HW226304   3.109   1.456   0.333
 8469SOL     OW26305   3.601   2.650   6.953
 8469SOL    HW126306   3.646   2.718   7.012
 8469SOL    HW226307   3.503   2.665   6.954
 8470SOL     OW26308   1.426   3.415   0.453
 8470SOL    HW126309   1.385   3.434   0.364
 8470SOL    HW226310   1.497   3.345   0.444
 8471SOL     OW26311   2.798   1.738   2.561
 8471SOL    HW126312   2.772   1.825   2.518
 8471SOL    HW226313   2.858   1.757   2.639
 8472SOL     OW26314   0.618   0.402   4.456
 8472SOL    HW126315   0.579   0.415   4.365
 8472SOL    HW226316   0.691   0.333   4.451
 8473SOL     OW26317   5.946   4.881   6.717
 8473SOL    HW126318   6.026   4.875   6.657
 8473SOL    HW226319   5.977   4.884   6.812
 8474SOL     OW26320   3.537   3.113   2.087
 8474SOL    HW126321   3.471   3.151   2.152
 8474SOL    HW226322   3.541   3.014   2.097
 8475SOL     OW26323   0.546   1.707   3.222
 8475SOL    HW126324   0.527   1.707   3.124
 8475SOL    HW226325   0.571   1.615   3.252
 8476SOL     OW26326   6.474   0.984   1.442
 8476SOL    HW126327   6.553   1.028   1.486
 8476SOL    HW226328   6.451   0.900   1.491
 8477SOL     OW26329   3.993   6.825   2.256
 8477SOL    HW126330   4.068   6.872   2.302
 8477SOL    HW226331   4.030   6.756   2.194
 8478SOL     OW26332   1.089   0.798   6.012
 8478SOL    HW126333   1.078   0.897   6.001
 8478SOL    HW226334   1.068   0.772   6.106
 8479SOL     OW26335   6.104   2.752   0.980
 8479SOL    HW126336   6.181   2.806   0.947
 8479SOL    HW226337   6.098   2.666   0.928
 8480SOL     OW26338   3.548   0.911   0.265
 8480SOL    HW126339   3.637   0.955   0.278
 8480SOL    HW226340   3.501   0.907   0.353
 8481SOL     OW26341   4.531   1.740   3.965
 8481SOL    HW126342   4.580   1.825   3.944
 8481SOL    HW226343   4.577   1.664   3.920
 8482SOL     OW26344   3.365   6.805   3.339
 8482SOL    HW126345   3.374   6.711   3.374
 8482SOL    HW226346   3.280   6.814   3.288
 8483SOL     OW26347   4.076   5.522   2.193
 8483SOL    HW126348   4.022   5.475   2.262
 8483SOL    HW226349   4.041   5.500   2.102
 8484SOL     OW26350   0.662   5.565   3.045
 8484SOL    HW126351   0.662   5.470   3.074
 8484SOL    HW226352   0.568   5.600   3.046
 8485SOL     OW26353   3.004   3.736   6.692
 8485SOL    HW126354   2.917   3.756   6.647
 8485SOL    HW226355   3.060   3.819   6.693
 8486SOL     OW26356   4.917   1.230   2.696
 8486SOL    HW126357   4.880   1.279   2.775
 8486SOL    HW226358   4.993   1.281   2.657
 8487SOL     OW26359   5.617   0.537   0.302
 8487SOL    HW126360   5.602   0.444   0.269
 8487SOL    HW226361   5.551   0.559   0.373
 8488SOL     OW26362   5.783   4.696   4.890
 8488SOL    HW126363   5.843   4.665   4.964
 8488SOL    HW226364   5.688   4.669   4.911
 8489SOL     OW26365   6.095   0.532   1.300
 8489SOL    HW126366   6.171   0.498   1.356
 8489SOL    HW226367   6.012   0.537   1.356
 8490SOL     OW26368   3.938   6.628   4.205
 8490SOL    HW126369   3.919   6.692   4.130
 8490SOL    HW226370   3.994   6.673   4.274
 8491SOL     OW26371   2.115   0.354   1.690
 8491SOL    HW126372   2.178   0.329   1.617
 8491SOL    HW226373   2.035   0.400   1.651
 8492SOL     OW26374   4.201   4.150   6.984
 8492SOL    HW126375   4.211   4.148   0.064
 8492SOL    HW226376   4.235   4.238   6.950
 8493SOL     OW26377   2.688   2.206   6.271
 8493SOL    HW126378   2.660   2.300   6.286
 8493SOL    HW226379   2.778   2.205   6.228
 8494SOL     OW26380   2.589   4.933   0.585
 8494SOL    HW126381   2.627   4.865   0.647
 8494SOL    HW226382   2.651   5.012   0.580
 8495SOL     OW26383   6.640   3.731   0.266
 8495SOL    HW126384   6.674   3.677   0.189
 8495SOL    HW226385   6.546   3.760   0.248
 8496SOL     OW26386   0.698   2.236   1.395
 8496SOL    HW126387   0.685   2.142   1.363
 8496SOL    HW226388   0.710   2.235   1.495
 8497SOL     OW26389   6.427   0.566   4.077
 8497SOL    HW126390   6.417   0.507   4.158
 8497SOL    HW226391   6.463   0.512   4.001
 8498SOL     OW26392   0.122   6.256   2.704
 8498SOL    HW126393   0.075   6.178   2.745
 8498SOL    HW226394   0.221   6.243   2.711
 8499SOL     OW26395   2.555   5.501   6.833
 8499SOL    HW126396   2.606   5.417   6.814
 8499SOL    HW226397   2.471   5.479   6.881
 8500SOL     OW26398   1.895   0.449   6.038
 8500SOL    HW126399   1.940   0.368   6.000
 8500SOL    HW226400   1.819   0.475   5.979
 8501SOL     OW26401   0.554   2.821   0.896
 8501SOL    HW126402   0.565   2.853   0.802
 8501SOL    HW226403   0.469   2.770   0.904
 8502SOL     OW26404   2.082   4.977   1.351
 8502SOL    HW126405   1.983   4.962   1.357
 8502SOL    HW226406   2.129   4.916   1.414
 8503SOL     OW26407   1.075   6.175   3.252
 8503SOL    HW126408   1.119   6.140   3.169
 8503SOL    HW226409   1.128   6.146   3.332
 8504SOL     OW26410   1.747   5.830   3.614
 8504SOL    HW126411   1.738   5.739   3.655
 8504SOL    HW226412   1.757   5.898   3.686
 8505SOL     OW26413   4.831   3.906   3.900
 8505SOL    HW126414   4.774   3.988   3.909
 8505SOL    HW226415   4.833   3.857   3.988
 8506SOL     OW26416   6.257   1.528   0.443
 8506SOL    HW126417   6.249   1.453   0.377
 8506SOL    HW226418   6.199   1.509   0.523
 8507SOL     OW26419   3.045   1.028   5.586
 8507SOL    HW126420   3.015   1.092   5.515
 8507SOL    HW226421   3.106   0.959   5.546
 8508SOL     OW26422   6.705   2.471   5.113
 8508SOL    HW126423   6.664   2.391   5.070
 8508SOL    HW226424   6.748   2.444   5.199
 8509SOL     OW26425   5.118   1.686   3.561
 8509SOL    HW126426   5.084   1.592   3.573
 8509SOL    HW226427   5.192   1.686   3.493
 8510SOL     OW26428   5.542   4.636   3.116
 8510SOL    HW126429   5.471   4.707   3.119
 8510SOL    HW226430   5.501   4.547   3.134
 8511SOL     OW26431   5.778   3.662   1.742
 8511SOL    HW126432   5.698   3.607   1.763
 8511SOL    HW226433   5.850   3.604   1.705
 8512SOL     OW26434   2.856   2.412   1.005
 8512SOL    HW126435   2.904   2.471   1.069
 8512SOL    HW226436   2.896   2.320   1.009
 8513SOL     OW26437   4.950   3.749   1.182
 8513SOL    HW126438   4.852   3.770   1.176
 8513SOL    HW226439   4.968   3.694   1.263
 8514SOL     OW26440   2.662   1.969   4.030
 8514SOL    HW126441   2.593   1.967   3.957
 8514SOL    HW226442   2.662   2.060   4.073
 8515SOL     OW26443   6.070   1.302   6.690
 8515SOL    HW126444   6.010   1.327   6.613
 8515SOL    HW226445   6.044   1.356   6.770
 8516SOL     OW26446   6.553   2.236   1.329
 8516SOL    HW126447   6.467   2.279   1.356
 8516SOL    HW226448   6.538   2.179   1.248
 8517SOL     OW26449   1.358   2.908   6.060
 8517SOL    HW126450   1.430   2.867   6.003
 8517SOL    HW226451   1.343   3.002   6.032
 8518SOL     OW26452   4.895   4.194   6.350
 8518SOL    HW126453   4.970   4.154   6.403
 8518SOL    HW226454   4.845   4.259   6.407
 8519SOL     OW26455   1.562   4.980   1.320
 8519SOL    HW126456   1.497   5.013   1.389
 8519SOL    HW226457   1.655   5.004   1.347
 8520SOL     OW26458   3.513   3.184   6.819
 8520SOL    HW126459   3.559   3.241   6.751
 8520SOL    HW226460   3.414   3.196   6.811
 8521SOL     OW26461   2.221   4.631   5.560
 8521SOL    HW126462   2.174   4.552   5.520
 8521SOL    HW226463   2.297   4.600   5.617
 8522SOL     OW26464   1.798   6.825   1.394
 8522SOL    HW126465   1.883   6.774   1.377
 8522SOL    HW226466   1.763   6.800   1.485
 8523SOL     OW26467   1.766   6.326   0.089
 8523SOL    HW126468   1.675   6.285   0.085
 8523SOL    HW226469   1.760   6.423   0.064
 8524SOL     OW26470   0.567   2.768   5.418
 8524SOL    HW126471   0.536   2.829   5.346
 8524SOL    HW226472   0.651   2.723   5.390
 8525SOL     OW26473   6.392   4.462   1.739
 8525SOL    HW126474   6.308   4.448   1.792
 8525SOL    HW226475   6.387   4.411   1.654
 8526SOL     OW26476   4.083   6.292   0.340
 8526SOL    HW126477   4.140   6.336   0.409
 8526SOL    HW226478   4.087   6.192   0.351
 8527SOL     OW26479   2.995   1.029   6.870
 8527SOL    HW126480   3.052   1.110   6.883
 8527SOL    HW226481   3.046   0.947   6.895
 8528SOL     OW26482   4.213   0.947   6.823
 8528SOL    HW126483   4.115   0.961   6.839
 8528SOL    HW226484   4.225   0.872   6.757
 8529SOL     OW26485   1.313   0.077   0.656
 8529SOL    HW126486   1.381   0.033   0.716
 8529SOL    HW226487   1.225   0.031   0.665
 8530SOL     OW26488   4.013   4.219   5.316
 8530SOL    HW126489   3.924   4.232   5.359
 8530SOL    HW226490   4.041   4.123   5.323
 8531SOL     OW26491   6.678   4.654   2.278
 8531SOL    HW126492   6.623   4.611   2.350
 8531SOL    HW226493   6.623   4.725   2.233
 8532SOL     OW26494   4.334   5.355   4.565
 8532SOL    HW126495   4.368   5.303   4.643
 8532SOL    HW226496   4.276   5.296   4.508
 8533SOL     OW26497   1.926   6.094   0.043
 8533SOL    HW126498   2.011   6.142   0.023
 8533SOL    HW226499   1.853   6.160   0.062
 8534SOL     OW26500   5.975   2.283   4.473
 8534SOL    HW126501   5.894   2.331   4.507
 8534SOL    HW226502   6.004   2.323   4.387
 8535SOL     OW26503   6.839   1.074   3.198
 8535SOL    HW126504   6.748   1.112   3.181
 8535SOL    HW226505   6.838   0.975   3.179
 8536SOL     OW26506   6.914   1.877   4.848
 8536SOL    HW126507   6.958   1.927   4.773
 8536SOL    HW226508   6.838   1.824   4.812
 8537SOL     OW26509   5.250   0.813   3.266
 8537SOL    HW126510   5.292   0.736   3.314
 8537SOL    HW226511   5.152   0.816   3.285
 8538SOL     OW26512   1.298   1.045   0.311
 8538SOL    HW126513   1.238   1.113   0.270
 8538SOL    HW226514   1.340   0.990   0.240
 8539SOL     OW26515   6.311   0.939   2.626
 8539SOL    HW126516   6.213   0.956   2.628
 8539SOL    HW226517   6.338   0.910   2.534
 8540SOL     OW26518   5.518   0.459   6.268
 8540SOL    HW126519   5.476   0.539   6.311
 8540SOL    HW226520   5.449   0.388   6.254
 8541SOL     OW26521   2.711   2.014   3.703
 8541SOL    HW126522   2.657   2.090   3.739
 8541SOL    HW226523   2.776   2.048   3.635
 8542SOL     OW26524   4.501   4.659   6.437
 8542SOL    HW126525   4.411   4.617   6.421
 8542SOL    HW226526   4.513   4.736   6.375
 8543SOL     OW26527   2.581   1.745   1.349
 8543SOL    HW126528   2.631   1.660   1.359
 8543SOL    HW226529   2.509   1.751   1.418
 8544SOL     OW26530   5.129   3.450   4.053
 8544SOL    HW126531   5.131   3.351   4.066
 8544SOL    HW226532   5.203   3.477   3.991
 8545SOL     OW26533   4.098   6.862   5.116
 8545SOL    HW126534   4.177   6.802   5.125
 8545SOL    HW226535   4.126   6.948   5.074
 8546SOL     OW26536   5.752   1.707   4.482
 8546SOL    HW126537   5.780   1.644   4.410
 8546SOL    HW226538   5.763   1.801   4.450
 8547SOL     OW26539   1.346   6.498   5.760
 8547SOL    HW126540   1.299   6.446   5.690
 8547SOL    HW226541   1.382   6.436   5.830
 8548SOL     OW26542   6.074   2.775   6.113
 8548SOL    HW126543   6.044   2.869   6.130
 8548SOL    HW226544   6.165   2.776   6.073
 8549SOL     OW26545   1.168   2.830   3.996
 8549SOL    HW126546   1.265   2.806   4.002
 8549SOL    HW226547   1.115   2.749   3.973
 8550SOL     OW26548   1.954   4.786   0.353
 8550SOL    HW126549   1.957   4.858   0.422
 8550SOL    HW226550   2.023   4.717   0.374
 8551SOL     OW26551   3.580   4.275   5.864
 8551SOL    HW126552   3.503   4.275   5.800
 8551SOL    HW226553   3.665   4.258   5.813
 8552SOL     OW26554   2.317   6.828   3.538
 8552SOL    HW126555   2.382   6.766   3.582
 8552SOL    HW226556   2.363   6.913   3.514
 8553SOL     OW26557   5.101   4.428   6.547
 8553SOL    HW126558   5.185   4.435   6.601
 8553SOL    HW226559   5.022   4.432   6.608
 8554SOL     OW26560   0.510   4.970   0.483
 8554SOL    HW126561   0.606   4.992   0.464
 8554SOL    HW226562   0.505   4.903   0.557
 8555SOL     OW26563   1.372   0.218   2.247
 8555SOL    HW126564   1.426   0.299   2.225
 8555SOL    HW226565   1.429   0.152   2.296
 8556SOL     OW26566   0.823   6.509   4.810
 8556SOL    HW126567   0.842   6.532   4.905
 8556SOL    HW226568   0.768   6.425   4.806
 8557SOL     OW26569   5.923   0.569   2.863
 8557SOL    HW126570   6.002   0.600   2.915
 8557SOL    HW226571   5.951   0.498   2.799
 8558SOL     OW26572   2.757   5.784   3.197
 8558SOL    HW126573   2.797   5.757   3.285
 8558SOL    HW226574   2.782   5.716   3.127
 8559SOL     OW26575   6.776   0.719   2.213
 8559SOL    HW126576   6.806   0.811   2.188
 8559SOL    HW226577   6.857   0.662   2.231
 8560SOL     OW26578   0.191   6.033   2.106
 8560SOL    HW126579   0.142   5.946   2.095
 8560SOL    HW226580   0.125   6.108   2.106
 8561SOL     OW26581   3.799   0.086   2.319
 8561SOL    HW126582   3.701   0.070   2.334
 8561SOL    HW226583   3.812   0.138   2.234
 8562SOL     OW26584   4.767   6.282   5.079
 8562SOL    HW126585   4.804   6.374   5.068
 8562SOL    HW226586   4.692   6.267   5.015
 8563SOL     OW26587   2.747   4.598   0.229
 8563SOL    HW126588   2.662   4.621   0.182
 8563SOL    HW226589   2.727   4.567   0.322
 8564SOL     OW26590   3.036   1.054   3.774
 8564SOL    HW126591   3.059   1.143   3.735
 8564SOL    HW226592   3.001   0.994   3.701
 8565SOL     OW26593   4.450   6.139   1.521
 8565SOL    HW126594   4.433   6.108   1.615
 8565SOL    HW226595   4.417   6.070   1.456
 8566SOL     OW26596   1.130   0.347   1.471
 8566SOL    HW126597   1.079   0.432   1.485
 8566SOL    HW226598   1.180   0.323   1.554
 8567SOL     OW26599   6.418   1.208   2.629
 8567SOL    HW126600   6.391   1.112   2.642
 8567SOL    HW226601   6.499   1.212   2.571
 8568SOL     OW26602   5.395   1.243   6.021
 8568SOL    HW126603   5.458   1.230   5.945
 8568SOL    HW226604   5.311   1.191   6.003
 8569SOL     OW26605   5.110   1.712   5.364
 8569SOL    HW126606   5.026   1.668   5.332
 8569SOL    HW226607   5.109   1.718   5.464
 8570SOL     OW26608   1.276   2.387   5.171
 8570SOL    HW126609   1.347   2.394   5.102
 8570SOL    HW226610   1.203   2.326   5.138
 8571SOL     OW26611   1.035   5.248   5.805
 8571SOL    HW126612   1.052   5.344   5.781
 8571SOL    HW226613   0.999   5.243   5.898
 8572SOL     OW26614   3.221   5.106   6.193
 8572SOL    HW126615   3.132   5.142   6.221
 8572SOL    HW226616   3.271   5.073   6.273
 8573SOL     OW26617   3.430   0.083   6.272
 8573SOL    HW126618   3.349   0.140   6.284
 8573SOL    HW226619   3.434   0.014   6.344
 8574SOL     OW26620   0.206   6.234   5.942
 8574SOL    HW126621   0.221   6.218   5.844
 8574SOL    HW226622   0.162   6.155   5.983
 8575SOL     OW26623   3.098   2.782   5.925
 8575SOL    HW126624   3.101   2.786   6.025
 8575SOL    HW226625   3.153   2.857   5.888
 8576SOL     OW26626   1.123   6.176   0.277
 8576SOL    HW126627   1.042   6.153   0.331
 8576SOL    HW226628   1.162   6.262   0.310
 8577SOL     OW26629   0.135   5.775   4.351
 8577SOL    HW126630   0.051   5.824   4.371
 8577SOL    HW226631   0.190   5.828   4.286
 8578SOL     OW26632   5.156   0.458   4.509
 8578SOL    HW126633   5.247   0.420   4.493
 8578SOL    HW226634   5.164   0.554   4.537
 8579SOL     OW26635   1.417   0.004   3.312
 8579SOL    HW126636   1.502   6.971   3.318
 8579SOL    HW226637   1.355   6.977   3.248
 8580SOL     OW26638   1.984   6.841   2.268
 8580SOL    HW126639   1.949   6.917   2.323
 8580SOL    HW226640   1.966   6.755   2.315
 8581SOL     OW26641   3.228   3.259   1.795
 8581SOL    HW126642   3.191   3.334   1.739
 8581SOL    HW226643   3.179   3.256   1.882
 8582SOL     OW26644   4.133   4.798   2.145
 8582SOL    HW126645   4.033   4.797   2.146
 8582SOL    HW226646   4.167   4.763   2.232
 8583SOL     OW26647   5.718   0.759   5.606
 8583SOL    HW126648   5.680   0.704   5.532
 8583SOL    HW226649   5.654   0.833   5.630
 8584SOL     OW26650   0.207   3.655   5.977
 8584SOL    HW126651   0.249   3.725   5.919
 8584SOL    HW226652   0.108   3.670   5.979
 8585SOL     OW26653   0.538   6.199   5.607
 8585SOL    HW126654   0.616   6.251   5.641
 8585SOL    HW226655   0.514   6.230   5.514
 8586SOL     OW26656   3.059   6.986   3.459
 8586SOL    HW126657   2.998   0.011   3.526
 8586SOL    HW226658   3.082   6.895   3.491
 8587SOL     OW26659   1.794   6.964   3.033
 8587SOL    HW126660   1.814   0.040   3.056
 8587SOL    HW226661   1.705   6.938   3.070
 8588SOL     OW26662   2.516   0.518   6.997
 8588SOL    HW126663   2.440   0.489   6.938
 8588SOL    HW226664   2.508   0.474   0.067
 8589SOL     OW26665   5.103   2.939   3.879
 8589SOL    HW126666   5.129   2.956   3.784
 8589SOL    HW226667   5.005   2.960   3.890
 8590SOL     OW26668   6.624   6.535   3.998
 8590SOL    HW126669   6.676   6.591   3.933
 8590SOL    HW226670   6.627   6.439   3.969
 8591SOL     OW26671   0.969   4.554   6.564
 8591SOL    HW126672   0.978   4.644   6.522
 8591SOL    HW226673   1.060   4.512   6.571
 8592SOL     OW26674   7.003   3.402   6.963
 8592SOL    HW126675   6.980   3.449   0.029
 8592SOL    HW226676   6.920   3.381   6.913
 8593SOL     OW26677   1.635   0.378   1.883
 8593SOL    HW126678   1.538   0.362   1.863
 8593SOL    HW226679   1.650   0.475   1.902
 8594SOL     OW26680   3.978   3.155   4.892
 8594SOL    HW126681   3.961   3.108   4.806
 8594SOL    HW226682   3.935   3.246   4.889
 8595SOL     OW26683   1.879   1.746   3.293
 8595SOL    HW126684   1.912   1.777   3.382
 8595SOL    HW226685   1.905   1.650   3.280
 8596SOL     OW26686   6.417   5.385   3.262
 8596SOL    HW126687   6.365   5.446   3.202
 8596SOL    HW226688   6.359   5.355   3.338
 8597SOL     OW26689   4.432   1.381   1.080
 8597SOL    HW126690   4.379   1.300   1.104
 8597SOL    HW226691   4.391   1.424   0.999
 8598SOL     OW26692   0.045   5.585   1.025
 8598SOL    HW126693   6.971   5.570   0.994
 8598SOL    HW226694   0.075   5.508   1.080
 8599SOL     OW26695   0.799   2.363   3.590
 8599SOL    HW126696   0.743   2.347   3.672
 8599SOL    HW226697   0.742   2.351   3.508
 8600SOL     OW26698   5.140   5.112   6.075
 8600SOL    HW126699   5.149   5.058   6.158
 8600SOL    HW226700   5.057   5.168   6.080
 8601SOL     OW26701   1.141   0.719   5.270
 8601SOL    HW126702   1.047   0.692   5.292
 8601SOL    HW226703   1.144   0.756   5.178
 8602SOL     OW26704   3.138   5.694   3.451
 8602SOL    HW126705   3.168   5.697   3.355
 8602SOL    HW226706   3.150   5.602   3.487
 8603SOL     OW26707   3.795   5.551   0.657
 8603SOL    HW126708   3.831   5.462   0.630
 8603SOL    HW226709   3.731   5.539   0.733
 8604SOL     OW26710   0.295   3.171   3.696
 8604SOL    HW126711   0.284   3.124   3.784
 8604SOL    HW226712   0.359   3.247   3.707
 8605SOL     OW26713   3.210   4.892   4.338
 8605SOL    HW126714   3.288   4.833   4.317
 8605SOL    HW226715   3.135   4.836   4.373
 8606SOL     OW26716   1.899   4.765   6.153
 8606SOL    HW126717   1.829   4.807   6.097
 8606SOL    HW226718   1.932   4.681   6.109
 8607SOL     OW26719   3.482   5.957   0.508
 8607SOL    HW126720   3.401   5.908   0.474
 8607SOL    HW226721   3.554   5.891   0.528
 8608SOL     OW26722   4.590   5.253   3.093
 8608SOL    HW126723   4.529   5.258   3.172
 8608SOL    HW226724   4.644   5.338   3.088
 8609SOL     OW26725   4.925   0.932   3.593
 8609SOL    HW126726   4.872   0.949   3.676
 8609SOL    HW226727   4.997   0.866   3.613
 8610SOL     OW26728   1.228   1.260   2.521
 8610SOL    HW126729   1.173   1.297   2.446
 8610SOL    HW226730   1.317   1.306   2.523
 8611SOL     OW26731   1.995   1.958   4.219
 8611SOL    HW126732   2.056   2.034   4.200
 8611SOL    HW226733   1.976   1.908   4.135
 8612SOL     OW26734   3.039   3.139   0.404
 8612SOL    HW126735   3.061   3.064   0.342
 8612SOL    HW226736   2.968   3.110   0.468
 8613SOL     OW26737   2.260   2.008   1.626
 8613SOL    HW126738   2.207   1.929   1.658
 8613SOL    HW226739   2.295   1.989   1.535
 8614SOL     OW26740   0.398   3.578   2.900
 8614SOL    HW126741   0.312   3.596   2.949
 8614SOL    HW226742   0.396   3.487   2.860
 8615SOL     OW26743   5.132   1.961   5.211
 8615SOL    HW126744   5.042   1.988   5.246
 8615SOL    HW226745   5.165   1.882   5.261
 8616SOL     OW26746   2.440   5.254   1.343
 8616SOL    HW126747   2.512   5.186   1.335
 8616SOL    HW226748   2.397   5.248   1.433
 8617SOL     OW26749   6.724   0.922   6.808
 8617SOL    HW126750   6.632   0.946   6.776
 8617SOL    HW226751   6.782   0.902   6.730
 8618SOL     OW26752   6.115   6.477   1.252
 8618SOL    HW126753   6.192   6.518   1.204
 8618SOL    HW226754   6.149   6.408   1.317
 8619SOL     OW26755   3.441   5.145   2.187
 8619SOL    HW126756   3.479   5.107   2.102
 8619SOL    HW226757   3.365   5.088   2.217
 8620SOL     OW26758   0.582   6.995   3.294
 8620SOL    HW126759   0.554   0.065   3.258
 8620SOL    HW226760   0.592   7.001   3.393
 8621SOL     OW26761   5.965   1.715   2.988
 8621SOL    HW126762   6.020   1.769   2.924
 8621SOL    HW226763   6.009   1.627   3.004
 8622SOL     OW26764   5.112   4.204   0.192
 8622SOL    HW126765   5.131   4.223   0.288
 8622SOL    HW226766   5.019   4.233   0.170
 8623SOL     OW26767   1.263   3.970   3.098
 8623SOL    HW126768   1.303   3.978   3.006
 8623SOL    HW226769   1.196   3.896   3.098
 8624SOL     OW26770   1.687   3.887   3.840
 8624SOL    HW126771   1.594   3.922   3.823
 8624SOL    HW226772   1.686   3.787   3.836
 8625SOL     OW26773   5.072   6.707   5.025
 8625SOL    HW126774   5.089   6.618   4.982
 8625SOL    HW226775   5.158   6.758   5.030
 8626SOL     OW26776   3.710   2.923   4.946
 8626SOL    HW126777   3.749   2.898   4.858
 8626SOL    HW226778   3.783   2.959   5.006
 8627SOL     OW26779   0.320   0.789   3.832
 8627SOL    HW126780   0.334   0.887   3.814
 8627SOL    HW226781   0.257   0.752   3.764
 8628SOL     OW26782   5.789   0.091   1.425
 8628SOL    HW126783   5.878   0.065   1.387
 8628SOL    HW226784   5.746   0.011   1.468
 8629SOL     OW26785   1.244   5.021   5.328
 8629SOL    HW126786   1.285   5.067   5.249
 8629SOL    HW226787   1.310   5.016   5.402
 8630SOL     OW26788   5.712   4.519   4.414
 8630SOL    HW126789   5.768   4.523   4.497
 8630SOL    HW226790   5.697   4.611   4.380
 8631SOL     OW26791   3.044   5.811   6.337
 8631SOL    HW126792   2.949   5.820   6.367
 8631SOL    HW226793   3.092   5.747   6.397
 8632SOL     OW26794   3.066   6.753   4.178
 8632SOL    HW126795   2.977   6.793   4.200
 8632SOL    HW226796   3.111   6.724   4.263
 8633SOL     OW26797   5.159   1.561   4.693
 8633SOL    HW126798   5.150   1.503   4.773
 8633SOL    HW226799   5.246   1.542   4.647
 8634SOL     OW26800   5.600   3.169   0.571
 8634SOL    HW126801   5.518   3.224   0.557
 8634SOL    HW226802   5.672   3.226   0.610
 8635SOL     OW26803   5.984   4.304   6.598
 8635SOL    HW126804   6.021   4.316   6.690
 8635SOL    HW226805   5.893   4.344   6.593
 8636SOL     OW26806   5.199   5.873   0.674
 8636SOL    HW126807   5.289   5.860   0.633
 8636SOL    HW226808   5.129   5.840   0.611
 8637SOL     OW26809   2.000   1.443   6.942
 8637SOL    HW126810   2.046   1.507   7.003
 8637SOL    HW226811   1.998   1.480   6.850
 8638SOL     OW26812   2.613   2.932   6.725
 8638SOL    HW126813   2.533   2.989   6.708
 8638SOL    HW226814   2.591   2.865   6.796
 8639SOL     OW26815   5.569   2.036   1.587
 8639SOL    HW126816   5.610   2.106   1.529
 8639SOL    HW226817   5.523   1.968   1.530
 8640SOL     OW26818   4.407   3.700   0.725
 8640SOL    HW126819   4.455   3.623   0.682
 8640SOL    HW226820   4.357   3.751   0.655
 8641SOL     OW26821   6.462   4.914   3.945
 8641SOL    HW126822   6.448   5.004   3.987
 8641SOL    HW226823   6.417   4.844   4.001
 8642SOL     OW26824   3.564   1.045   2.612
 8642SOL    HW126825   3.632   1.050   2.685
 8642SOL    HW226826   3.473   1.028   2.652
 8643SOL     OW26827   4.032   0.400   6.922
 8643SOL    HW126828   3.972   0.469   6.962
 8643SOL    HW226829   3.981   0.348   6.853
 8644SOL     OW26830   4.591   2.747   5.593
 8644SOL    HW126831   4.509   2.775   5.544
 8644SOL    HW226832   4.668   2.742   5.529
 8645SOL     OW26833   4.566   4.118   1.328
 8645SOL    HW126834   4.588   4.135   1.424
 8645SOL    HW226835   4.591   4.197   1.273
 8646SOL     OW26836   6.545   1.447   1.379
 8646SOL    HW126837   6.447   1.464   1.367
 8646SOL    HW226838   6.597   1.500   1.311
 8647SOL     OW26839   2.725   5.164   6.016
 8647SOL    HW126840   2.715   5.076   6.062
 8647SOL    HW226841   2.792   5.221   6.065
 8648SOL     OW26842   6.269   0.853   3.790
 8648SOL    HW126843   6.232   0.946   3.791
 8648SOL    HW226844   6.197   0.788   3.762
 8649SOL     OW26845   5.586   4.284   0.183
 8649SOL    HW126846   5.642   4.319   0.108
 8649SOL    HW226847   5.611   4.188   0.201
 8650SOL     OW26848   1.719   4.345   6.073
 8650SOL    HW126849   1.632   4.370   6.116
 8650SOL    HW226850   1.780   4.306   6.142
 8651SOL     OW26851   3.489   1.076   0.560
 8651SOL    HW126852   3.431   0.995   0.550
 8651SOL    HW226853   3.569   1.053   0.615
 8652SOL     OW26854   1.178   3.681   3.329
 8652SOL    HW126855   1.157   3.586   3.303
 8652SOL    HW226856   1.171   3.740   3.249
 8653SOL     OW26857   5.763   1.212   6.304
 8653SOL    HW126858   5.772   1.133   6.364
 8653SOL    HW226859   5.852   1.235   6.265
 8654SOL     OW26860   1.172   5.749   1.504
 8654SOL    HW126861   1.127   5.669   1.465
 8654SOL    HW226862   1.114   5.829   1.492
 8655SOL     OW26863   6.155   1.108   3.777
 8655SOL    HW126864   6.069   1.073   3.814
 8655SOL    HW226865   6.208   1.150   3.851
 8656SOL     OW26866   6.368   1.336   0.661
 8656SOL    HW126867   6.337   1.345   0.567
 8656SOL    HW226868   6.295   1.362   0.723
 8657SOL     OW26869   4.692   4.910   0.189
 8657SOL    HW126870   4.730   4.834   0.242
 8657SOL    HW226871   4.655   4.876   0.102
 8658SOL     OW26872   4.239   6.721   0.149
 8658SOL    HW126873   4.228   6.627   0.116
 8658SOL    HW226874   4.178   6.737   0.226
 8659SOL     OW26875   4.646   1.632   3.516
 8659SOL    HW126876   4.559   1.682   3.512
 8659SOL    HW226877   4.686   1.628   3.425
 8660SOL     OW26878   5.568   3.951   0.875
 8660SOL    HW126879   5.619   3.934   0.790
 8660SOL    HW226880   5.630   3.939   0.953
 8661SOL     OW26881   5.731   4.190   1.143
 8661SOL    HW126882   5.800   4.119   1.128
 8661SOL    HW226883   5.772   4.269   1.186
 8662SOL     OW26884   4.565   5.823   1.795
 8662SOL    HW126885   4.624   5.861   1.724
 8662SOL    HW226886   4.585   5.866   1.882
 8663SOL     OW26887   2.763   5.921   1.080
 8663SOL    HW126888   2.675   5.926   1.126
 8663SOL    HW226889   2.828   5.870   1.137
 8664SOL     OW26890   2.948   5.905   1.368
 8664SOL    HW126891   3.020   5.972   1.389
 8664SOL    HW226892   2.977   5.815   1.398
 8665SOL     OW26893   5.413   5.932   5.198
 8665SOL    HW126894   5.488   5.889   5.147
 8665SOL    HW226895   5.426   6.031   5.197
 8666SOL     OW26896   4.879   1.996   4.491
 8666SOL    HW126897   4.818   1.935   4.440
 8666SOL    HW226898   4.942   1.941   4.546
 8667SOL     OW26899   4.888   2.675   2.938
 8667SOL    HW126900   4.875   2.584   2.979
 8667SOL    HW226901   4.960   2.723   2.989
 8668SOL     OW26902   5.973   3.332   3.129
 8668SOL    HW126903   5.993   3.297   3.221
 8668SOL    HW226904   5.920   3.416   3.136
 8669SOL     OW26905   2.283   6.356   6.779
 8669SOL    HW126906   2.243   6.268   6.754
 8669SOL    HW226907   2.230   6.430   6.738
 8670SOL     OW26908   3.649   4.872   5.608
 8670SOL    HW126909   3.622   4.964   5.636
 8670SOL    HW226910   3.663   4.815   5.689
 8671SOL     OW26911   5.702   1.826   3.047
 8671SOL    HW126912   5.683   1.921   3.072
 8671SOL    HW226913   5.801   1.810   3.050
 8672SOL     OW26914   1.986   5.332   3.549
 8672SOL    HW126915   1.887   5.344   3.543
 8672SOL    HW226916   2.018   5.362   3.639
 8673SOL     OW26917   6.493   2.184   6.625
 8673SOL    HW126918   6.528   2.160   6.534
 8673SOL    HW226919   6.502   2.283   6.639
 8674SOL     OW26920   6.051   6.148   1.899
 8674SOL    HW126921   6.071   6.203   1.818
 8674SOL    HW226922   6.054   6.051   1.875
 8675SOL     OW26923   3.603   2.077   4.952
 8675SOL    HW126924   3.615   1.978   4.941
 8675SOL    HW226925   3.676   2.114   5.009
 8676SOL     OW26926   4.124   0.295   2.665
 8676SOL    HW126927   4.183   0.218   2.689
 8676SOL    HW226928   4.173   0.381   2.681
 8677SOL     OW26929   2.516   6.402   5.438
 8677SOL    HW126930   2.531   6.365   5.529
 8677SOL    HW226931   2.512   6.502   5.443
 8678SOL     OW26932   6.825   0.268   1.387
 8678SOL    HW126933   6.874   0.321   1.457
 8678SOL    HW226934   6.813   0.325   1.305
 8679SOL     OW26935   6.103   2.637   4.245
 8679SOL    HW126936   6.120   2.539   4.245
 8679SOL    HW226937   6.006   2.655   4.227
 8680SOL     OW26938   0.834   4.254   1.731
 8680SOL    HW126939   0.807   4.346   1.702
 8680SOL    HW226940   0.926   4.234   1.698
 8681SOL     OW26941   4.760   5.395   6.559
 8681SOL    HW126942   4.799   5.421   6.471
 8681SOL    HW226943   4.755   5.475   6.618
 8682SOL     OW26944   4.869   6.711   1.597
 8682SOL    HW126945   4.863   6.801   1.638
 8682SOL    HW226946   4.850   6.641   1.666
 8683SOL     OW26947   1.739   2.270   2.519
 8683SOL    HW126948   1.688   2.353   2.494
 8683SOL    HW226949   1.836   2.293   2.527
 8684SOL     OW26950   0.778   2.445   4.695
 8684SOL    HW126951   0.831   2.414   4.774
 8684SOL    HW226952   0.809   2.396   4.614
 8685SOL     OW26953   0.668   2.329   5.213
 8685SOL    HW126954   0.737   2.319   5.284
 8685SOL    HW226955   0.583   2.364   5.253
 8686SOL     OW26956   0.069   1.239   1.024
 8686SOL    HW126957   0.156   1.250   1.074
 8686SOL    HW226958   0.007   1.313   1.051
 8687SOL     OW26959   3.873   5.559   2.699
 8687SOL    HW126960   3.810   5.482   2.705
 8687SOL    HW226961   3.821   5.645   2.704
 8688SOL     OW26962   2.929   6.057   6.914
 8688SOL    HW126963   2.869   6.079   6.991
 8688SOL    HW226964   3.016   6.022   6.948
 8689SOL     OW26965   3.252   4.608   1.483
 8689SOL    HW126966   3.233   4.527   1.427
 8689SOL    HW226967   3.182   4.617   1.554
 8690SOL     OW26968   1.607   2.943   3.098
 8690SOL    HW126969   1.671   2.939   3.021
 8690SOL    HW226970   1.652   2.984   3.177
 8691SOL     OW26971   3.518   1.985   6.737
 8691SOL    HW126972   3.508   2.064   6.677
 8691SOL    HW226973   3.560   2.014   6.823
 8692SOL     OW26974   2.682   1.731   3.690
 8692SOL    HW126975   2.710   1.721   3.595
 8692SOL    HW226976   2.699   1.825   3.720
 8693SOL     OW26977   6.661   1.372   0.257
 8693SOL    HW126978   6.689   1.461   0.293
 8693SOL    HW226979   6.703   1.358   0.167
 8694SOL     OW26980   3.716   1.268   4.984
 8694SOL    HW126981   3.711   1.168   4.977
 8694SOL    HW226982   3.625   1.305   5.000
 8695SOL     OW26983   4.113   2.723   5.747
 8695SOL    HW126984   4.212   2.715   5.758
 8695SOL    HW226985   4.068   2.706   5.834
 8696SOL     OW26986   2.164   5.918   0.422
 8696SOL    HW126987   2.228   5.842   0.434
 8696SOL    HW226988   2.179   5.959   0.332
 8697SOL     OW26989   6.536   2.893   0.133
 8697SOL    HW126990   6.592   2.938   0.064
 8697SOL    HW226991   6.582   2.899   0.222
 8698SOL     OW26992   6.019   5.382   4.612
 8698SOL    HW126993   6.028   5.335   4.524
 8698SOL    HW226994   6.098   5.361   4.669
 8699SOL     OW26995   2.397   2.485   5.082
 8699SOL    HW126996   2.482   2.439   5.054
 8699SOL    HW226997   2.319   2.427   5.058
 8700SOL     OW26998   1.194   0.613   4.251
 8700SOL    HW126999   1.196   0.550   4.328
 8700SOL    HW227000   1.279   0.604   4.198
 8701SOL     OW27001   1.902   0.643   0.020
 8701SOL    HW127002   1.880   0.618   0.114
 8701SOL    HW227003   1.948   0.732   0.018
 8702SOL     OW27004   5.306   4.470   0.434
 8702SOL    HW127005   5.300   4.477   0.335
 8702SOL    HW227006   5.399   4.490   0.464
 8703SOL     OW27007   3.237   5.702   1.039
 8703SOL    HW127008   3.224   5.784   0.982
 8703SOL    HW227009   3.149   5.657   1.054
 8704SOL     OW27010   6.751   3.485   3.105
 8704SOL    HW127011   6.774   3.488   3.008
 8704SOL    HW227012   6.819   3.537   3.157
 8705SOL     OW27013   5.172   0.686   0.366
 8705SOL    HW127014   5.255   0.739   0.378
 8705SOL    HW227015   5.195   0.589   0.358
 8706SOL     OW27016   4.423   2.239   5.929
 8706SOL    HW127017   4.403   2.331   5.961
 8706SOL    HW227018   4.488   2.195   5.990
 8707SOL     OW27019   6.264   2.316   7.007
 8707SOL    HW127020   6.247   2.218   6.998
 8707SOL    HW227021   6.246   2.361   6.920
 8708SOL     OW27022   3.967   1.697   2.389
 8708SOL    HW127023   3.879   1.699   2.437
 8708SOL    HW227024   3.976   1.611   2.339
 8709SOL     OW27025   6.799   5.679   6.892
 8709SOL    HW127026   6.757   5.649   6.978
 8709SOL    HW227027   6.894   5.706   6.910
 8710SOL     OW27028   2.206   2.960   3.678
 8710SOL    HW127029   2.185   2.942   3.775
 8710SOL    HW227030   2.222   3.058   3.665
 8711SOL     OW27031   1.467   5.890   2.761
 8711SOL    HW127032   1.479   5.796   2.792
 8711SOL    HW227033   1.537   5.948   2.803
 8712SOL     OW27034   4.297   2.264   4.922
 8712SOL    HW127035   4.355   2.281   4.843
 8712SOL    HW227036   4.295   2.346   4.980
 8713SOL     OW27037   0.747   3.888   3.885
 8713SOL    HW127038   0.811   3.930   3.820
 8713SOL    HW227039   0.773   3.793   3.901
 8714SOL     OW27040   1.362   0.769   6.336
 8714SOL    HW127041   1.403   0.750   6.425
 8714SOL    HW227042   1.410   0.717   6.265
 8715SOL     OW27043   4.895   0.697   0.796
 8715SOL    HW127044   4.853   0.788   0.796
 8715SOL    HW227045   4.892   0.658   0.704
 8716SOL     OW27046   0.906   0.073   1.167
 8716SOL    HW127047   0.855   0.053   1.250
 8716SOL    HW227048   0.845   0.067   1.088
 8717SOL     OW27049   3.815   3.289   3.746
 8717SOL    HW127050   3.773   3.361   3.801
 8717SOL    HW227051   3.851   3.329   3.662
 8718SOL     OW27052   0.377   3.665   4.372
 8718SOL    HW127053   0.401   3.640   4.278
 8718SOL    HW227054   0.361   3.581   4.425
 8719SOL     OW27055   2.511   0.259   6.248
 8719SOL    HW127056   2.476   0.168   6.227
 8719SOL    HW227057   2.598   0.274   6.200
 8720SOL     OW27058   6.273   5.252   5.580
 8720SOL    HW127059   6.226   5.178   5.629
 8720SOL    HW227060   6.228   5.267   5.492
 8721SOL     OW27061   6.681   2.454   3.061
 8721SOL    HW127062   6.696   2.535   3.117
 8721SOL    HW227063   6.755   2.388   3.077
 8722SOL     OW27064   3.937   1.403   6.411
 8722SOL    HW127065   4.015   1.358   6.369
 8722SOL    HW227066   3.953   1.502   6.415
 8723SOL     OW27067   4.688   5.567   1.629
 8723SOL    HW127068   4.664   5.497   1.562
 8723SOL    HW227069   4.652   5.541   1.719
 8724SOL     OW27070   6.121   0.186   6.200
 8724SOL    HW127071   6.187   0.260   6.190
 8724SOL    HW227072   6.043   0.203   6.140
 8725SOL     OW27073   2.107   0.288   6.966
 8725SOL    HW127074   2.063   0.199   6.978
 8725SOL    HW227075   2.104   0.339   0.032
 8726SOL     OW27076   6.387   0.104   2.133
 8726SOL    HW127077   6.465   0.128   2.075
 8726SOL    HW227078   6.374   0.005   2.133
 8727SOL     OW27079   6.967   6.458   2.043
 8727SOL    HW127080   6.956   6.554   2.069
 8727SOL    HW227081   0.033   6.447   1.992
 8728SOL     OW27082   3.851   0.660   4.357
 8728SOL    HW127083   3.858   0.577   4.412
 8728SOL    HW227084   3.757   0.694   4.358
 8729SOL     OW27085   4.891   5.951   3.779
 8729SOL    HW127086   4.849   6.032   3.737
 8729SOL    HW227087   4.964   5.980   3.841
 8730SOL     OW27088   6.158   4.234   2.527
 8730SOL    HW127089   6.237   4.180   2.498
 8730SOL    HW227090   6.103   4.179   2.590
 8731SOL     OW27091   1.889   2.646   2.659
 8731SOL    HW127092   1.886   2.679   2.565
 8731SOL    HW227093   1.984   2.643   2.690
 8732SOL     OW27094   5.643   4.293   1.908
 8732SOL    HW127095   5.639   4.362   1.836
 8732SOL    HW227096   5.581   4.319   1.982
 8733SOL     OW27097   1.911   5.343   1.779
 8733SOL    HW127098   1.953   5.405   1.712
 8733SOL    HW227099   1.925   5.249   1.751
 8734SOL     OW27100   0.866   4.215   2.099
 8734SOL    HW127101   0.958   4.253   2.085
 8734SOL    HW227102   0.868   4.117   2.082
 8735SOL     OW27103   1.296   1.904   0.104
 8735SOL    HW127104   1.230   1.842   0.061
 8735SOL    HW227105   1.360   1.937   0.034
 8736SOL     OW27106   0.882   6.062   5.885
 8736SOL    HW127107   0.847   6.003   5.812
 8736SOL    HW227108   0.805   6.111   5.927
 8737SOL     OW27109   2.604   6.468   5.910
 8737SOL    HW127110   2.699   6.440   5.928
 8737SOL    HW227111   2.593   6.565   5.933
 8738SOL     OW27112   1.931   5.493   4.354
 8738SOL    HW127113   1.920   5.403   4.397
 8738SOL    HW227114   1.981   5.553   4.417
 8739SOL     OW27115   5.930   5.428   6.257
 8739SOL    HW127116   5.868   5.486   6.204
 8739SOL    HW227117   5.965   5.355   6.199
 8740SOL     OW27118   4.862   1.032   5.302
 8740SOL    HW127119   4.946   1.073   5.337
 8740SOL    HW227120   4.806   1.001   5.378
 8741SOL     OW27121   2.538   1.188   1.637
 8741SOL    HW127122   2.605   1.206   1.565
 8741SOL    HW227123   2.538   1.091   1.659
 8742SOL     OW27124   5.852   6.357   1.441
 8742SOL    HW127125   5.809   6.346   1.530
 8742SOL    HW227126   5.914   6.435   1.442
 8743SOL     OW27127   1.802   0.558   2.416
 8743SOL    HW127128   1.796   0.484   2.483
 8743SOL    HW227129   1.857   0.528   2.338
 8744SOL     OW27130   3.931   2.785   6.007
 8744SOL    HW127131   3.999   2.853   6.034
 8744SOL    HW227132   3.841   2.828   6.004
 8745SOL     OW27133   6.076   3.116   6.195
 8745SOL    HW127134   5.989   3.119   6.145
 8745SOL    HW227135   6.145   3.169   6.146
 8746SOL     OW27136   5.031   3.720   5.139
 8746SOL    HW127137   4.949   3.689   5.093
 8746SOL    HW227138   5.077   3.643   5.182
 8747SOL     OW27139   0.162   2.261   2.874
 8747SOL    HW127140   0.256   2.262   2.840
 8747SOL    HW227141   0.108   2.330   2.825
 8748SOL     OW27142   0.198   1.597   5.469
 8748SOL    HW127143   0.201   1.665   5.542
 8748SOL    HW227144   0.105   1.589   5.435
 8749SOL     OW27145   2.737   0.370   6.449
 8749SOL    HW127146   2.755   0.464   6.478
 8749SOL    HW227147   2.673   0.370   6.373
 8750SOL     OW27148   3.124   3.494   5.593
 8750SOL    HW127149   3.218   3.462   5.589
 8750SOL    HW227150   3.085   3.496   5.501
 8751SOL     OW27151   6.487   0.203   2.539
 8751SOL    HW127152   6.507   0.242   2.449
 8751SOL    HW227153   6.388   0.210   2.556
 8752SOL     OW27154   2.485   4.685   0.158
 8752SOL    HW127155   2.492   4.716   0.252
 8752SOL    HW227156   2.498   4.762   0.096
 8753SOL     OW27157   4.834   1.668   5.011
 8753SOL    HW127158   4.932   1.667   4.991
 8753SOL    HW227159   4.790   1.591   4.965
 8754SOL     OW27160   1.079   2.279   4.963
 8754SOL    HW127161   0.990   2.312   4.933
 8754SOL    HW227162   1.151   2.329   4.914
 8755SOL     OW27163   2.534   0.810   6.961
 8755SOL    HW127164   2.547   0.716   6.995
 8755SOL    HW227165   2.467   0.809   6.886
 8756SOL     OW27166   2.191   2.990   3.377
 8756SOL    HW127167   2.266   2.948   3.325
 8756SOL    HW227168   2.180   2.941   3.464
 8757SOL     OW27169   5.131   6.364   5.699
 8757SOL    HW127170   5.090   6.301   5.765
 8757SOL    HW227171   5.059   6.403   5.641
 8758SOL     OW27172   4.601   6.851   2.093
 8758SOL    HW127173   4.662   6.788   2.043
 8758SOL    HW227174   4.518   6.802   2.119
 8759SOL     OW27175   3.663   2.103   0.334
 8759SOL    HW127176   3.707   2.191   0.322
 8759SOL    HW227177   3.596   2.089   0.260
 8760SOL     OW27178   1.539   1.744   5.192
 8760SOL    HW127179   1.474   1.751   5.116
 8760SOL    HW227180   1.539   1.651   5.228
 8761SOL     OW27181   4.466   1.648   2.071
 8761SOL    HW127182   4.426   1.580   2.009
 8761SOL    HW227183   4.440   1.740   2.041
 8762SOL     OW27184   0.604   4.225   1.968
 8762SOL    HW127185   0.697   4.199   1.994
 8762SOL    HW227186   0.602   4.251   1.871
 8763SOL     OW27187   6.003   6.260   5.713
 8763SOL    HW127188   5.995   6.301   5.803
 8763SOL    HW227189   5.990   6.331   5.643
 8764SOL     OW27190   4.973   0.808   4.426
 8764SOL    HW127191   5.072   0.794   4.417
 8764SOL    HW227192   4.957   0.884   4.489
 8765SOL     OW27193   6.346   6.107   5.395
 8765SOL    HW127194   6.337   6.206   5.382
 8765SOL    HW227195   6.426   6.074   5.347
 8766SOL     OW27196   4.363   4.622   3.395
 8766SOL    HW127197   4.413   4.601   3.479
 8766SOL    HW227198   4.393   4.710   3.360
 8767SOL     OW27199   4.065   6.745   3.289
 8767SOL    HW127200   4.132   6.819   3.301
 8767SOL    HW227201   3.981   6.767   3.338
 8768SOL     OW27202   0.807   3.064   0.938
 8768SOL    HW127203   0.734   3.003   0.908
 8768SOL    HW227204   0.820   3.137   0.871
 8769SOL     OW27205   1.735   6.876   4.308
 8769SOL    HW127206   1.780   6.829   4.233
 8769SOL    HW227207   1.803   6.915   4.369
 8770SOL     OW27208   5.569   3.693   2.204
 8770SOL    HW127209   5.528   3.601   2.208
 8770SOL    HW227210   5.667   3.686   2.223
 8771SOL     OW27211   0.625   0.158   5.967
 8771SOL    HW127212   0.589   0.123   6.054
 8771SOL    HW227213   0.635   0.257   5.972
 8772SOL     OW27214   5.590   6.443   6.395
 8772SOL    HW127215   5.656   6.485   6.458
 8772SOL    HW227216   5.638   6.385   6.330
 8773SOL     OW27217   4.234   2.189   3.756
 8773SOL    HW127218   4.279   2.221   3.672
 8773SOL    HW227219   4.275   2.235   3.835
 8774SOL     OW27220   1.944   2.050   0.136
 8774SOL    HW127221   1.897   1.974   0.091
 8774SOL    HW227222   1.904   2.065   0.227
 8775SOL     OW27223   6.731   0.287   5.154
 8775SOL    HW127224   6.649   0.258   5.105
 8775SOL    HW227225   6.715   0.376   5.196
 8776SOL     OW27226   3.836   3.712   4.814
 8776SOL    HW127227   3.934   3.728   4.828
 8776SOL    HW227228   3.808   3.750   4.725
 8777SOL     OW27229   0.098   3.908   1.269
 8777SOL    HW127230   0.119   3.953   1.182
 8777SOL    HW227231   0.110   3.973   1.344
 8778SOL     OW27232   6.176   1.743   4.514
 8778SOL    HW127233   6.273   1.747   4.536
 8778SOL    HW227234   6.158   1.794   4.430
 8779SOL     OW27235   2.929   5.257   2.168
 8779SOL    HW127236   3.017   5.295   2.141
 8779SOL    HW227237   2.887   5.211   2.090
 8780SOL     OW27238   0.995   5.072   3.109
 8780SOL    HW127239   1.049   4.998   3.069
 8780SOL    HW227240   1.001   5.154   3.051
 8781SOL     OW27241   6.202   1.793   3.921
 8781SOL    HW127242   6.137   1.838   3.982
 8781SOL    HW227243   6.181   1.695   3.915
 8782SOL     OW27244   5.207   6.814   1.996
 8782SOL    HW127245   5.111   6.814   2.026
 8782SOL    HW227246   5.239   6.719   1.987
 8783SOL     OW27247   6.543   3.766   3.455
 8783SOL    HW127248   6.448   3.739   3.440
 8783SOL    HW227249   6.560   3.855   3.415
 8784SOL     OW27250   5.729   3.975   6.578
 8784SOL    HW127251   5.651   3.920   6.607
 8784SOL    HW227252   5.732   4.060   6.631
 8785SOL     OW27253   6.919   3.507   6.610
 8785SOL    HW127254   6.982   3.518   6.686
 8785SOL    HW227255   6.927   3.415   6.572
 8786SOL     OW27256   2.348   6.624   0.748
 8786SOL    HW127257   2.325   6.719   0.769
 8786SOL    HW227258   2.411   6.588   0.818
 8787SOL     OW27259   2.257   2.850   1.821
 8787SOL    HW127260   2.168   2.804   1.820
 8787SOL    HW227261   2.267   2.906   1.739
 8788SOL     OW27262   0.240   2.418   5.797
 8788SOL    HW127263   0.198   2.508   5.809
 8788SOL    HW227264   0.230   2.366   5.882
 8789SOL     OW27265   6.396   6.893   5.305
 8789SOL    HW127266   6.303   6.926   5.285
 8789SOL    HW227267   6.449   6.967   5.346
 8790SOL     OW27268   0.106   0.707   6.881
 8790SOL    HW127269   0.096   0.792   6.828
 8790SOL    HW227270   0.158   0.726   6.964
 8791SOL     OW27271   5.701   6.680   4.851
 8791SOL    HW127272   5.682   6.583   4.861
 8791SOL    HW227273   5.791   6.692   4.809
 8792SOL     OW27274   3.419   6.113   3.436
 8792SOL    HW127275   3.328   6.074   3.428
 8792SOL    HW227276   3.484   6.060   3.381
 8793SOL     OW27277   0.818   5.462   3.754
 8793SOL    HW127278   0.768   5.461   3.841
 8793SOL    HW227279   0.916   5.464   3.773
 8794SOL     OW27280   4.242   0.075   1.769
 8794SOL    HW127281   4.244   0.019   1.686
 8794SOL    HW227282   4.208   0.021   1.845
 8795SOL     OW27283   1.317   6.642   4.961
 8795SOL    HW127284   1.337   6.628   5.058
 8795SOL    HW227285   1.395   6.686   4.917
 8796SOL     OW27286   4.397   1.456   4.565
 8796SOL    HW127287   4.406   1.388   4.637
 8796SOL    HW227288   4.484   1.465   4.516
 8797SOL     OW27289   1.126   0.109   5.250
 8797SOL    HW127290   1.088   0.186   5.199
 8797SOL    HW227291   1.110   0.122   5.347
 8798SOL     OW27292   4.992   4.997   5.417
 8798SOL    HW127293   5.005   4.936   5.495
 8798SOL    HW227294   4.968   4.943   5.336
 8799SOL     OW27295   2.088   4.443   3.963
 8799SOL    HW127296   2.165   4.432   3.900
 8799SOL    HW227297   2.122   4.446   4.057
 8800SOL     OW27298   6.237   4.345   5.460
 8800SOL    HW127299   6.191   4.260   5.432
 8800SOL    HW227300   6.171   4.421   5.454
 8801SOL     OW27301   0.797   1.489   4.642
 8801SOL    HW127302   0.853   1.524   4.717
 8801SOL    HW227303   0.705   1.468   4.675
 8802SOL     OW27304   1.711   0.164   0.889
 8802SOL    HW127305   1.757   0.108   0.958
 8802SOL    HW227306   1.751   0.255   0.888
 8803SOL     OW27307   0.264   5.375   6.181
 8803SOL    HW127308   0.184   5.325   6.149
 8803SOL    HW227309   0.299   5.434   6.108
 8804SOL     OW27310   3.729   0.477   2.138
 8804SOL    HW127311   3.729   0.380   2.114
 8804SOL    HW227312   3.636   0.506   2.160
 8805SOL     OW27313   2.530   0.186   4.340
 8805SOL    HW127314   2.601   0.201   4.409
 8805SOL    HW227315   2.502   0.089   4.342
 8806SOL     OW27316   2.273   4.978   2.004
 8806SOL    HW127317   2.232   5.056   1.957
 8806SOL    HW227318   2.211   4.900   1.999
 8807SOL     OW27319   5.656   6.964   6.524
 8807SOL    HW127320   5.565   6.928   6.501
 8807SOL    HW227321   5.688   0.003   6.449
 8808SOL     OW27322   5.264   2.195   0.566
 8808SOL    HW127323   5.281   2.253   0.646
 8808SOL    HW227324   5.281   2.247   0.483
 8809SOL     OW27325   4.902   5.025   3.255
 8809SOL    HW127326   4.820   4.969   3.241
 8809SOL    HW227327   4.936   5.013   3.348
 8810SOL     OW27328   5.637   0.754   6.181
 8810SOL    HW127329   5.593   0.816   6.246
 8810SOL    HW227330   5.715   0.709   6.225
 8811SOL     OW27331   2.622   1.515   3.878
 8811SOL    HW127332   2.658   1.592   3.823
 8811SOL    HW227333   2.697   1.475   3.931
 8812SOL     OW27334   2.053   0.128   1.426
 8812SOL    HW127335   2.105   0.048   1.397
 8812SOL    HW227336   2.043   0.127   1.525
 8813SOL     OW27337   1.686   4.427   1.524
 8813SOL    HW127338   1.784   4.407   1.526
 8813SOL    HW227339   1.636   4.350   1.564
 8814SOL     OW27340   5.850   0.753   0.827
 8814SOL    HW127341   5.892   0.757   0.736
 8814SOL    HW227342   5.819   0.660   0.845
 8815SOL     OW27343   6.430   5.908   0.949
 8815SOL    HW127344   6.470   5.838   0.890
 8815SOL    HW227345   6.417   5.871   1.041
 8816SOL     OW27346   1.491   0.899   0.169
 8816SOL    HW127347   1.534   0.958   0.101
 8816SOL    HW227348   1.559   0.870   0.236
 8817SOL     OW27349   0.796   5.876   5.250
 8817SOL    HW127350   0.894   5.899   5.249
 8817SOL    HW227351   0.769   5.841   5.160
 8818SOL     OW27352   0.583   3.381   4.422
 8818SOL    HW127353   0.670   3.430   4.422
 8818SOL    HW227354   0.599   3.283   4.433
 8819SOL     OW27355   4.914   4.931   4.479
 8819SOL    HW127356   4.974   4.933   4.399
 8819SOL    HW227357   4.961   4.973   4.556
 8820SOL     OW27358   2.205   1.247   5.061
 8820SOL    HW127359   2.180   1.295   4.977
 8820SOL    HW227360   2.142   1.171   5.076
 8821SOL     OW27361   2.824   6.275   0.051
 8821SOL    HW127362   2.854   6.303   6.980
 8821SOL    HW227363   2.902   6.270   0.113
 8822SOL     OW27364   0.697   6.927   4.634
 8822SOL    HW127365   0.661   6.863   4.702
 8822SOL    HW227366   0.787   6.896   4.604
 8823SOL     OW27367   2.243   0.839   1.211
 8823SOL    HW127368   2.314   0.908   1.194
 8823SOL    HW227369   2.241   0.774   1.135
 8824SOL     OW27370   1.000   3.239   1.190
 8824SOL    HW127371   0.998   3.195   1.101
 8824SOL    HW227372   1.013   3.170   1.261
 8825SOL     OW27373   1.703   0.469   2.956
 8825SOL    HW127374   1.753   0.521   2.887
 8825SOL    HW227375   1.645   0.531   3.009
 8826SOL     OW27376   6.464   3.014   0.679
 8826SOL    HW127377   6.554   2.971   0.692
 8826SOL    HW227378   6.476   3.100   0.629
 8827SOL     OW27379   3.728   0.796   3.217
 8827SOL    HW127380   3.702   0.749   3.301
 8827SOL    HW227381   3.656   0.785   3.148
 8828SOL     OW27382   4.336   5.309   4.993
 8828SOL    HW127383   4.305   5.268   5.079
 8828SOL    HW227384   4.325   5.408   4.998
 8829SOL     OW27385   6.843   2.095   0.911
 8829SOL    HW127386   6.821   2.063   0.818
 8829SOL    HW227387   6.808   2.188   0.922
 8830SOL     OW27388   0.007   1.488   2.067
 8830SOL    HW127389   6.934   1.506   2.033
 8830SOL    HW227390   0.073   1.541   2.013
 8831SOL     OW27391   5.389   0.967   4.118
 8831SOL    HW127392   5.290   0.955   4.111
 8831SOL    HW227393   5.412   1.004   4.208
 8832SOL     OW27394   0.032   5.997   2.826
 8832SOL    HW127395   7.005   5.947   2.899
 8832SOL    HW227396   0.099   5.938   2.783
 8833SOL     OW27397   2.553   6.264   5.665
 8833SOL    HW127398   2.590   6.326   5.735
 8833SOL    HW227399   2.462   6.234   5.693
 8834SOL     OW27400   5.218   3.463   4.617
 8834SOL    HW127401   5.309   3.485   4.584
 8834SOL    HW227402   5.197   3.368   4.596
 8835SOL     OW27403   5.720   1.134   6.039
 8835SOL    HW127404   5.720   1.205   5.968
 8835SOL    HW227405   5.753   1.173   6.125
 8836SOL     OW27406   4.131   1.944   6.470
 8836SOL    HW127407   4.150   2.010   6.397
 8836SOL    HW227408   4.129   1.993   6.558
 8837SOL     OW27409   0.053   6.271   3.258
 8837SOL    HW127410   0.106   6.255   3.175
 8837SOL    HW227411   0.042   6.370   3.272
 8838SOL     OW27412   2.628   4.633   2.755
 8838SOL    HW127413   2.674   4.602   2.839
 8838SOL    HW227414   2.536   4.665   2.778
 8839SOL     OW27415   5.413   5.187   3.008
 8839SOL    HW127416   5.512   5.177   3.017
 8839SOL    HW227417   5.382   5.137   2.927
 8840SOL     OW27418   6.798   1.852   1.675
 8840SOL    HW127419   6.889   1.889   1.692
 8840SOL    HW227420   6.797   1.755   1.699
 8841SOL     OW27421   0.759   0.153   5.445
 8841SOL    HW127422   0.688   0.151   5.375
 8841SOL    HW227423   0.718   0.148   5.535
 8842SOL     OW27424   3.073   2.912   1.844
 8842SOL    HW127425   3.104   2.933   1.937
 8842SOL    HW227426   3.122   2.832   1.810
 8843SOL     OW27427   1.916   3.494   5.332
 8843SOL    HW127428   1.926   3.580   5.282
 8843SOL    HW227429   1.956   3.419   5.278
 8844SOL     OW27430   6.165   2.397   6.767
 8844SOL    HW127431   6.124   2.484   6.792
 8844SOL    HW227432   6.162   2.386   6.667
 8845SOL     OW27433   4.427   3.713   0.046
 8845SOL    HW127434   4.364   3.770   0.099
 8845SOL    HW227435   4.420   3.618   0.077
 8846SOL     OW27436   3.497   5.623   3.562
 8846SOL    HW127437   3.564   5.685   3.602
 8846SOL    HW227438   3.417   5.616   3.621
 8847SOL     OW27439   2.851   1.752   2.871
 8847SOL    HW127440   2.902   1.702   2.941
 8847SOL    HW227441   2.887   1.845   2.864
 8848SOL     OW27442   2.495   0.336   1.870
 8848SOL    HW127443   2.583   0.318   1.827
 8848SOL    HW227444   2.459   0.251   1.909
 8849SOL     OW27445   3.779   5.806   2.762
 8849SOL    HW127446   3.812   5.767   2.847
 8849SOL    HW227447   3.835   5.884   2.737
 8850SOL     OW27448   1.431   2.412   0.432
 8850SOL    HW127449   1.409   2.322   0.469
 8850SOL    HW227450   1.397   2.483   0.495
 8851SOL     OW27451   1.478   4.206   2.805
 8851SOL    HW127452   1.395   4.253   2.836
 8851SOL    HW227453   1.518   4.156   2.881
 8852SOL     OW27454   0.404   2.021   5.081
 8852SOL    HW127455   0.434   1.931   5.050
 8852SOL    HW227456   0.458   2.092   5.035
 8853SOL     OW27457   2.659   0.739   1.675
 8853SOL    HW127458   2.628   0.671   1.742
 8853SOL    HW227459   2.753   0.766   1.696
 8854SOL     OW27460   2.114   2.734   5.426
 8854SOL    HW127461   2.157   2.812   5.379
 8854SOL    HW227462   2.064   2.679   5.359
 8855SOL     OW27463   6.520   4.951   1.093
 8855SOL    HW127464   6.497   4.860   1.061
 8855SOL    HW227465   6.616   4.952   1.123
 8856SOL     OW27466   1.015   6.589   6.305
 8856SOL    HW127467   0.973   6.661   6.361
 8856SOL    HW227468   0.949   6.516   6.290
 8857SOL     OW27469   6.410   1.635   4.049
 8857SOL    HW127470   6.433   1.724   4.090
 8857SOL    HW227471   6.420   1.563   4.118
 8858SOL     OW27472   0.158   4.086   4.439
 8858SOL    HW127473   0.108   4.155   4.491
 8858SOL    HW227474   0.189   4.126   4.352
 8859SOL     OW27475   1.212   1.427   4.197
 8859SOL    HW127476   1.266   1.385   4.124
 8859SOL    HW227477   1.115   1.409   4.181
 8860SOL     OW27478   6.717   2.288   1.635
 8860SOL    HW127479   6.778   2.366   1.635
 8860SOL    HW227480   6.757   2.214   1.581
 8861SOL     OW27481   3.895   1.066   5.728
 8861SOL    HW127482   3.967   1.108   5.672
 8861SOL    HW227483   3.917   1.080   5.825
 8862SOL     OW27484   5.689   6.759   3.978
 8862SOL    HW127485   5.745   6.769   3.896
 8862SOL    HW227486   5.603   6.714   3.954
 8863SOL     OW27487   2.915   4.753   3.518
 8863SOL    HW127488   2.827   4.723   3.481
 8863SOL    HW227489   2.973   4.674   3.536
 8864SOL     OW27490   3.542   4.514   6.406
 8864SOL    HW127491   3.553   4.584   6.336
 8864SOL    HW227492   3.525   4.558   6.494
 8865SOL     OW27493   3.165   0.962   4.387
 8865SOL    HW127494   3.216   1.042   4.422
 8865SOL    HW227495   3.206   0.879   4.423
 8866SOL     OW27496   5.908   6.672   2.737
 8866SOL    HW127497   6.005   6.651   2.729
 8866SOL    HW227498   5.890   6.720   2.823
 8867SOL     OW27499   5.715   4.567   3.789
 8867SOL    HW127500   5.685   4.473   3.805
 8867SOL    HW227501   5.770   4.598   3.866
 8868SOL     OW27502   6.929   3.042   2.185
 8868SOL    HW127503   6.887   2.961   2.145
 8868SOL    HW227504   0.003   3.052   2.149
 8869SOL     OW27505   4.299   6.163   5.403
 8869SOL    HW127506   4.240   6.082   5.411
 8869SOL    HW227507   4.363   6.151   5.328
 8870SOL     OW27508   2.379   6.731   1.962
 8870SOL    HW127509   2.286   6.763   1.978
 8870SOL    HW227510   2.438   6.758   2.038
 8871SOL     OW27511   2.306   0.237   3.446
 8871SOL    HW127512   2.226   0.243   3.387
 8871SOL    HW227513   2.315   0.321   3.499
 8872SOL     OW27514   1.346   4.986   5.899
 8872SOL    HW127515   1.314   5.066   5.849
 8872SOL    HW227516   1.419   4.942   5.847
 8873SOL     OW27517   2.339   6.941   2.471
 8873SOL    HW127518   2.294   6.967   2.557
 8873SOL    HW227519   2.317   6.847   2.448
 8874SOL     OW27520   2.157   5.710   2.347
 8874SOL    HW127521   2.126   5.651   2.422
 8874SOL    HW227522   2.176   5.654   2.266
 8875SOL     OW27523   6.741   3.648   4.435
 8875SOL    HW127524   6.642   3.663   4.430
 8875SOL    HW227525   6.779   3.702   4.511
 8876SOL     OW27526   2.655   0.914   6.025
 8876SOL    HW127527   2.733   0.852   6.022
 8876SOL    HW227528   2.571   0.860   6.032
 8877SOL     OW27529   2.050   2.351   3.847
 8877SOL    HW127530   2.048   2.410   3.766
 8877SOL    HW227531   2.092   2.401   3.924
 8878SOL     OW27532   3.350   5.273   1.495
 8878SOL    HW127533   3.351   5.188   1.547
 8878SOL    HW227534   3.419   5.336   1.532
 8879SOL     OW27535   4.816   4.933   2.232
 8879SOL    HW127536   4.892   4.906   2.292
 8879SOL    HW227537   4.768   5.011   2.271
 8880SOL     OW27538   4.025   6.562   4.889
 8880SOL    HW127539   4.111   6.590   4.931
 8880SOL    HW227540   4.011   6.464   4.903
 8881SOL     OW27541   5.436   5.695   4.357
 8881SOL    HW127542   5.346   5.738   4.371
 8881SOL    HW227543   5.428   5.623   4.288
 8882SOL     OW27544   4.615   1.079   1.403
 8882SOL    HW127545   4.586   1.161   1.354
 8882SOL    HW227546   4.715   1.075   1.406
 8883SOL     OW27547   2.018   6.522   6.180
 8883SOL    HW127548   1.972   6.490   6.097
 8883SOL    HW227549   1.982   6.612   6.205
 8884SOL     OW27550   6.009   3.761   5.842
 8884SOL    HW127551   5.995   3.731   5.747
 8884SOL    HW227552   6.107   3.770   5.860
 8885SOL     OW27553   4.758   4.749   1.208
 8885SOL    HW127554   4.768   4.671   1.269
 8885SOL    HW227555   4.838   4.755   1.149
 8886SOL     OW27556   3.194   5.599   5.859
 8886SOL    HW127557   3.286   5.562   5.849
 8886SOL    HW227558   3.127   5.528   5.837
 8887SOL     OW27559   3.950   0.809   0.602
 8887SOL    HW127560   4.031   0.789   0.657
 8887SOL    HW227561   3.976   0.814   0.505
 8888SOL     OW27562   2.211   1.776   4.621
 8888SOL    HW127563   2.206   1.767   4.522
 8888SOL    HW227564   2.275   1.849   4.645
 8889SOL     OW27565   6.735   6.821   6.865
 8889SOL    HW127566   6.725   6.921   6.866
 8889SOL    HW227567   6.797   6.793   6.939
 8890SOL     OW27568   0.654   5.943   6.105
 8890SOL    HW127569   0.668   5.930   6.203
 8890SOL    HW227570   0.652   6.041   6.084
 8891SOL     OW27571   4.125   4.129   0.690
 8891SOL    HW127572   4.068   4.098   0.766
 8891SOL    HW227573   4.136   4.055   0.624
 8892SOL     OW27574   3.630   4.936   3.220
 8892SOL    HW127575   3.630   5.036   3.228
 8892SOL    HW227576   3.550   4.900   3.268
 8893SOL     OW27577   1.027   5.231   4.765
 8893SOL    HW127578   0.994   5.325   4.768
 8893SOL    HW227579   0.976   5.180   4.696
 8894SOL     OW27580   3.167   2.174   6.622
 8894SOL    HW127581   3.130   2.129   6.703
 8894SOL    HW227582   3.267   2.183   6.631
 8895SOL     OW27583   6.764   2.125   1.451
 8895SOL    HW127584   6.779   2.049   1.388
 8895SOL    HW227585   6.686   2.178   1.421
 8896SOL     OW27586   2.042   3.168   4.473
 8896SOL    HW127587   2.037   3.185   4.572
 8896SOL    HW227588   2.071   3.073   4.457
 8897SOL     OW27589   2.254   2.215   3.723
 8897SOL    HW127590   2.169   2.252   3.761
 8897SOL    HW227591   2.288   2.275   3.651
 8898SOL     OW27592   5.346   3.286   1.890
 8898SOL    HW127593   5.401   3.302   1.972
 8898SOL    HW227594   5.252   3.314   1.907
 8899SOL     OW27595   1.494   4.547   0.155
 8899SOL    HW127596   1.536   4.637   0.165
 8899SOL    HW227597   1.432   4.531   0.231
 8900SOL     OW27598   5.224   3.036   3.272
 8900SOL    HW127599   5.206   3.134   3.284
 8900SOL    HW227600   5.156   2.997   3.210
 8901SOL     OW27601   0.788   1.209   4.032
 8901SOL    HW127602   0.814   1.161   4.116
 8901SOL    HW227603   0.689   1.203   4.019
 8902SOL     OW27604   1.206   5.727   0.121
 8902SOL    HW127605   1.262   5.756   0.042
 8902SOL    HW227606   1.225   5.788   0.198
 8903SOL     OW27607   0.592   2.168   4.301
 8903SOL    HW127608   0.630   2.244   4.248
 8903SOL    HW227609   0.656   2.091   4.297
 8904SOL     OW27610   0.388   1.153   4.681
 8904SOL    HW127611   0.425   1.075   4.733
 8904SOL    HW227612   0.453   1.178   4.609
 8905SOL     OW27613   2.074   3.138   2.539
 8905SOL    HW127614   2.022   3.194   2.605
 8905SOL    HW227615   2.112   3.058   2.587
 8906SOL     OW27616   1.241   6.336   1.213
 8906SOL    HW127617   1.298   6.311   1.135
 8906SOL    HW227618   1.180   6.410   1.188
 8907SOL     OW27619   3.481   2.737   5.851
 8907SOL    HW127620   3.556   2.701   5.794
 8907SOL    HW227621   3.453   2.667   5.917
 8908SOL     OW27622   2.047   5.783   0.182
 8908SOL    HW127623   2.120   5.848   0.200
 8908SOL    HW227624   2.082   5.689   0.191
 8909SOL     OW27625   2.976   1.140   6.068
 8909SOL    HW127626   3.019   1.229   6.055
 8909SOL    HW227627   3.019   1.093   6.146
 8910SOL     OW27628   0.519   2.746   5.063
 8910SOL    HW127629   0.552   2.810   4.993
 8910SOL    HW227630   0.596   2.711   5.116
 8911SOL     OW27631   4.899   3.412   4.796
 8911SOL    HW127632   4.868   3.497   4.838
 8911SOL    HW227633   4.909   3.425   4.697
 8912SOL     OW27634   2.245   3.065   6.107
 8912SOL    HW127635   2.309   3.115   6.049
 8912SOL    HW227636   2.169   3.125   6.133
 8913SOL     OW27637   4.067   5.503   6.431
 8913SOL    HW127638   4.019   5.582   6.392
 8913SOL    HW227639   4.001   5.429   6.447
 8914SOL     OW27640   4.787   7.016   4.370
 8914SOL    HW127641   4.863   6.957   4.397
 8914SOL    HW227642   4.815   0.092   4.373
 8915SOL     OW27643   1.413   1.980   4.058
 8915SOL    HW127644   1.417   1.936   3.968
 8915SOL    HW227645   1.338   1.939   4.111
 8916SOL     OW27646   6.830   2.550   6.808
 8916SOL    HW127647   6.922   2.553   6.845
 8916SOL    HW227648   6.764   2.538   6.882
 8917SOL     OW27649   5.651   2.656   1.014
 8917SOL    HW127650   5.598   2.740   1.025
 8917SOL    HW227651   5.658   2.609   1.102
 8918SOL     OW27652   1.009   4.929   0.696
 8918SOL    HW127653   1.084   4.988   0.667
 8918SOL    HW227654   1.037   4.877   0.777
 8919SOL     OW27655   5.093   4.541   6.920
 8919SOL    HW127656   5.018   4.506   6.863
 8919SOL    HW227657   5.178   4.494   6.894
 8920SOL     OW27658   0.091   2.301   0.055
 8920SOL    HW127659   0.140   2.257   7.000
 8920SOL    HW227660   0.110   2.399   0.055
 8921SOL     OW27661   1.777   2.908   2.889
 8921SOL    HW127662   1.872   2.876   2.893
 8921SOL    HW227663   1.726   2.853   2.824
 8922SOL     OW27664   3.773   5.684   2.257
 8922SOL    HW127665   3.781   5.621   2.180
 8922SOL    HW227666   3.865   5.713   2.285
 8923SOL     OW27667   1.670   1.134   6.744
 8923SOL    HW127668   1.661   1.044   6.785
 8923SOL    HW227669   1.739   1.132   6.672
 8924SOL     OW27670   4.207   5.458   5.305
 8924SOL    HW127671   4.268   5.518   5.253
 8924SOL    HW227672   4.236   5.363   5.294
 8925SOL     OW27673   0.464   0.992   2.394
 8925SOL    HW127674   0.498   1.034   2.478
 8925SOL    HW227675   0.435   1.064   2.331
 8926SOL     OW27676   0.007   3.305   5.434
 8926SOL    HW127677   0.093   3.264   5.403
 8926SOL    HW227678   6.956   3.234   5.440
 8927SOL     OW27679   6.211   1.175   4.496
 8927SOL    HW127680   6.282   1.242   4.512
 8927SOL    HW227681   6.245   1.084   4.519
 8928SOL     OW27682   1.341   0.379   5.977
 8928SOL    HW127683   1.414   0.419   6.032
 8928SOL    HW227684   1.339   0.280   5.989
 8929SOL     OW27685   5.615   2.060   5.043
 8929SOL    HW127686   5.644   2.009   4.962
 8929SOL    HW227687   5.577   1.996   5.110
 8930SOL     OW27688   0.937   2.657   3.464
 8930SOL    HW127689   0.869   2.585   3.479
 8930SOL    HW227690   1.027   2.623   3.493
 8931SOL     OW27691   3.217   3.771   1.160
 8931SOL    HW127692   3.158   3.846   1.190
 8931SOL    HW227693   3.199   3.752   1.064
 8932SOL     OW27694   6.146   2.208   2.461
 8932SOL    HW127695   6.077   2.202   2.389
 8932SOL    HW227696   6.222   2.145   2.440
 8933SOL     OW27697   2.667   2.501   6.303
 8933SOL    HW127698   2.573   2.531   6.320
 8933SOL    HW227699   2.704   2.552   6.226
 8934SOL     OW27700   2.883   5.379   4.774
 8934SOL    HW127701   2.887   5.307   4.843
 8934SOL    HW227702   2.929   5.349   4.691
 8935SOL     OW27703   0.329   4.257   0.246
 8935SOL    HW127704   0.382   4.181   0.209
 8935SOL    HW227705   0.236   4.226   0.269
 8936SOL     OW27706   1.584   4.198   1.931
 8936SOL    HW127707   1.638   4.114   1.939
 8936SOL    HW227708   1.573   4.239   2.022
 8937SOL     OW27709   0.463   0.384   5.632
 8937SOL    HW127710   0.452   0.432   5.545
 8937SOL    HW227711   0.550   0.335   5.633
 8938SOL     OW27712   0.204   5.578   0.767
 8938SOL    HW127713   0.187   5.594   0.864
 8938SOL    HW227714   0.176   5.658   0.714
 8939SOL     OW27715   4.833   2.984   3.901
 8939SOL    HW127716   4.780   2.930   3.966
 8939SOL    HW227717   4.782   2.992   3.815
 8940SOL     OW27718   0.342   1.259   2.700
 8940SOL    HW127719   0.377   1.203   2.775
 8940SOL    HW227720   0.303   1.199   2.630
 8941SOL     OW27721   6.295   2.411   5.258
 8941SOL    HW127722   6.220   2.403   5.324
 8941SOL    HW227723   6.276   2.486   5.195
 8942SOL     OW27724   6.756   4.575   5.147
 8942SOL    HW127725   6.745   4.511   5.223
 8942SOL    HW227726   6.853   4.598   5.137
 8943SOL     OW27727   3.655   4.306   6.256
 8943SOL    HW127728   3.591   4.280   6.185
 8943SOL    HW227729   3.609   4.364   6.324
 8944SOL     OW27730   5.393   4.901   5.153
 8944SOL    HW127731   5.340   4.903   5.238
 8944SOL    HW227732   5.409   4.805   5.127
 8945SOL     OW27733   0.770   0.582   3.193
 8945SOL    HW127734   0.749   0.546   3.102
 8945SOL    HW227735   0.766   0.507   3.260
 8946SOL     OW27736   3.100   1.105   5.171
 8946SOL    HW127737   3.176   1.069   5.116
 8946SOL    HW227738   3.133   1.181   5.227
 8947SOL     OW27739   2.130   3.501   4.864
 8947SOL    HW127740   2.188   3.572   4.824
 8947SOL    HW227741   2.168   3.472   4.951
 8948SOL     OW27742   6.643   6.616   4.279
 8948SOL    HW127743   6.608   6.547   4.215
 8948SOL    HW227744   6.700   6.681   4.230
 8949SOL     OW27745   2.588   0.021   1.093
 8949SOL    HW127746   2.565   0.083   1.018
 8949SOL    HW227747   2.514   0.019   1.159
 8950SOL     OW27748   4.570   3.716   6.254
 8950SOL    HW127749   4.662   3.720   6.292
 8950SOL    HW227750   4.522   3.802   6.274
 8951SOL     OW27751   0.321   2.015   5.373
 8951SOL    HW127752   0.419   2.027   5.391
 8951SOL    HW227753   0.305   2.013   5.275
 8952SOL     OW27754   1.426   6.832   2.314
 8952SOL    HW127755   1.467   6.773   2.383
 8952SOL    HW227756   1.354   6.781   2.266
 8953SOL     OW27757   1.487   4.385   6.488
 8953SOL    HW127758   1.502   4.288   6.503
 8953SOL    HW227759   1.561   4.437   6.530
 8954SOL     OW27760   1.345   0.093   5.880
 8954SOL    HW127761   1.323   0.003   5.919
 8954SOL    HW227762   1.297   0.103   5.792
 8955SOL     OW27763   0.339   4.923   2.460
 8955SOL    HW127764   0.263   4.886   2.406
 8955SOL    HW227765   0.406   4.964   2.398
 8956SOL     OW27766   0.875   1.627   6.811
 8956SOL    HW127767   0.906   1.719   6.835
 8956SOL    HW227768   0.901   1.607   6.716
 8957SOL     OW27769   2.926   3.991   1.651
 8957SOL    HW127770   2.978   3.948   1.724
 8957SOL    HW227771   2.907   4.086   1.675
 8958SOL     OW27772   0.190   0.375   4.784
 8958SOL    HW127773   0.237   0.327   4.710
 8958SOL    HW227774   0.137   0.451   4.747
 8959SOL     OW27775   1.603   4.692   1.742
 8959SOL    HW127776   1.632   4.619   1.805
 8959SOL    HW227777   1.526   4.659   1.687
 8960SOL     OW27778   4.682   5.411   2.773
 8960SOL    HW127779   4.762   5.350   2.774
 8960SOL    HW227780   4.599   5.356   2.779
 8961SOL     OW27781   2.762   1.879   4.728
 8961SOL    HW127782   2.742   1.875   4.631
 8961SOL    HW227783   2.694   1.936   4.774
 8962SOL     OW27784   6.787   6.697   2.050
 8962SOL    HW127785   6.746   6.624   1.995
 8962SOL    HW227786   6.756   6.786   2.015
 8963SOL     OW27787   5.107   6.475   4.060
 8963SOL    HW127788   5.040   6.534   4.015
 8963SOL    HW227789   5.170   6.530   4.114
 8964SOL     OW27790   5.099   3.589   3.239
 8964SOL    HW127791   5.150   3.503   3.236
 8964SOL    HW227792   5.052   3.597   3.327
 8965SOL     OW27793   2.147   4.889   0.578
 8965SOL    HW127794   2.172   4.827   0.504
 8965SOL    HW227795   2.230   4.921   0.624
 8966SOL     OW27796   0.034   4.306   5.843
 8966SOL    HW127797   0.069   4.385   5.792
 8966SOL    HW227798   0.097   4.230   5.833
 8967SOL     OW27799   3.345   6.933   2.168
 8967SOL    HW127800   3.298   7.016   2.139
 8967SOL    HW227801   3.281   6.874   2.218
 8968SOL     OW27802   5.087   4.782   3.204
 8968SOL    HW127803   5.018   4.855   3.203
 8968SOL    HW227804   5.051   4.704   3.256
 8969SOL     OW27805   6.876   1.155   4.278
 8969SOL    HW127806   6.866   1.247   4.241
 8969SOL    HW227807   6.971   1.140   4.306
 8970SOL     OW27808   2.654   3.433   6.983
 8970SOL    HW127809   2.636   3.531   6.978
 8970SOL    HW227810   2.582   3.384   6.935
 8971SOL     OW27811   5.259   5.263   2.250
 8971SOL    HW127812   5.349   5.296   2.278
 8971SOL    HW227813   5.247   5.169   2.283
 8972SOL     OW27814   4.729   4.455   6.954
 8972SOL    HW127815   4.629   4.445   6.958
 8972SOL    HW227816   4.755   4.540   7.000
 8973SOL     OW27817   1.124   3.402   2.218
 8973SOL    HW127818   1.064   3.480   2.199
 8973SOL    HW227819   1.077   3.337   2.276
 8974SOL     OW27820   1.961   4.409   5.702
 8974SOL    HW127821   1.903   4.487   5.726
 8974SOL    HW227822   2.011   4.378   5.783
 8975SOL     OW27823   2.106   0.181   6.501
 8975SOL    HW127824   2.070   0.089   6.494
 8975SOL    HW227825   2.040   0.239   6.550
 8976SOL     OW27826   6.971   4.670   4.857
 8976SOL    HW127827   6.999   4.652   4.951
 8976SOL    HW227828   6.922   4.757   4.852
 8977SOL     OW27829   5.667   2.121   6.962
 8977SOL    HW127830   5.678   2.037   7.016
 8977SOL    HW227831   5.755   2.169   6.957
 8978SOL     OW27832   5.670   0.064   5.957
 8978SOL    HW127833   5.705   0.155   5.981
 8978SOL    HW227834   5.703   7.017   6.023
 8979SOL     OW27835   1.139   3.118   4.707
 8979SOL    HW127836   1.185   3.039   4.747
 8979SOL    HW227837   1.040   3.105   4.711
 8980SOL     OW27838   2.440   3.071   5.562
 8980SOL    HW127839   2.529   3.067   5.607
 8980SOL    HW227840   2.442   3.142   5.492
 8981SOL     OW27841   4.488   2.066   5.343
 8981SOL    HW127842   4.552   2.134   5.381
 8981SOL    HW227843   4.403   2.112   5.316
 8982SOL     OW27844   1.598   2.299   0.766
 8982SOL    HW127845   1.603   2.236   0.844
 8982SOL    HW227846   1.517   2.279   0.712
 8983SOL     OW27847   1.769   6.677   6.992
 8983SOL    HW127848   1.771   6.633   6.902
 8983SOL    HW227849   1.675   6.705   7.013
 8984SOL     OW27850   0.413   0.233   4.579
 8984SOL    HW127851   0.399   0.149   4.527
 8984SOL    HW227852   0.470   0.297   4.526
 8985SOL     OW27853   2.497   3.694   0.536
 8985SOL    HW127854   2.541   3.663   0.620
 8985SOL    HW227855   2.399   3.709   0.553
 8986SOL     OW27856   4.795   5.437   2.494
 8986SOL    HW127857   4.825   5.427   2.399
 8986SOL    HW227858   4.699   5.410   2.501
 8987SOL     OW27859   4.528   7.002   1.432
 8987SOL    HW127860   4.437   6.999   1.393
 8987SOL    HW227861   4.595   6.975   1.363
 8988SOL     OW27862   1.397   3.963   5.016
 8988SOL    HW127863   1.451   4.045   5.036
 8988SOL    HW227864   1.430   3.922   4.930
 8989SOL     OW27865   4.986   4.009   0.714
 8989SOL    HW127866   4.949   4.099   0.737
 8989SOL    HW227867   5.032   3.971   0.795
 8990SOL     OW27868   1.549   6.159   3.926
 8990SOL    HW127869   1.477   6.111   3.875
 8990SOL    HW227870   1.638   6.134   3.888
 8991SOL     OW27871   1.824   2.399   5.822
 8991SOL    HW127872   1.842   2.336   5.898
 8991SOL    HW227873   1.765   2.355   5.755
 8992SOL     OW27874   5.174   1.358   6.816
 8992SOL    HW127875   5.221   1.343   6.903
 8992SOL    HW227876   5.126   1.274   6.790
 8993SOL     OW27877   5.452   2.478   2.037
 8993SOL    HW127878   5.494   2.392   2.007
 8993SOL    HW227879   5.449   2.542   1.961
 8994SOL     OW27880   1.050   4.249   4.716
 8994SOL    HW127881   1.122   4.303   4.673
 8994SOL    HW227882   0.978   4.309   4.750
 8995SOL     OW27883   1.246   2.613   0.275
 8995SOL    HW127884   1.238   2.713   0.275
 8995SOL    HW227885   1.281   2.583   0.364
 8996SOL     OW27886   5.866   5.254   0.382
 8996SOL    HW127887   5.885   5.332   0.442
 8996SOL    HW227888   5.768   5.243   0.370
 8997SOL     OW27889   5.195   1.599   5.916
 8997SOL    HW127890   5.266   1.570   5.852
 8997SOL    HW227891   5.238   1.626   6.003
 8998SOL     OW27892   5.928   3.289   3.730
 8998SOL    HW127893   5.999   3.221   3.749
 8998SOL    HW227894   5.848   3.271   3.788
 8999SOL     OW27895   4.511   6.034   6.373
 8999SOL    HW127896   4.428   5.978   6.367
 8999SOL    HW227897   4.589   5.982   6.339
 9000SOL     OW27898   1.372   3.636   1.446
 9000SOL    HW127899   1.284   3.623   1.400
 9000SOL    HW227900   1.420   3.713   1.404
 9001SOL     OW27901   1.294   5.513   2.350
 9001SOL    HW127902   1.307   5.415   2.367
 9001SOL    HW227903   1.358   5.543   2.279
 9002SOL     OW27904   0.980   5.122   5.319
 9002SOL    HW127905   1.077   5.104   5.304
 9002SOL    HW227906   0.926   5.052   5.272
 9003SOL     OW27907   5.463   3.056   1.754
 9003SOL    HW127908   5.563   3.050   1.759
 9003SOL    HW227909   5.433   3.148   1.777
 9004SOL     OW27910   3.882   6.414   1.584
 9004SOL    HW127911   3.814   6.486   1.571
 9004SOL    HW227912   3.942   6.437   1.661
 9005SOL     OW27913   5.766   2.437   4.537
 9005SOL    HW127914   5.734   2.420   4.444
 9005SOL    HW227915   5.782   2.534   4.551
 9006SOL     OW27916   2.504   5.506   1.229
 9006SOL    HW127917   2.480   5.513   1.132
 9006SOL    HW227918   2.489   5.412   1.260
 9007SOL     OW27919   3.305   1.023   3.616
 9007SOL    HW127920   3.312   0.927   3.587
 9007SOL    HW227921   3.216   1.059   3.592
 9008SOL     OW27922   1.364   5.991   3.790
 9008SOL    HW127923   1.376   6.006   3.692
 9008SOL    HW227924   1.290   5.925   3.805
 9009SOL     OW27925   3.083   6.463   0.752
 9009SOL    HW127926   3.106   6.541   0.694
 9009SOL    HW227927   2.983   6.456   0.761
 9010SOL     OW27928   1.689   6.528   4.198
 9010SOL    HW127929   1.655   6.484   4.114
 9010SOL    HW227930   1.744   6.607   4.174
 9011SOL     OW27931   4.990   1.732   1.934
 9011SOL    HW127932   4.890   1.737   1.938
 9011SOL    HW227933   5.030   1.803   1.991
 9012SOL     OW27934   2.330   4.060   0.508
 9012SOL    HW127935   2.293   4.091   0.421
 9012SOL    HW227936   2.419   4.016   0.493
 9013SOL     OW27937   0.544   6.551   5.499
 9013SOL    HW127938   0.573   6.637   5.457
 9013SOL    HW227939   0.502   6.492   5.430
 9014SOL     OW27940   6.462   1.848   0.294
 9014SOL    HW127941   6.467   1.903   0.377
 9014SOL    HW227942   6.386   1.784   0.301
 9015SOL     OW27943   3.989   1.743   1.834
 9015SOL    HW127944   4.009   1.762   1.930
 9015SOL    HW227945   4.074   1.732   1.783
 9016SOL     OW27946   0.397   6.678   6.706
 9016SOL    HW127947   0.322   6.675   6.771
 9016SOL    HW227948   0.373   6.625   6.625
 9017SOL     OW27949   4.162   1.929   3.828
 9017SOL    HW127950   4.201   2.019   3.807
 9017SOL    HW227951   4.198   1.896   3.915
 9018SOL     OW27952   3.472   3.054   0.030
 9018SOL    HW127953   3.380   3.043   7.010
 9018SOL    HW227954   3.526   3.114   6.991
 9019SOL     OW27955   1.468   5.655   2.178
 9019SOL    HW127956   1.405   5.650   2.100
 9019SOL    HW227957   1.470   5.749   2.213
 9020SOL     OW27958   0.047   3.495   0.210
 9020SOL    HW127959   0.145   3.492   0.227
 9020SOL    HW227960   7.018   3.511   0.296
 9021SOL     OW27961   6.796   6.890   3.938
 9021SOL    HW127962   6.736   6.964   3.969
 9021SOL    HW227963   6.853   6.922   3.862
 9022SOL     OW27964   3.492   1.299   6.794
 9022SOL    HW127965   3.490   1.361   6.716
 9022SOL    HW227966   3.544   1.341   6.869
 9023SOL     OW27967   3.353   2.900   2.323
 9023SOL    HW127968   3.431   2.887   2.384
 9023SOL    HW227969   3.298   2.816   2.320
 9024SOL     OW27970   0.515   3.940   4.758
 9024SOL    HW127971   0.575   4.016   4.735
 9024SOL    HW227972   0.460   3.916   4.679
 9025SOL     OW27973   0.910   5.348   0.936
 9025SOL    HW127974   0.820   5.390   0.950
 9025SOL    HW227975   0.974   5.383   1.004
 9026SOL     OW27976   3.785   2.723   0.420
 9026SOL    HW127977   3.741   2.702   0.508
 9026SOL    HW227978   3.883   2.702   0.426
 9027SOL     OW27979   1.688   2.502   3.190
 9027SOL    HW127980   1.623   2.567   3.150
 9027SOL    HW227981   1.763   2.487   3.126
 9028SOL     OW27982   3.112   3.402   5.313
 9028SOL    HW127983   3.120   3.482   5.252
 9028SOL    HW227984   3.017   3.372   5.316
 9029SOL     OW27985   4.120   6.870   4.644
 9029SOL    HW127986   4.120   6.848   4.546
 9029SOL    HW227987   4.113   6.969   4.656
 9030SOL     OW27988   3.102   1.313   3.711
 9030SOL    HW127989   3.079   1.409   3.722
 9030SOL    HW227990   3.172   1.287   3.777
 9031SOL     OW27991   4.135   6.356   4.323
 9031SOL    HW127992   4.139   6.270   4.375
 9031SOL    HW227993   4.041   6.371   4.291
 9032SOL     OW27994   3.782   3.430   0.899
 9032SOL    HW127995   3.807   3.350   0.954
 9032SOL    HW227996   3.795   3.513   0.953
 9033SOL     OW27997   0.085   3.856   2.932
 9033SOL    HW127998   0.133   3.798   2.997
 9033SOL    HW227999   0.093   3.952   2.959
 9034SOL     OW28000   3.082   6.682   4.958
 9034SOL    HW128001   3.142   6.673   5.037
 9034SOL    HW228002   2.994   6.639   4.978
 9035SOL     OW28003   1.981   4.801   6.586
 9035SOL    HW128004   2.018   4.731   6.526
 9035SOL    HW228005   2.006   4.781   6.681
 9036SOL     OW28006   2.148   1.924   5.559
 9036SOL    HW128007   2.198   2.002   5.519
 9036SOL    HW228008   2.155   1.928   5.658
 9037SOL     OW28009   1.203   4.009   4.712
 9037SOL    HW128010   1.232   4.076   4.780
 9037SOL    HW228011   1.131   4.049   4.654
 9038SOL     OW28012   3.853   0.829   6.071
 9038SOL    HW128013   3.876   0.926   6.068
 9038SOL    HW228014   3.793   0.812   6.150
 9039SOL     OW28015   2.093   5.782   5.508
 9039SOL    HW128016   2.078   5.692   5.549
 9039SOL    HW228017   2.057   5.783   5.415
 9040SOL     OW28018   3.631   2.129   2.854
 9040SOL    HW128019   3.618   2.112   2.757
 9040SOL    HW228020   3.720   2.095   2.883
 9041SOL     OW28021   1.233   2.079   1.779
 9041SOL    HW128022   1.236   2.165   1.830
 9041SOL    HW228023   1.326   2.045   1.767
 9042SOL     OW28024   3.657   6.625   5.311
 9042SOL    HW128025   3.743   6.640   5.358
 9042SOL    HW228026   3.642   6.527   5.299
 9043SOL     OW28027   0.950   0.110   0.109
 9043SOL    HW128028   0.985   0.164   0.185
 9043SOL    HW228029   0.993   0.019   0.110
 9044SOL     OW28030   6.228   0.279   0.372
 9044SOL    HW128031   6.181   0.349   0.318
 9044SOL    HW228032   6.207   0.291   0.469
 9045SOL     OW28033   2.492   1.929   2.619
 9045SOL    HW128034   2.537   1.928   2.709
 9045SOL    HW228035   2.408   1.982   2.624
 9046SOL     OW28036   3.371   3.642   2.788
 9046SOL    HW128037   3.338   3.698   2.865
 9046SOL    HW228038   3.468   3.621   2.803
 9047SOL     OW28039   2.062   4.072   5.082
 9047SOL    HW128040   2.013   4.038   5.001
 9047SOL    HW228041   2.160   4.071   5.064
 9048SOL     OW28042   5.790   3.631   5.992
 9048SOL    HW128043   5.883   3.666   5.981
 9048SOL    HW228044   5.750   3.615   5.901
 9049SOL     OW28045   3.532   6.627   5.983
 9049SOL    HW128046   3.537   6.548   6.044
 9049SOL    HW228047   3.518   6.710   6.037
 9050SOL     OW28048   0.544   3.029   1.099
 9050SOL    HW128049   0.448   3.017   1.124
 9050SOL    HW228050   0.567   2.968   1.023
 9051SOL     OW28051   4.060   0.313   1.049
 9051SOL    HW128052   4.131   0.336   1.115
 9051SOL    HW228053   3.993   0.387   1.046
 9052SOL     OW28054   2.645   2.221   4.129
 9052SOL    HW128055   2.589   2.274   4.065
 9052SOL    HW228056   2.668   2.277   4.208
 9053SOL     OW28057   1.917   0.965   2.861
 9053SOL    HW128058   1.854   0.962   2.784
 9053SOL    HW228059   1.899   0.889   2.923
 9054SOL     OW28060   2.821   5.841   3.802
 9054SOL    HW128061   2.798   5.746   3.781
 9054SOL    HW228062   2.809   5.897   3.720
 9055SOL     OW28063   6.382   2.891   4.604
 9055SOL    HW128064   6.379   2.961   4.533
 9055SOL    HW228065   6.296   2.890   4.654
 9056SOL     OW28066   0.756   2.349   1.888
 9056SOL    HW128067   0.693   2.419   1.853
 9056SOL    HW228068   0.783   2.289   1.813
 9057SOL     OW28069   4.792   3.490   6.157
 9057SOL    HW128070   4.810   3.547   6.077
 9057SOL    HW228071   4.694   3.477   6.168
 9058SOL     OW28072   2.240   0.995   1.879
 9058SOL    HW128073   2.190   1.082   1.876
 9058SOL    HW228074   2.265   0.974   1.973
 9059SOL     OW28075   1.274   1.554   3.468
 9059SOL    HW128076   1.341   1.485   3.440
 9059SOL    HW228077   1.248   1.610   3.390
 9060SOL     OW28078   6.194   2.894   4.247
 9060SOL    HW128079   6.172   2.800   4.276
 9060SOL    HW228080   6.129   2.923   4.176
 9061SOL     OW28081   2.144   5.206   1.911
 9061SOL    HW128082   2.097   5.283   1.867
 9061SOL    HW228083   2.242   5.224   1.911
 9062SOL     OW28084   1.816   6.448   1.932
 9062SOL    HW128085   1.757   6.501   1.993
 9062SOL    HW228086   1.881   6.509   1.887
 9063SOL     OW28087   3.385   0.563   3.746
 9063SOL    HW128088   3.288   0.545   3.765
 9063SOL    HW228089   3.423   0.620   3.819
 9064SOL     OW28090   6.092   2.400   5.481
 9064SOL    HW128091   6.173   2.352   5.514
 9064SOL    HW228092   6.025   2.406   5.555
 9065SOL     OW28093   4.155   0.352   6.627
 9065SOL    HW128094   4.216   0.326   6.552
 9065SOL    HW228095   4.208   0.362   6.711
 9066SOL     OW28096   5.291   6.399   0.877
 9066SOL    HW128097   5.276   6.368   0.970
 9066SOL    HW228098   5.214   6.455   0.847
 9067SOL     OW28099   0.941   0.247   4.635
 9067SOL    HW128100   0.953   0.164   4.688
 9067SOL    HW228101   0.893   0.226   4.549
 9068SOL     OW28102   2.349   6.385   4.772
 9068SOL    HW128103   2.275   6.451   4.758
 9068SOL    HW228104   2.313   6.305   4.820
 9069SOL     OW28105   1.384   3.090   1.792
 9069SOL    HW128106   1.350   3.159   1.728
 9069SOL    HW228107   1.309   3.056   1.848
 9070SOL     OW28108   1.204   3.208   4.961
 9070SOL    HW128109   1.299   3.188   4.985
 9070SOL    HW228110   1.190   3.194   4.863
 9071SOL     OW28111   6.198   6.754   1.915
 9071SOL    HW128112   6.165   6.848   1.925
 9071SOL    HW228113   6.130   6.690   1.949
 9072SOL     OW28114   6.834   2.319   1.261
 9072SOL    HW128115   6.744   2.350   1.290
 9072SOL    HW228116   6.841   2.220   1.272
 9073SOL     OW28117   2.843   6.732   2.729
 9073SOL    HW128118   2.874   6.746   2.823
 9073SOL    HW228119   2.749   6.698   2.730
 9074SOL     OW28120   1.386   1.235   1.791
 9074SOL    HW128121   1.288   1.240   1.769
 9074SOL    HW228122   1.428   1.325   1.780
 9075SOL     OW28123   6.829   0.973   2.129
 9075SOL    HW128124   6.782   1.038   2.069
 9075SOL    HW228125   6.835   1.012   2.221
 9076SOL     OW28126   0.285   2.828   5.621
 9076SOL    HW128127   0.231   2.879   5.554
 9076SOL    HW228128   0.370   2.796   5.578
 9077SOL     OW28129   4.927   0.299   0.338
 9077SOL    HW128130   4.976   0.296   0.251
 9077SOL    HW228131   4.894   0.208   0.360
 9078SOL     OW28132   3.874   3.398   4.963
 9078SOL    HW128133   3.859   3.370   5.057
 9078SOL    HW228134   3.787   3.417   4.918
 9079SOL     OW28135   2.441   0.553   4.431
 9079SOL    HW128136   2.442   0.653   4.428
 9079SOL    HW228137   2.535   0.519   4.437
 9080SOL     OW28138   4.680   2.586   5.921
 9080SOL    HW128139   4.678   2.615   6.016
 9080SOL    HW228140   4.723   2.658   5.865
 9081SOL     OW28141   4.018   0.281   2.327
 9081SOL    HW128142   3.966   0.217   2.383
 9081SOL    HW228143   4.113   0.283   2.358
 9082SOL     OW28144   2.065   0.345   5.399
 9082SOL    HW128145   2.046   0.281   5.474
 9082SOL    HW228146   1.983   0.399   5.380
 9083SOL     OW28147   3.501   5.205   6.176
 9083SOL    HW128148   3.513   5.278   6.109
 9083SOL    HW228149   3.403   5.187   6.188
 9084SOL     OW28150   3.587   3.796   3.327
 9084SOL    HW128151   3.579   3.760   3.420
 9084SOL    HW228152   3.539   3.736   3.263
 9085SOL     OW28153   2.408   0.533   1.562
 9085SOL    HW128154   2.453   0.577   1.638
 9085SOL    HW228155   2.348   0.598   1.516
 9086SOL     OW28156   0.686   4.605   6.890
 9086SOL    HW128157   0.616   4.653   6.837
 9086SOL    HW228158   0.704   4.655   6.974
 9087SOL     OW28159   5.160   2.291   1.392
 9087SOL    HW128160   5.094   2.361   1.365
 9087SOL    HW228161   5.115   2.202   1.398
 9088SOL     OW28162   0.154   6.890   1.595
 9088SOL    HW128163   0.198   6.809   1.557
 9088SOL    HW228164   0.056   6.871   1.610
 9089SOL     OW28165   5.319   5.719   5.627
 9089SOL    HW128166   5.272   5.788   5.572
 9089SOL    HW228167   5.418   5.736   5.624
 9090SOL     OW28168   6.161   0.773   4.893
 9090SOL    HW128169   6.114   0.793   4.979
 9090SOL    HW228170   6.260   0.768   4.909
 9091SOL     OW28171   2.833   4.274   0.376
 9091SOL    HW128172   2.816   4.206   0.304
 9091SOL    HW228173   2.746   4.309   0.410
 9092SOL     OW28174   6.654   1.059   0.067
 9092SOL    HW128175   6.699   0.994   0.006
 9092SOL    HW228176   6.656   1.150   0.027
 9093SOL     OW28177   1.594   5.815   5.579
 9093SOL    HW128178   1.660   5.744   5.556
 9093SOL    HW228179   1.596   5.888   5.510
 9094SOL     OW28180   5.990   4.491   3.101
 9094SOL    HW128181   5.913   4.538   3.057
 9094SOL    HW228182   6.024   4.547   3.176
 9095SOL     OW28183   5.058   4.953   6.341
 9095SOL    HW128184   5.107   4.997   6.416
 9095SOL    HW228185   5.085   4.856   6.336
 9096SOL     OW28186   6.584   4.902   2.559
 9096SOL    HW128187   6.662   4.965   2.555
 9096SOL    HW228188   6.605   4.827   2.622
 9097SOL     OW28189   2.117   2.070   0.810
 9097SOL    HW128190   2.111   2.079   0.710
 9097SOL    HW228191   2.025   2.072   0.849
 9098SOL     OW28192   3.060   1.893   4.783
 9098SOL    HW128193   3.103   1.983   4.780
 9098SOL    HW228194   2.961   1.903   4.769
 9099SOL     OW28195   2.659   3.079   5.710
 9099SOL    HW128196   2.752   3.106   5.736
 9099SOL    HW228197   2.656   2.982   5.690
 9100SOL     OW28198   0.490   3.500   3.178
 9100SOL    HW128199   0.590   3.494   3.187
 9100SOL    HW228200   0.466   3.588   3.135
 9101SOL     OW28201   2.556   1.994   1.928
 9101SOL    HW128202   2.524   1.938   2.005
 9101SOL    HW228203   2.619   2.063   1.962
 9102SOL     OW28204   3.112   6.430   1.885
 9102SOL    HW128205   3.033   6.460   1.832
 9102SOL    HW228206   3.195   6.442   1.830
 9103SOL     OW28207   5.682   1.837   0.289
 9103SOL    HW128208   5.602   1.790   0.326
 9103SOL    HW228209   5.711   1.908   0.352
 9104SOL     OW28210   0.305   6.652   1.524
 9104SOL    HW128211   0.329   6.560   1.554
 9104SOL    HW228212   0.386   6.710   1.525
 9105SOL     OW28213   0.924   0.383   5.489
 9105SOL    HW128214   0.881   0.298   5.458
 9105SOL    HW228215   0.949   0.374   5.585
 9106SOL     OW28216   6.352   2.851   0.904
 9106SOL    HW128217   6.407   2.883   0.981
 9106SOL    HW228218   6.410   2.839   0.824
 9107SOL     OW28219   2.089   0.945   6.775
 9107SOL    HW128220   2.110   1.043   6.777
 9107SOL    HW228221   1.993   0.932   6.753
 9108SOL     OW28222   4.661   4.295   5.483
 9108SOL    HW128223   4.748   4.274   5.526
 9108SOL    HW228224   4.630   4.386   5.513
 9109SOL     OW28225   4.948   3.428   2.960
 9109SOL    HW128226   4.956   3.527   2.973
 9109SOL    HW228227   4.923   3.409   2.865
 9110SOL     OW28228   1.251   5.576   4.380
 9110SOL    HW128229   1.319   5.626   4.434
 9110SOL    HW228230   1.247   5.613   4.287
 9111SOL     OW28231   4.470   2.717   6.503
 9111SOL    HW128232   4.388   2.761   6.538
 9111SOL    HW228233   4.456   2.619   6.497
 9112SOL     OW28234   1.324   4.885   2.426
 9112SOL    HW128235   1.253   4.902   2.494
 9112SOL    HW228236   1.309   4.795   2.384
 9113SOL     OW28237   5.247   2.386   2.822
 9113SOL    HW128238   5.332   2.337   2.801
 9113SOL    HW228239   5.233   2.459   2.755
 9114SOL     OW28240   0.581   5.655   3.756
 9114SOL    HW128241   0.622   5.618   3.839
 9114SOL    HW228242   0.627   5.741   3.732
 9115SOL     OW28243   5.819   5.690   4.926
 9115SOL    HW128244   5.883   5.665   4.853
 9115SOL    HW228245   5.823   5.620   4.998
 9116SOL     OW28246   0.260   0.181   3.108
 9116SOL    HW128247   0.247   0.157   3.012
 9116SOL    HW228248   0.171   0.196   3.151
 9117SOL     OW28249   3.852   2.639   6.581
 9117SOL    HW128250   3.831   2.704   6.508
 9117SOL    HW228251   3.900   2.560   6.543
 9118SOL     OW28252   6.583   3.320   0.201
 9118SOL    HW128253   6.510   3.309   0.134
 9118SOL    HW228254   6.584   3.241   0.262
 9119SOL     OW28255   4.218   1.379   1.393
 9119SOL    HW128256   4.143   1.383   1.459
 9119SOL    HW228257   4.236   1.283   1.370
 9120SOL     OW28258   6.433   2.936   5.538
 9120SOL    HW128259   6.427   2.851   5.589
 9120SOL    HW228260   6.398   2.922   5.445
 9121SOL     OW28261   3.652   6.829   5.638
 9121SOL    HW128262   3.658   6.924   5.669
 9121SOL    HW228263   3.708   6.818   5.556
 9122SOL     OW28264   2.310   4.083   2.047
 9122SOL    HW128265   2.383   4.137   2.006
 9122SOL    HW228266   2.308   4.098   2.146
 9123SOL     OW28267   1.732   0.358   4.130
 9123SOL    HW128268   1.807   0.383   4.191
 9123SOL    HW228269   1.741   0.261   4.105
 9124SOL     OW28270   3.811   5.516   2.023
 9124SOL    HW128271   3.736   5.460   2.059
 9124SOL    HW228272   3.871   5.458   1.968
 9125SOL     OW28273   3.750   4.231   0.902
 9125SOL    HW128274   3.655   4.240   0.932
 9125SOL    HW228275   3.790   4.323   0.891
 9126SOL     OW28276   4.787   3.918   0.981
 9126SOL    HW128277   4.739   3.940   1.066
 9126SOL    HW228278   4.886   3.924   0.996
 9127SOL     OW28279   6.409   2.816   5.243
 9127SOL    HW128280   6.434   2.783   5.152
 9127SOL    HW228281   6.344   2.752   5.285
 9128SOL     OW28282   6.142   2.557   4.546
 9128SOL    HW128283   6.171   2.608   4.464
 9128SOL    HW228284   6.150   2.459   4.528
 9129SOL     OW28285   0.423   1.960   0.582
 9129SOL    HW128286   0.486   1.980   0.507
 9129SOL    HW228287   0.361   2.037   0.595
 9130SOL     OW28288   0.672   3.982   6.158
 9130SOL    HW128289   0.572   3.989   6.151
 9130SOL    HW228290   0.711   3.972   6.067
 9131SOL     OW28291   5.418   3.435   0.190
 9131SOL    HW128292   5.343   3.399   0.245
 9131SOL    HW228293   5.421   3.534   0.198
 9132SOL     OW28294   0.822   4.613   4.143
 9132SOL    HW128295   0.766   4.577   4.068
 9132SOL    HW228296   0.845   4.709   4.123
 9133SOL     OW28297   3.455   0.973   1.075
 9133SOL    HW128298   3.518   1.047   1.098
 9133SOL    HW228299   3.391   0.959   1.151
 9134SOL     OW28300   3.889   5.683   1.144
 9134SOL    HW128301   3.914   5.587   1.134
 9134SOL    HW228302   3.930   5.736   1.070
 9135SOL     OW28303   1.522   6.324   1.619
 9135SOL    HW128304   1.458   6.401   1.619
 9135SOL    HW228305   1.605   6.349   1.569
 9136SOL     OW28306   4.275   5.938   6.017
 9136SOL    HW128307   4.375   5.948   6.023
 9136SOL    HW228308   4.252   5.844   5.995
 9137SOL     OW28309   4.221   0.031   5.730
 9137SOL    HW128310   4.276   6.976   5.693
 9137SOL    HW228311   4.279   0.091   5.785
 9138SOL     OW28312   2.102   3.394   0.251
 9138SOL    HW128313   2.192   3.389   0.209
 9138SOL    HW228314   2.079   3.306   0.292
 9139SOL     OW28315   0.878   1.526   1.489
 9139SOL    HW128316   0.876   1.564   1.582
 9139SOL    HW228317   0.863   1.427   1.493
 9140SOL     OW28318   0.496   4.994   2.269
 9140SOL    HW128319   0.586   5.038   2.280
 9140SOL    HW228320   0.491   4.953   2.178
 9141SOL     OW28321   6.997   6.053   6.698
 9141SOL    HW128322   0.068   6.040   6.736
 9141SOL    HW228323   6.995   6.137   6.643
 9142SOL     OW28324   0.033   2.716   2.905
 9142SOL    HW128325   0.008   2.761   2.820
 9142SOL    HW228326   6.985   2.739   2.976
 9143SOL     OW28327   0.667   4.114   1.061
 9143SOL    HW128328   0.750   4.059   1.070
 9143SOL    HW228329   0.665   4.156   0.970
 9144SOL     OW28330   2.910   4.817   4.713
 9144SOL    HW128331   2.961   4.748   4.764
 9144SOL    HW228332   2.833   4.848   4.768
 9145SOL     OW28333   1.314   6.969   6.646
 9145SOL    HW128334   1.322   6.962   6.546
 9145SOL    HW228335   1.307   6.878   6.686
 9146SOL     OW28336   5.450   2.666   3.164
 9146SOL    HW128337   5.387   2.677   3.087
 9146SOL    HW228338   5.398   2.649   3.248
 9147SOL     OW28339   6.380   0.522   5.151
 9147SOL    HW128340   6.395   0.618   5.171
 9147SOL    HW228341   6.303   0.488   5.206
 9148SOL     OW28342   5.849   0.131   2.057
 9148SOL    HW128343   5.793   0.112   1.977
 9148SOL    HW228344   5.916   0.203   2.036
 9149SOL     OW28345   5.412   2.927   2.368
 9149SOL    HW128346   5.363   2.864   2.307
 9149SOL    HW228347   5.406   3.020   2.331
 9150SOL     OW28348   3.244   4.266   0.644
 9150SOL    HW128349   3.254   4.359   0.679
 9150SOL    HW228350   3.334   4.226   0.630
 9151SOL     OW28351   2.359   4.336   3.843
 9151SOL    HW128352   2.353   4.374   3.751
 9151SOL    HW228353   2.315   4.246   3.846
 9152SOL     OW28354   1.930   4.351   4.493
 9152SOL    HW128355   2.022   4.354   4.531
 9152SOL    HW228356   1.897   4.257   4.492
 9153SOL     OW28357   0.715   3.402   6.455
 9153SOL    HW128358   0.702   3.364   6.364
 9153SOL    HW228359   0.626   3.413   6.499
 9154SOL     OW28360   4.917   5.207   3.055
 9154SOL    HW128361   4.904   5.135   3.123
 9154SOL    HW228362   4.896   5.296   3.095
 9155SOL     OW28363   1.641   4.610   3.113
 9155SOL    HW128364   1.692   4.542   3.060
 9155SOL    HW228365   1.704   4.682   3.142
 9156SOL     OW28366   6.732   2.777   1.056
 9156SOL    HW128367   6.692   2.688   1.034
 9156SOL    HW228368   6.797   2.767   1.132
 9157SOL     OW28369   3.273   3.818   6.334
 9157SOL    HW128370   3.193   3.871   6.305
 9157SOL    HW228371   3.353   3.849   6.283
 9158SOL     OW28372   6.593   4.515   4.226
 9158SOL    HW128373   6.639   4.593   4.183
 9158SOL    HW228374   6.552   4.458   4.155
 9159SOL     OW28375   1.985   6.773   3.208
 9159SOL    HW128376   1.906   6.794   3.150
 9159SOL    HW228377   1.987   6.834   3.286
 9160SOL     OW28378   0.311   5.053   6.771
 9160SOL    HW128379   0.217   5.042   6.737
 9160SOL    HW228380   0.367   5.095   6.700
 9161SOL     OW28381   5.792   4.684   3.044
 9161SOL    HW128382   5.782   4.730   2.956
 9161SOL    HW228383   5.703   4.649   3.073
 9162SOL     OW28384   3.940   0.955   3.126
 9162SOL    HW128385   3.863   0.910   3.171
 9162SOL    HW228386   4.019   0.894   3.128
 9163SOL     OW28387   6.895   2.444   1.764
 9163SOL    HW128388   6.983   2.410   1.797
 9163SOL    HW228389   6.833   2.458   1.841
 9164SOL     OW28390   2.210   0.688   0.091
 9164SOL    HW128391   2.209   0.659   7.015
 9164SOL    HW228392   2.143   0.762   0.104
 9165SOL     OW28393   5.055   2.291   5.879
 9165SOL    HW128394   5.145   2.310   5.919
 9165SOL    HW228395   5.057   2.202   5.833
 9166SOL     OW28396   4.152   5.825   1.103
 9166SOL    HW128397   4.221   5.890   1.071
 9166SOL    HW228398   4.147   5.828   1.203
 9167SOL     OW28399   1.031   1.880   6.843
 9167SOL    HW128400   1.071   1.812   6.904
 9167SOL    HW228401   1.088   1.890   6.761
 9168SOL     OW28402   6.524   5.385   6.039
 9168SOL    HW128403   6.572   5.348   5.960
 9168SOL    HW228404   6.567   5.352   6.123
 9169SOL     OW28405   0.114   6.583   6.314
 9169SOL    HW128406   0.030   6.529   6.304
 9169SOL    HW228407   0.141   6.619   6.225
 9170SOL     OW28408   1.982   1.883   6.373
 9170SOL    HW128409   1.911   1.954   6.373
 9170SOL    HW228410   2.051   1.905   6.304
 9171SOL     OW28411   2.524   5.251   0.981
 9171SOL    HW128412   2.598   5.187   0.962
 9171SOL    HW228413   2.559   5.344   0.981
 9172SOL     OW28414   4.772   1.431   4.903
 9172SOL    HW128415   4.698   1.367   4.919
 9172SOL    HW228416   4.819   1.408   4.818
 9173SOL     OW28417   6.990   3.159   4.247
 9173SOL    HW128418   6.966   3.221   4.172
 9173SOL    HW228419   6.992   3.211   4.333
 9174SOL     OW28420   0.652   5.763   6.843
 9174SOL    HW128421   0.601   5.689   6.801
 9174SOL    HW228422   0.646   5.755   6.943
 9175SOL     OW28423   1.593   6.485   0.349
 9175SOL    HW128424   1.560   6.498   0.256
 9175SOL    HW228425   1.642   6.399   0.355
 9176SOL     OW28426   2.201   0.385   2.712
 9176SOL    HW128427   2.245   0.319   2.651
 9176SOL    HW228428   2.124   0.341   2.759
 9177SOL     OW28429   1.367   3.207   3.604
 9177SOL    HW128430   1.340   3.111   3.609
 9177SOL    HW228431   1.286   3.266   3.609
 9178SOL     OW28432   2.282   5.740   6.514
 9178SOL    HW128433   2.272   5.770   6.419
 9178SOL    HW228434   2.376   5.754   6.544
 9179SOL     OW28435   3.636   6.125   4.744
 9179SOL    HW128436   3.560   6.083   4.695
 9179SOL    HW228437   3.602   6.200   4.801
 9180SOL     OW28438   6.486   1.979   4.355
 9180SOL    HW128439   6.562   2.031   4.315
 9180SOL    HW228440   6.416   1.963   4.285
 9181SOL     OW28441   4.721   2.708   3.730
 9181SOL    HW128442   4.770   2.672   3.809
 9181SOL    HW228443   4.623   2.686   3.739
 9182SOL     OW28444   2.461   1.226   2.895
 9182SOL    HW128445   2.456   1.290   2.818
 9182SOL    HW228446   2.397   1.151   2.880
 9183SOL     OW28447   4.728   3.187   6.605
 9183SOL    HW128448   4.728   3.285   6.587
 9183SOL    HW228449   4.801   3.143   6.552
 9184SOL     OW28450   3.162   2.093   0.898
 9184SOL    HW128451   3.259   2.109   0.885
 9184SOL    HW228452   3.138   2.002   0.865
 9185SOL     OW28453   0.220   6.967   6.192
 9185SOL    HW128454   0.126   6.954   6.161
 9185SOL    HW228455   0.255   6.882   6.230
 9186SOL     OW28456   5.009   0.443   6.033
 9186SOL    HW128457   4.982   0.521   5.977
 9186SOL    HW228458   5.107   0.427   6.024
 9187SOL     OW28459   4.538   1.883   6.854
 9187SOL    HW128460   4.452   1.865   6.806
 9187SOL    HW228461   4.537   1.976   6.891
 9188SOL     OW28462   1.592   0.885   1.303
 9188SOL    HW128463   1.519   0.869   1.236
 9188SOL    HW228464   1.599   0.806   1.364
 9189SOL     OW28465   3.371   1.123   3.355
 9189SOL    HW128466   3.362   1.179   3.273
 9189SOL    HW228467   3.281   1.112   3.398
 9190SOL     OW28468   6.027   3.898   5.481
 9190SOL    HW128469   6.003   3.810   5.522
 9190SOL    HW228470   5.988   3.972   5.535
 9191SOL     OW28471   5.211   6.529   0.154
 9191SOL    HW128472   5.210   6.463   0.079
 9191SOL    HW228473   5.214   6.481   0.242
 9192SOL     OW28474   5.923   4.079   5.660
 9192SOL    HW128475   5.970   4.112   5.743
 9192SOL    HW228476   5.879   4.157   5.614
 9193SOL     OW28477   2.952   3.369   4.010
 9193SOL    HW128478   3.051   3.381   4.010
 9193SOL    HW228479   2.916   3.393   4.100
 9194SOL     OW28480   3.482   6.273   2.345
 9194SOL    HW128481   3.435   6.317   2.268
 9194SOL    HW228482   3.416   6.252   2.417
 9195SOL     OW28483   1.121   3.029   3.736
 9195SOL    HW128484   1.195   2.970   3.703
 9195SOL    HW228485   1.105   3.011   3.833
 9196SOL     OW28486   3.980   0.004   4.093
 9196SOL    HW128487   3.944   6.931   4.104
 9196SOL    HW228488   4.058   0.002   4.031
 9197SOL     OW28489   2.845   3.451   0.586
 9197SOL    HW128490   2.801   3.540   0.574
 9197SOL    HW228491   2.944   3.461   0.580
 9198SOL     OW28492   5.618   4.396   6.129
 9198SOL    HW128493   5.644   4.372   6.222
 9198SOL    HW228494   5.588   4.491   6.126
 9199SOL     OW28495   0.986   3.452   6.283
 9199SOL    HW128496   0.948   3.508   6.209
 9199SOL    HW228497   0.924   3.376   6.301
 9200SOL     OW28498   0.681   5.945   0.566
 9200SOL    HW128499   0.653   5.982   0.655
 9200SOL    HW228500   0.673   5.845   0.567
 9201SOL     OW28501   0.501   4.278   1.708
 9201SOL    HW128502   0.578   4.261   1.646
 9201SOL    HW228503   0.455   4.192   1.728
 9202SOL     OW28504   2.296   5.475   4.870
 9202SOL    HW128505   2.315   5.381   4.843
 9202SOL    HW228506   2.216   5.509   4.820
 9203SOL     OW28507   5.126   1.989   6.174
 9203SOL    HW128508   5.091   1.930   6.247
 9203SOL    HW228509   5.109   1.947   6.085
 9204SOL     OW28510   5.662   3.914   3.144
 9204SOL    HW128511   5.627   3.978   3.213
 9204SOL    HW228512   5.586   3.877   3.091
 9205SOL     OW28513   5.174   3.342   2.755
 9205SOL    HW128514   5.268   3.338   2.791
 9205SOL    HW228515   5.147   3.437   2.744
 9206SOL     OW28516   2.944   0.087   4.537
 9206SOL    HW128517   2.914   0.111   4.629
 9206SOL    HW228518   2.994   0.001   4.540
 9207SOL     OW28519   3.484   6.349   5.832
 9207SOL    HW128520   3.476   6.429   5.772
 9207SOL    HW228521   3.580   6.331   5.851
 9208SOL     OW28522   4.878   3.441   2.348
 9208SOL    HW128523   4.780   3.422   2.343
 9208SOL    HW228524   4.911   3.470   2.259
 9209SOL     OW28525   3.941   1.068   1.995
 9209SOL    HW128526   3.889   1.143   1.954
 9209SOL    HW228527   3.993   1.021   1.924
 9210SOL     OW28528   2.506   0.124   2.034
 9210SOL    HW128529   2.542   0.043   1.987
 9210SOL    HW228530   2.570   0.151   2.106
 9211SOL     OW28531   5.723   1.597   6.059
 9211SOL    HW128532   5.815   1.564   6.077
 9211SOL    HW228533   5.691   1.651   6.137
 9212SOL     OW28534   4.585   4.439   4.792
 9212SOL    HW128535   4.546   4.464   4.703
 9212SOL    HW228536   4.516   4.450   4.863
 9213SOL     OW28537   5.622   6.929   4.755
 9213SOL    HW128538   5.659   6.844   4.793
 9213SOL    HW228539   5.691   7.001   4.763
 9214SOL     OW28540   1.630   2.234   4.854
 9214SOL    HW128541   1.544   2.248   4.902
 9214SOL    HW228542   1.617   2.252   4.756
 9215SOL     OW28543   6.966   4.329   2.325
 9215SOL    HW128544   6.966   4.423   2.289
 9215SOL    HW228545   0.023   4.279   2.287
 9216SOL     OW28546   2.344   6.269   4.427
 9216SOL    HW128547   2.383   6.183   4.460
 9216SOL    HW228548   2.384   6.346   4.479
 9217SOL     OW28549   5.092   1.042   6.274
 9217SOL    HW128550   5.181   1.066   6.312
 9217SOL    HW228551   5.104   0.986   6.192
 9218SOL     OW28552   4.521   0.190   6.289
 9218SOL    HW128553   4.492   0.101   6.252
 9218SOL    HW228554   4.613   0.211   6.256
 9219SOL     OW28555   4.054   2.947   5.329
 9219SOL    HW128556   4.143   2.991   5.316
 9219SOL    HW228557   3.986   2.989   5.269
 9220SOL     OW28558   2.482   6.071   3.041
 9220SOL    HW128559   2.489   6.042   2.946
 9220SOL    HW228560   2.480   5.991   3.101
 9221SOL     OW28561   2.258   0.816   5.924
 9221SOL    HW128562   2.190   0.888   5.910
 9221SOL    HW228563   2.279   0.772   5.836
 9222SOL     OW28564   2.566   4.514   4.129
 9222SOL    HW128565   2.646   4.542   4.075
 9222SOL    HW228566   2.587   4.521   4.226
 9223SOL     OW28567   1.022   3.270   4.094
 9223SOL    HW128568   0.972   3.331   4.156
 9223SOL    HW228569   0.988   3.176   4.105
 9224SOL     OW28570   0.927   3.664   3.737
 9224SOL    HW128571   0.948   3.711   3.823
 9224SOL    HW228572   0.939   3.565   3.750
 9225SOL     OW28573   3.892   6.688   6.014
 9225SOL    HW128574   3.945   6.624   6.069
 9225SOL    HW228575   3.837   6.746   6.073
 9226SOL     OW28576   1.170   6.998   1.351
 9226SOL    HW128577   1.194   0.054   1.291
 9226SOL    HW228578   1.236   6.993   1.426
 9227SOL     OW28579   1.440   5.703   1.408
 9227SOL    HW128580   1.341   5.694   1.409
 9227SOL    HW228581   1.481   5.623   1.364
 9228SOL     OW28582   2.108   2.809   5.954
 9228SOL    HW128583   2.178   2.764   5.900
 9228SOL    HW228584   2.082   2.750   6.031
 9229SOL     OW28585   1.216   5.078   6.971
 9229SOL    HW128586   1.132   5.045   7.015
 9229SOL    HW228587   1.197   5.162   6.921
 9230SOL     OW28588   4.896   2.255   4.372
 9230SOL    HW128589   4.867   2.172   4.420
 9230SOL    HW228590   4.994   2.250   4.353
 9231SOL     OW28591   0.393   5.125   5.485
 9231SOL    HW128592   0.374   5.067   5.406
 9231SOL    HW228593   0.339   5.094   5.563
 9232SOL     OW28594   1.799   5.060   1.736
 9232SOL    HW128595   1.768   5.020   1.822
 9232SOL    HW228596   1.724   5.110   1.692
 9233SOL     OW28597   0.951   6.442   0.600
 9233SOL    HW128598   0.909   6.427   0.511
 9233SOL    HW228599   0.932   6.364   0.660
 9234SOL     OW28600   2.433   5.007   1.098
 9234SOL    HW128601   2.476   5.097   1.097
 9234SOL    HW228602   2.344   5.013   1.053
 9235SOL     OW28603   2.419   2.606   3.332
 9235SOL    HW128604   2.512   2.596   3.368
 9235SOL    HW228605   2.362   2.655   3.397
 9236SOL     OW28606   1.980   3.652   0.045
 9236SOL    HW128607   1.932   3.565   0.040
 9236SOL    HW228608   1.987   3.681   0.140
 9237SOL     OW28609   6.905   5.994   3.083
 9237SOL    HW128610   6.839   5.956   3.148
 9237SOL    HW228611   6.873   6.083   3.051
 9238SOL     OW28612   2.254   2.905   5.691
 9238SOL    HW128613   2.346   2.930   5.662
 9238SOL    HW228614   2.253   2.808   5.717
 9239SOL     OW28615   6.853   4.559   6.776
 9239SOL    HW128616   6.800   4.624   6.830
 9239SOL    HW228617   6.862   4.594   6.683
 9240SOL     OW28618   5.196   3.286   3.028
 9240SOL    HW128619   5.110   3.291   2.977
 9240SOL    HW228620   5.178   3.291   3.126
 9241SOL     OW28621   0.497   5.551   6.757
 9241SOL    HW128622   0.460   5.485   6.824
 9241SOL    HW228623   0.531   5.501   6.677
 9242SOL     OW28624   1.715   2.403   1.627
 9242SOL    HW128625   1.696   2.501   1.630
 9242SOL    HW228626   1.631   2.351   1.643
 9243SOL     OW28627   1.192   6.910   1.851
 9243SOL    HW128628   1.261   6.968   1.893
 9243SOL    HW228629   1.133   6.966   1.792
 9244SOL     OW28630   2.776   6.548   5.610
 9244SOL    HW128631   2.706   6.602   5.564
 9244SOL    HW228632   2.827   6.606   5.674
 9245SOL     OW28633   0.968   4.075   3.414
 9245SOL    HW128634   1.047   4.019   3.439
 9245SOL    HW228635   0.954   4.070   3.315
 9246SOL     OW28636   6.166   0.297   4.066
 9246SOL    HW128637   6.176   0.321   4.163
 9246SOL    HW228638   6.077   0.255   4.051
 9247SOL     OW28639   4.072   5.184   2.979
 9247SOL    HW128640   3.981   5.146   2.999
 9247SOL    HW228641   4.141   5.134   3.033
 9248SOL     OW28642   2.831   0.999   4.881
 9248SOL    HW128643   2.806   0.904   4.865
 9248SOL    HW228644   2.772   1.059   4.827
 9249SOL     OW28645   3.772   4.697   1.679
 9249SOL    HW128646   3.796   4.614   1.629
 9249SOL    HW228647   3.686   4.682   1.728
 9250SOL     OW28648   6.547   4.028   3.343
 9250SOL    HW128649   6.540   4.084   3.260
 9250SOL    HW228650   6.642   4.028   3.375
 9251SOL     OW28651   3.624   2.648   1.441
 9251SOL    HW128652   3.687   2.721   1.416
 9251SOL    HW228653   3.658   2.601   1.522
 9252SOL     OW28654   4.519   0.559   4.977
 9252SOL    HW128655   4.587   0.505   5.025
 9252SOL    HW228656   4.431   0.512   4.980
 9253SOL     OW28657   5.522   5.026   5.935
 9253SOL    HW128658   5.491   4.982   6.020
 9253SOL    HW228659   5.575   5.108   5.958
 9254SOL     OW28660   5.457   4.265   2.471
 9254SOL    HW128661   5.470   4.284   2.373
 9254SOL    HW228662   5.534   4.210   2.505
 9255SOL     OW28663   5.848   3.513   6.644
 9255SOL    HW128664   5.806   3.572   6.713
 9255SOL    HW228665   5.827   3.417   6.665
 9256SOL     OW28666   2.137   0.082   1.747
 9256SOL    HW128667   2.051   0.058   1.792
 9256SOL    HW228668   2.146   0.182   1.744
 9257SOL     OW28669   6.094   5.749   3.623
 9257SOL    HW128670   6.093   5.832   3.679
 9257SOL    HW228671   6.082   5.775   3.527
 9258SOL     OW28672   3.352   3.343   0.532
 9258SOL    HW128673   3.392   3.260   0.572
 9258SOL    HW228674   3.423   3.395   0.485
 9259SOL     OW28675   2.159   1.791   0.395
 9259SOL    HW128676   2.224   1.799   0.319
 9259SOL    HW228677   2.202   1.822   0.479
 9260SOL     OW28678   6.871   3.022   6.213
 9260SOL    HW128679   6.833   3.113   6.230
 9260SOL    HW228680   6.862   2.966   6.296
 9261SOL     OW28681   4.823   1.226   0.250
 9261SOL    HW128682   4.827   1.286   0.330
 9261SOL    HW228683   4.829   1.280   0.166
 9262SOL     OW28684   0.619   6.740   4.805
 9262SOL    HW128685   0.580   6.734   4.897
 9262SOL    HW228686   0.699   6.681   4.798
 9263SOL     OW28687   3.072   5.658   2.933
 9263SOL    HW128688   3.042   5.607   2.853
 9263SOL    HW228689   3.077   5.755   2.911
 9264SOL     OW28690   5.226   3.397   6.805
 9264SOL    HW128691   5.223   3.495   6.785
 9264SOL    HW228692   5.241   3.347   6.719
 9265SOL     OW28693   3.644   2.393   6.587
 9265SOL    HW128694   3.639   2.408   6.685
 9265SOL    HW228695   3.693   2.470   6.545
 9266SOL     OW28696   0.377   5.580   1.045
 9266SOL    HW128697   0.316   5.640   1.098
 9266SOL    HW228698   0.361   5.595   0.948
 9267SOL     OW28699   0.831   1.601   4.059
 9267SOL    HW128700   0.906   1.537   4.041
 9267SOL    HW228701   0.746   1.549   4.070
 9268SOL     OW28702   1.231   6.666   2.492
 9268SOL    HW128703   1.159   6.728   2.522
 9268SOL    HW228704   1.315   6.684   2.542
 9269SOL     OW28705   4.371   0.316   6.471
 9269SOL    HW128706   4.393   0.414   6.467
 9269SOL    HW228707   4.422   0.268   6.400
 9270SOL     OW28708   3.356   1.079   5.606
 9270SOL    HW128709   3.410   1.007   5.563
 9270SOL    HW228710   3.258   1.057   5.599
 9271SOL     OW28711   0.673   6.944   0.651
 9271SOL    HW128712   0.689   6.990   0.738
 9271SOL    HW228713   0.585   6.897   0.653
 9272SOL     OW28714   0.671   6.695   6.749
 9272SOL    HW128715   0.717   6.746   6.677
 9272SOL    HW228716   0.575   6.681   6.724
 9273SOL     OW28717   5.227   6.028   4.115
 9273SOL    HW128718   5.304   6.053   4.057
 9273SOL    HW228719   5.166   5.966   4.066
 9274SOL     OW28720   0.029   3.203   0.298
 9274SOL    HW128721   6.974   3.266   0.275
 9274SOL    HW228722   0.102   3.253   0.345
 9275SOL     OW28723   0.502   6.360   0.751
 9275SOL    HW128724   0.506   6.428   0.824
 9275SOL    HW228725   0.474   6.404   0.665
 9276SOL     OW28726   2.896   4.850   0.185
 9276SOL    HW128727   2.865   4.764   0.224
 9276SOL    HW228728   2.995   4.860   0.200
 9277SOL     OW28729   4.062   4.778   3.032
 9277SOL    HW128730   4.116   4.712   2.979
 9277SOL    HW228731   4.080   4.766   3.129
 9278SOL     OW28732   6.956   0.698   5.446
 9278SOL    HW128733   7.017   0.693   5.525
 9278SOL    HW228734   6.990   0.767   5.382
 9279SOL     OW28735   3.508   6.264   1.803
 9279SOL    HW128736   3.568   6.259   1.723
 9279SOL    HW228737   3.544   6.205   1.876
 9280SOL     OW28738   2.162   1.985   2.202
 9280SOL    HW128739   2.186   2.060   2.264
 9280SOL    HW228740   2.106   1.919   2.251
 9281SOL     OW28741   3.434   3.886   5.715
 9281SOL    HW128742   3.416   3.821   5.642
 9281SOL    HW228743   3.410   3.846   5.803
 9282SOL     OW28744   4.279   0.794   4.439
 9282SOL    HW128745   4.242   0.753   4.523
 9282SOL    HW228746   4.326   0.725   4.385
 9283SOL     OW28747   5.518   0.195   6.431
 9283SOL    HW128748   5.441   0.202   6.368
 9283SOL    HW228749   5.483   0.192   6.525
 9284SOL     OW28750   3.157   3.790   4.766
 9284SOL    HW128751   3.108   3.813   4.682
 9284SOL    HW228752   3.095   3.795   4.844
 9285SOL     OW28753   5.258   3.301   1.546
 9285SOL    HW128754   5.267   3.219   1.490
 9285SOL    HW228755   5.324   3.370   1.516
 9286SOL     OW28756   5.101   5.593   0.427
 9286SOL    HW128757   5.064   5.543   0.506
 9286SOL    HW228758   5.060   5.684   0.422
 9287SOL     OW28759   1.820   4.169   5.548
 9287SOL    HW128760   1.740   4.129   5.594
 9287SOL    HW228761   1.902   4.153   5.603
 9288SOL     OW28762   4.592   2.603   3.383
 9288SOL    HW128763   4.536   2.566   3.309
 9288SOL    HW228764   4.656   2.533   3.415
 9289SOL     OW28765   4.610   0.617   6.277
 9289SOL    HW128766   4.699   0.601   6.320
 9289SOL    HW228767   4.623   0.666   6.191
 9290SOL     OW28768   6.039   0.704   3.790
 9290SOL    HW128769   5.975   0.649   3.737
 9290SOL    HW228770   6.072   0.651   3.868
 9291SOL     OW28771   1.246   6.297   5.595
 9291SOL    HW128772   1.317   6.234   5.626
 9291SOL    HW228773   1.156   6.255   5.606
 9292SOL     OW28774   1.880   1.104   6.529
 9292SOL    HW128775   1.831   1.113   6.442
 9292SOL    HW228776   1.960   1.163   6.529
 9293SOL     OW28777   4.696   2.617   6.184
 9293SOL    HW128778   4.626   2.660   6.241
 9293SOL    HW228779   4.763   2.570   6.242
 9294SOL     OW28780   5.085   1.360   0.405
 9294SOL    HW128781   5.016   1.344   0.476
 9294SOL    HW228782   5.175   1.336   0.440
 9295SOL     OW28783   0.176   0.621   4.948
 9295SOL    HW128784   0.114   0.691   4.912
 9295SOL    HW228785   0.260   0.621   4.894
 9296SOL     OW28786   2.622   3.687   0.802
 9296SOL    HW128787   2.718   3.661   0.809
 9296SOL    HW228788   2.566   3.621   0.851
 9297SOL     OW28789   0.848   5.754   3.135
 9297SOL    HW128790   0.845   5.759   3.235
 9297SOL    HW228791   0.779   5.690   3.103
 9298SOL     OW28792   1.460   6.756   5.842
 9298SOL    HW128793   1.416   6.676   5.801
 9298SOL    HW228794   1.398   6.799   5.908
 9299SOL     OW28795   2.014   1.455   4.367
 9299SOL    HW128796   2.074   1.397   4.423
 9299SOL    HW228797   1.969   1.400   4.297
 9300SOL     OW28798   0.646   5.733   4.913
 9300SOL    HW128799   0.591   5.787   4.977
 9300SOL    HW228800   0.609   5.640   4.909
 9301SOL     OW28801   0.191   4.413   4.468
 9301SOL    HW128802   0.127   4.462   4.527
 9301SOL    HW228803   0.149   4.398   4.379
 9302SOL     OW28804   2.188   2.777   4.763
 9302SOL    HW128805   2.165   2.685   4.732
 9302SOL    HW228806   2.251   2.770   4.841
 9303SOL     OW28807   3.207   4.562   0.063
 9303SOL    HW128808   3.241   4.512   7.003
 9303SOL    HW228809   3.110   4.539   0.078
 9304SOL     OW28810   4.621   5.114   0.860
 9304SOL    HW128811   4.658   5.024   0.883
 9304SOL    HW228812   4.576   5.153   0.940
 9305SOL     OW28813   3.415   1.512   0.433
 9305SOL    HW128814   3.455   1.445   0.496
 9305SOL    HW228815   3.316   1.508   0.438
 9306SOL     OW28816   6.938   3.951   4.354
 9306SOL    HW128817   6.886   3.954   4.440
 9306SOL    HW228818   0.014   3.975   4.372
 9307SOL     OW28819   1.578   4.065   0.770
 9307SOL    HW128820   1.630   4.139   0.726
 9307SOL    HW228821   1.553   3.997   0.701
 9308SOL     OW28822   1.282   4.746   1.556
 9308SOL    HW128823   1.369   4.700   1.540
 9308SOL    HW228824   1.207   4.684   1.531
 9309SOL     OW28825   4.789   6.681   6.417
 9309SOL    HW128826   4.883   6.663   6.390
 9309SOL    HW228827   4.775   6.652   6.511
 9310SOL     OW28828   4.901   5.462   5.791
 9310SOL    HW128829   4.919   5.373   5.749
 9310SOL    HW228830   4.973   5.526   5.765
 9311SOL     OW28831   4.685   3.909   1.228
 9311SOL    HW128832   4.632   3.981   1.274
 9311SOL    HW228833   4.667   3.821   1.273
 9312SOL     OW28834   1.553   2.615   1.412
 9312SOL    HW128835   1.627   2.678   1.435
 9312SOL    HW228836   1.496   2.655   1.341
 9313SOL     OW28837   1.222   0.777   1.417
 9313SOL    HW128838   1.124   0.761   1.405
 9313SOL    HW228839   1.243   0.784   1.514
 9314SOL     OW28840   5.423   3.709   0.813
 9314SOL    HW128841   5.434   3.789   0.871
 9314SOL    HW228842   5.391   3.632   0.869
 9315SOL     OW28843   5.667   0.775   6.533
 9315SOL    HW128844   5.668   0.874   6.523
 9315SOL    HW228845   5.761   0.740   6.530
 9316SOL     OW28846   5.732   0.149   5.064
 9316SOL    HW128847   5.725   0.238   5.109
 9316SOL    HW228848   5.768   0.162   4.971
 9317SOL     OW28849   3.242   5.321   3.260
 9317SOL    HW128850   3.281   5.278   3.179
 9317SOL    HW228851   3.308   5.385   3.299
 9318SOL     OW28852   4.811   5.825   0.234
 9318SOL    HW128853   4.883   5.882   0.273
 9318SOL    HW228854   4.722   5.863   0.257
 9319SOL     OW28855   2.486   3.512   1.015
 9319SOL    HW128856   2.544   3.434   1.041
 9319SOL    HW228857   2.417   3.526   1.086
 9320SOL     OW28858   4.961   7.010   5.892
 9320SOL    HW128859   4.911   6.925   5.910
 9320SOL    HW228860   4.895   0.064   5.875
 9321SOL     OW28861   1.223   2.054   5.237
 9321SOL    HW128862   1.187   2.040   5.330
 9321SOL    HW228863   1.147   2.064   5.173
 9322SOL     OW28864   6.097   4.824   6.309
 9322SOL    HW128865   6.189   4.786   6.303
 9322SOL    HW228866   6.031   4.755   6.278
 9323SOL     OW28867   2.344   2.590   4.304
 9323SOL    HW128868   2.385   2.507   4.343
 9323SOL    HW228869   2.247   2.593   4.327
 9324SOL     OW28870   1.491   3.871   0.591
 9324SOL    HW128871   1.508   3.848   0.495
 9324SOL    HW228872   1.431   3.802   0.631
 9325SOL     OW28873   1.978   6.301   1.588
 9325SOL    HW128874   2.059   6.333   1.638
 9325SOL    HW228875   1.927   6.236   1.644
 9326SOL     OW28876   3.781   5.069   0.252
 9326SOL    HW128877   3.685   5.043   0.248
 9326SOL    HW228878   3.827   5.016   0.322
 9327SOL     OW28879   4.447   0.129   2.989
 9327SOL    HW128880   4.386   0.208   2.976
 9327SOL    HW228881   4.538   0.162   3.015
 9328SOL     OW28882   2.220   6.945   5.186
 9328SOL    HW128883   2.175   0.012   5.206
 9328SOL    HW228884   2.312   6.945   5.227
 9329SOL     OW28885   0.399   5.779   6.683
 9329SOL    HW128886   0.477   5.817   6.634
 9329SOL    HW228887   0.420   5.685   6.710
 9330SOL     OW28888   0.538   0.085   6.795
 9330SOL    HW128889   0.602   0.136   6.738
 9330SOL    HW228890   0.573   0.082   6.889
 9331SOL     OW28891   1.997   2.539   5.046
 9331SOL    HW128892   1.926   2.551   4.976
 9331SOL    HW228893   2.025   2.629   5.079
 9332SOL     OW28894   4.397   5.619   0.418
 9332SOL    HW128895   4.398   5.680   0.338
 9332SOL    HW228896   4.449   5.536   0.397
 9333SOL     OW28897   3.327   5.892   0.835
 9333SOL    HW128898   3.256   5.905   0.766
 9333SOL    HW228899   3.378   5.977   0.847
 9334SOL     OW28900   4.974   0.375   4.092
 9334SOL    HW128901   4.903   0.440   4.117
 9334SOL    HW228902   5.054   0.424   4.058
 9335SOL     OW28903   1.937   2.302   1.076
 9335SOL    HW128904   2.033   2.308   1.047
 9335SOL    HW228905   1.896   2.393   1.074
 9336SOL     OW28906   5.952   6.955   4.245
 9336SOL    HW128907   5.994   6.961   4.336
 9336SOL    HW228908   5.942   0.027   4.207
 9337SOL     OW28909   4.877   0.274   6.890
 9337SOL    HW128910   4.786   0.289   6.929
 9337SOL    HW228911   4.900   0.177   6.895
 9338SOL     OW28912   0.477   6.027   6.993
 9338SOL    HW128913   0.552   6.066   0.027
 9338SOL    HW228914   0.484   6.058   6.898
 9339SOL     OW28915   5.553   5.334   0.092
 9339SOL    HW128916   5.454   5.346   0.080
 9339SOL    HW228917   5.600   5.419   0.069
 9340SOL     OW28918   3.921   4.913   2.588
 9340SOL    HW128919   3.908   4.885   2.683
 9340SOL    HW228920   3.832   4.924   2.544
 9341SOL     OW28921   6.426   4.426   6.569
 9341SOL    HW128922   6.329   4.447   6.554
 9341SOL    HW228923   6.472   4.507   6.605
 9342SOL     OW28924   3.179   0.283   4.613
 9342SOL    HW128925   3.134   0.369   4.633
 9342SOL    HW228926   3.170   0.261   4.516
 9343SOL     OW28927   4.952   3.981   2.091
 9343SOL    HW128928   4.994   3.954   2.004
 9343SOL    HW228929   4.862   4.022   2.073
 9344SOL     OW28930   5.450   5.297   6.717
 9344SOL    HW128931   5.498   5.211   6.734
 9344SOL    HW228932   5.474   5.333   6.627
 9345SOL     OW28933   6.522   6.091   6.840
 9345SOL    HW128934   6.511   6.044   6.752
 9345SOL    HW228935   6.551   6.024   6.909
 9346SOL     OW28936   4.953   5.717   2.765
 9346SOL    HW128937   4.876   5.752   2.710
 9346SOL    HW228938   4.983   5.629   2.728
 9347SOL     OW28939   3.311   5.601   0.806
 9347SOL    HW128940   3.402   5.560   0.813
 9347SOL    HW228941   3.295   5.663   0.882
 9348SOL     OW28942   2.403   5.489   3.406
 9348SOL    HW128943   2.424   5.504   3.309
 9348SOL    HW228944   2.403   5.391   3.425
 9349SOL     OW28945   6.502   5.468   2.291
 9349SOL    HW128946   6.540   5.480   2.383
 9349SOL    HW228947   6.557   5.522   2.226
 9350SOL     OW28948   6.875   1.433   4.225
 9350SOL    HW128949   6.879   1.464   4.130
 9350SOL    HW228950   6.897   1.508   4.287
 9351SOL     OW28951   2.080   1.125   5.857
 9351SOL    HW128952   2.129   1.184   5.922
 9351SOL    HW228953   2.085   1.165   5.765
 9352SOL     OW28954   1.505   2.633   5.349
 9352SOL    HW128955   1.442   2.557   5.365
 9352SOL    HW228956   1.513   2.688   5.433
 9353SOL     OW28957   1.103   4.271   1.995
 9353SOL    HW128958   1.200   4.268   2.019
 9353SOL    HW228959   1.086   4.349   1.934
 9354SOL     OW28960   6.379   1.769   1.084
 9354SOL    HW128961   6.356   1.674   1.102
 9354SOL    HW228962   6.328   1.801   1.003
 9355SOL     OW28963   6.538   1.141   3.748
 9355SOL    HW128964   6.466   1.210   3.761
 9355SOL    HW228965   6.528   1.100   3.658
 9356SOL     OW28966   4.681   5.178   2.348
 9356SOL    HW128967   4.587   5.209   2.330
 9356SOL    HW228968   4.688   5.147   2.443
 9357SOL     OW28969   2.264   4.109   0.237
 9357SOL    HW128970   2.186   4.128   0.178
 9357SOL    HW228971   2.330   4.052   0.188
 9358SOL     OW28972   5.615   3.454   1.793
 9358SOL    HW128973   5.602   3.370   1.741
 9358SOL    HW228974   5.632   3.432   1.889
 9359SOL     OW28975   0.262   3.500   5.547
 9359SOL    HW128976   0.278   3.405   5.521
 9359SOL    HW228977   0.224   3.550   5.469
 9360SOL     OW28978   1.626   0.123   5.911
 9360SOL    HW128979   1.530   0.101   5.895
 9360SOL    HW228980   1.651   0.095   6.004
 9361SOL     OW28981   2.714   0.048   3.409
 9361SOL    HW128982   2.787   0.033   3.476
 9361SOL    HW228983   2.751   0.099   3.332
 9362SOL     OW28984   1.562   1.134   1.613
 9362SOL    HW128985   1.538   1.192   1.535
 9362SOL    HW228986   1.499   1.152   1.688
 9363SOL     OW28987   4.019   5.432   1.872
 9363SOL    HW128988   4.001   5.522   1.832
 9363SOL    HW228989   4.070   5.376   1.807
 9364SOL     OW28990   3.555   3.222   6.193
 9364SOL    HW128991   3.560   3.194   6.288
 9364SOL    HW228992   3.648   3.235   6.157
 9365SOL     OW28993   2.347   2.002   4.633
 9365SOL    HW128994   2.443   2.022   4.613
 9365SOL    HW228995   2.306   2.080   4.680
 9366SOL     OW28996   3.326   1.864   6.891
 9366SOL    HW128997   3.398   1.904   6.835
 9366SOL    HW228998   3.251   1.931   6.901
 9367SOL     OW28999   6.895   5.994   3.591
 9367SOL    HW129000   6.921   5.963   3.682
 9367SOL    HW229001   6.800   5.968   3.573
 9368SOL     OW29002   3.312   1.711   3.100
 9368SOL    HW129003   3.326   1.672   3.009
 9368SOL    HW229004   3.379   1.673   3.164
 9369SOL     OW29005   0.425   0.513   5.860
 9369SOL    HW129006   0.410   0.421   5.824
 9369SOL    HW229007   0.430   0.578   5.784
 9370SOL     OW29008   5.611   0.366   2.186
 9370SOL    HW129009   5.648   0.354   2.094
 9370SOL    HW229010   5.628   0.283   2.239
 9371SOL     OW29011   2.230   5.101   0.337
 9371SOL    HW129012   2.151   5.139   0.290
 9371SOL    HW229013   2.225   5.123   0.435
 9372SOL     OW29014   5.949   6.051   2.705
 9372SOL    HW129015   5.961   6.047   2.606
 9372SOL    HW229016   5.891   5.976   2.735
 9373SOL     OW29017   4.813   2.080   3.140
 9373SOL    HW129018   4.822   2.088   3.041
 9373SOL    HW229019   4.763   1.997   3.163
 9374SOL     OW29020   6.205   3.097   6.894
 9374SOL    HW129021   6.157   3.171   6.847
 9374SOL    HW229022   6.143   3.050   6.955
 9375SOL     OW29023   6.832   1.546   3.961
 9375SOL    HW129024   6.841   1.548   3.861
 9375SOL    HW229025   6.890   1.617   4.001
 9376SOL     OW29026   2.829   3.853   1.113
 9376SOL    HW129027   2.832   3.786   1.187
 9376SOL    HW229028   2.900   3.922   1.127
 9377SOL     OW29029   1.244   5.451   3.965
 9377SOL    HW129030   1.169   5.476   4.026
 9377SOL    HW229031   1.325   5.427   4.019
 9378SOL     OW29032   1.187   0.473   5.458
 9378SOL    HW129033   1.160   0.531   5.380
 9378SOL    HW229034   1.110   0.413   5.482
 9379SOL     OW29035   4.666   5.200   5.253
 9379SOL    HW129036   4.647   5.270   5.184
 9379SOL    HW229037   4.605   5.122   5.238
 9380SOL     OW29038   5.911   5.050   4.571
 9380SOL    HW129039   5.901   5.062   4.472
 9380SOL    HW229040   6.007   5.066   4.596
 9381SOL     OW29041   2.220   3.159   5.776
 9381SOL    HW129042   2.236   3.072   5.730
 9381SOL    HW229043   2.215   3.232   5.709
 9382SOL     OW29044   3.377   1.564   2.871
 9382SOL    HW129045   3.433   1.494   2.914
 9382SOL    HW229046   3.425   1.602   2.792
 9383SOL     OW29047   2.792   6.140   4.678
 9383SOL    HW129048   2.781   6.164   4.775
 9383SOL    HW229049   2.821   6.045   4.671
 9384SOL     OW29050   3.832   6.351   1.316
 9384SOL    HW129051   3.872   6.420   1.376
 9384SOL    HW229052   3.816   6.267   1.369
 9385SOL     OW29053   4.319   1.258   2.342
 9385SOL    HW129054   4.391   1.315   2.301
 9385SOL    HW229055   4.334   1.250   2.440
 9386SOL     OW29056   2.193   6.111   5.228
 9386SOL    HW129057   2.203   6.189   5.289
 9386SOL    HW229058   2.113   6.124   5.170
 9387SOL     OW29059   3.925   0.245   0.150
 9387SOL    HW129060   3.986   0.285   0.081
 9387SOL    HW229061   3.836   0.291   0.145
 9388SOL     OW29062   1.859   5.417   2.634
 9388SOL    HW129063   1.885   5.485   2.566
 9388SOL    HW229064   1.767   5.438   2.668
 9389SOL     OW29065   2.012   0.192   5.623
 9389SOL    HW129066   2.108   0.185   5.648
 9389SOL    HW229067   1.957   0.134   5.683
 9390SOL     OW29068   4.195   6.032   4.683
 9390SOL    HW129069   4.270   5.969   4.702
 9390SOL    HW229070   4.127   6.026   4.756
 9391SOL     OW29071   2.317   1.074   5.321
 9391SOL    HW129072   2.228   1.113   5.296
 9391SOL    HW229073   2.320   1.059   5.420
 9392SOL     OW29074   0.092   0.212   5.009
 9392SOL    HW129075   0.175   0.213   5.064
 9392SOL    HW229076   0.108   0.263   4.924
 9393SOL     OW29077   3.188   0.822   5.525
 9393SOL    HW129078   3.197   0.801   5.622
 9393SOL    HW229079   3.134   0.750   5.481
 9394SOL     OW29080   6.399   1.693   2.220
 9394SOL    HW129081   6.306   1.700   2.186
 9394SOL    HW229082   6.449   1.778   2.200
 9395SOL     OW29083   2.627   2.745   0.546
 9395SOL    HW129084   2.561   2.754   0.472
 9395SOL    HW229085   2.708   2.801   0.526
 9396SOL     OW29086   0.403   5.756   3.950
 9396SOL    HW129087   0.374   5.670   3.992
 9396SOL    HW229088   0.474   5.738   3.882
 9397SOL     OW29089   2.604   0.181   0.256
 9397SOL    HW129090   2.520   0.209   0.210
 9397SOL    HW229091   2.673   0.157   0.188
 9398SOL     OW29092   1.848   0.423   5.565
 9398SOL    HW129093   1.848   0.406   5.467
 9398SOL    HW229094   1.896   0.349   5.612
 9399SOL     OW29095   0.642   1.272   0.153
 9399SOL    HW129096   0.663   1.361   0.194
 9399SOL    HW229097   0.564   1.282   0.091
 9400SOL     OW29098   5.516   2.942   1.324
 9400SOL    HW129099   5.464   3.023   1.350
 9400SOL    HW229100   5.459   2.883   1.267
 9401SOL     OW29101   3.793   6.634   3.100
 9401SOL    HW129102   3.830   6.547   3.132
 9401SOL    HW229103   3.835   6.709   3.151
 9402SOL     OW29104   0.754   5.264   4.418
 9402SOL    HW129105   0.853   5.249   4.415
 9402SOL    HW229106   0.724   5.267   4.514
 9403SOL     OW29107   5.473   1.459   2.899
 9403SOL    HW129108   5.515   1.497   2.981
 9403SOL    HW229109   5.493   1.518   2.821
 9404SOL     OW29110   0.612   3.564   6.020
 9404SOL    HW129111   0.703   3.592   6.053
 9404SOL    HW229112   0.569   3.640   5.972
 9405SOL     OW29113   0.191   6.620   2.143
 9405SOL    HW129114   0.290   6.628   2.129
 9405SOL    HW229115   0.146   6.605   2.055
 9406SOL     OW29116   0.011   2.950   6.002
 9406SOL    HW129117   6.994   3.007   6.076
 9406SOL    HW229118   0.022   2.856   6.034
 9407SOL     OW29119   2.526   5.219   3.556
 9407SOL    HW129120   2.436   5.217   3.599
 9407SOL    HW229121   2.547   5.128   3.520
 9408SOL     OW29122   3.909   2.159   6.365
 9408SOL    HW129123   3.998   2.160   6.320
 9408SOL    HW229124   3.839   2.128   6.301
 9409SOL     OW29125   5.909   4.608   6.255
 9409SOL    HW129126   5.854   4.574   6.331
 9409SOL    HW229127   5.933   4.532   6.195
 9410SOL     OW29128   3.656   6.131   1.988
 9410SOL    HW129129   3.654   6.054   2.051
 9410SOL    HW229130   3.683   6.214   2.038
 9411SOL     OW29131   3.738   3.719   1.448
 9411SOL    HW129132   3.679   3.797   1.466
 9411SOL    HW229133   3.805   3.709   1.522
 9412SOL     OW29134   0.036   3.318   1.611
 9412SOL    HW129135   0.011   3.340   1.705
 9412SOL    HW229136   7.016   3.386   1.549
 9413SOL     OW29137   4.135   6.458   4.599
 9413SOL    HW129138   4.219   6.431   4.646
 9413SOL    HW229139   4.122   6.399   4.519
 9414SOL     OW29140   3.470   1.083   3.815
 9414SOL    HW129141   3.415   1.060   3.734
 9414SOL    HW229142   3.490   1.000   3.866
 9415SOL     OW29143   2.768   6.995   2.625
 9415SOL    HW129144   2.732   6.934   2.697
 9415SOL    HW229145   2.807   6.939   2.552
 9416SOL     OW29146   0.833   1.698   1.089
 9416SOL    HW129147   0.742   1.658   1.100
 9416SOL    HW229148   0.873   1.666   1.003
 9417SOL     OW29149   4.072   6.963   5.951
 9417SOL    HW129150   4.134   6.928   6.021
 9417SOL    HW229151   4.118   6.963   5.862
 9418SOL     OW29152   3.297   6.778   0.933
 9418SOL    HW129153   3.331   6.770   0.839
 9418SOL    HW229154   3.198   6.790   0.932
 9419SOL     OW29155   3.116   5.221   5.765
 9419SOL    HW129156   3.103   5.205   5.667
 9419SOL    HW229157   3.029   5.250   5.805
 9420SOL     OW29158   6.689   2.203   4.648
 9420SOL    HW129159   6.784   2.176   4.633
 9420SOL    HW229160   6.668   2.283   4.593
 9421SOL     OW29161   2.449   6.258   5.043
 9421SOL    HW129162   2.494   6.246   5.131
 9421SOL    HW229163   2.380   6.331   5.050
 9422SOL     OW29164   4.467   5.952   2.641
 9422SOL    HW129165   4.502   5.909   2.724
 9422SOL    HW229166   4.480   5.891   2.564
 9423SOL     OW29167   4.135   0.811   3.377
 9423SOL    HW129168   4.119   0.763   3.290
 9423SOL    HW229169   4.153   0.743   3.449
 9424SOL     OW29170   4.420   0.737   5.298
 9424SOL    HW129171   4.356   0.810   5.272
 9424SOL    HW229172   4.475   0.712   5.219
 9425SOL     OW29173   0.390   3.966   6.050
 9425SOL    HW129174   0.349   3.979   6.140
 9425SOL    HW229175   0.390   3.868   6.028
 9426SOL     OW29176   2.576   2.341   0.336
 9426SOL    HW129177   2.479   2.327   0.355
 9426SOL    HW229178   2.616   2.400   0.406
 9427SOL     OW29179   3.711   5.176   4.767
 9427SOL    HW129180   3.735   5.146   4.675
 9427SOL    HW229181   3.642   5.114   4.805
 9428SOL     OW29182   5.099   0.964   0.696
 9428SOL    HW129183   5.030   0.928   0.634
 9428SOL    HW229184   5.116   0.897   0.768
 9429SOL     OW29185   1.600   4.738   2.382
 9429SOL    HW129186   1.509   4.702   2.360
 9429SOL    HW229187   1.609   4.748   2.481
 9430SOL     OW29188   0.228   5.074   2.073
 9430SOL    HW129189   0.303   5.115   2.021
 9430SOL    HW229190   0.217   5.123   2.160
 9431SOL     OW29191   5.542   4.454   0.832
 9431SOL    HW129192   5.483   4.380   0.866
 9431SOL    HW229193   5.575   4.508   0.910
 9432SOL     OW29194   5.407   0.455   2.699
 9432SOL    HW129195   5.480   0.460   2.630
 9432SOL    HW229196   5.332   0.516   2.672
 9433SOL     OW29197   3.244   5.006   3.387
 9433SOL    HW129198   3.186   5.040   3.461
 9433SOL    HW229199   3.339   5.000   3.419
 9434SOL     OW29200   5.719   5.206   3.018
 9434SOL    HW129201   5.717   5.303   2.994
 9434SOL    HW229202   5.810   5.169   2.998
 9435SOL     OW29203   0.820   1.681   4.408
 9435SOL    HW129204   0.801   1.605   4.469
 9435SOL    HW229205   0.765   1.670   4.324
 9436SOL     OW29206   1.135   3.978   1.985
 9436SOL    HW129207   1.097   4.066   1.958
 9436SOL    HW229208   1.191   3.942   1.911
 9437SOL     OW29209   1.630   6.408   3.944
 9437SOL    HW129210   1.704   6.425   3.878
 9437SOL    HW229211   1.604   6.312   3.940
 9438SOL     OW29212   1.157   6.685   1.435
 9438SOL    HW129213   1.254   6.666   1.450
 9438SOL    HW229214   1.145   6.780   1.405
 9439SOL     OW29215   0.343   2.624   2.634
 9439SOL    HW129216   0.254   2.668   2.623
 9439SOL    HW229217   0.375   2.591   2.545
 9440SOL     OW29218   4.544   5.769   4.056
 9440SOL    HW129219   4.515   5.713   4.133
 9440SOL    HW229220   4.465   5.789   3.998
 9441SOL     OW29221   1.354   3.614   4.810
 9441SOL    HW129222   1.277   3.634   4.870
 9441SOL    HW229223   1.398   3.700   4.782
 9442SOL     OW29224   5.205   3.326   0.307
 9442SOL    HW129225   5.176   3.252   0.247
 9442SOL    HW229226   5.126   3.365   0.353
 9443SOL     OW29227   2.822   5.907   1.776
 9443SOL    HW129228   2.899   5.971   1.768
 9443SOL    HW229229   2.841   5.840   1.847
 9444SOL     OW29230   1.274   3.757   6.351
 9444SOL    HW129231   1.218   3.692   6.402
 9444SOL    HW229232   1.359   3.713   6.324
 9445SOL     OW29233   5.428   3.633   2.786
 9445SOL    HW129234   5.343   3.651   2.736
 9445SOL    HW229235   5.411   3.562   2.855
 9446SOL     OW29236   6.228   6.854   4.123
 9446SOL    HW129237   6.149   6.844   4.063
 9446SOL    HW229238   6.199   6.894   4.210
 9447SOL     OW29239   6.078   3.108   3.312
 9447SOL    HW129240   6.168   3.065   3.318
 9447SOL    HW229241   6.016   3.050   3.259
 9448SOL     OW29242   6.941   6.674   5.976
 9448SOL    HW129243   6.968   6.582   5.948
 9448SOL    HW229244   6.871   6.669   6.047
 9449SOL     OW29245   0.179   5.832   6.561
 9449SOL    HW129246   0.107   5.839   6.630
 9449SOL    HW229247   0.268   5.826   6.606
 9450SOL     OW29248   3.574   4.944   4.564
 9450SOL    HW129249   3.491   4.992   4.537
 9450SOL    HW229250   3.580   4.941   4.664
 9451SOL     OW29251   3.875   5.980   5.791
 9451SOL    HW129252   3.881   6.065   5.843
 9451SOL    HW229253   3.802   5.923   5.829
 9452SOL     OW29254   0.885   3.674   0.889
 9452SOL    HW129255   0.919   3.723   0.809
 9452SOL    HW229256   0.787   3.660   0.881
 9453SOL     OW29257   1.914   4.960   3.858
 9453SOL    HW129258   1.934   4.862   3.855
 9453SOL    HW229259   1.999   5.010   3.870
 9454SOL     OW29260   1.699   3.422   5.723
 9454SOL    HW129261   1.692   3.397   5.627
 9454SOL    HW229262   1.615   3.468   5.752
 9455SOL     OW29263   3.697   1.572   2.848
 9455SOL    HW129264   3.775   1.631   2.829
 9455SOL    HW229265   3.660   1.594   2.939
 9456SOL     OW29266   0.877   3.686   0.153
 9456SOL    HW129267   0.868   3.770   0.099
 9456SOL    HW229268   0.974   3.662   0.160
 9457SOL     OW29269   2.185   4.086   5.525
 9457SOL    HW129270   2.152   4.006   5.473
 9457SOL    HW229271   2.134   4.093   5.611
 9458SOL     OW29272   1.065   3.091   6.191
 9458SOL    HW129273   1.112   3.178   6.177
 9458SOL    HW229274   1.043   3.051   6.102
 9459SOL     OW29275   5.668   4.664   2.436
 9459SOL    HW129276   5.740   4.623   2.492
 9459SOL    HW229277   5.703   4.748   2.395
 9460SOL     OW29278   6.719   1.457   4.871
 9460SOL    HW129279   6.714   1.369   4.823
 9460SOL    HW229280   6.797   1.510   4.837
 9461SOL     OW29281   6.649   1.825   2.780
 9461SOL    HW129282   6.598   1.769   2.845
 9461SOL    HW229283   6.597   1.908   2.760
 9462SOL     OW29284   2.125   3.444   3.421
 9462SOL    HW129285   2.123   3.389   3.505
 9462SOL    HW229286   2.134   3.541   3.444
 9463SOL     OW29287   0.347   0.874   1.290
 9463SOL    HW129288   0.432   0.861   1.341
 9463SOL    HW229289   0.279   0.915   1.351
 9464SOL     OW29290   5.720   6.384   0.653
 9464SOL    HW129291   5.793   6.438   0.696
 9464SOL    HW229292   5.655   6.354   0.723
 9465SOL     OW29293   0.357   6.235   3.192
 9465SOL    HW129294   0.354   6.296   3.271
 9465SOL    HW229295   0.314   6.279   3.114
 9466SOL     OW29296   3.597   4.244   5.195
 9466SOL    HW129297   3.562   4.335   5.220
 9466SOL    HW229298   3.670   4.254   5.127
 9467SOL     OW29299   1.239   2.753   1.964
 9467SOL    HW129300   1.238   2.824   2.035
 9467SOL    HW229301   1.331   2.746   1.925
 9468SOL     OW29302   5.647   2.507   5.822
 9468SOL    HW129303   5.738   2.546   5.808
 9468SOL    HW229304   5.584   2.547   5.755
 9469SOL     OW29305   5.951   5.871   1.210
 9469SOL    HW129306   5.851   5.874   1.204
 9469SOL    HW229307   5.986   5.965   1.211
 9470SOL     OW29308   4.588   3.967   5.806
 9470SOL    HW129309   4.541   4.047   5.769
 9470SOL    HW229310   4.603   3.900   5.734
 9471SOL     OW29311   6.054   1.356   4.697
 9471SOL    HW129312   6.036   1.326   4.604
 9471SOL    HW229313   6.018   1.449   4.709
 9472SOL     OW29314   5.914   2.932   4.333
 9472SOL    HW129315   5.862   2.881   4.264
 9472SOL    HW229316   6.011   2.924   4.313
 9473SOL     OW29317   2.593   4.841   5.620
 9473SOL    HW129318   2.637   4.751   5.618
 9473SOL    HW229319   2.624   4.895   5.542
 9474SOL     OW29320   6.452   2.625   0.104
 9474SOL    HW129321   6.377   2.578   0.151
 9474SOL    HW229322   6.471   2.712   0.149
 9475SOL     OW29323   3.285   3.687   0.513
 9475SOL    HW129324   3.382   3.709   0.513
 9475SOL    HW229325   3.232   3.769   0.534
 9476SOL     OW29326   2.961   3.135   5.158
 9476SOL    HW129327   2.927   3.114   5.250
 9476SOL    HW229328   2.953   3.233   5.141
 9477SOL     OW29329   0.380   3.340   2.769
 9477SOL    HW129330   0.328   3.309   2.689
 9477SOL    HW229331   0.464   3.287   2.776
 9478SOL     OW29332   4.345   3.328   5.921
 9478SOL    HW129333   4.250   3.296   5.920
 9478SOL    HW229334   4.395   3.285   5.846
 9479SOL     OW29335   5.428   6.311   6.789
 9479SOL    HW129336   5.478   6.235   6.747
 9479SOL    HW229337   5.483   6.351   6.863
 9480SOL     OW29338   4.799   4.670   0.064
 9480SOL    HW129339   4.826   4.670   0.160
 9480SOL    HW229340   4.873   4.709   0.009
 9481SOL     OW29341   5.755   3.535   1.319
 9481SOL    HW129342   5.734   3.438   1.324
 9481SOL    HW229343   5.676   3.584   1.280
 9482SOL     OW29344   6.486   0.876   3.151
 9482SOL    HW129345   6.583   0.854   3.158
 9482SOL    HW229346   6.438   0.841   3.231
 9483SOL     OW29347   1.564   1.949   1.247
 9483SOL    HW129348   1.661   1.962   1.224
 9483SOL    HW229349   1.508   1.994   1.177
 9484SOL     OW29350   4.294   1.590   3.307
 9484SOL    HW129351   4.265   1.558   3.396
 9484SOL    HW229352   4.219   1.579   3.241
 9485SOL     OW29353   0.730   0.090   2.343
 9485SOL    HW129354   0.770   0.026   2.408
 9485SOL    HW229355   0.760   0.183   2.365
 9486SOL     OW29356   2.583   5.016   1.394
 9486SOL    HW129357   2.525   4.993   1.316
 9486SOL    HW229358   2.602   4.934   1.448
 9487SOL     OW29359   2.972   3.650   2.770
 9487SOL    HW129360   2.992   3.645   2.867
 9487SOL    HW229361   2.995   3.563   2.726
 9488SOL     OW29362   2.616   6.311   0.889
 9488SOL    HW129363   2.553   6.385   0.914
 9488SOL    HW229364   2.572   6.250   0.823
 9489SOL     OW29365   3.796   4.037   1.554
 9489SOL    HW129366   3.712   4.072   1.513
 9489SOL    HW229367   3.777   4.006   1.648
 9490SOL     OW29368   6.180   6.046   0.961
 9490SOL    HW129369   6.254   5.978   0.959
 9490SOL    HW229370   6.116   6.028   0.886
 9491SOL     OW29371   6.799   4.045   3.448
 9491SOL    HW129372   6.836   3.969   3.395
 9491SOL    HW229373   6.870   4.114   3.460
 9492SOL     OW29374   3.500   3.270   2.742
 9492SOL    HW129375   3.503   3.220   2.656
 9492SOL    HW229376   3.590   3.265   2.786
 9493SOL     OW29377   4.113   5.314   4.177
 9493SOL    HW129378   4.140   5.393   4.122
 9493SOL    HW229379   4.101   5.234   4.118
 9494SOL     OW29380   4.550   4.130   1.626
 9494SOL    HW129381   4.486   4.170   1.692
 9494SOL    HW229382   4.574   4.038   1.655
 9495SOL     OW29383   5.674   1.744   4.731
 9495SOL    HW129384   5.705   1.719   4.639
 9495SOL    HW229385   5.710   1.835   4.754
 9496SOL     OW29386   5.417   4.915   0.698
 9496SOL    HW129387   5.350   4.969   0.749
 9496SOL    HW229388   5.373   4.872   0.620
 9497SOL     OW29389   5.853   4.644   0.357
 9497SOL    HW129390   5.854   4.726   0.415
 9497SOL    HW229391   5.930   4.647   0.293
 9498SOL     OW29392   5.397   0.369   5.626
 9498SOL    HW129393   5.361   0.282   5.658
 9498SOL    HW229394   5.497   0.367   5.630
 9499SOL     OW29395   2.429   4.198   6.077
 9499SOL    HW129396   2.413   4.296   6.084
 9499SOL    HW229397   2.526   4.179   6.092
 9500SOL     OW29398   4.261   0.327   1.530
 9500SOL    HW129399   4.249   0.368   1.620
 9500SOL    HW229400   4.177   0.278   1.505
 9501SOL     OW29401   3.010   1.250   4.955
 9501SOL    HW129402   2.963   1.222   4.871
 9501SOL    HW229403   3.008   1.174   5.021
 9502SOL     OW29404   0.077   1.981   4.397
 9502SOL    HW129405   0.088   2.080   4.400
 9502SOL    HW229406   0.149   1.941   4.340
 9503SOL     OW29407   0.667   1.513   1.307
 9503SOL    HW129408   0.596   1.535   1.374
 9503SOL    HW229409   0.756   1.545   1.341
 9504SOL     OW29410   0.192   1.682   0.776
 9504SOL    HW129411   0.283   1.718   0.801
 9504SOL    HW229412   0.164   1.721   0.689
 9505SOL     OW29413   5.623   4.009   4.201
 9505SOL    HW129414   5.712   4.032   4.238
 9505SOL    HW229415   5.559   4.085   4.217
 9506SOL     OW29416   0.502   3.487   6.610
 9506SOL    HW129417   0.512   3.497   6.709
 9506SOL    HW229418   0.405   3.491   6.586
 9507SOL     OW29419   1.137   1.183   3.625
 9507SOL    HW129420   1.097   1.269   3.594
 9507SOL    HW229421   1.236   1.187   3.615
 9508SOL     OW29422   5.648   3.422   0.988
 9508SOL    HW129423   5.702   3.340   0.968
 9508SOL    HW229424   5.679   3.497   0.930
 9509SOL     OW29425   1.014   0.296   5.744
 9509SOL    HW129426   1.027   0.205   5.783
 9509SOL    HW229427   1.045   0.365   5.810
 9510SOL     OW29428   1.049   4.485   1.817
 9510SOL    HW129429   0.969   4.493   1.876
 9510SOL    HW229430   1.044   4.400   1.765
 9511SOL     OW29431   0.406   1.220   0.010
 9511SOL    HW129432   0.335   1.245   6.964
 9511SOL    HW229433   0.435   1.125   7.014
 9512SOL     OW29434   5.824   0.825   2.261
 9512SOL    HW129435   5.882   0.785   2.332
 9512SOL    HW229436   5.753   0.881   2.304
 9513SOL     OW29437   1.513   3.175   4.976
 9513SOL    HW129438   1.521   3.120   5.059
 9513SOL    HW229439   1.539   3.269   4.996
 9514SOL     OW29440   2.355   4.480   0.059
 9514SOL    HW129441   2.261   4.467   0.092
 9514SOL    HW229442   2.394   4.562   0.101
 9515SOL     OW29443   1.394   5.839   0.664
 9515SOL    HW129444   1.321   5.772   0.679
 9515SOL    HW229445   1.447   5.850   0.749
 9516SOL     OW29446   5.200   3.885   5.030
 9516SOL    HW129447   5.111   3.841   5.017
 9516SOL    HW229448   5.265   3.820   5.068
 9517SOL     OW29449   1.699   4.804   0.196
 9517SOL    HW129450   1.686   4.890   0.146
 9517SOL    HW229451   1.796   4.791   0.216
 9518SOL     OW29452   1.027   2.309   0.081
 9518SOL    HW129453   0.996   2.220   0.048
 9518SOL    HW229454   1.126   2.307   0.095
 9519SOL     OW29455   3.980   3.052   4.053
 9519SOL    HW129456   4.020   2.961   4.041
 9519SOL    HW229457   3.888   3.043   4.091
 9520SOL     OW29458   0.118   0.664   2.783
 9520SOL    HW129459   0.021   0.650   2.762
 9520SOL    HW229460   0.133   0.758   2.813
 9521SOL     OW29461   3.744   4.102   1.189
 9521SOL    HW129462   3.713   4.024   1.135
 9521SOL    HW229463   3.834   4.083   1.226
 9522SOL     OW29464   4.319   6.130   2.487
 9522SOL    HW129465   4.233   6.094   2.450
 9522SOL    HW229466   4.362   6.062   2.546
 9523SOL     OW29467   2.693   4.914   4.945
 9523SOL    HW129468   2.685   4.975   5.024
 9523SOL    HW229469   2.731   4.826   4.975
 9524SOL     OW29470   1.989   2.690   0.540
 9524SOL    HW129471   1.989   2.593   0.517
 9524SOL    HW229472   1.959   2.702   0.635
 9525SOL     OW29473   1.968   2.041   5.211
 9525SOL    HW129474   1.915   1.957   5.213
 9525SOL    HW229475   1.963   2.086   5.301
 9526SOL     OW29476   6.443   4.389   1.488
 9526SOL    HW129477   6.510   4.462   1.503
 9526SOL    HW229478   6.488   4.312   1.442
 9527SOL     OW29479   2.274   0.638   5.256
 9527SOL    HW129480   2.202   0.660   5.320
 9527SOL    HW229481   2.340   0.713   5.251
 9528SOL     OW29482   6.819   1.750   6.964
 9528SOL    HW129483   6.759   1.780   0.019
 9528SOL    HW229484   6.786   1.788   6.878
 9529SOL     OW29485   6.420   3.558   6.469
 9529SOL    HW129486   6.519   3.565   6.480
 9529SOL    HW229487   6.377   3.645   6.494
 9530SOL     OW29488   1.217   3.436   3.642
 9530SOL    HW129489   1.256   3.527   3.654
 9530SOL    HW229490   1.146   3.421   3.711
 9531SOL     OW29491   5.152   4.145   2.193
 9531SOL    HW129492   5.073   4.095   2.157
 9531SOL    HW229493   5.135   4.168   2.289
 9532SOL     OW29494   0.265   5.306   0.779
 9532SOL    HW129495   0.234   5.400   0.769
 9532SOL    HW229496   0.365   5.303   0.779
 9533SOL     OW29497   1.115   5.970   4.352
 9533SOL    HW129498   1.100   6.039   4.282
 9533SOL    HW229499   1.050   5.895   4.340
 9534SOL     OW29500   6.018   4.249   5.080
 9534SOL    HW129501   6.043   4.341   5.050
 9534SOL    HW229502   6.101   4.193   5.088
 9535SOL     OW29503   2.268   0.728   5.656
 9535SOL    HW129504   2.186   0.688   5.614
 9535SOL    HW229505   2.268   0.827   5.643
 9536SOL     OW29506   3.072   3.683   5.188
 9536SOL    HW129507   3.020   3.735   5.255
 9536SOL    HW229508   3.158   3.730   5.168
 9537SOL     OW29509   2.163   0.771   4.611
 9537SOL    HW129510   2.253   0.742   4.578
 9537SOL    HW229511   2.106   0.691   4.627
 9538SOL     OW29512   5.197   0.759   4.156
 9538SOL    HW129513   5.180   0.669   4.197
 9538SOL    HW229514   5.290   0.788   4.177
 9539SOL     OW29515   3.467   4.130   4.386
 9539SOL    HW129516   3.383   4.077   4.395
 9539SOL    HW229517   3.491   4.170   4.475
 9540SOL     OW29518   5.738   4.800   4.313
 9540SOL    HW129519   5.649   4.796   4.268
 9540SOL    HW229520   5.773   4.894   4.310
 9541SOL     OW29521   2.927   0.577   6.165
 9541SOL    HW129522   2.984   0.621   6.096
 9541SOL    HW229523   2.936   0.478   6.157
 9542SOL     OW29524   5.120   4.670   5.394
 9542SOL    HW129525   5.165   4.603   5.335
 9542SOL    HW229526   5.064   4.732   5.339
 9543SOL     OW29527   3.690   0.837   6.300
 9543SOL    HW129528   3.704   0.740   6.322
 9543SOL    HW229529   3.650   0.883   6.380
 9544SOL     OW29530   5.739   2.878   4.066
 9544SOL    HW129531   5.675   2.954   4.051
 9544SOL    HW229532   5.784   2.856   3.979
 9545SOL     OW29533   5.786   5.578   3.329
 9545SOL    HW129534   5.865   5.531   3.367
 9545SOL    HW229535   5.735   5.516   3.269
 9546SOL     OW29536   3.712   2.022   6.032
 9546SOL    HW129537   3.740   2.089   5.963
 9546SOL    HW229538   3.766   1.938   6.021
 9547SOL     OW29539   2.432   5.281   4.248
 9547SOL    HW129540   2.345   5.233   4.251
 9547SOL    HW229541   2.460   5.306   4.341
 9548SOL     OW29542   0.007   4.610   5.115
 9548SOL    HW129543   0.042   4.517   5.112
 9548SOL    HW229544   0.076   4.671   5.153
 9549SOL     OW29545   3.053   1.943   1.442
 9549SOL    HW129546   3.060   2.031   1.395
 9549SOL    HW229547   2.965   1.937   1.489
 9550SOL     OW29548   0.183   0.583   0.335
 9550SOL    HW129549   0.225   0.508   0.285
 9550SOL    HW229550   0.156   0.552   0.426
 9551SOL     OW29551   5.818   2.969   6.037
 9551SOL    HW129552   5.790   2.958   6.132
 9551SOL    HW229553   5.846   3.064   6.021
 9552SOL     OW29554   2.548   6.087   4.837
 9552SOL    HW129555   2.586   6.004   4.879
 9552SOL    HW229556   2.472   6.121   4.893
 9553SOL     OW29557   5.633   2.660   6.708
 9553SOL    HW129558   5.666   2.641   6.616
 9553SOL    HW229559   5.613   2.758   6.716
 9554SOL     OW29560   2.636   6.558   2.762
 9554SOL    HW129561   2.722   6.519   2.794
 9554SOL    HW229562   2.585   6.594   2.840
 9555SOL     OW29563   0.703   1.652   2.261
 9555SOL    HW129564   0.649   1.571   2.284
 9555SOL    HW229565   0.796   1.642   2.296
 9556SOL     OW29566   1.869   4.426   2.079
 9556SOL    HW129567   1.828   4.497   2.021
 9556SOL    HW229568   1.861   4.453   2.175
 9557SOL     OW29569   6.813   6.375   1.459
 9557SOL    HW129570   6.753   6.447   1.426
 9557SOL    HW229571   6.763   6.317   1.524
 9558SOL     OW29572   6.021   6.001   5.649
 9558SOL    HW129573   5.961   5.949   5.710
 9558SOL    HW229574   6.005   6.099   5.662
 9559SOL     OW29575   0.519   4.557   0.714
 9559SOL    HW129576   0.455   4.633   0.724
 9559SOL    HW229577   0.610   4.586   0.741
 9560SOL     OW29578   2.746   1.434   3.207
 9560SOL    HW129579   2.776   1.521   3.246
 9560SOL    HW229580   2.649   1.419   3.228
 9561SOL     OW29581   1.754   0.676   0.989
 9561SOL    HW129582   1.834   0.641   0.940
 9561SOL    HW229583   1.761   0.650   1.085
 9562SOL     OW29584   2.873   0.573   5.788
 9562SOL    HW129585   2.867   0.665   5.828
 9562SOL    HW229586   2.803   0.515   5.827
 9563SOL     OW29587   0.231   6.527   0.358
 9563SOL    HW129588   0.205   6.446   0.411
 9563SOL    HW229589   0.162   6.544   0.288
 9564SOL     OW29590   2.567   1.274   0.764
 9564SOL    HW129591   2.489   1.311   0.714
 9564SOL    HW229592   2.569   1.174   0.753
 9565SOL     OW29593   4.690   1.058   4.709
 9565SOL    HW129594   4.659   0.974   4.665
 9565SOL    HW229595   4.614   1.098   4.761
 9566SOL     OW29596   2.961   5.450   6.738
 9566SOL    HW129597   2.968   5.546   6.763
 9566SOL    HW229598   2.898   5.403   6.800
 9567SOL     OW29599   4.691   5.156   0.601
 9567SOL    HW129600   4.608   5.211   0.589
 9567SOL    HW229601   4.717   5.156   0.697
 9568SOL     OW29602   4.404   2.487   5.998
 9568SOL    HW129603   4.318   2.482   5.948
 9568SOL    HW229604   4.471   2.539   5.945
 9569SOL     OW29605   6.567   0.849   2.692
 9569SOL    HW129606   6.609   0.934   2.725
 9569SOL    HW229607   6.477   0.869   2.653
 9570SOL     OW29608   0.618   3.242   2.012
 9570SOL    HW129609   0.543   3.252   1.946
 9570SOL    HW229610   0.691   3.307   1.989
 9571SOL     OW29611   3.745   3.802   6.465
 9571SOL    HW129612   3.666   3.776   6.522
 9571SOL    HW229613   3.813   3.847   6.523
 9572SOL     OW29614   2.382   4.439   2.130
 9572SOL    HW129615   2.466   4.493   2.124
 9572SOL    HW229616   2.314   4.476   2.067
 9573SOL     OW29617   0.923   2.434   6.451
 9573SOL    HW129618   0.946   2.510   6.391
 9573SOL    HW229619   1.002   2.412   6.509
 9574SOL     OW29620   4.117   3.596   3.057
 9574SOL    HW129621   4.209   3.634   3.066
 9574SOL    HW229622   4.113   3.508   3.104
 9575SOL     OW29623   0.744   0.846   1.570
 9575SOL    HW129624   0.707   0.773   1.627
 9575SOL    HW229625   0.750   0.930   1.623
 9576SOL     OW29626   1.887   1.615   1.127
 9576SOL    HW129627   1.839   1.628   1.214
 9576SOL    HW229628   1.848   1.674   1.057
 9577SOL     OW29629   0.949   0.264   6.107
 9577SOL    HW129630   0.941   0.293   6.202
 9577SOL    HW229631   1.005   0.330   6.057
 9578SOL     OW29632   0.967   4.205   2.823
 9578SOL    HW129633   0.939   4.128   2.880
 9578SOL    HW229634   0.996   4.281   2.882
 9579SOL     OW29635   0.957   4.731   3.169
 9579SOL    HW129636   0.979   4.802   3.236
 9579SOL    HW229637   0.961   4.770   3.077
 9580SOL     OW29638   4.584   3.276   0.682
 9580SOL    HW129639   4.600   3.372   0.707
 9580SOL    HW229640   4.509   3.240   0.737
 9581SOL     OW29641   0.711   6.390   5.686
 9581SOL    HW129642   0.792   6.436   5.721
 9581SOL    HW229643   0.645   6.459   5.654
 9582SOL     OW29644   4.476   5.055   5.890
 9582SOL    HW129645   4.444   5.119   5.960
 9582SOL    HW229646   4.414   5.057   5.812
 9583SOL     OW29647   3.552   4.333   1.431
 9583SOL    HW129648   3.521   4.366   1.521
 9583SOL    HW229649   3.520   4.239   1.418
 9584SOL     OW29650   0.102   5.316   6.613
 9584SOL    HW129651   0.199   5.294   6.600
 9584SOL    HW229652   0.077   5.394   6.556
 9585SOL     OW29653   6.545   6.842   4.641
 9585SOL    HW129654   6.467   6.803   4.690
 9585SOL    HW229655   6.543   6.941   4.649
 9586SOL     OW29656   5.424   4.809   2.256
 9586SOL    HW129657   5.391   4.724   2.298
 9586SOL    HW229658   5.513   4.793   2.214
 9587SOL     OW29659   0.743   0.257   1.819
 9587SOL    HW129660   0.771   0.289   1.729
 9587SOL    HW229661   0.703   0.165   1.810
 9588SOL     OW29662   6.947   0.748   1.334
 9588SOL    HW129663   6.971   0.745   1.237
 9588SOL    HW229664   6.853   0.781   1.344
 9589SOL     OW29665   2.358   4.894   6.751
 9589SOL    HW129666   2.355   4.794   6.756
 9589SOL    HW229667   2.435   4.921   6.693
 9590SOL     OW29668   6.362   2.754   2.024
 9590SOL    HW129669   6.336   2.742   2.120
 9590SOL    HW229670   6.441   2.815   2.018
 9591SOL     OW29671   3.028   5.811   5.869
 9591SOL    HW129672   2.944   5.814   5.815
 9591SOL    HW229673   3.090   5.743   5.830
 9592SOL     OW29674   3.654   4.545   0.648
 9592SOL    HW129675   3.582   4.583   0.590
 9592SOL    HW229676   3.645   4.582   0.740
 9593SOL     OW29677   0.560   0.860   5.789
 9593SOL    HW129678   0.470   0.884   5.826
 9593SOL    HW229679   0.620   0.830   5.862
 9594SOL     OW29680   1.148   5.511   2.812
 9594SOL    HW129681   1.151   5.534   2.715
 9594SOL    HW229682   1.128   5.593   2.866
 9595SOL     OW29683   0.400   3.056   4.710
 9595SOL    HW129684   0.311   3.092   4.679
 9595SOL    HW229685   0.435   3.114   4.784
 9596SOL     OW29686   0.329   5.477   6.413
 9596SOL    HW129687   0.352   5.570   6.383
 9596SOL    HW229688   0.292   5.426   6.335
 9597SOL     OW29689   1.101   4.151   1.272
 9597SOL    HW129690   1.044   4.228   1.244
 9597SOL    HW229691   1.048   4.067   1.265
 9598SOL     OW29692   1.532   4.172   3.997
 9598SOL    HW129693   1.595   4.212   4.063
 9598SOL    HW229694   1.569   4.084   3.965
 9599SOL     OW29695   3.198   0.005   4.787
 9599SOL    HW129696   3.210   7.003   4.690
 9599SOL    HW229697   3.264   0.075   4.814
 9600SOL     OW29698   2.536   6.695   6.821
 9600SOL    HW129699   2.437   6.699   6.805
 9600SOL    HW229700   2.584   6.710   6.734
 9601SOL     OW29701   4.682   3.939   0.667
 9601SOL    HW129702   4.658   3.926   0.571
 9601SOL    HW229703   4.768   3.991   0.673
 9602SOL     OW29704   6.287   4.912   5.909
 9602SOL    HW129705   6.360   4.901   5.840
 9602SOL    HW229706   6.324   4.960   5.989
 9603SOL     OW29707   3.768   1.682   4.039
 9603SOL    HW129708   3.840   1.663   4.105
 9603SOL    HW229709   3.792   1.761   3.984
 9604SOL     OW29710   4.723   0.118   6.517
 9604SOL    HW129711   4.815   0.081   6.502
 9604SOL    HW229712   4.657   0.043   6.518
 9605SOL     OW29713   0.471   5.465   3.584
 9605SOL    HW129714   0.518   5.528   3.647
 9605SOL    HW229715   0.519   5.464   3.497
 9606SOL     OW29716   1.832   6.581   6.721
 9606SOL    HW129717   1.916   6.597   6.668
 9606SOL    HW229718   1.757   6.634   6.682
 9607SOL     OW29719   1.885   1.760   0.379
 9607SOL    HW129720   1.829   1.792   0.455
 9607SOL    HW229721   1.981   1.763   0.405
 9608SOL     OW29722   6.788   5.174   2.788
 9608SOL    HW129723   6.764   5.107   2.859
 9608SOL    HW229724   6.861   5.233   2.821
 9609SOL     OW29725   2.735   4.320   0.013
 9609SOL    HW129726   2.666   4.325   0.085
 9609SOL    HW229727   2.694   4.346   6.945
 9610SOL     OW29728   1.128   4.492   4.396
 9610SOL    HW129729   1.174   4.403   4.410
 9610SOL    HW229730   1.034   4.476   4.367
 9611SOL     OW29731   0.799   6.231   6.637
 9611SOL    HW129732   0.889   6.191   6.619
 9611SOL    HW229733   0.810   6.322   6.677
 9612SOL     OW29734   0.765   3.967   1.721
 9612SOL    HW129735   0.853   3.924   1.702
 9612SOL    HW229736   0.777   4.066   1.731
 9613SOL     OW29737   5.406   6.686   3.482
 9613SOL    HW129738   5.368   6.769   3.522
 9613SOL    HW229739   5.334   6.639   3.430
 9614SOL     OW29740   2.999   2.249   0.753
 9614SOL    HW129741   3.008   2.349   0.750
 9614SOL    HW229742   3.053   2.213   0.829
 9615SOL     OW29743   1.552   0.029   0.038
 9615SOL    HW129744   1.572   7.010   6.968
 9615SOL    HW229745   1.454   0.047   0.046
 9616SOL     OW29746   4.325   3.594   1.475
 9616SOL    HW129747   4.338   3.642   1.562
 9616SOL    HW229748   4.290   3.658   1.406
 9617SOL     OW29749   2.027   2.865   2.990
 9617SOL    HW129750   2.077   2.945   3.023
 9617SOL    HW229751   2.069   2.781   3.026
 9618SOL     OW29752   4.129   0.149   5.498
 9618SOL    HW129753   4.166   0.109   5.413
 9618SOL    HW229754   4.170   0.103   5.577
 9619SOL     OW29755   1.195   0.203   0.307
 9619SOL    HW129756   1.119   0.155   0.351
 9619SOL    HW229757   1.280   0.184   0.357
 9620SOL     OW29758   4.801   2.102   6.312
 9620SOL    HW129759   4.826   2.010   6.344
 9620SOL    HW229760   4.880   2.146   6.272
 9621SOL     OW29761   0.939   1.135   1.851
 9621SOL    HW129762   1.007   1.193   1.807
 9621SOL    HW229763   0.960   1.039   1.831
 9622SOL     OW29764   6.801   1.318   0.037
 9622SOL    HW129765   6.854   1.243   7.016
 9622SOL    HW229766   6.844   1.405   0.014
 9623SOL     OW29767   2.791   4.336   6.257
 9623SOL    HW129768   2.761   4.263   6.196
 9623SOL    HW229769   2.883   4.365   6.230
 9624SOL     OW29770   6.922   4.569   2.201
 9624SOL    HW129771   6.824   4.569   2.222
 9624SOL    HW229772   6.936   4.610   2.111
 9625SOL     OW29773   5.077   5.387   0.242
 9625SOL    HW129774   4.987   5.392   0.197
 9625SOL    HW229775   5.085   5.461   0.308
 9626SOL     OW29776   2.968   5.743   0.068
 9626SOL    HW129777   2.980   5.834   0.107
 9626SOL    HW229778   2.980   5.674   0.140
 9627SOL     OW29779   6.460   6.137   3.150
 9627SOL    HW129780   6.541   6.081   3.166
 9627SOL    HW229781   6.425   6.170   3.237
 9628SOL     OW29782   5.320   4.802   0.433
 9628SOL    HW129783   5.389   4.855   0.384
 9628SOL    HW229784   5.342   4.704   0.427
 9629SOL     OW29785   0.675   0.014   2.061
 9629SOL    HW129786   0.687   0.059   2.149
 9629SOL    HW229787   0.726   6.948   2.060
 9630SOL     OW29788   6.306   6.070   5.661
 9630SOL    HW129789   6.322   6.077   5.563
 9630SOL    HW229790   6.212   6.039   5.677
 9631SOL     OW29791   6.427   0.092   6.895
 9631SOL    HW129792   6.517   0.110   6.856
 9631SOL    HW229793   6.437   0.043   6.981
 9632SOL     OW29794   2.430   5.645   2.431
 9632SOL    HW129795   2.472   5.649   2.522
 9632SOL    HW229796   2.348   5.703   2.430
 9633SOL     OW29797   5.277   5.242   0.105
 9633SOL    HW129798   5.216   5.292   0.167
 9633SOL    HW229799   5.252   5.145   0.105
 9634SOL     OW29800   1.218   7.000   3.717
 9634SOL    HW129801   1.208   7.018   3.815
 9634SOL    HW229802   1.260   6.910   3.704
 9635SOL     OW29803   1.409   4.989   5.539
 9635SOL    HW129804   1.472   5.018   5.611
 9635SOL    HW229805   1.461   4.963   5.458
 9636SOL     OW29806   3.449   2.171   6.564
 9636SOL    HW129807   3.526   2.234   6.568
 9636SOL    HW229808   3.404   2.180   6.475
 9637SOL     OW29809   3.081   1.840   6.571
 9637SOL    HW129810   3.040   1.868   6.658
 9637SOL    HW229811   3.066   1.910   6.502
 9638SOL     OW29812   6.875   3.242   6.521
 9638SOL    HW129813   6.962   3.193   6.528
 9638SOL    HW229814   6.800   3.177   6.523
 9639SOL     OW29815   3.677   1.680   2.496
 9639SOL    HW129816   3.705   1.735   2.574
 9639SOL    HW229817   3.581   1.699   2.474
 9640SOL     OW29818   2.599   1.937   2.874
 9640SOL    HW129819   2.544   1.925   2.956
 9640SOL    HW229820   2.669   1.865   2.870
 9641SOL     OW29821   5.100   5.993   1.143
 9641SOL    HW129822   5.018   5.935   1.144
 9641SOL    HW229823   5.152   5.978   1.227
 9642SOL     OW29824   3.411   6.193   5.555
 9642SOL    HW129825   3.425   6.243   5.470
 9642SOL    HW229826   3.500   6.175   5.598
 9643SOL     OW29827   5.901   5.087   4.292
 9643SOL    HW129828   5.864   5.069   4.201
 9643SOL    HW229829   6.000   5.076   4.290
 9644SOL     OW29830   0.845   4.779   5.463
 9644SOL    HW129831   0.927   4.769   5.408
 9644SOL    HW229832   0.866   4.831   5.546
 9645SOL     OW29833   4.091   4.953   3.603
 9645SOL    HW129834   4.116   4.856   3.595
 9645SOL    HW229835   4.139   4.994   3.681
 9646SOL     OW29836   2.879   4.762   2.185
 9646SOL    HW129837   2.861   4.692   2.116
 9646SOL    HW229838   2.807   4.831   2.183
 9647SOL     OW29839   6.432   5.324   1.514
 9647SOL    HW129840   6.497   5.251   1.535
 9647SOL    HW229841   6.480   5.401   1.471
 9648SOL     OW29842   3.885   2.365   6.806
 9648SOL    HW129843   3.936   2.305   6.868
 9648SOL    HW229844   3.792   2.378   6.840
 9649SOL     OW29845   2.668   5.709   7.019
 9649SOL    HW129846   2.668   5.666   6.929
 9649SOL    HW229847   2.762   5.715   0.033
 9650SOL     OW29848   5.466   4.892   2.802
 9650SOL    HW129849   5.563   4.873   2.785
 9650SOL    HW229850   5.435   4.834   2.878
 9651SOL     OW29851   0.029   0.518   6.430
 9651SOL    HW129852   0.063   0.610   6.413
 9651SOL    HW229853   6.956   0.508   6.395
 9652SOL     OW29854   1.882   4.966   0.601
 9652SOL    HW129855   1.979   4.940   0.605
 9652SOL    HW229856   1.873   5.050   0.546
 9653SOL     OW29857   3.961   5.014   4.688
 9653SOL    HW129858   4.023   5.080   4.647
 9653SOL    HW229859   3.925   5.051   4.774
 9654SOL     OW29860   3.733   3.356   1.681
 9654SOL    HW129861   3.633   3.355   1.683
 9654SOL    HW229862   3.764   3.401   1.597
 9655SOL     OW29863   0.210   1.409   6.960
 9655SOL    HW129864   0.125   1.460   6.945
 9655SOL    HW229865   0.232   1.410   0.038
 9656SOL     OW29866   2.941   2.599   1.184
 9656SOL    HW129867   3.005   2.542   1.237
 9656SOL    HW229868   2.987   2.683   1.156
 9657SOL     OW29869   6.749   1.857   3.842
 9657SOL    HW129870   6.670   1.823   3.790
 9657SOL    HW229871   6.815   1.899   3.780
 9658SOL     OW29872   5.944   1.170   2.732
 9658SOL    HW129873   6.026   1.166   2.788
 9658SOL    HW229874   5.893   1.253   2.753
 9659SOL     OW29875   6.890   4.438   7.018
 9659SOL    HW129876   6.952   4.360   0.002
 9659SOL    HW229877   6.903   4.487   6.931
 9660SOL     OW29878   0.334   5.665   1.310
 9660SOL    HW129879   0.409   5.612   1.349
 9660SOL    HW229880   0.247   5.622   1.333
 9661SOL     OW29881   3.776   6.434   1.979
 9661SOL    HW129882   3.755   6.504   1.911
 9661SOL    HW229883   3.736   6.461   2.067
 9662SOL     OW29884   4.900   3.161   5.306
 9662SOL    HW129885   4.914   3.070   5.345
 9662SOL    HW229886   4.842   3.154   5.224
 9663SOL     OW29887   1.047   6.373   4.387
 9663SOL    HW129888   1.027   6.275   4.394
 9663SOL    HW229889   1.092   6.403   4.471
 9664SOL     OW29890   5.994   6.470   3.659
 9664SOL    HW129891   6.055   6.539   3.620
 9664SOL    HW229892   6.037   6.428   3.738
 9665SOL     OW29893   5.596   6.097   6.757
 9665SOL    HW129894   5.543   6.052   6.829
 9665SOL    HW229895   5.693   6.092   6.781
 9666SOL     OW29896   5.883   4.358   1.291
 9666SOL    HW129897   5.921   4.304   1.365
 9666SOL    HW229898   5.957   4.397   1.236
 9667SOL     OW29899   3.451   3.788   4.053
 9667SOL    HW129900   3.532   3.797   4.111
 9667SOL    HW229901   3.381   3.735   4.101
 9668SOL     OW29902   6.036   1.930   6.952
 9668SOL    HW129903   6.125   1.962   6.984
 9668SOL    HW229904   6.047   1.882   6.865
 9669SOL     OW29905   1.345   0.014   2.041
 9669SOL    HW129906   1.434   7.001   2.010
 9669SOL    HW229907   1.358   0.087   2.108
 9670SOL     OW29908   5.242   4.933   6.758
 9670SOL    HW129909   5.216   4.883   6.675
 9670SOL    HW229910   5.188   5.017   6.764
 9671SOL     OW29911   6.237   5.195   6.417
 9671SOL    HW129912   6.160   5.137   6.394
 9671SOL    HW229913   6.318   5.166   6.365
 9672SOL     OW29914   1.089   6.168   4.755
 9672SOL    HW129915   0.993   6.160   4.781
 9672SOL    HW229916   1.122   6.260   4.778
 9673SOL     OW29917   5.975   3.667   0.503
 9673SOL    HW129918   6.021   3.707   0.582
 9673SOL    HW229919   6.042   3.627   0.441
 9674SOL     OW29920   2.302   5.718   3.552
 9674SOL    HW129921   2.288   5.676   3.642
 9674SOL    HW229922   2.346   5.652   3.491
 9675SOL     OW29923   5.902   2.014   0.843
 9675SOL    HW129924   5.891   1.948   0.769
 9675SOL    HW229925   5.995   2.052   0.839
 9676SOL     OW29926   1.619   3.700   5.343
 9676SOL    HW129927   1.679   3.698   5.262
 9676SOL    HW229928   1.536   3.752   5.321
 9677SOL     OW29929   1.825   5.635   5.537
 9677SOL    HW129930   1.809   5.574   5.615
 9677SOL    HW229931   1.835   5.582   5.454
 9678SOL     OW29932   3.259   3.262   2.882
 9678SOL    HW129933   3.223   3.173   2.856
 9678SOL    HW229934   3.358   3.257   2.891
 9679SOL     OW29935   1.983   1.177   2.606
 9679SOL    HW129936   2.038   1.105   2.648
 9679SOL    HW229937   2.043   1.242   2.560
 9680SOL     OW29938   6.060   0.613   3.510
 9680SOL    HW129939   6.093   0.704   3.536
 9680SOL    HW229940   5.990   0.622   3.438
 9681SOL     OW29941   3.719   1.258   0.252
 9681SOL    HW129942   3.623   1.275   0.228
 9681SOL    HW229943   3.753   1.335   0.306
 9682SOL     OW29944   5.256   5.269   3.774
 9682SOL    HW129945   5.230   5.365   3.765
 9682SOL    HW229946   5.349   5.257   3.740
 9683SOL     OW29947   2.869   5.281   1.018
 9683SOL    HW129948   2.854   5.357   0.955
 9683SOL    HW229949   2.859   5.313   1.112
 9684SOL     OW29950   0.183   1.973   4.887
 9684SOL    HW129951   0.115   2.046   4.877
 9684SOL    HW229952   0.262   2.008   4.937
 9685SOL     OW29953   1.794   3.669   0.932
 9685SOL    HW129954   1.724   3.639   0.997
 9685SOL    HW229955   1.812   3.767   0.946
 9686SOL     OW29956   6.814   2.070   0.638
 9686SOL    HW129957   6.786   2.164   0.623
 9686SOL    HW229958   6.736   2.009   0.627
 9687SOL     OW29959   1.895   1.256   3.922
 9687SOL    HW129960   1.937   1.346   3.932
 9687SOL    HW229961   1.966   1.186   3.910
 9688SOL     OW29962   6.680   2.064   3.513
 9688SOL    HW129963   6.650   2.143   3.567
 9688SOL    HW229964   6.780   2.059   3.514
 9689SOL     OW29965   1.747   5.987   0.363
 9689SOL    HW129966   1.675   5.952   0.423
 9689SOL    HW229967   1.757   5.927   0.284
 9690SOL     OW29968   5.851   6.071   6.330
 9690SOL    HW129969   5.879   6.125   6.409
 9690SOL    HW229970   5.860   5.974   6.351
 9691SOL     OW29971   2.947   5.051   1.959
 9691SOL    HW129972   3.017   5.108   1.916
 9691SOL    HW229973   2.983   4.959   1.973
 9692SOL     OW29974   2.887   5.314   2.655
 9692SOL    HW129975   2.874   5.277   2.563
 9692SOL    HW229976   2.907   5.239   2.719
 9693SOL     OW29977   6.379   5.930   1.400
 9693SOL    HW129978   6.407   6.016   1.442
 9693SOL    HW229979   6.449   5.899   1.336
 9694SOL     OW29980   2.437   0.929   6.370
 9694SOL    HW129981   2.390   0.893   6.451
 9694SOL    HW229982   2.489   1.010   6.394
 9695SOL     OW29983   6.722   3.915   2.008
 9695SOL    HW129984   6.700   3.974   1.930
 9695SOL    HW229985   6.816   3.931   2.037
 9696SOL     OW29986   5.178   3.040   1.167
 9696SOL    HW129987   5.235   2.961   1.146
 9696SOL    HW229988   5.086   3.026   1.130
 9697SOL     OW29989   0.218   6.320   6.665
 9697SOL    HW129990   0.252   6.412   6.647
 9697SOL    HW229991   0.122   6.313   6.637
 9698SOL     OW29992   5.041   2.019   5.855
 9698SOL    HW129993   5.127   1.994   5.809
 9698SOL    HW229994   4.964   1.989   5.799
 9699SOL     OW29995   0.255   4.570   6.488
 9699SOL    HW129996   0.249   4.633   6.565
 9699SOL    HW229997   0.319   4.606   6.420
 9700SOL     OW29998   4.299   5.202   5.286
 9700SOL    HW129999   4.371   5.134   5.270
 9700SOL    HW230000   4.213   5.155   5.303
 9701SOL     OW30001   3.949   5.290   5.152
 9701SOL    HW130002   3.919   5.260   5.062
 9701SOL    HW230003   3.947   5.390   5.157
 9702SOL     OW30004   5.078   0.609   6.778
 9702SOL    HW130005   5.171   0.637   6.754
 9702SOL    HW230006   5.030   0.685   6.822
 9703SOL     OW30007   4.153   5.089   4.498
 9703SOL    HW130008   4.216   5.116   4.425
 9703SOL    HW230009   4.149   4.989   4.502
 9704SOL     OW30010   3.001   0.935   2.942
 9704SOL    HW130011   3.064   0.913   3.016
 9704SOL    HW230012   2.907   0.935   2.978
 9705SOL     OW30013   4.777   5.442   6.293
 9705SOL    HW130014   4.793   5.503   6.215
 9705SOL    HW230015   4.681   5.415   6.295
 9706SOL     OW30016   0.814   2.307   0.829
 9706SOL    HW130017   0.772   2.294   0.739
 9706SOL    HW230018   0.747   2.347   0.892
 9707SOL     OW30019   6.166   4.375   1.393
 9707SOL    HW130020   6.261   4.375   1.425
 9707SOL    HW230021   6.150   4.294   1.337
 9708SOL     OW30022   1.368   2.162   2.519
 9708SOL    HW130023   1.390   2.216   2.438
 9708SOL    HW230024   1.451   2.120   2.555
 9709SOL     OW30025   5.974   6.041   2.438
 9709SOL    HW130026   6.051   5.985   2.406
 9709SOL    HW230027   5.900   6.039   2.371
 9710SOL     OW30028   0.638   1.681   1.990
 9710SOL    HW130029   0.575   1.754   1.961
 9710SOL    HW230030   0.664   1.696   2.086
 9711SOL     OW30031   1.969   4.191   6.139
 9711SOL    HW130032   2.005   4.215   6.049
 9711SOL    HW230033   2.044   4.162   6.198
 9712SOL     OW30034   6.185   4.663   5.994
 9712SOL    HW130035   6.222   4.743   5.948
 9712SOL    HW230036   6.085   4.671   5.999
 9713SOL     OW30037   1.189   4.971   3.508
 9713SOL    HW130038   1.213   4.876   3.489
 9713SOL    HW230039   1.100   4.992   3.468
 9714SOL     OW30040   2.817   1.000   1.807
 9714SOL    HW130041   2.767   1.043   1.882
 9714SOL    HW230042   2.901   1.050   1.790
 9715SOL     OW30043   5.354   4.171   6.463
 9715SOL    HW130044   5.333   4.193   6.559
 9715SOL    HW230045   5.429   4.229   6.432
 9716SOL     OW30046   3.898   2.684   6.273
 9716SOL    HW130047   3.883   2.703   6.176
 9716SOL    HW230048   3.996   2.682   6.292
 9717SOL     OW30049   5.956   5.433   5.621
 9717SOL    HW130050   5.992   5.400   5.708
 9717SOL    HW230051   5.966   5.533   5.616
 9718SOL     OW30052   5.234   2.645   1.539
 9718SOL    HW130053   5.310   2.584   1.519
 9718SOL    HW230054   5.193   2.619   1.626
 9719SOL     OW30055   0.293   1.767   6.599
 9719SOL    HW130056   0.334   1.810   6.679
 9719SOL    HW230057   0.351   1.782   6.519
 9720SOL     OW30058   6.873   5.660   2.228
 9720SOL    HW130059   6.888   5.601   2.307
 9720SOL    HW230060   6.787   5.636   2.184
 9721SOL     OW30061   0.493   3.275   1.014
 9721SOL    HW130062   0.524   3.181   1.025
 9721SOL    HW230063   0.534   3.332   1.085
 9722SOL     OW30064   0.235   0.255   3.880
 9722SOL    HW130065   0.226   0.273   3.978
 9722SOL    HW230066   0.187   0.170   3.857
 9723SOL     OW30067   2.065   6.146   3.547
 9723SOL    HW130068   2.163   6.148   3.529
 9723SOL    HW230069   2.046   6.093   3.630
 9724SOL     OW30070   2.007   3.705   0.317
 9724SOL    HW130071   2.011   3.750   0.406
 9724SOL    HW230072   2.080   3.637   0.310
 9725SOL     OW30073   4.067   4.380   6.600
 9725SOL    HW130074   4.023   4.466   6.574
 9725SOL    HW230075   3.996   4.312   6.622
 9726SOL     OW30076   5.185   0.504   3.928
 9726SOL    HW130077   5.223   0.479   3.839
 9726SOL    HW230078   5.158   0.601   3.927
 9727SOL     OW30079   0.529   3.412   5.287
 9727SOL    HW130080   0.602   3.447   5.346
 9727SOL    HW230081   0.569   3.355   5.214
 9728SOL     OW30082   7.006   0.334   5.996
 9728SOL    HW130083   6.951   0.417   5.987
 9728SOL    HW230084   0.034   0.335   6.084
 9729SOL     OW30085   1.209   4.414   3.036
 9729SOL    HW130086   1.259   4.341   3.082
 9729SOL    HW230087   1.111   4.402   3.052
 9730SOL     OW30088   0.311   3.259   3.216
 9730SOL    HW130089   0.372   3.338   3.218
 9730SOL    HW230090   0.354   3.182   3.263
 9731SOL     OW30091   4.492   3.780   1.057
 9731SOL    HW130092   4.465   3.841   1.131
 9731SOL    HW230093   4.551   3.708   1.092
 9732SOL     OW30094   5.588   5.930   3.272
 9732SOL    HW130095   5.559   5.835   3.289
 9732SOL    HW230096   5.549   5.990   3.342
 9733SOL     OW30097   5.164   5.203   0.421
 9733SOL    HW130098   5.253   5.227   0.460
 9733SOL    HW230099   5.143   5.267   0.347
 9734SOL     OW30100   5.638   1.570   3.101
 9734SOL    HW130101   5.724   1.522   3.119
 9734SOL    HW230102   5.658   1.661   3.065
 9735SOL     OW30103   1.913   4.735   3.275
 9735SOL    HW130104   1.982   4.676   3.317
 9735SOL    HW230105   1.831   4.737   3.332
 9736SOL     OW30106   5.971   2.076   6.036
 9736SOL    HW130107   5.888   2.021   6.045
 9736SOL    HW230108   5.961   2.160   6.091
 9737SOL     OW30109   6.550   3.320   4.622
 9737SOL    HW130110   6.487   3.278   4.688
 9737SOL    HW230111   6.615   3.378   4.670
 9738SOL     OW30112   2.178   0.039   2.693
 9738SOL    HW130113   2.162   0.008   2.787
 9738SOL    HW230114   2.090   0.057   2.649
 9739SOL     OW30115   6.323   5.331   2.075
 9739SOL    HW130116   6.323   5.235   2.048
 9739SOL    HW230117   6.388   5.344   2.151
 9740SOL     OW30118   6.353   2.309   4.052
 9740SOL    HW130119   6.405   2.387   4.088
 9740SOL    HW230120   6.417   2.236   4.025
 9741SOL     OW30121   5.036   2.089   2.658
 9741SOL    HW130122   4.980   2.036   2.595
 9741SOL    HW230123   5.110   2.133   2.607
 9742SOL     OW30124   3.712   0.213   2.096
 9742SOL    HW130125   3.612   0.209   2.098
 9742SOL    HW230126   3.746   0.184   2.007
 9743SOL     OW30127   1.253   1.463   4.680
 9743SOL    HW130128   1.258   1.507   4.590
 9743SOL    HW230129   1.178   1.397   4.681
 9744SOL     OW30130   0.653   0.312   2.746
 9744SOL    HW130131   0.598   0.324   2.663
 9744SOL    HW230132   0.743   0.276   2.721
 9745SOL     OW30133   6.475   3.039   6.358
 9745SOL    HW130134   6.492   3.109   6.290
 9745SOL    HW230135   6.376   3.028   6.370
 9746SOL     OW30136   6.579   1.226   6.271
 9746SOL    HW130137   6.540   1.314   6.296
 9746SOL    HW230138   6.656   1.239   6.209
 9747SOL     OW30139   1.867   0.221   1.783
 9747SOL    HW130140   1.792   0.267   1.831
 9747SOL    HW230141   1.946   0.281   1.779
 9748SOL     OW30142   0.986   0.972   3.643
 9748SOL    HW130143   1.044   0.892   3.633
 9748SOL    HW230144   1.042   1.052   3.664
 9749SOL     OW30145   2.116   1.614   4.851
 9749SOL    HW130146   2.022   1.636   4.877
 9749SOL    HW230147   2.151   1.684   4.789
 9750SOL     OW30148   5.417   4.755   3.476
 9750SOL    HW130149   5.487   4.688   3.501
 9750SOL    HW230150   5.386   4.804   3.557
 9751SOL     OW30151   1.645   1.240   0.554
 9751SOL    HW130152   1.600   1.160   0.516
 9751SOL    HW230153   1.614   1.254   0.648
 9752SOL     OW30154   5.243   1.692   6.921
 9752SOL    HW130155   5.296   1.776   6.927
 9752SOL    HW230156   5.262   1.646   6.834
 9753SOL     OW30157   6.172   5.273   5.307
 9753SOL    HW130158   6.085   5.321   5.299
 9753SOL    HW230159   6.161   5.177   5.279
 9754SOL     OW30160   0.822   1.528   6.496
 9754SOL    HW130161   0.907   1.581   6.499
 9754SOL    HW230162   0.844   1.431   6.484
 9755SOL     OW30163   3.864   3.663   5.381
 9755SOL    HW130164   3.919   3.594   5.334
 9755SOL    HW230165   3.863   3.747   5.326
 9756SOL     OW30166   5.921   3.389   0.168
 9756SOL    HW130167   5.982   3.342   0.232
 9756SOL    HW230168   5.831   3.401   0.211
 9757SOL     OW30169   5.569   3.523   3.169
 9757SOL    HW130170   5.664   3.552   3.160
 9757SOL    HW230171   5.514   3.596   3.210
 9758SOL     OW30172   2.851   0.062   0.125
 9758SOL    HW130173   2.951   0.063   0.125
 9758SOL    HW230174   2.818   6.989   0.110
 9759SOL     OW30175   2.294   6.972   6.726
 9759SOL    HW130176   2.385   6.995   6.690
 9759SOL    HW230177   2.225   0.008   6.679
 9760SOL     OW30178   4.488   3.568   5.323
 9760SOL    HW130179   4.567   3.591   5.266
 9760SOL    HW230180   4.493   3.472   5.350
 9761SOL     OW30181   6.105   0.208   1.666
 9761SOL    HW130182   6.162   0.275   1.712
 9761SOL    HW230183   6.160   0.127   1.644
 9762SOL     OW30184   2.753   2.360   4.321
 9762SOL    HW130185   2.775   2.456   4.334
 9762SOL    HW230186   2.809   2.304   4.383
 9763SOL     OW30187   4.572   2.250   1.759
 9763SOL    HW130188   4.531   2.215   1.844
 9763SOL    HW230189   4.590   2.174   1.697
 9764SOL     OW30190   0.685   2.540   3.318
 9764SOL    HW130191   0.680   2.440   3.315
 9764SOL    HW230192   0.612   2.579   3.262
 9765SOL     OW30193   6.580   1.987   3.174
 9765SOL    HW130194   6.590   1.913   3.241
 9765SOL    HW230195   6.561   2.073   3.221
 9766SOL     OW30196   2.823   0.512   3.206
 9766SOL    HW130197   2.799   0.498   3.110
 9766SOL    HW230198   2.849   0.607   3.221
 9767SOL     OW30199   5.119   2.077   4.925
 9767SOL    HW130200   5.193   2.077   4.857
 9767SOL    HW230201   5.122   1.993   4.978
 9768SOL     OW30202   4.545   1.440   2.264
 9768SOL    HW130203   4.512   1.495   2.187
 9768SOL    HW230204   4.573   1.500   2.339
 9769SOL     OW30205   1.913   1.115   2.145
 9769SOL    HW130206   1.975   1.046   2.181
 9769SOL    HW230207   1.870   1.165   2.220
 9770SOL     OW30208   5.318   0.199   6.962
 9770SOL    HW130209   5.374   0.175   6.883
 9770SOL    HW230210   5.250   0.267   6.934
 9771SOL     OW30211   3.560   4.940   1.464
 9771SOL    HW130212   3.541   4.881   1.543
 9771SOL    HW230213   3.565   5.035   1.494
 9772SOL     OW30214   1.317   6.169   2.459
 9772SOL    HW130215   1.334   6.251   2.513
 9772SOL    HW230216   1.255   6.108   2.509
 9773SOL     OW30217   5.482   6.928   4.424
 9773SOL    HW130218   5.425   6.900   4.500
 9773SOL    HW230219   5.435   6.909   4.338
 9774SOL     OW30220   6.174   4.882   1.820
 9774SOL    HW130221   6.079   4.861   1.797
 9774SOL    HW230222   6.232   4.862   1.741
 9775SOL     OW30223   2.560   1.111   3.374
 9775SOL    HW130224   2.654   1.093   3.402
 9775SOL    HW230225   2.498   1.077   3.445
 9776SOL     OW30226   6.901   5.812   4.472
 9776SOL    HW130227   6.909   5.802   4.571
 9776SOL    HW230228   6.843   5.739   4.435
 9777SOL     OW30229   5.645   4.792   6.446
 9777SOL    HW130230   5.629   4.878   6.397
 9777SOL    HW230231   5.740   4.763   6.432
 9778SOL     OW30232   0.317   0.924   3.370
 9778SOL    HW130233   0.256   0.919   3.449
 9778SOL    HW230234   0.407   0.957   3.400
 9779SOL     OW30235   2.122   1.351   4.822
 9779SOL    HW130236   2.111   1.450   4.827
 9779SOL    HW230237   2.127   1.322   4.727
 9780SOL     OW30238   2.259   1.801   1.242
 9780SOL    HW130239   2.243   1.730   1.310
 9780SOL    HW230240   2.314   1.875   1.282
 9781SOL     OW30241   1.424   3.928   3.825
 9781SOL    HW130242   1.340   3.954   3.874
 9781SOL    HW230243   1.423   3.830   3.807
 9782SOL     OW30244   0.050   0.529   1.375
 9782SOL    HW130245   0.000   0.609   1.344
 9782SOL    HW230246   0.051   0.460   1.303
 9783SOL     OW30247   5.179   2.322   2.406
 9783SOL    HW130248   5.132   2.369   2.481
 9783SOL    HW230249   5.263   2.372   2.383
 9784SOL     OW30250   4.160   1.330   3.976
 9784SOL    HW130251   4.200   1.306   3.887
 9784SOL    HW230252   4.119   1.421   3.971
 9785SOL     OW30253   0.066   4.308   5.127
 9785SOL    HW130254   0.097   4.213   5.116
 9785SOL    HW230255   6.996   4.308   5.172
 9786SOL     OW30256   2.252   4.798   6.444
 9786SOL    HW130257   2.320   4.865   6.476
 9786SOL    HW230258   2.270   4.710   6.487
 9787SOL     OW30259   4.625   3.822   1.511
 9787SOL    HW130260   4.557   3.761   1.551
 9787SOL    HW230261   4.709   3.819   1.565
 9788SOL     OW30262   0.467   0.587   3.594
 9788SOL    HW130263   0.524   0.666   3.616
 9788SOL    HW230264   0.417   0.605   3.509
 9789SOL     OW30265   1.364   6.009   6.882
 9789SOL    HW130266   1.287   5.998   6.944
 9789SOL    HW230267   1.335   5.986   6.789
 9790SOL     OW30268   5.906   3.914   6.060
 9790SOL    HW130269   5.843   3.913   5.983
 9790SOL    HW230270   5.959   3.829   6.062
 9791SOL     OW30271   0.477   1.098   2.882
 9791SOL    HW130272   0.530   1.090   2.967
 9791SOL    HW230273   0.408   1.025   2.880
 9792SOL     OW30274   5.390   5.408   1.719
 9792SOL    HW130275   5.405   5.441   1.812
 9792SOL    HW230276   5.424   5.475   1.653
 9793SOL     OW30277   5.542   5.173   3.564
 9793SOL    HW130278   5.479   5.136   3.496
 9793SOL    HW230279   5.607   5.102   3.591
 9794SOL     OW30280   6.741   3.944   6.255
 9794SOL    HW130281   6.754   3.903   6.165
 9794SOL    HW230282   6.703   4.036   6.245
 9795SOL     OW30283   1.231   1.819   4.232
 9795SOL    HW130284   1.184   1.787   4.314
 9795SOL    HW230285   1.213   1.755   4.157
 9796SOL     OW30286   3.884   2.995   1.041
 9796SOL    HW130287   3.926   3.006   1.131
 9796SOL    HW230288   3.816   3.068   1.026
 9797SOL     OW30289   3.213   4.451   6.576
 9797SOL    HW130290   3.210   4.439   6.476
 9797SOL    HW230291   3.126   4.424   6.615
 9798SOL     OW30292   2.141   0.930   0.857
 9798SOL    HW130293   2.151   0.841   0.901
 9798SOL    HW230294   2.224   0.953   0.807
 9799SOL     OW30295   3.451   3.555   3.212
 9799SOL    HW130296   3.375   3.525   3.153
 9799SOL    HW230297   3.538   3.533   3.168
 9800SOL     OW30298   3.383   6.369   5.365
 9800SOL    HW130299   3.433   6.444   5.409
 9800SOL    HW230300   3.429   6.343   5.280
 9801SOL     OW30301   4.146   4.947   0.824
 9801SOL    HW130302   4.088   4.965   0.744
 9801SOL    HW230303   4.240   4.973   0.804
 9802SOL     OW30304   0.690   2.697   2.948
 9802SOL    HW130305   0.750   2.707   2.869
 9802SOL    HW230306   0.624   2.773   2.949
 9803SOL     OW30307   6.005   1.551   6.818
 9803SOL    HW130308   5.989   1.619   6.747
 9803SOL    HW230309   5.930   1.553   6.884
 9804SOL     OW30310   0.827   5.823   3.416
 9804SOL    HW130311   0.748   5.863   3.462
 9804SOL    HW230312   0.836   5.727   3.443
 9805SOL     OW30313   1.321   5.576   5.901
 9805SOL    HW130314   1.337   5.528   5.987
 9805SOL    HW230315   1.408   5.606   5.862
 9806SOL     OW30316   1.122   1.783   0.360
 9806SOL    HW130317   1.091   1.796   0.266
 9806SOL    HW230318   1.098   1.863   0.415
 9807SOL     OW30319   2.027   2.614   0.000
 9807SOL    HW130320   1.995   2.607   0.095
 9807SOL    HW230321   1.950   2.602   6.958
 9808SOL     OW30322   5.514   1.063   5.408
 9808SOL    HW130323   5.546   0.984   5.460
 9808SOL    HW230324   5.512   1.144   5.467
 9809SOL     OW30325   0.846   1.796   6.231
 9809SOL    HW130326   0.865   1.698   6.232
 9809SOL    HW230327   0.911   1.843   6.291
 9810SOL     OW30328   2.630   2.329   3.695
 9810SOL    HW130329   2.576   2.413   3.705
 9810SOL    HW230330   2.686   2.315   3.777
 9811SOL     OW30331   6.172   5.630   4.062
 9811SOL    HW130332   6.099   5.665   4.121
 9811SOL    HW230333   6.218   5.706   4.017
 9812SOL     OW30334   3.396   2.537   6.076
 9812SOL    HW130335   3.487   2.551   6.114
 9812SOL    HW230336   3.327   2.562   6.144
 9813SOL     OW30337   5.753   6.340   6.921
 9813SOL    HW130338   5.678   6.383   6.970
 9813SOL    HW230339   5.741   6.353   6.823
 9814SOL     OW30340   0.520   1.051   6.532
 9814SOL    HW130341   0.617   1.058   6.557
 9814SOL    HW230342   0.479   1.142   6.532
 9815SOL     OW30343   6.918   2.557   2.110
 9815SOL    HW130344   6.847   2.487   2.103
 9815SOL    HW230345   6.943   2.570   2.206
 9816SOL     OW30346   6.220   1.587   6.624
 9816SOL    HW130347   6.221   1.488   6.639
 9816SOL    HW230348   6.285   1.610   6.551
 9817SOL     OW30349   3.124   5.630   1.910
 9817SOL    HW130350   3.192   5.703   1.906
 9817SOL    HW230351   3.032   5.670   1.918
 9818SOL     OW30352   1.478   1.155   3.642
 9818SOL    HW130353   1.455   1.058   3.655
 9818SOL    HW230354   1.538   1.185   3.716
 9819SOL     OW30355   4.951   3.431   5.154
 9819SOL    HW130356   5.005   3.455   5.073
 9819SOL    HW230357   4.867   3.485   5.156
 9820SOL     OW30358   3.543   3.086   6.450
 9820SOL    HW130359   3.558   3.029   6.531
 9820SOL    HW230360   3.539   3.182   6.477
 9821SOL     OW30361   4.221   1.919   0.897
 9821SOL    HW130362   4.215   1.885   0.991
 9821SOL    HW230363   4.213   2.019   0.898
 9822SOL     OW30364   3.598   5.588   4.265
 9822SOL    HW130365   3.575   5.582   4.168
 9822SOL    HW230366   3.694   5.563   4.278
 9823SOL     OW30367   1.739   0.282   2.135
 9823SOL    HW130368   1.701   0.318   2.050
 9823SOL    HW230369   1.696   0.328   2.212
 9824SOL     OW30370   2.290   5.949   5.427
 9824SOL    HW130371   2.258   6.001   5.348
 9824SOL    HW230372   2.216   5.893   5.462
 9825SOL     OW30373   5.544   5.978   4.818
 9825SOL    HW130374   5.578   5.937   4.733
 9825SOL    HW230375   5.540   5.907   4.889
 9826SOL     OW30376   3.431   6.223   5.121
 9826SOL    HW130377   3.437   6.269   5.033
 9826SOL    HW230378   3.488   6.141   5.120
 9827SOL     OW30379   2.075   4.351   3.265
 9827SOL    HW130380   2.101   4.291   3.189
 9827SOL    HW230381   2.006   4.304   3.321
 9828SOL     OW30382   3.330   2.042   5.092
 9828SOL    HW130383   3.289   2.122   5.048
 9828SOL    HW230384   3.353   1.973   5.023
 9829SOL     OW30385   4.610   5.730   6.138
 9829SOL    HW130386   4.536   5.708   6.202
 9829SOL    HW230387   4.630   5.649   6.082
 9830SOL     OW30388   5.167   1.546   1.857
 9830SOL    HW130389   5.252   1.587   1.825
 9830SOL    HW230390   5.101   1.618   1.879
 9831SOL     OW30391   0.757   4.490   1.622
 9831SOL    HW130392   0.708   4.554   1.681
 9831SOL    HW230393   0.713   4.486   1.533
 9832SOL     OW30394   4.492   5.364   3.588
 9832SOL    HW130395   4.443   5.401   3.667
 9832SOL    HW230396   4.587   5.395   3.590
 9833SOL     OW30397   3.440   3.354   3.532
 9833SOL    HW130398   3.423   3.449   3.560
 9833SOL    HW230399   3.525   3.351   3.479
 9834SOL     OW30400   1.927   4.754   5.604
 9834SOL    HW130401   1.948   4.847   5.635
 9834SOL    HW230402   2.000   4.692   5.635
 9835SOL     OW30403   3.463   2.856   4.080
 9835SOL    HW130404   3.409   2.937   4.101
 9835SOL    HW230405   3.506   2.866   3.990
 9836SOL     OW30406   0.679   4.150   4.673
 9836SOL    HW130407   0.635   4.222   4.727
 9836SOL    HW230408   0.683   4.178   4.577
 9837SOL     OW30409   5.525   1.523   2.627
 9837SOL    HW130410   5.561   1.499   2.537
 9837SOL    HW230411   5.583   1.593   2.669
 9838SOL     OW30412   1.528   6.980   0.809
 9838SOL    HW130413   1.572   6.906   0.758
 9838SOL    HW230414   1.598   0.017   0.853
 9839SOL     OW30415   4.281   6.915   3.370
 9839SOL    HW130416   4.331   6.954   3.447
 9839SOL    HW230417   4.310   6.821   3.354
 9840SOL     OW30418   4.674   1.866   0.291
 9840SOL    HW130419   4.719   1.879   0.202
 9840SOL    HW230420   4.676   1.769   0.315
 9841SOL     OW30421   0.943   4.989   3.395
 9841SOL    HW130422   0.872   5.046   3.437
 9841SOL    HW230423   0.967   5.026   3.305
 9842SOL     OW30424   3.612   3.212   0.493
 9842SOL    HW130425   3.615   3.113   0.478
 9842SOL    HW230426   3.585   3.258   0.408
 9843SOL     OW30427   6.683   0.529   1.978
 9843SOL    HW130428   6.776   0.562   1.997
 9843SOL    HW230429   6.625   0.607   1.951
 9844SOL     OW30430   6.353   0.826   4.084
 9844SOL    HW130431   6.388   0.732   4.089
 9844SOL    HW230432   6.283   0.831   4.013
 9845SOL     OW30433   0.898   2.682   3.138
 9845SOL    HW130434   0.887   2.655   3.234
 9845SOL    HW230435   0.811   2.670   3.090
 9846SOL     OW30436   5.146   1.509   0.184
 9846SOL    HW130437   5.141   1.452   0.266
 9846SOL    HW230438   5.222   1.478   0.126
 9847SOL     OW30439   3.894   2.975   2.358
 9847SOL    HW130440   3.855   2.976   2.450
 9847SOL    HW230441   3.994   2.980   2.365
 9848SOL     OW30442   3.329   4.724   5.278
 9848SOL    HW130443   3.383   4.640   5.271
 9848SOL    HW230444   3.232   4.701   5.271
 9849SOL     OW30445   0.910   6.887   6.806
 9849SOL    HW130446   0.991   6.831   6.822
 9849SOL    HW230447   0.845   6.875   6.881
 9850SOL     OW30448   6.942   0.234   3.628
 9850SOL    HW130449   6.892   0.239   3.541
 9850SOL    HW230450   6.931   0.320   3.678
 9851SOL     OW30451   2.960   6.173   4.463
 9851SOL    HW130452   2.910   6.165   4.550
 9851SOL    HW230453   2.895   6.172   4.387
 9852SOL     OW30454   1.002   1.603   5.593
 9852SOL    HW130455   0.932   1.658   5.549
 9852SOL    HW230456   1.087   1.655   5.598
 9853SOL     OW30457   6.822   3.735   5.104
 9853SOL    HW130458   6.824   3.827   5.143
 9853SOL    HW230459   6.768   3.675   5.162
 9854SOL     OW30460   0.623   5.196   4.967
 9854SOL    HW130461   0.633   5.128   5.040
 9854SOL    HW230462   0.608   5.150   4.880
 9855SOL     OW30463   1.097   3.180   0.938
 9855SOL    HW130464   1.085   3.096   0.991
 9855SOL    HW230465   1.185   3.220   0.960
 9856SOL     OW30466   6.067   4.363   3.854
 9856SOL    HW130467   6.138   4.432   3.840
 9856SOL    HW230468   6.024   4.376   3.944
 9857SOL     OW30469   5.585   2.931   2.972
 9857SOL    HW130470   5.511   2.871   3.002
 9857SOL    HW230471   5.554   2.989   2.897
 9858SOL     OW30472   1.428   6.760   1.713
 9858SOL    HW130473   1.401   6.847   1.671
 9858SOL    HW230474   1.363   6.737   1.786
 9859SOL     OW30475   6.494   4.990   4.820
 9859SOL    HW130476   6.558   4.934   4.767
 9859SOL    HW230477   6.503   5.086   4.792
 9860SOL     OW30478   1.689   1.934   4.791
 9860SOL    HW130479   1.667   1.994   4.868
 9860SOL    HW230480   1.765   1.973   4.739
 9861SOL     OW30481   2.992   0.871   3.572
 9861SOL    HW130482   3.077   0.828   3.542
 9861SOL    HW230483   2.934   0.803   3.618
 9862SOL     OW30484   3.136   4.081   0.799
 9862SOL    HW130485   3.189   4.155   0.757
 9862SOL    HW230486   3.197   4.005   0.822
 9863SOL     OW30487   3.237   5.954   1.421
 9863SOL    HW130488   3.268   5.966   1.515
 9863SOL    HW230489   3.314   5.931   1.362
 9864SOL     OW30490   3.021   6.831   5.466
 9864SOL    HW130491   3.051   6.869   5.378
 9864SOL    HW230492   3.085   6.761   5.496
 9865SOL     OW30493   0.440   6.159   5.076
 9865SOL    HW130494   0.441   6.231   5.146
 9865SOL    HW230495   0.498   6.083   5.106
 9866SOL     OW30496   6.090   4.487   4.953
 9866SOL    HW130497   6.186   4.478   4.979
 9866SOL    HW230498   6.075   4.448   4.862
 9867SOL     OW30499   6.083   2.263   2.737
 9867SOL    HW130500   6.109   2.289   2.644
 9867SOL    HW230501   6.146   2.193   2.771
 9868SOL     OW30502   0.784   3.614   4.045
 9868SOL    HW130503   0.860   3.570   4.092
 9868SOL    HW230504   0.741   3.680   4.106
 9869SOL     OW30505   0.244   2.496   1.016
 9869SOL    HW130506   0.294   2.410   1.025
 9869SOL    HW230507   0.217   2.509   0.921
 9870SOL     OW30508   4.311   0.840   2.866
 9870SOL    HW130509   4.359   0.783   2.932
 9870SOL    HW230510   4.343   0.818   2.774
 9871SOL     OW30511   6.792   3.322   6.249
 9871SOL    HW130512   6.848   3.340   6.168
 9871SOL    HW230513   6.849   3.332   6.331
 9872SOL     OW30514   2.328   5.177   5.129
 9872SOL    HW130515   2.383   5.104   5.170
 9872SOL    HW230516   2.268   5.139   5.059
 9873SOL     OW30517   2.197   2.518   6.181
 9873SOL    HW130518   2.175   2.433   6.134
 9873SOL    HW230519   2.296   2.530   6.185
 9874SOL     OW30520   0.614   3.109   4.485
 9874SOL    HW130521   0.678   3.036   4.462
 9874SOL    HW230522   0.602   3.114   4.584
 9875SOL     OW30523   0.121   5.947   1.817
 9875SOL    HW130524   0.201   5.914   1.868
 9875SOL    HW230525   0.137   6.042   1.789
 9876SOL     OW30526   4.483   0.046   4.022
 9876SOL    HW130527   4.568   7.018   4.045
 9876SOL    HW230528   4.413   0.024   4.090
 9877SOL     OW30529   6.894   4.463   4.208
 9877SOL    HW130530   6.805   4.441   4.249
 9877SOL    HW230531   6.880   4.525   4.131
 9878SOL     OW30532   1.658   3.244   6.796
 9878SOL    HW130533   1.719   3.322   6.808
 9878SOL    HW230534   1.566   3.269   6.826
 9879SOL     OW30535   0.683   4.753   5.837
 9879SOL    HW130536   0.774   4.791   5.822
 9879SOL    HW230537   0.668   4.677   5.774
 9880SOL     OW30538   2.813   0.994   0.166
 9880SOL    HW130539   2.786   1.009   0.071
 9880SOL    HW230540   2.774   1.066   0.223
 9881SOL     OW30541   5.292   0.455   4.778
 9881SOL    HW130542   5.236   0.520   4.726
 9881SOL    HW230543   5.290   0.366   4.732
 9882SOL     OW30544   3.685   3.668   4.575
 9882SOL    HW130545   3.620   3.603   4.614
 9882SOL    HW230546   3.646   3.760   4.578
 9883SOL     OW30547   2.154   6.432   1.756
 9883SOL    HW130548   2.240   6.382   1.754
 9883SOL    HW230549   2.143   6.478   1.844
 9884SOL     OW30550   2.882   2.987   6.737
 9884SOL    HW130551   2.785   3.000   6.757
 9884SOL    HW230552   2.893   2.911   6.674
 9885SOL     OW30553   0.928   3.188   3.669
 9885SOL    HW130554   0.932   3.191   3.569
 9885SOL    HW230555   0.988   3.116   3.703
 9886SOL     OW30556   6.135   0.025   1.965
 9886SOL    HW130557   6.190   0.108   1.968
 9886SOL    HW230558   6.043   0.044   2.001
 9887SOL     OW30559   3.658   0.267   0.592
 9887SOL    HW130560   3.639   0.336   0.522
 9887SOL    HW230561   3.576   0.212   0.607
 9888SOL     OW30562   6.117   5.988   3.184
 9888SOL    HW130563   6.121   6.052   3.106
 9888SOL    HW230564   6.022   5.966   3.204
 9889SOL     OW30565   0.618   4.818   2.716
 9889SOL    HW130566   0.616   4.918   2.725
 9889SOL    HW230567   0.574   4.776   2.795
 9890SOL     OW30568   6.265   2.949   0.165
 9890SOL    HW130569   6.361   2.945   0.137
 9890SOL    HW230570   6.226   2.857   0.166
 9891SOL     OW30571   5.384   5.106   1.421
 9891SOL    HW130572   5.445   5.185   1.424
 9891SOL    HW230573   5.417   5.036   1.484
 9892SOL     OW30574   2.552   5.338   3.833
 9892SOL    HW130575   2.487   5.409   3.807
 9892SOL    HW230576   2.584   5.291   3.750
 9893SOL     OW30577   6.867   5.579   2.802
 9893SOL    HW130578   6.915   5.648   2.748
 9893SOL    HW230579   6.769   5.601   2.804
 9894SOL     OW30580   2.860   1.613   6.716
 9894SOL    HW130581   2.891   1.596   6.622
 9894SOL    HW230582   2.857   1.711   6.732
 9895SOL     OW30583   5.898   2.336   6.113
 9895SOL    HW130584   5.842   2.419   6.115
 9895SOL    HW230585   5.994   2.362   6.103
 9896SOL     OW30586   3.869   2.748   0.926
 9896SOL    HW130587   3.806   2.736   0.849
 9896SOL    HW230588   3.853   2.837   0.968
 9897SOL     OW30589   5.243   1.109   2.687
 9897SOL    HW130590   5.205   1.201   2.679
 9897SOL    HW230591   5.230   1.076   2.780
 9898SOL     OW30592   0.685   4.937   5.309
 9898SOL    HW130593   0.753   4.869   5.334
 9898SOL    HW230594   0.673   5.002   5.384
 9899SOL     OW30595   6.024   4.007   1.870
 9899SOL    HW130596   5.928   3.982   1.878
 9899SOL    HW230597   6.072   3.982   1.954
 9900SOL     OW30598   1.798   1.912   2.830
 9900SOL    HW130599   1.739   1.838   2.864
 9900SOL    HW230600   1.798   1.988   2.896
 9901SOL     OW30601   1.462   2.149   6.983
 9901SOL    HW130602   1.498   2.139   0.056
 9901SOL    HW230603   1.454   2.246   6.960
 9902SOL     OW30604   3.256   3.098   0.707
 9902SOL    HW130605   3.332   3.066   0.764
 9902SOL    HW230606   3.219   3.182   0.745
 9903SOL     OW30607   4.779   0.355   2.241
 9903SOL    HW130608   4.771   0.363   2.142
 9903SOL    HW230609   4.874   0.366   2.268
 9904SOL     OW30610   0.497   3.900   6.746
 9904SOL    HW130611   0.505   3.967   6.819
 9904SOL    HW230612   0.465   3.945   6.663
 9905SOL     OW30613   1.404   6.437   0.559
 9905SOL    HW130614   1.428   6.392   0.645
 9905SOL    HW230615   1.483   6.435   0.498
 9906SOL     OW30616   1.394   3.203   6.587
 9906SOL    HW130617   1.383   3.301   6.568
 9906SOL    HW230618   1.475   3.169   6.541
 9907SOL     OW30619   2.790   6.204   3.319
 9907SOL    HW130620   2.721   6.240   3.256
 9907SOL    HW230621   2.751   6.129   3.372
 9908SOL     OW30622   0.701   3.330   6.179
 9908SOL    HW130623   0.724   3.263   6.108
 9908SOL    HW230624   0.663   3.412   6.137
 9909SOL     OW30625   3.443   1.302   2.953
 9909SOL    HW130626   3.435   1.218   2.899
 9909SOL    HW230627   3.536   1.311   2.987
 9910SOL     OW30628   0.261   5.111   1.505
 9910SOL    HW130629   0.356   5.133   1.528
 9910SOL    HW230630   0.255   5.015   1.478
 9911SOL     OW30631   4.906   5.444   3.163
 9911SOL    HW130632   5.006   5.443   3.168
 9911SOL    HW230633   4.876   5.523   3.111
 9912SOL     OW30634   3.967   0.670   2.588
 9912SOL    HW130635   3.887   0.728   2.579
 9912SOL    HW230636   3.939   0.574   2.589
 9913SOL     OW30637   5.654   3.294   2.034
 9913SOL    HW130638   5.750   3.313   2.011
 9913SOL    HW230639   5.643   3.196   2.051
 9914SOL     OW30640   1.096   0.581   5.692
 9914SOL    HW130641   1.129   0.571   5.598
 9914SOL    HW230642   1.014   0.639   5.692
 9915SOL     OW30643   5.485   3.432   4.059
 9915SOL    HW130644   5.436   3.508   4.016
 9915SOL    HW230645   5.513   3.367   3.988
 9916SOL     OW30646   2.807   2.279   3.229
 9916SOL    HW130647   2.906   2.274   3.222
 9916SOL    HW230648   2.780   2.270   3.325
 9917SOL     OW30649   3.365   3.305   5.050
 9917SOL    HW130650   3.412   3.233   5.000
 9917SOL    HW230651   3.341   3.273   5.142
 9918SOL     OW30652   1.688   1.145   0.050
 9918SOL    HW130653   1.772   1.132   7.016
 9918SOL    HW230654   1.710   1.184   0.139
 9919SOL     OW30655   2.021   4.739   2.395
 9919SOL    HW130656   2.008   4.829   2.436
 9919SOL    HW230657   2.111   4.703   2.419
 9920SOL     OW30658   3.646   0.166   2.562
 9920SOL    HW130659   3.725   0.117   2.524
 9920SOL    HW230660   3.572   0.166   2.495
 9921SOL     OW30661   6.620   6.133   3.721
 9921SOL    HW130662   6.652   6.188   3.645
 9921SOL    HW230663   6.566   6.056   3.687
 9922SOL     OW30664   4.207   4.128   1.055
 9922SOL    HW130665   4.125   4.184   1.074
 9922SOL    HW230666   4.276   4.185   1.012
 9923SOL     OW30667   6.709   2.482   0.030
 9923SOL    HW130668   6.715   2.384   0.048
 9923SOL    HW230669   6.613   2.511   0.035
 9924SOL     OW30670   5.762   1.698   1.608
 9924SOL    HW130671   5.724   1.663   1.693
 9924SOL    HW230672   5.756   1.798   1.607
 9925SOL     OW30673   2.135   3.889   5.326
 9925SOL    HW130674   2.197   3.925   5.257
 9925SOL    HW230675   2.040   3.907   5.299
 9926SOL     OW30676   3.110   2.176   1.302
 9926SOL    HW130677   3.064   2.174   1.213
 9926SOL    HW230678   3.200   2.219   1.293
 9927SOL     OW30679   0.883   2.253   1.620
 9927SOL    HW130680   0.911   2.349   1.622
 9927SOL    HW230681   0.929   2.207   1.544
 9928SOL     OW30682   6.078   4.051   2.217
 9928SOL    HW130683   6.154   4.007   2.170
 9928SOL    HW230684   6.004   3.984   2.230
 9929SOL     OW30685   2.874   4.085   5.587
 9929SOL    HW130686   2.974   4.084   5.579
 9929SOL    HW230687   2.833   4.036   5.511
 9930SOL     OW30688   6.755   0.417   5.624
 9930SOL    HW130689   6.828   0.353   5.651
 9930SOL    HW230690   6.744   0.415   5.525
 9931SOL     OW30691   0.226   5.866   5.047
 9931SOL    HW130692   0.278   5.951   5.057
 9931SOL    HW230693   0.238   5.810   5.129
 9932SOL     OW30694   1.837   2.111   0.452
 9932SOL    HW130695   1.801   2.204   0.462
 9932SOL    HW230696   1.763   2.045   0.464
 9933SOL     OW30697   2.672   0.836   3.405
 9933SOL    HW130698   2.713   0.789   3.327
 9933SOL    HW230699   2.690   0.934   3.398
 9934SOL     OW30700   5.718   1.999   0.501
 9934SOL    HW130701   5.757   2.090   0.493
 9934SOL    HW230702   5.642   2.001   0.567
 9935SOL     OW30703   2.967   2.164   1.093
 9935SOL    HW130704   3.036   2.128   1.031
 9935SOL    HW230705   2.904   2.090   1.118
 9936SOL     OW30706   5.435   4.445   6.657
 9936SOL    HW130707   5.442   4.512   6.731
 9936SOL    HW230708   5.427   4.492   6.570
 9937SOL     OW30709   0.845   0.873   2.772
 9937SOL    HW130710   0.865   0.851   2.676
 9937SOL    HW230711   0.746   0.883   2.783
 9938SOL     OW30712   5.593   0.559   3.997
 9938SOL    HW130713   5.648   0.521   3.923
 9938SOL    HW230714   5.646   0.628   4.046
 9939SOL     OW30715   1.350   3.433   1.004
 9939SOL    HW130716   1.370   3.389   1.091
 9939SOL    HW230717   1.258   3.472   1.006
 9940SOL     OW30718   0.166   0.134   3.533
 9940SOL    HW130719   0.238   0.180   3.481
 9940SOL    HW230720   0.101   0.201   3.568
 9941SOL     OW30721   3.964   5.566   5.241
 9941SOL    HW130722   4.040   5.531   5.297
 9941SOL    HW230723   3.887   5.588   5.301
 9942SOL     OW30724   4.748   4.698   2.656
 9942SOL    HW130725   4.688   4.745   2.591
 9942SOL    HW230726   4.795   4.623   2.610
 9943SOL     OW30727   1.003   4.407   6.191
 9943SOL    HW130728   1.037   4.346   6.120
 9943SOL    HW230729   0.927   4.363   6.239
 9944SOL     OW30730   0.067   5.533   6.459
 9944SOL    HW130731   0.166   5.549   6.462
 9944SOL    HW230732   0.019   5.616   6.487
 9945SOL     OW30733   5.824   4.052   6.907
 9945SOL    HW130734   5.848   3.970   6.855
 9945SOL    HW230735   5.727   4.072   6.896
 9946SOL     OW30736   6.098   6.939   3.357
 9946SOL    HW130737   6.046   7.014   3.398
 9946SOL    HW230738   6.063   6.852   3.392
 9947SOL     OW30739   1.346   1.523   3.726
 9947SOL    HW130740   1.432   1.575   3.728
 9947SOL    HW230741   1.312   1.520   3.632
 9948SOL     OW30742   6.996   5.623   5.255
 9948SOL    HW130743   6.929   5.564   5.209
 9948SOL    HW230744   6.961   5.649   5.345
 9949SOL     OW30745   0.212   4.982   4.264
 9949SOL    HW130746   0.270   4.989   4.182
 9949SOL    HW230747   0.144   5.056   4.263
 9950SOL     OW30748   6.704   4.934   5.971
 9950SOL    HW130749   6.782   4.898   5.919
 9950SOL    HW230750   6.640   4.860   5.991
 9951SOL     OW30751   1.631   2.535   2.640
 9951SOL    HW130752   1.623   2.538   2.540
 9951SOL    HW230753   1.716   2.581   2.668
 9952SOL     OW30754   0.710   3.720   2.133
 9952SOL    HW130755   0.785   3.659   2.158
 9952SOL    HW230756   0.625   3.689   2.177
 9953SOL     OW30757   6.523   2.516   4.018
 9953SOL    HW130758   6.595   2.447   4.015
 9953SOL    HW230759   6.509   2.553   3.927
 9954SOL     OW30760   2.427   1.596   4.900
 9954SOL    HW130761   2.328   1.585   4.888
 9954SOL    HW230762   2.471   1.600   4.810
 9955SOL     OW30763   4.819   3.342   6.869
 9955SOL    HW130764   4.824   3.309   6.774
 9955SOL    HW230765   4.886   3.294   6.925
 9956SOL     OW30766   0.505   4.284   2.203
 9956SOL    HW130767   0.532   4.377   2.229
 9956SOL    HW230768   0.528   4.268   2.107
 9957SOL     OW30769   5.230   6.920   1.312
 9957SOL    HW130770   5.198   6.867   1.390
 9957SOL    HW230771   5.219   7.018   1.331
 9958SOL     OW30772   3.226   5.519   6.234
 9958SOL    HW130773   3.287   5.580   6.183
 9958SOL    HW230774   3.251   5.520   6.331
 9959SOL     OW30775   4.499   3.494   1.693
 9959SOL    HW130776   4.476   3.584   1.731
 9959SOL    HW230777   4.421   3.433   1.703
 9960SOL     OW30778   6.989   6.157   1.451
 9960SOL    HW130779   0.008   6.149   1.543
 9960SOL    HW230780   6.934   6.240   1.445
 9961SOL     OW30781   1.741   4.745   2.626
 9961SOL    HW130782   1.749   4.845   2.619
 9961SOL    HW230783   1.828   4.703   2.600
 9962SOL     OW30784   3.825   0.614   1.909
 9962SOL    HW130785   3.789   0.568   1.990
 9962SOL    HW230786   3.803   0.711   1.913
 9963SOL     OW30787   2.571   2.412   0.736
 9963SOL    HW130788   2.521   2.326   0.753
 9963SOL    HW230789   2.573   2.466   0.820
 9964SOL     OW30790   3.680   5.113   6.379
 9964SOL    HW130791   3.602   5.162   6.339
 9964SOL    HW230792   3.687   5.023   6.336
 9965SOL     OW30793   4.187   5.805   4.869
 9965SOL    HW130794   4.207   5.752   4.787
 9965SOL    HW230795   4.145   5.746   4.938
 9966SOL     OW30796   2.655   4.943   2.207
 9966SOL    HW130797   2.691   4.928   2.299
 9966SOL    HW230798   2.578   5.007   2.212
 9967SOL     OW30799   6.233   5.529   3.094
 9967SOL    HW130800   6.260   5.622   3.121
 9967SOL    HW230801   6.134   5.528   3.077
 9968SOL     OW30802   4.757   5.612   6.727
 9968SOL    HW130803   4.791   5.620   6.821
 9968SOL    HW230804   4.698   5.690   6.707
 9969SOL     OW30805   1.465   3.264   4.586
 9969SOL    HW130806   1.539   3.305   4.639
 9969SOL    HW230807   1.450   3.170   4.616
 9970SOL     OW30808   5.911   4.785   1.811
 9970SOL    HW130809   5.858   4.717   1.761
 9970SOL    HW230810   5.866   4.807   1.897
 9971SOL     OW30811   1.307   2.699   1.290
 9971SOL    HW130812   1.377   2.758   1.250
 9971SOL    HW230813   1.217   2.738   1.271
 9972SOL     OW30814   3.002   4.052   1.205
 9972SOL    HW130815   3.084   4.107   1.190
 9972SOL    HW230816   2.928   4.110   1.239
 9973SOL     OW30817   4.858   3.023   4.498
 9973SOL    HW130818   4.819   2.953   4.438
 9973SOL    HW230819   4.864   2.987   4.591
 9974SOL     OW30820   6.815   1.601   3.128
 9974SOL    HW130821   6.720   1.630   3.142
 9974SOL    HW230822   6.846   1.631   3.038
 9975SOL     OW30823   0.997   5.248   6.555
 9975SOL    HW130824   0.930   5.173   6.554
 9975SOL    HW230825   1.084   5.215   6.518
 9976SOL     OW30826   0.716   5.190   5.804
 9976SOL    HW130827   0.723   5.107   5.859
 9976SOL    HW230828   0.759   5.266   5.854
 9977SOL     OW30829   5.267   4.514   5.946
 9977SOL    HW130830   5.352   4.551   5.981
 9977SOL    HW230831   5.192   4.536   6.008
 9978SOL     OW30832   7.014   2.146   5.625
 9978SOL    HW130833   0.077   2.181   5.579
 9978SOL    HW230834   6.966   2.083   5.565
 9979SOL     OW30835   5.631   4.281   6.389
 9979SOL    HW130836   5.668   4.312   6.477
 9979SOL    HW230837   5.693   4.215   6.348
 9980SOL     OW30838   2.396   0.314   1.146
 9980SOL    HW130839   2.422   0.241   1.208
 9980SOL    HW230840   2.298   0.332   1.154
 9981SOL     OW30841   1.391   2.489   1.051
 9981SOL    HW130842   1.348   2.476   1.140
 9981SOL    HW230843   1.424   2.401   1.016
 9982SOL     OW30844   1.510   1.092   4.578
 9982SOL    HW130845   1.491   1.173   4.521
 9982SOL    HW230846   1.599   1.054   4.554
 9983SOL     OW30847   6.744   1.850   2.237
 9983SOL    HW130848   6.684   1.829   2.314
 9983SOL    HW230849   6.827   1.894   2.271
 9984SOL     OW30850   0.554   6.100   0.357
 9984SOL    HW130851   0.548   6.021   0.418
 9984SOL    HW230852   0.604   6.075   0.275
 9985SOL     OW30853   3.118   5.157   0.921
 9985SOL    HW130854   3.176   5.234   0.945
 9985SOL    HW230855   3.031   5.163   0.970
 9986SOL     OW30856   5.960   4.777   0.789
 9986SOL    HW130857   6.024   4.818   0.724
 9986SOL    HW230858   5.985   4.682   0.806
 9987SOL     OW30859   5.645   2.663   2.124
 9987SOL    HW130860   5.619   2.566   2.124
 9987SOL    HW230861   5.567   2.717   2.091
 9988SOL     OW30862   6.896   4.915   4.182
 9988SOL    HW130863   6.828   4.863   4.129
 9988SOL    HW230864   6.922   4.997   4.133
 9989SOL     OW30865   5.799   3.852   1.948
 9989SOL    HW130866   5.736   3.926   1.924
 9989SOL    HW230867   5.815   3.795   1.867
 9990SOL     OW30868   2.480   6.297   3.310
 9990SOL    HW130869   2.429   6.271   3.228
 9990SOL    HW230870   2.463   6.394   3.330
 9991SOL     OW30871   2.096   3.346   3.678
 9991SOL    HW130872   2.161   3.412   3.717
 9991SOL    HW230873   2.060   3.289   3.752
 9992SOL     OW30874   3.358   3.462   0.914
 9992SOL    HW130875   3.372   3.363   0.905
 9992SOL    HW230876   3.401   3.494   0.998
 9993SOL     OW30877   3.690   5.977   3.745
 9993SOL    HW130878   3.592   5.996   3.745
 9993SOL    HW230879   3.729   6.005   3.657
 9994SOL     OW30880   6.844   3.763   3.032
 9994SOL    HW130881   6.940   3.781   3.012
 9994SOL    HW230882   6.787   3.816   2.969
 9995SOL     OW30883   3.443   1.600   3.316
 9995SOL    HW130884   3.398   1.522   3.358
 9995SOL    HW230885   3.421   1.683   3.367
 9996SOL     OW30886   3.432   4.043   1.024
 9996SOL    HW130887   3.382   4.010   0.943
 9996SOL    HW230888   3.501   3.976   1.049
 9997SOL     OW30889   5.604   0.814   3.116
 9997SOL    HW130890   5.525   0.875   3.107
 9997SOL    HW230891   5.629   0.806   3.212
 9998SOL     OW30892   5.329   4.015   1.863
 9998SOL    HW130893   5.358   3.950   1.933
 9998SOL    HW230894   5.315   4.105   1.903
 9999SOL     OW30895   0.058   6.381   4.800
 9999SOL    HW130896   0.065   6.475   4.832
 9999SOL    HW230897   0.134   6.327   4.836
10000SOL     OW30898   5.383   1.925   0.890
10000SOL    HW130899   5.433   1.956   0.971
10000SOL    HW230900   5.378   1.825   0.891
10001SOL     OW30901   3.410   0.141   1.840
10001SOL    HW130902   3.468   0.063   1.862
10001SOL    HW230903   3.394   0.195   1.923
10002SOL     OW30904   2.530   1.319   1.024
10002SOL    HW130905   2.458   1.384   1.050
10002SOL    HW230906   2.533   1.310   0.925
10003SOL     OW30907   3.382   2.071   2.783
10003SOL    HW130908   3.465   2.099   2.831
10003SOL    HW230909   3.405   2.002   2.714
10004SOL     OW30910   5.193   3.437   5.280
10004SOL    HW130911   5.188   3.453   5.378
10004SOL    HW230912   5.100   3.432   5.242
10005SOL     OW30913   3.677   5.383   2.719
10005SOL    HW130914   3.615   5.308   2.696
10005SOL    HW230915   3.664   5.408   2.815
10006SOL     OW30916   5.447   6.866   5.415
10006SOL    HW130917   5.379   6.938   5.402
10006SOL    HW230918   5.539   6.905   5.406
10007SOL     OW30919   1.243   3.615   4.192
10007SOL    HW130920   1.240   3.709   4.224
10007SOL    HW230921   1.301   3.561   4.253
10008SOL     OW30922   5.094   1.544   3.181
10008SOL    HW130923   4.998   1.572   3.193
10008SOL    HW230924   5.099   1.444   3.180
10009SOL     OW30925   2.229   4.557   1.917
10009SOL    HW130926   2.278   4.618   1.854
10009SOL    HW230927   2.201   4.475   1.867
10010SOL     OW30928   2.540   6.279   0.305
10010SOL    HW130929   2.577   6.186   0.297
10010SOL    HW230930   2.441   6.274   0.312
10011SOL     OW30931   0.089   4.223   6.974
10011SOL    HW130932   0.135   4.284   0.020
10011SOL    HW230933   0.158   4.178   6.918
10012SOL     OW30934   5.493   6.874   2.335
10012SOL    HW130935   5.458   6.781   2.349
10012SOL    HW230936   5.420   6.940   2.356
10013SOL     OW30937   1.409   3.076   3.902
10013SOL    HW130938   1.409   3.129   3.818
10013SOL    HW230939   1.357   3.125   3.973
10014SOL     OW30940   1.372   0.338   1.875
10014SOL    HW130941   1.301   0.310   1.810
10014SOL    HW230942   1.330   0.364   1.961
10015SOL     OW30943   4.268   5.332   0.452
10015SOL    HW130944   4.171   5.355   0.460
10015SOL    HW230945   4.301   5.358   0.361
10016SOL     OW30946   2.388   1.063   4.577
10016SOL    HW130947   2.388   1.072   4.676
10016SOL    HW230948   2.427   1.146   4.535
10017SOL     OW30949   1.494   1.495   2.909
10017SOL    HW130950   1.408   1.544   2.920
10017SOL    HW230951   1.512   1.481   2.812
10018SOL     OW30952   6.802   4.816   5.600
10018SOL    HW130953   6.799   4.720   5.627
10018SOL    HW230954   6.711   4.846   5.573
10019SOL     OW30955   0.086   1.595   3.159
10019SOL    HW130956   7.007   1.599   3.174
10019SOL    HW230957   0.122   1.508   3.194
10020SOL     OW30958   0.465   1.161   1.829
10020SOL    HW130959   0.424   1.086   1.881
10020SOL    HW230960   0.404   1.240   1.833
10021SOL     OW30961   0.632   3.207   2.904
10021SOL    HW130962   0.631   3.292   2.957
10021SOL    HW230963   0.723   3.193   2.866
10022SOL     OW30964   3.372   6.231   0.510
10022SOL    HW130965   3.417   6.142   0.508
10022SOL    HW230966   3.415   6.292   0.444
10023SOL     OW30967   1.987   5.525   4.796
10023SOL    HW130968   1.997   5.462   4.873
10023SOL    HW230969   1.903   5.506   4.747
10024SOL     OW30970   1.159   5.850   2.711
10024SOL    HW130971   1.252   5.887   2.706
10024SOL    HW230972   1.115   5.885   2.794
10025SOL     OW30973   0.947   2.955   2.281
10025SOL    HW130974   0.924   2.938   2.185
10025SOL    HW230975   1.039   2.919   2.301
10026SOL     OW30976   5.416   0.271   3.459
10026SOL    HW130977   5.397   0.173   3.453
10026SOL    HW230978   5.481   0.288   3.533
10027SOL     OW30979   0.487   2.219   4.925
10027SOL    HW130980   0.439   2.298   4.887
10027SOL    HW230981   0.576   2.210   4.880
10028SOL     OW30982   1.875   1.453   2.122
10028SOL    HW130983   1.941   1.485   2.190
10028SOL    HW230984   1.906   1.367   2.083
10029SOL     OW30985   1.763   2.552   3.821
10029SOL    HW130986   1.812   2.524   3.903
10029SOL    HW230987   1.728   2.471   3.774
10030SOL     OW30988   3.364   0.427   5.278
10030SOL    HW130989   3.285   0.488   5.292
10030SOL    HW230990   3.363   0.355   5.347
10031SOL     OW30991   5.162   4.780   4.572
10031SOL    HW130992   5.219   4.723   4.632
10031SOL    HW230993   5.137   4.864   4.621
10032SOL     OW30994   4.540   0.774   5.789
10032SOL    HW130995   4.560   0.683   5.752
10032SOL    HW230996   4.471   0.819   5.732
10033SOL     OW30997   4.598   2.622   4.164
10033SOL    HW130998   4.522   2.635   4.228
10033SOL    HW230999   4.676   2.581   4.211
10034SOL     OW31000   2.828   0.185   3.945
10034SOL    HW131001   2.810   0.283   3.936
10034SOL    HW231002   2.926   0.171   3.962
10035SOL     OW31003   6.717   4.706   0.890
10035SOL    HW131004   6.728   4.803   0.868
10035SOL    HW231005   6.644   4.694   0.957
10036SOL     OW31006   6.741   0.642   0.913
10036SOL    HW131007   6.820   0.693   0.946
10036SOL    HW231008   6.663   0.703   0.903
10037SOL     OW31009   6.415   0.623   0.428
10037SOL    HW131010   6.484   0.590   0.363
10037SOL    HW231011   6.411   0.723   0.424
10038SOL     OW31012   4.481   6.919   6.788
10038SOL    HW131013   4.393   6.875   6.805
10038SOL    HW231014   4.481   7.011   6.827
10039SOL     OW31015   4.967   6.491   5.513
10039SOL    HW131016   5.020   6.513   5.432
10039SOL    HW231017   4.933   6.397   5.506
10040SOL     OW31018   4.154   5.720   6.259
10040SOL    HW131019   4.058   5.699   6.281
10040SOL    HW231020   4.175   5.685   6.168
10041SOL     OW31021   5.138   5.707   6.325
10041SOL    HW131022   5.082   5.678   6.402
10041SOL    HW231023   5.173   5.799   6.341
10042SOL     OW31024   0.849   1.728   5.120
10042SOL    HW131025   0.773   1.786   5.092
10042SOL    HW231026   0.935   1.767   5.087
10043SOL     OW31027   7.014   1.641   4.345
10043SOL    HW131028   6.989   1.628   4.441
10043SOL    HW231029   6.995   1.736   4.319
10044SOL     OW31030   2.637   2.488   3.438
10044SOL    HW131031   2.612   2.536   3.523
10044SOL    HW231032   2.663   2.394   3.459
10045SOL     OW31033   5.089   0.091   3.733
10045SOL    HW131034   5.074   0.050   3.823
10045SOL    HW231035   5.005   0.085   3.678
10046SOL     OW31036   1.273   3.224   1.573
10046SOL    HW131037   1.191   3.260   1.530
10046SOL    HW231038   1.347   3.219   1.506
10047SOL     OW31039   5.806   3.787   4.880
10047SOL    HW131040   5.805   3.789   4.980
10047SOL    HW231041   5.715   3.809   4.845
10048SOL     OW31042   4.193   1.831   2.371
10048SOL    HW131043   4.254   1.759   2.338
10048SOL    HW231044   4.103   1.793   2.389
10049SOL     OW31045   0.507   0.420   6.589
10049SOL    HW131046   0.454   0.411   6.674
10049SOL    HW231047   0.474   0.499   6.538
10050SOL     OW31048   6.549   2.246   5.297
10050SOL    HW131049   6.497   2.331   5.301
10050SOL    HW231050   6.564   2.220   5.201
10051SOL     OW31051   6.348   2.101   5.418
10051SOL    HW131052   6.266   2.106   5.362
10051SOL    HW231053   6.428   2.130   5.365
10052SOL     OW31054   2.964   2.207   2.973
10052SOL    HW131055   3.028   2.214   2.897
10052SOL    HW231056   2.871   2.226   2.940
10053SOL     OW31057   3.649   5.672   1.856
10053SOL    HW131058   3.719   5.740   1.834
10053SOL    HW231059   3.687   5.604   1.919
10054SOL     OW31060   4.502   5.384   6.304
10054SOL    HW131061   4.448   5.463   6.330
10054SOL    HW231062   4.477   5.356   6.211
10055SOL     OW31063   5.865   2.228   5.392
10055SOL    HW131064   5.962   2.251   5.401
10055SOL    HW231065   5.839   2.229   5.295
10056SOL     OW31066   5.741   4.765   1.233
10056SOL    HW131067   5.813   4.774   1.302
10056SOL    HW231068   5.652   4.774   1.277
10057SOL     OW31069   3.672   1.998   4.572
10057SOL    HW131070   3.628   1.984   4.483
10057SOL    HW231071   3.624   2.069   4.623
10058SOL     OW31072   0.661   3.725   4.520
10058SOL    HW131073   0.729   3.790   4.485
10058SOL    HW231074   0.570   3.753   4.491
10059SOL     OW31075   5.328   6.337   1.136
10059SOL    HW131076   5.368   6.408   1.194
10059SOL    HW231077   5.366   6.248   1.161
10060SOL     OW31078   2.031   1.600   1.893
10060SOL    HW131079   2.048   1.697   1.911
10060SOL    HW231080   1.935   1.587   1.868
10061SOL     OW31081   5.724   1.574   4.960
10061SOL    HW131082   5.785   1.499   4.935
10061SOL    HW231083   5.703   1.628   4.879
10062SOL     OW31084   6.693   0.095   4.052
10062SOL    HW131085   6.744   0.109   4.137
10062SOL    HW231086   6.711   0.171   3.990
10063SOL     OW31087   1.629   1.244   3.878
10063SOL    HW131088   1.724   1.255   3.849
10063SOL    HW231089   1.613   1.296   3.962
10064SOL     OW31090   5.331   6.156   0.135
10064SOL    HW131091   5.287   6.219   0.070
10064SOL    HW231092   5.398   6.100   0.088
10065SOL     OW31093   2.131   6.690   2.660
10065SOL    HW131094   2.060   6.757   2.681
10065SOL    HW231095   2.175   6.661   2.745
10066SOL     OW31096   0.571   0.970   3.463
10066SOL    HW131097   0.634   0.934   3.394
10066SOL    HW231098   0.582   0.919   3.548
10067SOL     OW31099   6.352   4.393   5.058
10067SOL    HW131100   6.439   4.388   5.008
10067SOL    HW231101   6.318   4.300   5.074
10068SOL     OW31102   6.317   3.032   2.939
10068SOL    HW131103   6.408   3.031   2.982
10068SOL    HW231104   6.290   3.126   2.922
10069SOL     OW31105   2.010   5.394   3.840
10069SOL    HW131106   2.000   5.486   3.878
10069SOL    HW231107   2.019   5.328   3.914
10070SOL     OW31108   6.419   0.046   4.794
10070SOL    HW131109   6.357   0.111   4.750
10070SOL    HW231110   6.373   0.006   4.874
10071SOL     OW31111   6.119   5.388   3.942
10071SOL    HW131112   6.157   5.336   4.018
10071SOL    HW231113   6.115   5.485   3.966
10072SOL     OW31114   0.631   6.572   3.842
10072SOL    HW131115   0.586   6.503   3.786
10072SOL    HW231116   0.690   6.527   3.909
10073SOL     OW31117   5.934   4.624   5.108
10073SOL    HW131118   5.984   4.579   5.035
10073SOL    HW231119   5.997   4.650   5.181
10074SOL     OW31120   1.315   0.892   5.348
10074SOL    HW131121   1.246   0.824   5.323
10074SOL    HW231122   1.270   0.979   5.371
10075SOL     OW31123   1.149   2.815   3.415
10075SOL    HW131124   1.055   2.782   3.413
10075SOL    HW231125   1.170   2.864   3.330
10076SOL     OW31126   6.738   0.360   3.310
10076SOL    HW131127   6.687   0.364   3.396
10076SOL    HW231128   6.788   0.446   3.298
10077SOL     OW31129   3.810   3.248   6.113
10077SOL    HW131130   3.830   3.176   6.047
10077SOL    HW231131   3.880   3.319   6.107
10078SOL     OW31132   0.249   5.897   3.740
10078SOL    HW131133   0.170   5.943   3.780
10078SOL    HW231134   0.309   5.864   3.812
10079SOL     OW31135   0.349   3.859   2.168
10079SOL    HW131136   0.431   3.833   2.218
10079SOL    HW231137   0.370   3.935   2.106
10080SOL     OW31138   3.385   1.189   5.299
10080SOL    HW131139   3.358   1.263   5.361
10080SOL    HW231140   3.415   1.228   5.211
10081SOL     OW31141   0.046   6.774   0.728
10081SOL    HW131142   0.122   6.710   0.740
10081SOL    HW231143   0.059   6.826   0.643
10082SOL     OW31144   0.242   4.863   1.903
10082SOL    HW131145   0.296   4.945   1.922
10082SOL    HW231146   0.200   4.830   1.987
10083SOL     OW31147   4.994   0.575   3.127
10083SOL    HW131148   4.957   0.483   3.138
10083SOL    HW231149   5.008   0.594   3.030
10084SOL     OW31150   2.874   1.029   5.809
10084SOL    HW131151   2.953   1.047   5.750
10084SOL    HW231152   2.883   1.081   5.894
10085SOL     OW31153   1.360   6.293   1.967
10085SOL    HW131154   1.459   6.295   1.982
10085SOL    HW231155   1.313   6.281   2.055
10086SOL     OW31156   5.686   5.592   2.054
10086SOL    HW131157   5.672   5.495   2.069
10086SOL    HW231158   5.779   5.617   2.079
10087SOL     OW31159   0.310   6.843   3.717
10087SOL    HW131160   0.364   6.889   3.647
10087SOL    HW231161   0.297   6.747   3.693
10088SOL     OW31162   6.732   0.040   0.478
10088SOL    HW131163   6.765   6.993   0.544
10088SOL    HW231164   6.643   0.075   0.507
10089SOL     OW31165   3.054   2.188   2.429
10089SOL    HW131166   3.055   2.090   2.408
10089SOL    HW231167   2.988   2.234   2.369
10090SOL     OW31168   1.011   4.780   0.945
10090SOL    HW131169   0.946   4.730   0.887
10090SOL    HW231170   0.964   4.851   0.995
10091SOL     OW31171   1.187   3.705   5.694
10091SOL    HW131172   1.244   3.625   5.714
10091SOL    HW231173   1.151   3.697   5.601
10092SOL     OW31174   1.949   2.966   5.042
10092SOL    HW131175   1.902   3.045   5.081
10092SOL    HW231176   2.031   2.997   4.994
10093SOL     OW31177   6.766   3.733   4.794
10093SOL    HW131178   6.723   3.807   4.743
10093SOL    HW231179   6.796   3.767   4.883
10094SOL     OW31180   2.176   5.745   1.806
10094SOL    HW131181   2.082   5.772   1.784
10094SOL    HW231182   2.180   5.717   1.902
10095SOL     OW31183   6.165   1.539   5.009
10095SOL    HW131184   6.251   1.524   4.960
10095SOL    HW231185   6.127   1.627   4.983
10096SOL     OW31186   5.223   5.002   2.334
10096SOL    HW131187   5.308   4.948   2.330
10096SOL    HW231188   5.152   4.948   2.378
10097SOL     OW31189   0.910   0.987   0.575
10097SOL    HW131190   0.910   1.038   0.661
10097SOL    HW231191   0.855   0.904   0.586
10098SOL     OW31192   2.580   0.784   5.131
10098SOL    HW131193   2.582   0.738   5.220
10098SOL    HW231194   2.531   0.871   5.140
10099SOL     OW31195   6.859   4.989   1.094
10099SOL    HW131196   6.848   5.032   1.184
10099SOL    HW231197   6.891   4.895   1.106
10100SOL     OW31198   5.018   0.237   4.722
10100SOL    HW131199   5.115   0.219   4.701
10100SOL    HW231200   4.972   0.151   4.745
10101SOL     OW31201   5.877   4.152   1.520
10101SOL    HW131202   5.792   4.101   1.537
10101SOL    HW231203   5.881   4.230   1.583
10102SOL     OW31204   1.451   0.758   1.925
10102SOL    HW131205   1.531   0.715   1.967
10102SOL    HW231206   1.468   0.856   1.913
10103SOL     OW31207   2.674   1.553   6.429
10103SOL    HW131208   2.633   1.534   6.340
10103SOL    HW231209   2.773   1.550   6.422
10104SOL     OW31210   1.659   2.164   4.047
10104SOL    HW131211   1.597   2.087   4.029
10104SOL    HW231212   1.701   2.152   4.137
10105SOL     OW31213   1.291   0.689   0.526
10105SOL    HW131214   1.355   0.688   0.603
10105SOL    HW231215   1.244   0.777   0.523
10106SOL     OW31216   4.298   6.649   0.736
10106SOL    HW131217   4.238   6.728   0.723
10106SOL    HW231218   4.381   6.661   0.681
10107SOL     OW31219   0.171   1.128   6.821
10107SOL    HW131220   0.123   1.213   6.843
10107SOL    HW231221   0.145   1.097   6.729
10108SOL     OW31222   6.594   6.441   0.399
10108SOL    HW131223   6.520   6.386   0.438
10108SOL    HW231224   6.564   6.480   0.312
10109SOL     OW31225   4.922   0.351   0.634
10109SOL    HW131226   4.893   0.282   0.568
10109SOL    HW231227   4.854   0.359   0.706
10110SOL     OW31228   4.354   6.310   4.670
10110SOL    HW131229   4.292   6.232   4.679
10110SOL    HW231230   4.448   6.277   4.670
10111SOL     OW31231   5.313   3.709   3.625
10111SOL    HW131232   5.247   3.762   3.678
10111SOL    HW231233   5.349   3.765   3.550
10112SOL     OW31234   5.557   3.628   3.695
10112SOL    HW131235   5.592   3.680   3.773
10112SOL    HW231236   5.468   3.665   3.668
10113SOL     OW31237   4.436   0.161   5.925
10113SOL    HW131238   4.491   0.165   5.841
10113SOL    HW231239   4.453   0.242   5.980
10114SOL     OW31240   6.090   1.500   0.668
10114SOL    HW131241   6.064   1.556   0.746
10114SOL    HW231242   6.014   1.439   0.643
10115SOL     OW31243   3.934   1.539   4.217
10115SOL    HW131244   3.915   1.568   4.311
10115SOL    HW231245   4.028   1.507   4.210
10116SOL     OW31246   0.143   5.790   0.629
10116SOL    HW131247   0.166   5.871   0.684
10116SOL    HW231248   0.044   5.787   0.613
10117SOL     OW31249   6.663   5.877   5.570
10117SOL    HW131250   6.609   5.812   5.517
10117SOL    HW231251   6.651   5.858   5.667
10118SOL     OW31252   2.017   5.149   2.989
10118SOL    HW131253   1.979   5.230   2.946
10118SOL    HW231254   2.086   5.176   3.056
10119SOL     OW31255   0.840   5.858   4.356
10119SOL    HW131256   0.804   5.827   4.444
10119SOL    HW231257   0.831   5.958   4.349
10120SOL     OW31258   1.827   4.044   4.934
10120SOL    HW131259   1.797   4.058   5.029
10120SOL    HW231260   1.782   4.110   4.875
10121SOL     OW31261   6.353   4.204   6.714
10121SOL    HW131262   6.437   4.150   6.722
10121SOL    HW231263   6.376   4.295   6.680
10122SOL     OW31264   6.229   3.254   1.379
10122SOL    HW131265   6.325   3.257   1.410
10122SOL    HW231266   6.206   3.161   1.350
10123SOL     OW31267   5.638   6.923   0.166
10123SOL    HW131268   5.712   6.945   0.230
10123SOL    HW231269   5.554   6.967   0.195
10124SOL     OW31270   1.420   4.108   0.133
10124SOL    HW131271   1.515   4.136   0.119
10124SOL    HW231272   1.370   4.119   0.048
10125SOL     OW31273   1.862   1.476   2.434
10125SOL    HW131274   1.768   1.495   2.407
10125SOL    HW231275   1.878   1.377   2.431
10126SOL     OW31276   0.512   6.838   5.997
10126SOL    HW131277   0.502   6.789   6.084
10126SOL    HW231278   0.439   6.809   5.934
10127SOL     OW31279   2.707   4.782   6.468
10127SOL    HW131280   2.757   4.715   6.522
10127SOL    HW231281   2.763   4.864   6.456
10128SOL     OW31282   2.360   1.398   1.553
10128SOL    HW131283   2.411   1.321   1.590
10128SOL    HW231284   2.267   1.369   1.532
10129SOL     OW31285   5.616   1.769   2.479
10129SOL    HW131286   5.682   1.722   2.537
10129SOL    HW231287   5.623   1.868   2.494
10130SOL     OW31288   1.476   3.516   1.701
10130SOL    HW131289   1.395   3.471   1.740
10130SOL    HW231290   1.450   3.562   1.615
10131SOL     OW31291   1.447   6.775   4.148
10131SOL    HW131292   1.387   6.812   4.219
10131SOL    HW231293   1.539   6.811   4.161
10132SOL     OW31294   3.249   0.158   5.110
10132SOL    HW131295   3.214   0.251   5.114
10132SOL    HW231296   3.310   0.148   5.032
10133SOL     OW31297   3.785   6.531   1.101
10133SOL    HW131298   3.854   6.484   1.157
10133SOL    HW231299   3.703   6.475   1.095
10134SOL     OW31300   0.221   6.540   3.665
10134SOL    HW131301   0.162   6.547   3.746
10134SOL    HW231302   0.174   6.577   3.586
10135SOL     OW31303   4.906   3.343   3.429
10135SOL    HW131304   4.885   3.294   3.514
10135SOL    HW231305   4.861   3.298   3.352
10136SOL     OW31306   5.113   0.612   2.873
10136SOL    HW131307   5.119   0.512   2.869
10136SOL    HW231308   5.200   0.649   2.906
10137SOL     OW31309   6.184   4.059   4.048
10137SOL    HW131310   6.271   4.065   4.097
10137SOL    HW231311   6.180   4.131   3.979
10138SOL     OW31312   5.021   3.358   0.695
10138SOL    HW131313   4.961   3.278   0.685
10138SOL    HW231314   4.982   3.421   0.761
10139SOL     OW31315   3.316   4.103   3.337
10139SOL    HW131316   3.254   4.046   3.283
10139SOL    HW231317   3.410   4.092   3.302
10140SOL     OW31318   5.877   6.082   6.858
10140SOL    HW131319   5.943   6.045   6.923
10140SOL    HW231320   5.847   6.172   6.889
10141SOL     OW31321   3.636   1.632   5.100
10141SOL    HW131322   3.637   1.591   5.008
10141SOL    HW231323   3.729   1.649   5.130
10142SOL     OW31324   6.237   6.332   5.071
10142SOL    HW131325   6.162   6.320   5.136
10142SOL    HW231326   6.301   6.401   5.106
10143SOL     OW31327   4.730   1.352   6.337
10143SOL    HW131328   4.639   1.357   6.294
10143SOL    HW231329   4.726   1.391   6.429
10144SOL     OW31330   3.673   0.302   6.298
10144SOL    HW131331   3.677   0.235   6.224
10144SOL    HW231332   3.635   0.258   6.380
10145SOL     OW31333   2.489   5.354   4.501
10145SOL    HW131334   2.561   5.367   4.570
10145SOL    HW231335   2.409   5.313   4.545
10146SOL     OW31336   4.363   4.679   4.731
10146SOL    HW131337   4.357   4.622   4.813
10146SOL    HW231338   4.356   4.775   4.756
10147SOL     OW31339   4.944   3.933   5.338
10147SOL    HW131340   4.972   3.873   5.413
10147SOL    HW231341   5.025   3.982   5.303
10148SOL     OW31342   5.056   5.154   6.836
10148SOL    HW131343   5.113   5.236   6.845
10148SOL    HW231344   4.994   5.148   6.915
10149SOL     OW31345   5.857   3.271   0.634
10149SOL    HW131346   5.915   3.302   0.559
10149SOL    HW231347   5.905   3.284   0.721
10150SOL     OW31348   3.882   3.828   0.306
10150SOL    HW131349   3.853   3.733   0.313
10150SOL    HW231350   3.812   3.881   0.257
10151SOL     OW31351   0.777   6.394   0.006
10151SOL    HW131352   0.681   6.368   0.016
10151SOL    HW231353   0.792   6.432   6.934
10152SOL     OW31354   6.812   6.064   4.467
10152SOL    HW131355   6.878   6.134   4.495
10152SOL    HW231356   6.858   5.975   4.463
10153SOL     OW31357   4.879   6.207   3.630
10153SOL    HW131358   4.860   6.305   3.633
10153SOL    HW231359   4.807   6.160   3.581
10154SOL     OW31360   4.872   6.749   5.881
10154SOL    HW131361   4.772   6.744   5.872
10154SOL    HW231362   4.913   6.747   5.790
10155SOL     OW31363   4.037   2.408   5.617
10155SOL    HW131364   4.089   2.324   5.636
10155SOL    HW231365   3.987   2.435   5.699
10156SOL     OW31366   5.833   0.746   2.684
10156SOL    HW131367   5.804   0.706   2.597
10156SOL    HW231368   5.861   0.673   2.747
10157SOL     OW31369   6.819   2.005   1.192
10157SOL    HW131370   6.840   2.020   1.096
10157SOL    HW231371   6.737   1.949   1.201
10158SOL     OW31372   5.800   4.970   0.441
10158SOL    HW131373   5.797   5.063   0.478
10158SOL    HW231374   5.780   4.904   0.514
10159SOL     OW31375   2.272   3.666   0.003
10159SOL    HW131376   2.291   3.585   0.059
10159SOL    HW231377   2.174   3.687   0.008
10160SOL     OW31378   1.886   3.025   2.336
10160SOL    HW131379   1.867   3.052   2.242
10160SOL    HW231380   1.985   3.021   2.351
10161SOL     OW31381   2.836   2.873   0.416
10161SOL    HW131382   2.910   2.835   0.471
10161SOL    HW231383   2.832   2.825   0.328
10162SOL     OW31384   3.638   4.631   0.919
10162SOL    HW131385   3.573   4.592   0.984
10162SOL    HW231386   3.676   4.716   0.955
10163SOL     OW31387   6.017   4.089   6.454
10163SOL    HW131388   5.984   4.162   6.513
10163SOL    HW231389   6.116   4.077   6.468
10164SOL     OW31390   6.119   3.817   4.419
10164SOL    HW131391   6.219   3.811   4.411
10164SOL    HW231392   6.083   3.731   4.457
10165SOL     OW31393   6.931   1.777   2.895
10165SOL    HW131394   6.837   1.807   2.878
10165SOL    HW231395   6.994   1.852   2.876
10166SOL     OW31396   3.189   1.915   2.051
10166SOL    HW131397   3.107   1.962   2.084
10166SOL    HW231398   3.251   1.981   2.009
10167SOL     OW31399   2.249   3.926   6.703
10167SOL    HW131400   2.305   3.847   6.676
10167SOL    HW231401   2.167   3.894   6.749
10168SOL     OW31402   5.853   3.268   6.447
10168SOL    HW131403   5.806   3.352   6.417
10168SOL    HW231404   5.940   3.292   6.488
10169SOL     OW31405   6.696   4.333   3.761
10169SOL    HW131406   6.765   4.405   3.758
10169SOL    HW231407   6.740   4.245   3.742
10170SOL     OW31408   0.188   5.814   6.109
10170SOL    HW131409   0.105   5.817   6.053
10170SOL    HW231410   0.264   5.782   6.053
10171SOL     OW31411   6.939   2.607   5.007
10171SOL    HW131412   6.985   2.632   5.093
10171SOL    HW231413   6.842   2.592   5.025
10172SOL     OW31414   6.943   5.700   4.818
10172SOL    HW131415   0.009   5.679   4.772
10172SOL    HW231416   6.962   5.748   4.904
10173SOL     OW31417   1.269   3.083   0.689
10173SOL    HW131418   1.259   3.179   0.662
10173SOL    HW231419   1.228   3.024   0.619
10174SOL     OW31420   5.371   4.824   3.196
10174SOL    HW131421   5.399   4.807   3.290
10174SOL    HW231422   5.280   4.864   3.195
10175SOL     OW31423   5.846   1.406   3.953
10175SOL    HW131424   5.827   1.332   3.889
10175SOL    HW231425   5.770   1.415   4.018
10176SOL     OW31426   0.418   3.606   4.874
10176SOL    HW131427   0.431   3.647   4.963
10176SOL    HW231428   0.348   3.657   4.823
10177SOL     OW31429   2.576   0.640   1.348
10177SOL    HW131430   2.551   0.585   1.427
10177SOL    HW231431   2.576   0.583   1.266
10178SOL     OW31432   0.793   0.753   5.945
10178SOL    HW131433   0.837   0.774   5.858
10178SOL    HW231434   0.863   0.739   6.015
10179SOL     OW31435   0.768   2.496   6.680
10179SOL    HW131436   0.793   2.400   6.694
10179SOL    HW231437   0.814   2.530   6.598
10180SOL     OW31438   4.292   0.578   6.006
10180SOL    HW131439   4.314   0.673   6.028
10180SOL    HW231440   4.357   0.518   6.051
10181SOL     OW31441   6.662   3.365   1.021
10181SOL    HW131442   6.738   3.300   1.012
10181SOL    HW231443   6.652   3.416   0.935
10182SOL     OW31444   4.761   1.066   1.902
10182SOL    HW131445   4.720   1.030   1.986
10182SOL    HW231446   4.715   1.025   1.823
10183SOL     OW31447   0.189   2.705   6.472
10183SOL    HW131448   0.100   2.750   6.479
10183SOL    HW231449   0.187   2.619   6.523
10184SOL     OW31450   4.317   1.436   5.871
10184SOL    HW131451   4.281   1.526   5.896
10184SOL    HW231452   4.411   1.447   5.837
10185SOL     OW31453   6.342   5.982   2.551
10185SOL    HW131454   6.423   5.980   2.609
10185SOL    HW231455   6.298   6.072   2.557
10186SOL     OW31456   5.739   3.251   3.913
10186SOL    HW131457   5.701   3.180   3.972
10186SOL    HW231458   5.814   3.298   3.961
10187SOL     OW31459   1.296   3.375   0.689
10187SOL    HW131460   1.349   3.392   0.606
10187SOL    HW231461   1.356   3.379   0.769
10188SOL     OW31462   4.036   5.700   0.709
10188SOL    HW131463   3.996   5.772   0.767
10188SOL    HW231464   3.965   5.634   0.684
10189SOL     OW31465   1.167   1.060   5.932
10189SOL    HW131466   1.239   1.066   6.002
10189SOL    HW231467   1.093   1.123   5.955
10190SOL     OW31468   5.029   3.534   2.124
10190SOL    HW131469   4.988   3.596   2.057
10190SOL    HW231470   5.118   3.569   2.151
10191SOL     OW31471   4.942   5.926   6.512
10191SOL    HW131472   5.032   5.957   6.482
10191SOL    HW231473   4.880   5.923   6.434
10192SOL     OW31474   4.379   1.641   4.904
10192SOL    HW131475   4.395   1.589   4.820
10192SOL    HW231476   4.285   1.625   4.935
10193SOL     OW31477   4.150   3.330   2.068
10193SOL    HW131478   4.214   3.254   2.062
10193SOL    HW231479   4.092   3.319   2.149
10194SOL     OW31480   5.798   6.179   5.463
10194SOL    HW131481   5.789   6.118   5.384
10194SOL    HW231482   5.799   6.124   5.546
10195SOL     OW31483   5.931   6.024   0.492
10195SOL    HW131484   5.847   5.969   0.494
10195SOL    HW231485   5.911   6.112   0.450
10196SOL     OW31486   4.705   1.907   3.835
10196SOL    HW131487   4.799   1.908   3.868
10196SOL    HW231488   4.703   1.874   3.740
10197SOL     OW31489   5.885   1.272   5.274
10197SOL    HW131490   5.963   1.277   5.212
10197SOL    HW231491   5.817   1.208   5.238
10198SOL     OW31492   2.680   6.420   2.512
10198SOL    HW131493   2.654   6.480   2.587
10198SOL    HW231494   2.780   6.413   2.508
10199SOL     OW31495   2.260   3.796   0.610
10199SOL    HW131496   2.272   3.895   0.607
10199SOL    HW231497   2.163   3.774   0.619
10200SOL     OW31498   4.912   2.494   6.359
10200SOL    HW131499   4.874   2.422   6.418
10200SOL    HW231500   5.009   2.477   6.345
10201SOL     OW31501   1.381   5.127   0.825
10201SOL    HW131502   1.477   5.126   0.797
10201SOL    HW231503   1.364   5.052   0.888
10202SOL     OW31504   3.462   4.772   1.240
10202SOL    HW131505   3.504   4.681   1.242
10202SOL    HW231506   3.476   4.817   1.329
10203SOL     OW31507   6.360   2.330   2.835
10203SOL    HW131508   6.360   2.357   2.932
10203SOL    HW231509   6.290   2.381   2.786
10204SOL     OW31510   5.077   6.117   0.660
10204SOL    HW131511   5.068   6.120   0.560
10204SOL    HW231512   5.123   6.032   0.686
10205SOL     OW31513   2.370   0.346   2.250
10205SOL    HW131514   2.411   0.277   2.190
10205SOL    HW231515   2.311   0.406   2.197
10206SOL     OW31516   6.358   0.595   6.818
10206SOL    HW131517   6.435   0.623   6.760
10206SOL    HW231518   6.325   0.505   6.789
10207SOL     OW31519   1.078   1.757   0.065
10207SOL    HW131520   1.098   1.660   0.056
10207SOL    HW231521   0.979   1.770   0.071
10208SOL     OW31522   6.279   4.532   3.885
10208SOL    HW131523   6.359   4.497   3.836
10208SOL    HW231524   6.309   4.595   3.957
10209SOL     OW31525   0.301   6.898   0.554
10209SOL    HW131526   0.292   6.977   0.615
10209SOL    HW231527   0.370   6.835   0.590
10210SOL     OW31528   4.554   0.116   2.012
10210SOL    HW131529   4.469   0.101   1.960
10210SOL    HW231530   4.576   0.032   2.063
10211SOL     OW31531   4.241   6.504   5.073
10211SOL    HW131532   4.240   6.408   5.100
10211SOL    HW231533   4.335   6.533   5.053
10212SOL     OW31534   0.254   0.608   5.244
10212SOL    HW131535   0.224   0.595   5.149
10212SOL    HW231536   0.187   0.663   5.293
10213SOL     OW31537   5.813   2.660   1.407
10213SOL    HW131538   5.896   2.613   1.436
10213SOL    HW231539   5.736   2.629   1.463
10214SOL     OW31540   0.732   1.658   1.739
10214SOL    HW131541   0.694   1.741   1.698
10214SOL    HW231542   0.708   1.654   1.836
10215SOL     OW31543   3.987   3.158   3.478
10215SOL    HW131544   4.011   3.096   3.552
10215SOL    HW231545   4.030   3.247   3.493
10216SOL     OW31546   0.593   1.227   1.469
10216SOL    HW131547   0.579   1.215   1.371
10216SOL    HW231548   0.587   1.324   1.492
10217SOL     OW31549   2.944   1.233   3.206
10217SOL    HW131550   2.954   1.181   3.291
10217SOL    HW231551   2.874   1.304   3.219
10218SOL     OW31552   1.388   1.736   2.043
10218SOL    HW131553   1.414   1.775   1.954
10218SOL    HW231554   1.437   1.651   2.058
10219SOL     OW31555   0.420   1.629   3.471
10219SOL    HW131556   0.504   1.675   3.501
10219SOL    HW231557   0.437   1.531   3.463
10220SOL     OW31558   4.990   1.685   0.540
10220SOL    HW131559   4.968   1.595   0.577
10220SOL    HW231560   5.069   1.723   0.589
10221SOL     OW31561   1.071   4.466   3.912
10221SOL    HW131562   1.131   4.436   3.986
10221SOL    HW231563   0.988   4.411   3.912
10222SOL     OW31564   3.052   3.920   5.406
10222SOL    HW131565   2.959   3.887   5.385
10222SOL    HW231566   3.082   3.880   5.492
10223SOL     OW31567   1.909   4.675   1.294
10223SOL    HW131568   1.931   4.750   1.232
10223SOL    HW231569   1.967   4.597   1.275
10224SOL     OW31570   5.945   3.196   5.512
10224SOL    HW131571   5.977   3.101   5.519
10224SOL    HW231572   5.891   3.207   5.429
10225SOL     OW31573   0.938   5.031   5.619
10225SOL    HW131574   0.970   5.114   5.665
10225SOL    HW231575   0.949   5.042   5.520
10226SOL     OW31576   2.681   0.411   5.902
10226SOL    HW131577   2.603   0.472   5.884
10226SOL    HW231578   2.654   0.317   5.883
10227SOL     OW31579   5.681   4.915   1.013
10227SOL    HW131580   5.695   4.902   1.112
10227SOL    HW231581   5.768   4.938   0.970
10228SOL     OW31582   0.201   6.452   1.880
10228SOL    HW131583   0.283   6.411   1.840
10228SOL    HW231584   0.208   6.551   1.875
10229SOL     OW31585   1.777   3.096   4.782
10229SOL    HW131586   1.849   3.164   4.795
10229SOL    HW231587   1.713   3.099   4.858
10230SOL     OW31588   5.915   6.398   3.027
10230SOL    HW131589   5.971   6.317   3.010
10230SOL    HW231590   5.871   6.426   2.941
10231SOL     OW31591   6.667   4.795   5.286
10231SOL    HW131592   6.628   4.818   5.376
10231SOL    HW231593   6.727   4.716   5.294
10232SOL     OW31594   3.338   1.441   3.513
10232SOL    HW131595   3.394   1.389   3.578
10232SOL    HW231596   3.265   1.488   3.561
10233SOL     OW31597   3.941   3.980   4.860
10233SOL    HW131598   4.023   4.027   4.826
10233SOL    HW231599   3.900   3.928   4.786
10234SOL     OW31600   6.318   1.059   0.791
10234SOL    HW131601   6.347   1.134   0.731
10234SOL    HW231602   6.355   0.973   0.756
10235SOL     OW31603   2.765   2.396   1.323
10235SOL    HW131604   2.769   2.480   1.268
10235SOL    HW231605   2.701   2.409   1.399
10236SOL     OW31606   2.450   1.085   0.381
10236SOL    HW131607   2.471   0.993   0.351
10236SOL    HW231608   2.381   1.125   0.320
10237SOL     OW31609   0.916   4.113   6.555
10237SOL    HW131610   0.844   4.167   6.600
10237SOL    HW231611   0.874   4.036   6.508
10238SOL     OW31612   3.744   4.275   1.728
10238SOL    HW131613   3.652   4.312   1.719
10238SOL    HW231614   3.750   4.220   1.811
10239SOL     OW31615   1.769   3.151   5.144
10239SOL    HW131616   1.801   3.237   5.104
10239SOL    HW231617   1.818   3.133   5.229
10240SOL     OW31618   1.938   4.993   2.456
10240SOL    HW131619   1.951   5.018   2.360
10240SOL    HW231620   1.864   5.047   2.496
10241SOL     OW31621   6.859   6.443   3.173
10241SOL    HW131622   6.945   6.493   3.179
10241SOL    HW231623   6.854   6.376   3.248
10242SOL     OW31624   0.376   1.306   0.792
10242SOL    HW131625   0.354   1.373   0.721
10242SOL    HW231626   0.292   1.272   0.833
10243SOL     OW31627   1.885   4.485   2.364
10243SOL    HW131628   1.957   4.431   2.408
10243SOL    HW231629   1.914   4.580   2.358
10244SOL     OW31630   1.745   4.297   0.658
10244SOL    HW131631   1.781   4.365   0.596
10244SOL    HW231632   1.795   4.300   0.745
10245SOL     OW31633   3.472   3.796   1.402
10245SOL    HW131634   3.435   3.826   1.490
10245SOL    HW231635   3.443   3.701   1.384
10246SOL     OW31636   3.375   3.332   3.854
10246SOL    HW131637   3.444   3.269   3.820
10246SOL    HW231638   3.380   3.417   3.802
10247SOL     OW31639   6.519   4.095   5.627
10247SOL    HW131640   6.550   4.190   5.622
10247SOL    HW231641   6.489   4.065   5.537
10248SOL     OW31642   1.659   6.240   2.432
10248SOL    HW131643   1.594   6.307   2.397
10248SOL    HW231644   1.700   6.190   2.355
10249SOL     OW31645   4.282   5.930   6.866
10249SOL    HW131646   4.355   5.868   6.838
10249SOL    HW231647   4.194   5.882   6.861
10250SOL     OW31648   6.827   3.189   1.721
10250SOL    HW131649   6.766   3.142   1.785
10250SOL    HW231650   6.874   3.121   1.664
10251SOL     OW31651   1.991   1.789   5.415
10251SOL    HW131652   2.045   1.739   5.347
10251SOL    HW231653   2.051   1.849   5.468
10252SOL     OW31654   4.265   4.367   6.414
10252SOL    HW131655   4.186   4.319   6.452
10252SOL    HW231656   4.343   4.358   6.476
10253SOL     OW31657   2.932   6.150   0.448
10253SOL    HW131658   2.844   6.171   0.490
10253SOL    HW231659   3.006   6.174   0.511
10254SOL     OW31660   4.761   0.952   5.544
10254SOL    HW131661   4.795   0.994   5.628
10254SOL    HW231662   4.665   0.977   5.530
10255SOL     OW31663   2.642   6.516   1.312
10255SOL    HW131664   2.703   6.462   1.369
10255SOL    HW231665   2.695   6.588   1.266
10256SOL     OW31666   4.620   2.150   2.241
10256SOL    HW131667   4.689   2.221   2.248
10256SOL    HW231668   4.537   2.180   2.290
10257SOL     OW31669   1.722   5.180   4.174
10257SOL    HW131670   1.729   5.280   4.172
10257SOL    HW231671   1.677   5.151   4.259
10258SOL     OW31672   3.511   2.127   3.398
10258SOL    HW131673   3.519   2.161   3.304
10258SOL    HW231674   3.600   2.136   3.444
10259SOL     OW31675   0.834   4.269   2.399
10259SOL    HW131676   0.740   4.245   2.424
10259SOL    HW231677   0.839   4.288   2.301
10260SOL     OW31678   1.253   1.122   3.330
10260SOL    HW131679   1.158   1.155   3.331
10260SOL    HW231680   1.315   1.196   3.353
10261SOL     OW31681   6.709   4.480   1.234
10261SOL    HW131682   6.719   4.386   1.269
10261SOL    HW231683   6.698   4.543   1.311
10262SOL     OW31684   2.261   6.787   5.561
10262SOL    HW131685   2.335   6.839   5.606
10262SOL    HW231686   2.174   6.835   5.574
10263SOL     OW31687   5.368   0.371   0.592
10263SOL    HW131688   5.301   0.383   0.519
10263SOL    HW231689   5.408   0.279   0.586
10264SOL     OW31690   6.184   6.972   6.892
10264SOL    HW131691   6.257   0.018   6.910
10264SOL    HW231692   6.211   6.882   6.925
10265SOL     OW31693   2.684   2.683   1.323
10265SOL    HW131694   2.710   2.708   1.417
10265SOL    HW231695   2.765   2.654   1.273
10266SOL     OW31696   3.499   2.888   3.626
10266SOL    HW131697   3.587   2.905   3.581
10266SOL    HW231698   3.479   2.790   3.623
10267SOL     OW31699   5.443   2.741   7.012
10267SOL    HW131700   5.480   2.702   0.077
10267SOL    HW231701   5.515   2.746   6.943
10268SOL     OW31702   6.684   6.134   2.419
10268SOL    HW131703   6.705   6.232   2.421
10268SOL    HW231704   6.737   6.087   2.490
10269SOL     OW31705   0.784   3.800   6.748
10269SOL    HW131706   0.803   3.716   6.698
10269SOL    HW231707   0.695   3.835   6.720
10270SOL     OW31708   3.043   4.856   2.396
10270SOL    HW131709   2.987   4.803   2.333
10270SOL    HW231710   2.985   4.896   2.467
10271SOL     OW31711   3.842   3.080   6.533
10271SOL    HW131712   3.831   3.158   6.472
10271SOL    HW231713   3.804   2.998   6.490
10272SOL     OW31714   1.205   1.146   5.518
10272SOL    HW131715   1.258   1.181   5.595
10272SOL    HW231716   1.211   1.210   5.441
10273SOL     OW31717   3.109   5.906   2.826
10273SOL    HW131718   3.164   5.909   2.743
10273SOL    HW231719   3.060   5.993   2.836
10274SOL     OW31720   0.690   5.002   6.010
10274SOL    HW131721   0.774   4.950   5.992
10274SOL    HW231722   0.625   4.944   6.059
10275SOL     OW31723   0.609   6.519   2.014
10275SOL    HW131724   0.530   6.478   2.060
10275SOL    HW231725   0.692   6.499   2.066
10276SOL     OW31726   5.244   5.612   5.294
10276SOL    HW131727   5.296   5.641   5.375
10276SOL    HW231728   5.171   5.549   5.323
10277SOL     OW31729   1.926   6.100   5.086
10277SOL    HW131730   1.846   6.133   5.136
10277SOL    HW231731   1.897   6.067   4.996
10278SOL     OW31732   1.520   1.851   3.542
10278SOL    HW131733   1.429   1.889   3.557
10278SOL    HW231734   1.570   1.908   3.477
10279SOL     OW31735   1.537   4.541   4.206
10279SOL    HW131736   1.591   4.570   4.127
10279SOL    HW231737   1.440   4.545   4.184
10280SOL     OW31738   0.067   2.640   6.851
10280SOL    HW131739   0.134   2.620   6.779
10280SOL    HW231740   0.069   2.737   6.873
10281SOL     OW31741   5.469   1.095   3.054
10281SOL    HW131742   5.377   1.088   3.015
10281SOL    HW231743   5.495   1.191   3.063
10282SOL     OW31744   5.491   3.464   4.574
10282SOL    HW131745   5.541   3.514   4.645
10282SOL    HW231746   5.517   3.367   4.577
10283SOL     OW31747   1.854   3.387   0.930
10283SOL    HW131748   1.862   3.486   0.945
10283SOL    HW231749   1.758   3.360   0.942
10284SOL     OW31750   4.826   2.431   5.214
10284SOL    HW131751   4.879   2.365   5.160
10284SOL    HW231752   4.744   2.387   5.249
10285SOL     OW31753   5.534   6.538   2.603
10285SOL    HW131754   5.562   6.633   2.619
10285SOL    HW231755   5.472   6.509   2.677
10286SOL     OW31756   3.332   2.024   3.680
10286SOL    HW131757   3.333   2.095   3.609
10286SOL    HW231758   3.272   2.052   3.754
10287SOL     OW31759   3.072   6.076   1.813
10287SOL    HW131760   3.113   6.141   1.750
10287SOL    HW231761   3.132   5.997   1.824
10288SOL     OW31762   4.677   5.766   3.174
10288SOL    HW131763   4.706   5.728   3.086
10288SOL    HW231764   4.626   5.698   3.225
10289SOL     OW31765   2.566   6.208   6.961
10289SOL    HW131766   2.641   6.218   0.007
10289SOL    HW231767   2.504   6.286   6.970
10290SOL     OW31768   3.068   3.914   2.693
10290SOL    HW131769   3.040   3.831   2.742
10290SOL    HW231770   3.053   3.900   2.595
10291SOL     OW31771   3.890   1.258   2.482
10291SOL    HW131772   3.812   1.280   2.542
10291SOL    HW231773   3.857   1.244   2.389
10292SOL     OW31774   1.636   2.163   5.759
10292SOL    HW131775   1.593   2.227   5.695
10292SOL    HW231776   1.612   2.188   5.853
10293SOL     OW31777   1.757   3.422   2.564
10293SOL    HW131778   1.700   3.341   2.547
10293SOL    HW231779   1.834   3.422   2.500
10294SOL     OW31780   5.233   2.707   3.378
10294SOL    HW131781   5.287   2.788   3.354
10294SOL    HW231782   5.239   2.692   3.477
10295SOL     OW31783   0.248   3.421   5.819
10295SOL    HW131784   0.234   3.500   5.878
10295SOL    HW231785   0.274   3.453   5.727
10296SOL     OW31786   5.013   1.789   6.587
10296SOL    HW131787   5.006   1.876   6.636
10296SOL    HW231788   4.999   1.713   6.651
10297SOL     OW31789   1.939   0.658   6.587
10297SOL    HW131790   1.985   0.610   6.512
10297SOL    HW231791   1.924   0.595   6.663
10298SOL     OW31792   2.629   4.518   0.683
10298SOL    HW131793   2.717   4.559   0.707
10298SOL    HW231794   2.601   4.455   0.755
10299SOL     OW31795   4.689   4.851   3.222
10299SOL    HW131796   4.703   4.754   3.207
10299SOL    HW231797   4.596   4.867   3.255
10300SOL     OW31798   0.920   3.928   2.453
10300SOL    HW131799   0.912   3.829   2.443
10300SOL    HW231800   0.862   3.974   2.387
10301SOL     OW31801   5.261   2.260   4.192
10301SOL    HW131802   5.233   2.241   4.286
10301SOL    HW231803   5.183   2.297   4.141
10302SOL     OW31804   2.224   6.156   4.914
10302SOL    HW131805   2.245   6.154   5.012
10302SOL    HW231806   2.223   6.062   4.879
10303SOL     OW31807   1.624   5.588   2.720
10303SOL    HW131808   1.580   5.620   2.636
10303SOL    HW231809   1.554   5.558   2.785
10304SOL     OW31810   5.535   0.171   1.602
10304SOL    HW131811   5.489   0.121   1.675
10304SOL    HW231812   5.620   0.123   1.578
10305SOL     OW31813   1.456   4.449   6.177
10305SOL    HW131814   1.446   4.444   6.277
10305SOL    HW231815   1.372   4.485   6.137
10306SOL     OW31816   5.025   5.995   0.098
10306SOL    HW131817   5.016   6.093   0.115
10306SOL    HW231818   4.939   5.959   0.063
10307SOL     OW31819   2.846   2.359   5.153
10307SOL    HW131820   2.816   2.439   5.205
10307SOL    HW231821   2.945   2.348   5.162
10308SOL     OW31822   1.704   3.994   3.145
10308SOL    HW131823   1.798   3.978   3.176
10308SOL    HW231824   1.692   3.955   3.054
10309SOL     OW31825   6.715   1.849   6.720
10309SOL    HW131826   6.768   1.895   6.649
10309SOL    HW231827   6.646   1.790   6.677
10310SOL     OW31828   3.192   3.679   0.855
10310SOL    HW131829   3.242   3.593   0.862
10310SOL    HW231830   3.255   3.753   0.830
10311SOL     OW31831   6.624   5.867   0.681
10311SOL    HW131832   6.654   5.895   0.590
10311SOL    HW231833   6.567   5.940   0.721
10312SOL     OW31834   3.476   5.195   2.648
10312SOL    HW131835   3.377   5.184   2.642
10312SOL    HW231836   3.520   5.105   2.641
10313SOL     OW31837   4.609   6.348   2.307
10313SOL    HW131838   4.654   6.294   2.236
10313SOL    HW231839   4.510   6.348   2.292
10314SOL     OW31840   6.429   0.711   1.523
10314SOL    HW131841   6.400   0.620   1.494
10314SOL    HW231842   6.350   0.763   1.556
10315SOL     OW31843   4.988   5.409   4.960
10315SOL    HW131844   5.020   5.319   4.989
10315SOL    HW231845   5.063   5.475   4.970
10316SOL     OW31846   5.332   1.290   5.219
10316SOL    HW131847   5.328   1.317   5.123
10316SOL    HW231848   5.341   1.191   5.226
10317SOL     OW31849   4.837   5.644   5.541
10317SOL    HW131850   4.758   5.610   5.490
10317SOL    HW231851   4.916   5.585   5.523
10318SOL     OW31852   5.532   6.768   6.118
10318SOL    HW131853   5.551   6.714   6.037
10318SOL    HW231854   5.490   6.710   6.188
10319SOL     OW31855   1.035   2.481   5.385
10319SOL    HW131856   0.971   2.408   5.409
10319SOL    HW231857   1.076   2.462   5.295
10320SOL     OW31858   0.245   0.277   2.239
10320SOL    HW131859   0.341   0.285   2.262
10320SOL    HW231860   0.196   0.228   2.311
10321SOL     OW31861   3.645   1.925   1.879
10321SOL    HW131862   3.607   2.015   1.860
10321SOL    HW231863   3.636   1.904   1.976
10322SOL     OW31864   6.477   5.482   5.582
10322SOL    HW131865   6.421   5.559   5.614
10322SOL    HW231866   6.417   5.410   5.546
10323SOL     OW31867   5.688   3.615   5.431
10323SOL    HW131868   5.651   3.527   5.458
10323SOL    HW231869   5.622   3.664   5.375
10324SOL     OW31870   3.132   3.511   1.982
10324SOL    HW131871   3.047   3.532   1.932
10324SOL    HW231872   3.118   3.431   2.040
10325SOL     OW31873   6.611   3.695   2.108
10325SOL    HW131874   6.555   3.721   2.186
10325SOL    HW231875   6.656   3.776   2.070
10326SOL     OW31876   3.517   5.203   0.667
10326SOL    HW131877   3.525   5.147   0.585
10326SOL    HW231878   3.585   5.173   0.735
10327SOL     OW31879   2.070   1.436   1.134
10327SOL    HW131880   2.042   1.340   1.132
10327SOL    HW231881   1.992   1.494   1.113
10328SOL     OW31882   6.252   2.186   1.165
10328SOL    HW131883   6.339   2.178   1.117
10328SOL    HW231884   6.235   2.282   1.190
10329SOL     OW31885   3.680   0.670   3.868
10329SOL    HW131886   3.611   0.728   3.911
10329SOL    HW231887   3.766   0.678   3.918
10330SOL     OW31888   4.762   0.688   2.308
10330SOL    HW131889   4.855   0.657   2.288
10330SOL    HW231890   4.699   0.647   2.242
10331SOL     OW31891   6.502   0.595   5.951
10331SOL    HW131892   6.528   0.678   5.901
10331SOL    HW231893   6.565   0.521   5.928
10332SOL     OW31894   6.899   6.797   1.268
10332SOL    HW131895   6.968   6.848   1.319
10332SOL    HW231896   6.829   6.859   1.234
10333SOL     OW31897   6.650   4.811   4.600
10333SOL    HW131898   6.632   4.737   4.664
10333SOL    HW231899   6.611   4.788   4.510
10334SOL     OW31900   3.522   0.300   3.700
10334SOL    HW131901   3.472   0.387   3.707
10334SOL    HW231902   3.535   0.261   3.791
10335SOL     OW31903   2.972   4.390   6.729
10335SOL    HW131904   2.890   4.366   6.676
10335SOL    HW231905   2.969   4.487   6.753
10336SOL     OW31906   6.818   0.092   2.014
10336SOL    HW131907   6.904   0.078   2.064
10336SOL    HW231908   6.770   0.172   2.052
10337SOL     OW31909   0.310   6.775   5.812
10337SOL    HW131910   0.252   6.812   5.739
10337SOL    HW231911   0.308   6.675   5.807
10338SOL     OW31912   2.272   6.606   2.881
10338SOL    HW131913   2.234   6.547   2.953
10338SOL    HW231914   2.344   6.663   2.920
10339SOL     OW31915   3.589   4.437   6.931
10339SOL    HW131916   3.558   4.463   0.003
10339SOL    HW231917   3.513   4.445   6.867
10340SOL     OW31918   1.791   4.100   1.108
10340SOL    HW131919   1.793   4.040   1.188
10340SOL    HW231920   1.778   4.195   1.137
10341SOL     OW31921   2.145   2.946   2.095
10341SOL    HW131922   2.150   2.952   1.995
10341SOL    HW231923   2.053   2.968   2.125
10342SOL     OW31924   1.044   0.303   5.099
10342SOL    HW131925   0.964   0.295   5.039
10342SOL    HW231926   1.081   0.396   5.092
10343SOL     OW31927   3.408   5.901   6.886
10343SOL    HW131928   3.464   5.884   6.966
10343SOL    HW231929   3.467   5.932   6.811
10344SOL     OW31930   4.329   3.987   1.535
10344SOL    HW131931   4.396   4.051   1.573
10344SOL    HW231932   4.335   3.987   1.435
10345SOL     OW31933   1.728   1.396   6.760
10345SOL    HW131934   1.656   1.430   6.819
10345SOL    HW231935   1.723   1.296   6.754
10346SOL     OW31936   6.681   5.956   1.810
10346SOL    HW131937   6.737   5.890   1.859
10346SOL    HW231938   6.585   5.928   1.813
10347SOL     OW31939   4.680   1.962   3.489
10347SOL    HW131940   4.770   1.937   3.524
10347SOL    HW231941   4.664   2.059   3.503
10348SOL     OW31942   6.182   1.745   0.168
10348SOL    HW131943   6.182   1.667   0.105
10348SOL    HW231944   6.091   1.787   0.168
10349SOL     OW31945   0.627   0.525   0.944
10349SOL    HW131946   0.716   0.549   0.980
10349SOL    HW231947   0.578   0.608   0.916
10350SOL     OW31948   1.945   6.956   5.346
10350SOL    HW131949   2.007   0.003   5.306
10350SOL    HW231950   1.924   6.884   5.280
10351SOL     OW31951   4.333   4.969   6.341
10351SOL    HW131952   4.308   4.881   6.301
10351SOL    HW231953   4.346   4.959   6.439
10352SOL     OW31954   3.834   1.752   6.006
10352SOL    HW131955   3.836   1.769   6.105
10352SOL    HW231956   3.898   1.679   5.983
10353SOL     OW31957   6.555   2.463   5.599
10353SOL    HW131958   6.630   2.406   5.631
10353SOL    HW231959   6.590   2.528   5.531
10354SOL     OW31960   5.779   2.273   2.087
10354SOL    HW131961   5.703   2.249   2.027
10354SOL    HW231962   5.827   2.352   2.050
10355SOL     OW31963   1.904   0.062   2.400
10355SOL    HW131964   1.897   0.098   2.493
10355SOL    HW231965   1.907   0.138   2.335
10356SOL     OW31966   0.764   4.289   6.254
10356SOL    HW131967   0.766   4.190   6.272
10356SOL    HW231968   0.719   4.336   6.330
10357SOL     OW31969   1.865   3.519   5.917
10357SOL    HW131970   1.887   3.444   5.979
10357SOL    HW231971   1.786   3.495   5.861
10358SOL     OW31972   6.168   2.567   3.097
10358SOL    HW131973   6.167   2.660   3.060
10358SOL    HW231974   6.124   2.505   3.033
10359SOL     OW31975   0.304   1.826   1.409
10359SOL    HW131976   0.306   1.778   1.321
10359SOL    HW231977   0.209   1.844   1.434
10360SOL     OW31978   5.177   5.480   3.194
10360SOL    HW131979   5.144   5.496   3.288
10360SOL    HW231980   5.263   5.429   3.197
10361SOL     OW31981   3.216   0.316   3.238
10361SOL    HW131982   3.306   0.273   3.237
10361SOL    HW231983   3.180   0.317   3.331
10362SOL     OW31984   0.197   5.076   4.799
10362SOL    HW131985   0.161   5.164   4.767
10362SOL    HW231986   0.158   5.002   4.745
10363SOL     OW31987   4.976   1.435   1.400
10363SOL    HW131988   5.032   1.354   1.419
10363SOL    HW231989   4.922   1.458   1.481
10364SOL     OW31990   3.470   3.470   1.638
10364SOL    HW131991   3.502   3.409   1.565
10364SOL    HW231992   3.373   3.489   1.625
10365SOL     OW31993   4.747   4.523   6.126
10365SOL    HW131994   4.709   4.437   6.094
10365SOL    HW231995   4.768   4.516   6.224
10366SOL     OW31996   3.890   0.257   4.249
10366SOL    HW131997   3.793   0.271   4.233
10366SOL    HW231998   3.920   0.174   4.202
10367SOL     OW31999   6.197   1.677   2.570
10367SOL    HW132000   6.291   1.643   2.575
10367SOL    HW232001   6.152   1.641   2.488
10368SOL     OW32002   1.865   1.340   1.713
10368SOL    HW132003   1.818   1.407   1.771
10368SOL    HW232004   1.815   1.330   1.627
10369SOL     OW32005   3.774   1.393   5.354
10369SOL    HW132006   3.795   1.423   5.261
10369SOL    HW232007   3.748   1.296   5.352
10370SOL     OW32008   5.521   1.949   5.261
10370SOL    HW132009   5.502   1.944   5.359
10370SOL    HW232010   5.531   1.857   5.223
10371SOL     OW32011   2.529   6.121   4.555
10371SOL    HW132012   2.499   6.107   4.650
10371SOL    HW232013   2.627   6.142   4.554
10372SOL     OW32014   1.123   1.484   0.006
10372SOL    HW132015   1.153   1.428   0.082
10372SOL    HW232016   1.102   1.426   6.947
10373SOL     OW32017   2.127   5.892   4.796
10373SOL    HW132018   2.060   5.876   4.868
10373SOL    HW232019   2.205   5.830   4.809
10374SOL     OW32020   4.056   1.102   2.653
10374SOL    HW132021   4.011   1.174   2.601
10374SOL    HW232022   4.063   1.129   2.749
10375SOL     OW32023   3.039   1.968   6.326
10375SOL    HW132024   2.999   2.045   6.276
10375SOL    HW232025   3.122   1.936   6.279
10376SOL     OW32026   1.381   6.466   4.231
10376SOL    HW132027   1.316   6.509   4.294
10376SOL    HW232028   1.463   6.522   4.225
10377SOL     OW32029   6.977   0.467   4.079
10377SOL    HW132030   0.006   0.547   4.113
10377SOL    HW232031   0.017   0.387   4.084
10378SOL     OW32032   6.603   6.919   6.072
10378SOL    HW132033   6.668   6.995   6.077
10378SOL    HW232034   6.645   6.837   6.109
10379SOL     OW32035   3.352   6.571   4.711
10379SOL    HW132036   3.349   6.663   4.749
10379SOL    HW232037   3.378   6.575   4.614
10380SOL     OW32038   0.529   1.184   3.962
10380SOL    HW132039   0.522   1.268   3.908
10380SOL    HW232040   0.491   1.108   3.911
10381SOL     OW32041   4.345   5.776   6.628
10381SOL    HW132042   4.366   5.694   6.574
10381SOL    HW232043   4.325   5.852   6.566
10382SOL     OW32044   2.205   4.669   0.401
10382SOL    HW132045   2.289   4.712   0.368
10382SOL    HW232046   2.192   4.581   0.355
10383SOL     OW32047   0.435   3.677   0.476
10383SOL    HW132048   0.476   3.768   0.489
10383SOL    HW232049   0.504   3.607   0.489
10384SOL     OW32050   1.131   0.233   1.210
10384SOL    HW132051   1.120   0.288   1.293
10384SOL    HW232052   1.045   0.188   1.188
10385SOL     OW32053   3.910   0.126   6.401
10385SOL    HW132054   3.975   0.166   6.337
10385SOL    HW232055   3.822   0.173   6.392
10386SOL     OW32056   6.103   3.433   5.196
10386SOL    HW132057   6.154   3.386   5.124
10386SOL    HW232058   6.040   3.368   5.239
10387SOL     OW32059   4.125   2.225   2.316
10387SOL    HW132060   4.027   2.207   2.317
10387SOL    HW232061   4.175   2.144   2.346
10388SOL     OW32062   1.837   5.794   2.784
10388SOL    HW132063   1.797   5.876   2.824
10388SOL    HW232064   1.770   5.720   2.786
10389SOL     OW32065   0.743   6.966   1.583
10389SOL    HW132066   0.700   6.955   1.494
10389SOL    HW232067   0.718   6.889   1.642
10390SOL     OW32068   1.742   3.436   1.769
10390SOL    HW132069   1.651   3.436   1.727
10390SOL    HW232070   1.791   3.520   1.742
10391SOL     OW32071   1.497   5.937   5.111
10391SOL    HW132072   1.460   5.978   5.028
10391SOL    HW232073   1.444   5.967   5.190
10392SOL     OW32074   6.464   4.037   0.529
10392SOL    HW132075   6.439   3.943   0.555
10392SOL    HW232076   6.476   4.041   0.429
10393SOL     OW32077   2.200   2.273   3.047
10393SOL    HW132078   2.262   2.352   3.046
10393SOL    HW232079   2.243   2.198   3.098
10394SOL     OW32080   2.530   6.681   5.419
10394SOL    HW132081   2.454   6.740   5.392
10394SOL    HW232082   2.600   6.680   5.348
10395SOL     OW32083   6.355   0.283   3.567
10395SOL    HW132084   6.372   0.200   3.515
10395SOL    HW232085   6.349   0.261   3.664
10396SOL     OW32086   2.359   0.520   4.707
10396SOL    HW132087   2.372   0.421   4.704
10396SOL    HW232088   2.400   0.562   4.626
10397SOL     OW32089   3.154   2.118   3.315
10397SOL    HW132090   3.162   2.091   3.219
10397SOL    HW232091   3.246   2.130   3.353
10398SOL     OW32092   5.817   2.962   0.620
10398SOL    HW132093   5.748   3.034   0.609
10398SOL    HW232094   5.843   2.954   0.716
10399SOL     OW32095   4.421   1.892   4.654
10399SOL    HW132096   4.444   1.946   4.574
10399SOL    HW232097   4.420   1.951   4.735
10400SOL     OW32098   3.481   5.794   2.036
10400SOL    HW132099   3.530   5.848   2.105
10400SOL    HW232100   3.546   5.758   1.970
10401SOL     OW32101   6.826   0.343   2.370
10401SOL    HW132102   6.855   0.312   2.461
10401SOL    HW232103   6.740   0.300   2.345
10402SOL     OW32104   0.031   2.709   5.253
10402SOL    HW132105   0.119   2.721   5.205
10402SOL    HW232106   0.045   2.652   5.334
10403SOL     OW32107   5.286   1.565   2.516
10403SOL    HW132108   5.260   1.655   2.552
10403SOL    HW232109   5.378   1.542   2.549
10404SOL     OW32110   0.640   6.581   3.346
10404SOL    HW132111   0.641   6.655   3.278
10404SOL    HW232112   0.677   6.498   3.305
10405SOL     OW32113   1.208   5.573   4.742
10405SOL    HW132114   1.120   5.588   4.695
10405SOL    HW232115   1.282   5.605   4.684
10406SOL     OW32116   2.147   3.766   4.986
10406SOL    HW132117   2.208   3.842   5.008
10406SOL    HW232118   2.157   3.694   5.054
10407SOL     OW32119   1.655   0.604   6.480
10407SOL    HW132120   1.638   0.582   6.576
10407SOL    HW232121   1.656   0.520   6.427
10408SOL     OW32122   4.109   6.008   2.351
10408SOL    HW132123   4.083   6.036   2.259
10408SOL    HW232124   4.105   5.908   2.358
10409SOL     OW32125   0.985   4.478   0.748
10409SOL    HW132126   1.019   4.451   0.658
10409SOL    HW232127   0.966   4.396   0.802
10410SOL     OW32128   5.562   1.512   1.423
10410SOL    HW132129   5.644   1.526   1.479
10410SOL    HW232130   5.549   1.592   1.364
10411SOL     OW32131   3.452   5.311   3.978
10411SOL    HW132132   3.514   5.276   4.048
10411SOL    HW232133   3.436   5.409   3.994
10412SOL     OW32134   0.364   1.461   0.541
10412SOL    HW132135   0.424   1.539   0.560
10412SOL    HW232136   0.417   1.388   0.499
10413SOL     OW32137   0.175   2.151   0.596
10413SOL    HW132138   0.204   2.245   0.612
10413SOL    HW232139   0.125   2.146   0.510
10414SOL     OW32140   4.966   6.069   5.613
10414SOL    HW132141   4.938   6.153   5.567
10414SOL    HW232142   4.980   6.087   5.710
10415SOL     OW32143   2.182   4.895   4.105
10415SOL    HW132144   2.085   4.895   4.129
10415SOL    HW232145   2.216   4.801   4.101
10416SOL     OW32146   6.733   1.520   5.777
10416SOL    HW132147   6.688   1.431   5.784
10416SOL    HW232148   6.738   1.562   5.868
10417SOL     OW32149   4.621   4.374   4.018
10417SOL    HW132150   4.688   4.420   4.078
10417SOL    HW232151   4.670   4.310   3.958
10418SOL     OW32152   6.470   4.401   5.627
10418SOL    HW132153   6.525   4.412   5.544
10418SOL    HW232154   6.373   4.399   5.602
10419SOL     OW32155   3.014   0.556   5.538
10419SOL    HW132156   3.102   0.507   5.534
10419SOL    HW232157   2.968   0.534   5.624
10420SOL     OW32158   6.976   3.726   3.474
10420SOL    HW132159   6.892   3.726   3.527
10420SOL    HW232160   0.035   3.726   3.536
10421SOL     OW32161   1.303   3.227   4.100
10421SOL    HW132162   1.203   3.240   4.100
10421SOL    HW232163   1.347   3.314   4.077
10422SOL     OW32164   6.762   3.979   5.868
10422SOL    HW132165   6.684   4.029   5.905
10422SOL    HW232166   6.767   3.889   5.910
10423SOL     OW32167   4.213   4.947   4.850
10423SOL    HW132168   4.136   5.008   4.832
10423SOL    HW232169   4.202   4.906   4.941
10424SOL     OW32170   4.820   2.239   6.844
10424SOL    HW132171   4.776   2.216   6.931
10424SOL    HW232172   4.857   2.331   6.849
10425SOL     OW32173   0.914   6.551   1.484
10425SOL    HW132174   0.999   6.603   1.495
10425SOL    HW232175   0.936   6.457   1.456
10426SOL     OW32176   5.136   3.469   5.536
10426SOL    HW132177   5.138   3.542   5.603
10426SOL    HW232178   5.042   3.436   5.524
10427SOL     OW32179   5.136   5.555   5.703
10427SOL    HW132180   5.204   5.625   5.680
10427SOL    HW232181   5.173   5.464   5.684
10428SOL     OW32182   1.298   1.679   3.944
10428SOL    HW132183   1.284   1.772   3.912
10428SOL    HW232184   1.301   1.616   3.866
10429SOL     OW32185   1.570   3.740   3.008
10429SOL    HW132186   1.493   3.797   2.977
10429SOL    HW232187   1.651   3.762   2.954
10430SOL     OW32188   3.282   5.999   4.345
10430SOL    HW132189   3.337   5.929   4.300
10430SOL    HW232190   3.190   5.963   4.364
10431SOL     OW32191   2.659   0.708   3.913
10431SOL    HW132192   2.568   0.742   3.887
10431SOL    HW232193   2.683   0.744   4.003
10432SOL     OW32194   0.641   0.767   5.317
10432SOL    HW132195   0.659   0.846   5.375
10432SOL    HW232196   0.626   0.799   5.223
10433SOL     OW32197   0.518   6.371   1.370
10433SOL    HW132198   0.499   6.275   1.345
10433SOL    HW232199   0.557   6.418   1.291
10434SOL     OW32200   4.932   6.288   4.688
10434SOL    HW132201   4.926   6.245   4.598
10434SOL    HW232202   4.899   6.224   4.758
10435SOL     OW32203   1.389   1.891   6.137
10435SOL    HW132204   1.292   1.916   6.134
10435SOL    HW232205   1.420   1.867   6.045
10436SOL     OW32206   6.036   3.677   4.078
10436SOL    HW132207   6.127   3.694   4.115
10436SOL    HW232208   6.043   3.623   3.995
10437SOL     OW32209   5.522   5.124   5.275
10437SOL    HW132210   5.427   5.137   5.304
10437SOL    HW232211   5.529   5.038   5.224
10438SOL     OW32212   0.310   6.513   5.744
10438SOL    HW132213   0.263   6.426   5.729
10438SOL    HW232214   0.384   6.523   5.677
10439SOL     OW32215   5.841   0.734   4.815
10439SOL    HW132216   5.917   0.773   4.764
10439SOL    HW232217   5.798   0.805   4.870
10440SOL     OW32218   6.950   0.396   0.128
10440SOL    HW132219   6.884   0.471   0.129
10440SOL    HW232220   6.943   0.347   0.041
10441SOL     OW32221   2.851   1.256   0.831
10441SOL    HW132222   2.754   1.273   0.816
10441SOL    HW232223   2.863   1.209   0.919
10442SOL     OW32224   3.864   0.967   5.047
10442SOL    HW132225   3.946   1.023   5.039
10442SOL    HW232226   3.889   0.870   5.041
10443SOL     OW32227   6.749   2.070   2.974
10443SOL    HW132228   6.801   2.148   3.009
10443SOL    HW232229   6.709   2.020   3.051
10444SOL     OW32230   3.249   4.887   3.086
10444SOL    HW132231   3.172   4.899   3.148
10444SOL    HW232232   3.299   4.973   3.076
10445SOL     OW32233   0.400   3.716   2.557
10445SOL    HW132234   0.329   3.762   2.503
10445SOL    HW232235   0.360   3.638   2.605
10446SOL     OW32236   1.952   4.525   5.998
10446SOL    HW132237   1.891   4.454   6.032
10446SOL    HW232238   2.042   4.485   5.980
10447SOL     OW32239   6.481   0.935   1.878
10447SOL    HW132240   6.530   0.859   1.922
10447SOL    HW232241   6.491   1.018   1.934
10448SOL     OW32242   3.327   0.775   3.237
10448SOL    HW132243   3.420   0.801   3.207
10448SOL    HW232244   3.293   0.702   3.178
10449SOL     OW32245   3.554   5.548   6.886
10449SOL    HW132246   3.613   5.627   6.867
10449SOL    HW232247   3.609   5.464   6.885
10450SOL     OW32248   6.537   0.712   6.200
10450SOL    HW132249   6.506   0.683   6.109
10450SOL    HW232250   6.515   0.809   6.213
10451SOL     OW32251   3.180   0.582   3.109
10451SOL    HW132252   3.085   0.610   3.125
10451SOL    HW232253   3.191   0.486   3.132
10452SOL     OW32254   7.016   2.461   2.801
10452SOL    HW132255   6.933   2.449   2.747
10452SOL    HW232256   0.006   2.557   2.827
10453SOL     OW32257   4.703   6.048   2.809
10453SOL    HW132258   4.783   6.106   2.828
10453SOL    HW232259   4.620   6.096   2.836
10454SOL     OW32260   6.210   0.895   0.513
10454SOL    HW132261   6.166   0.912   0.425
10454SOL    HW232262   6.159   0.826   0.563
10455SOL     OW32263   6.649   6.053   4.195
10455SOL    HW132264   6.673   6.076   4.289
10455SOL    HW232265   6.558   6.090   4.173
10456SOL     OW32266   0.177   5.631   0.174
10456SOL    HW132267   0.120   5.595   0.248
10456SOL    HW232268   0.200   5.726   0.194
10457SOL     OW32269   4.342   3.357   6.928
10457SOL    HW132270   4.335   3.440   6.872
10457SOL    HW232271   4.393   3.377   7.012
10458SOL     OW32272   6.569   0.440   6.287
10458SOL    HW132273   6.556   0.539   6.277
10458SOL    HW232274   6.493   0.401   6.339
10459SOL     OW32275   5.678   5.175   0.650
10459SOL    HW132276   5.588   5.178   0.607
10459SOL    HW232277   5.680   5.102   0.718
10460SOL     OW32278   0.162   3.847   1.817
10460SOL    HW132279   0.228   3.800   1.875
10460SOL    HW232280   0.072   3.804   1.826
10461SOL     OW32281   6.504   4.662   5.708
10461SOL    HW132282   6.493   4.563   5.705
10461SOL    HW232283   6.514   4.693   5.802
10462SOL     OW32284   4.689   1.885   2.285
10462SOL    HW132285   4.620   1.820   2.316
10462SOL    HW232286   4.644   1.967   2.250
10463SOL     OW32287   4.758   1.677   6.120
10463SOL    HW132288   4.827   1.722   6.063
10463SOL    HW232289   4.752   1.580   6.095
10464SOL     OW32290   5.730   5.569   1.782
10464SOL    HW132291   5.686   5.551   1.869
10464SOL    HW232292   5.814   5.621   1.797
10465SOL     OW32293   5.142   5.009   2.856
10465SOL    HW132294   5.209   4.944   2.891
10465SOL    HW232295   5.057   4.960   2.835
10466SOL     OW32296   4.658   4.272   6.500
10466SOL    HW132297   4.563   4.274   6.530
10466SOL    HW232298   4.712   4.216   6.562
10467SOL     OW32299   1.762   2.723   0.093
10467SOL    HW132300   1.829   2.756   0.027
10467SOL    HW232301   1.672   2.720   0.050
10468SOL     OW32302   3.861   4.832   3.350
10468SOL    HW132303   3.782   4.839   3.289
10468SOL    HW232304   3.831   4.852   3.444
10469SOL     OW32305   4.474   4.345   5.941
10469SOL    HW132306   4.430   4.360   6.030
10469SOL    HW232307   4.406   4.353   5.868
10470SOL     OW32308   2.468   1.612   3.291
10470SOL    HW132309   2.471   1.514   3.308
10470SOL    HW232310   2.535   1.658   3.348
10471SOL     OW32311   3.365   0.353   0.424
10471SOL    HW132312   3.311   0.353   0.340
10471SOL    HW232313   3.317   0.406   0.494
10472SOL     OW32314   2.793   5.413   1.251
10472SOL    HW132315   2.776   5.407   1.349
10472SOL    HW232316   2.739   5.487   1.212
10473SOL     OW32317   5.953   6.420   5.494
10473SOL    HW132318   5.940   6.504   5.440
10473SOL    HW232319   5.886   6.352   5.465
10474SOL     OW32320   4.727   1.512   3.758
10474SOL    HW132321   4.677   1.557   3.684
10474SOL    HW232322   4.682   1.427   3.783
10475SOL     OW32323   2.961   6.963   1.823
10475SOL    HW132324   2.976   0.033   1.865
10475SOL    HW232325   3.033   6.900   1.851
10476SOL     OW32326   5.014   6.255   6.347
10476SOL    HW132327   4.929   6.294   6.383
10476SOL    HW232328   5.075   6.233   6.423
10477SOL     OW32329   0.052   0.597   4.667
10477SOL    HW132330   7.010   0.551   4.604
10477SOL    HW232331   0.002   0.668   4.717
10478SOL     OW32332   7.015   6.596   0.217
10478SOL    HW132333   6.960   6.520   0.252
10478SOL    HW232334   6.954   6.665   0.178
10479SOL     OW32335   6.509   1.379   1.931
10479SOL    HW132336   6.468   1.467   1.907
10479SOL    HW232337   6.475   1.308   1.869
10480SOL     OW32338   1.699   0.647   1.955
10480SOL    HW132339   1.743   0.595   2.028
10480SOL    HW232340   1.740   0.738   1.950
10481SOL     OW32341   2.136   5.809   2.830
10481SOL    HW132342   2.152   5.775   2.922
10481SOL    HW232343   2.038   5.820   2.815
10482SOL     OW32344   6.296   5.291   4.660
10482SOL    HW132345   6.284   5.339   4.573
10482SOL    HW232346   6.259   5.198   4.652
10483SOL     OW32347   5.388   5.547   0.402
10483SOL    HW132348   5.289   5.549   0.407
10483SOL    HW232349   5.420   5.606   0.328
10484SOL     OW32350   4.443   1.944   1.480
10484SOL    HW132351   4.421   1.849   1.462
10484SOL    HW232352   4.367   1.988   1.528
10485SOL     OW32353   3.375   4.795   0.164
10485SOL    HW132354   3.437   4.762   0.236
10485SOL    HW232355   3.345   4.718   0.108
10486SOL     OW32356   6.907   1.146   0.311
10486SOL    HW132357   6.931   1.141   0.214
10486SOL    HW232358   6.830   1.086   0.330
10487SOL     OW32359   5.119   6.471   2.409
10487SOL    HW132360   5.129   6.385   2.459
10487SOL    HW232361   5.033   6.515   2.435
10488SOL     OW32362   2.901   2.201   6.111
10488SOL    HW132363   2.894   2.188   6.012
10488SOL    HW232364   2.994   2.230   6.134
10489SOL     OW32365   0.434   6.652   4.990
10489SOL    HW132366   0.374   6.572   4.981
10489SOL    HW232367   0.469   6.658   5.083
10490SOL     OW32368   6.039   1.187   2.063
10490SOL    HW132369   5.959   1.234   2.028
10490SOL    HW232370   6.029   1.088   2.047
10491SOL     OW32371   1.387   3.273   0.047
10491SOL    HW132372   1.430   3.182   0.050
10491SOL    HW232373   1.324   3.282   0.125
10492SOL     OW32374   5.746   4.085   6.238
10492SOL    HW132375   5.801   4.027   6.179
10492SOL    HW232376   5.651   4.052   6.239
10493SOL     OW32377   3.307   1.114   1.420
10493SOL    HW132378   3.300   1.176   1.498
10493SOL    HW232379   3.310   1.167   1.335
10494SOL     OW32380   4.440   3.627   5.658
10494SOL    HW132381   4.428   3.634   5.559
10494SOL    HW232382   4.532   3.658   5.682
10495SOL     OW32383   1.983   6.553   0.497
10495SOL    HW132384   1.950   6.484   0.433
10495SOL    HW232385   2.079   6.536   0.519
10496SOL     OW32386   0.293   5.316   0.421
10496SOL    HW132387   0.392   5.310   0.432
10496SOL    HW232388   0.249   5.238   0.466
10497SOL     OW32389   2.590   0.036   2.442
10497SOL    HW132390   2.501   0.016   2.483
10497SOL    HW232391   2.661   0.030   2.513
10498SOL     OW32392   3.446   6.607   1.508
10498SOL    HW132393   3.404   6.567   1.426
10498SOL    HW232394   3.375   6.627   1.575
10499SOL     OW32395   3.470   6.830   2.624
10499SOL    HW132396   3.390   6.835   2.565
10499SOL    HW232397   3.440   6.823   2.719
10500SOL     OW32398   0.382   0.405   6.837
10500SOL    HW132399   0.303   0.362   6.881
10500SOL    HW232400   0.369   0.504   6.834
10501SOL     OW32401   1.759   5.066   3.442
10501SOL    HW132402   1.775   5.164   3.448
10501SOL    HW232403   1.839   5.017   3.477
10502SOL     OW32404   2.902   0.605   0.848
10502SOL    HW132405   2.996   0.629   0.874
10502SOL    HW232406   2.860   0.681   0.799
10503SOL     OW32407   4.254   3.120   0.043
10503SOL    HW132408   4.172   3.125   0.100
10503SOL    HW232409   4.271   3.209   0.001
10504SOL     OW32410   2.202   2.110   0.247
10504SOL    HW132411   2.115   2.078   0.208
10504SOL    HW232412   2.274   2.044   0.228
10505SOL     OW32413   5.710   5.881   0.495
10505SOL    HW132414   5.704   5.827   0.579
10505SOL    HW232415   5.640   5.953   0.496
10506SOL     OW32416   6.856   5.221   6.574
10506SOL    HW132417   6.830   5.311   6.539
10506SOL    HW232418   6.954   5.207   6.561
10507SOL     OW32419   2.408   0.020   7.004
10507SOL    HW132420   2.347   0.019   6.925
10507SOL    HW232421   2.355   0.009   0.068
10508SOL     OW32422   6.117   6.259   4.354
10508SOL    HW132423   6.065   6.310   4.286
10508SOL    HW232424   6.077   6.273   4.444
10509SOL     OW32425   0.900   6.154   5.428
10509SOL    HW132426   0.894   6.110   5.518
10509SOL    HW232427   0.931   6.248   5.440
10510SOL     OW32428   4.959   5.861   5.970
10510SOL    HW132429   4.901   5.895   6.043
10510SOL    HW232430   4.911   5.869   5.882
10511SOL     OW32431   4.504   1.958   1.195
10511SOL    HW132432   4.503   1.996   1.287
10511SOL    HW232433   4.422   1.903   1.180
10512SOL     OW32434   4.101   0.406   5.604
10512SOL    HW132435   4.046   0.395   5.686
10512SOL    HW232436   4.106   0.318   5.556
10513SOL     OW32437   6.720   2.502   4.750
10513SOL    HW132438   6.642   2.541   4.700
10513SOL    HW232439   6.690   2.419   4.797
10514SOL     OW32440   6.986   3.816   0.203
10514SOL    HW132441   6.965   3.719   0.195
10514SOL    HW232442   6.943   3.854   0.285
10515SOL     OW32443   6.894   2.740   3.120
10515SOL    HW132444   6.795   2.744   3.138
10515SOL    HW232445   6.943   2.777   3.199
10516SOL     OW32446   4.417   1.036   6.954
10516SOL    HW132447   4.326   1.024   6.913
10516SOL    HW232448   4.454   0.946   6.979
10517SOL     OW32449   0.100   1.949   2.850
10517SOL    HW132450   0.116   1.935   2.753
10517SOL    HW232451   0.131   2.040   2.876
10518SOL     OW32452   0.910   4.853   6.174
10518SOL    HW132453   0.989   4.846   6.113
10518SOL    HW232454   0.942   4.853   6.269
10519SOL     OW32455   2.416   2.614   6.397
10519SOL    HW132456   2.389   2.710   6.387
10519SOL    HW232457   2.334   2.558   6.403
10520SOL     OW32458   1.912   2.644   6.175
10520SOL    HW132459   1.833   2.584   6.165
10520SOL    HW232460   1.996   2.592   6.159
10521SOL     OW32461   5.964   5.723   1.838
10521SOL    HW132462   6.003   5.739   1.928
10521SOL    HW232463   6.025   5.761   1.768
10522SOL     OW32464   5.845   0.577   0.114
10522SOL    HW132465   5.925   0.516   0.120
10522SOL    HW232466   5.789   0.551   0.036
10523SOL     OW32467   0.385   5.437   4.713
10523SOL    HW132468   0.303   5.380   4.717
10523SOL    HW232469   0.373   5.507   4.643
10524SOL     OW32470   2.126   0.746   5.045
10524SOL    HW132471   2.186   0.730   5.124
10524SOL    HW232472   2.033   0.765   5.078
10525SOL     OW32473   3.193   7.019   6.071
10525SOL    HW132474   3.149   0.007   6.161
10525SOL    HW232475   3.200   6.922   6.046
10526SOL     OW32476   0.447   0.119   2.755
10526SOL    HW132477   0.360   0.148   2.794
10526SOL    HW232478   0.519   0.183   2.783
10527SOL     OW32479   6.269   2.533   4.824
10527SOL    HW132480   6.246   2.441   4.857
10527SOL    HW232481   6.196   2.566   4.764
10528SOL     OW32482   0.806   3.263   5.837
10528SOL    HW132483   0.829   3.288   5.743
10528SOL    HW232484   0.738   3.328   5.872
10529SOL     OW32485   2.369   6.173   3.549
10529SOL    HW132486   2.438   6.162   3.621
10529SOL    HW232487   2.413   6.208   3.466
10530SOL     OW32488   2.265   1.274   6.390
10530SOL    HW132489   2.269   1.193   6.332
10530SOL    HW232490   2.194   1.262   6.460
10531SOL     OW32491   1.163   2.703   4.301
10531SOL    HW132492   1.187   2.792   4.263
10531SOL    HW232493   1.164   2.634   4.229
10532SOL     OW32494   2.182   4.216   6.692
10532SOL    HW132495   2.260   4.248   6.746
10532SOL    HW232496   2.187   4.116   6.681
10533SOL     OW32497   2.865   1.217   4.711
10533SOL    HW132498   2.883   1.151   4.638
10533SOL    HW232499   2.880   1.310   4.677
10534SOL     OW32500   5.784   5.350   1.359
10534SOL    HW132501   5.821   5.443   1.363
10534SOL    HW232502   5.788   5.309   1.449
10535SOL     OW32503   0.925   1.548   0.873
10535SOL    HW132504   0.960   1.461   0.909
10535SOL    HW232505   0.842   1.531   0.820
10536SOL     OW32506   3.913   0.597   2.964
10536SOL    HW132507   3.830   0.635   2.922
10536SOL    HW232508   3.915   0.498   2.950
10537SOL     OW32509   3.597   5.210   4.199
10537SOL    HW132510   3.506   5.175   4.222
10537SOL    HW232511   3.648   5.226   4.284
10538SOL     OW32512   4.439   2.653   6.909
10538SOL    HW132513   4.393   2.741   6.893
10538SOL    HW232514   4.538   2.668   6.912
10539SOL     OW32515   0.720   4.197   6.710
10539SOL    HW132516   0.710   4.136   6.789
10539SOL    HW232517   0.653   4.271   6.715
10540SOL     OW32518   1.463   1.970   5.352
10540SOL    HW132519   1.380   1.995   5.301
10540SOL    HW232520   1.498   1.883   5.317
10541SOL     OW32521   3.859   3.595   1.982
10541SOL    HW132522   3.858   3.496   1.974
10541SOL    HW232523   3.767   3.631   1.964
10542SOL     OW32524   6.316   1.939   6.582
10542SOL    HW132525   6.374   2.009   6.623
10542SOL    HW232526   6.222   1.974   6.575
10543SOL     OW32527   6.704   1.322   5.092
10543SOL    HW132528   6.724   1.391   5.022
10543SOL    HW232529   6.745   1.350   5.179
10544SOL     OW32530   1.624   0.142   2.695
10544SOL    HW132531   1.559   0.150   2.770
10544SOL    HW232532   1.625   0.226   2.642
10545SOL     OW32533   5.795   1.434   2.829
10545SOL    HW132534   5.829   1.472   2.915
10545SOL    HW232535   5.704   1.395   2.844
10546SOL     OW32536   0.738   0.884   6.337
10546SOL    HW132537   0.662   0.908   6.277
10546SOL    HW232538   0.727   0.790   6.369
10547SOL     OW32539   4.801   2.398   1.886
10547SOL    HW132540   4.738   2.326   1.854
10547SOL    HW232541   4.887   2.356   1.915
10548SOL     OW32542   4.921   4.263   5.255
10548SOL    HW132543   5.013   4.236   5.226
10548SOL    HW232544   4.926   4.305   5.346
10549SOL     OW32545   6.388   6.931   2.589
10549SOL    HW132546   6.347   7.003   2.534
10549SOL    HW232547   6.470   6.967   2.634
10550SOL     OW32548   4.448   6.527   5.344
10550SOL    HW132549   4.526   6.533   5.405
10550SOL    HW232550   4.433   6.432   5.317
10551SOL     OW32551   1.778   2.637   5.628
10551SOL    HW132552   1.794   2.605   5.534
10551SOL    HW232553   1.865   2.637   5.678
10552SOL     OW32554   4.162   2.442   5.905
10552SOL    HW132555   4.177   2.351   5.868
10552SOL    HW232556   4.063   2.460   5.910
10553SOL     OW32557   1.087   4.983   1.489
10553SOL    HW132558   1.113   5.072   1.452
10553SOL    HW232559   1.145   4.912   1.448
10554SOL     OW32560   4.903   5.106   0.063
10554SOL    HW132561   4.805   5.087   0.053
10554SOL    HW232562   4.951   5.022   0.087
10555SOL     OW32563   2.177   3.159   0.940
10555SOL    HW132564   2.185   3.199   1.032
10555SOL    HW232565   2.210   3.224   0.873
10556SOL     OW32566   2.160   2.346   5.017
10556SOL    HW132567   2.108   2.262   5.000
10556SOL    HW232568   2.098   2.424   5.023
10557SOL     OW32569   1.912   2.122   3.001
10557SOL    HW132570   1.968   2.203   2.991
10557SOL    HW232571   1.964   2.051   3.049
10558SOL     OW32572   4.176   0.578   4.277
10558SOL    HW132573   4.149   0.494   4.230
10558SOL    HW232574   4.100   0.612   4.332
10559SOL     OW32575   4.497   0.827   0.951
10559SOL    HW132576   4.451   0.916   0.955
10559SOL    HW232577   4.433   0.757   0.919
10560SOL     OW32578   2.759   6.781   3.572
10560SOL    HW132579   2.796   6.734   3.491
10560SOL    HW232580   2.810   6.751   3.653
10561SOL     OW32581   3.000   4.329   0.862
10561SOL    HW132582   2.961   4.256   0.806
10561SOL    HW232583   2.965   4.322   0.956
10562SOL     OW32584   5.408   5.870   0.525
10562SOL    HW132585   5.401   5.929   0.445
10562SOL    HW232586   5.449   5.783   0.499
10563SOL     OW32587   1.014   0.475   4.078
10563SOL    HW132588   0.955   0.512   4.007
10563SOL    HW232589   1.054   0.550   4.131
10564SOL     OW32590   5.877   6.407   2.303
10564SOL    HW132591   5.970   6.373   2.312
10564SOL    HW232592   5.873   6.503   2.333
10565SOL     OW32593   0.069   0.919   5.719
10565SOL    HW132594   0.074   0.985   5.644
10565SOL    HW232595   0.120   0.836   5.694
10566SOL     OW32596   4.101   2.707   6.851
10566SOL    HW132597   4.136   2.624   6.893
10566SOL    HW232598   4.001   2.709   6.858
10567SOL     OW32599   2.246   2.168   4.446
10567SOL    HW132600   2.285   2.112   4.373
10567SOL    HW232601   2.245   2.116   4.531
10568SOL     OW32602   5.736   2.204   1.439
10568SOL    HW132603   5.680   2.281   1.407
10568SOL    HW232604   5.828   2.237   1.460
10569SOL     OW32605   6.044   2.559   1.517
10569SOL    HW132606   6.057   2.627   1.589
10569SOL    HW232607   6.069   2.598   1.429
10570SOL     OW32608   1.727   4.696   3.459
10570SOL    HW132609   1.630   4.679   3.443
10570SOL    HW232610   1.739   4.779   3.513
10571SOL     OW32611   6.944   4.551   4.618
10571SOL    HW132612   6.969   4.569   4.713
10571SOL    HW232613   6.904   4.633   4.578
10572SOL     OW32614   0.006   4.381   3.801
10572SOL    HW132615   0.027   4.478   3.814
10572SOL    HW232616   0.069   4.343   3.733
10573SOL     OW32617   4.549   6.569   4.715
10573SOL    HW132618   4.466   6.618   4.688
10573SOL    HW232619   4.625   6.596   4.656
10574SOL     OW32620   1.314   1.541   4.431
10574SOL    HW132621   1.316   1.641   4.433
10574SOL    HW232622   1.275   1.510   4.344
10575SOL     OW32623   0.250   1.143   3.083
10575SOL    HW132624   0.186   1.144   3.160
10575SOL    HW232625   0.295   1.232   3.076
10576SOL     OW32626   0.210   6.428   5.374
10576SOL    HW132627   0.211   6.525   5.397
10576SOL    HW232628   0.122   6.405   5.331
10577SOL     OW32629   1.788   2.518   6.921
10577SOL    HW132630   1.769   2.461   6.841
10577SOL    HW232631   1.706   2.568   6.947
10578SOL     OW32632   6.449   0.430   3.134
10578SOL    HW132633   6.496   0.342   3.126
10578SOL    HW232634   6.421   0.445   3.229
10579SOL     OW32635   3.640   1.650   0.495
10579SOL    HW132636   3.628   1.675   0.591
10579SOL    HW232637   3.557   1.605   0.463
10580SOL     OW32638   6.794   0.474   0.379
10580SOL    HW132639   6.799   0.396   0.316
10580SOL    HW232640   6.831   0.555   0.335
10581SOL     OW32641   6.352   6.646   3.219
10581SOL    HW132642   6.292   6.599   3.154
10581SOL    HW232643   6.448   6.629   3.194
10582SOL     OW32644   4.367   4.907   6.628
10582SOL    HW132645   4.433   4.842   6.666
10582SOL    HW232646   4.275   4.883   6.656
10583SOL     OW32647   3.617   1.128   5.442
10583SOL    HW132648   3.662   1.048   5.404
10583SOL    HW232649   3.525   1.137   5.402
10584SOL     OW32650   6.410   6.731   1.395
10584SOL    HW132651   6.378   6.699   1.484
10584SOL    HW232652   6.380   6.826   1.382
10585SOL     OW32653   1.928   3.116   5.355
10585SOL    HW132654   2.013   3.065   5.364
10585SOL    HW232655   1.876   3.109   5.440
10586SOL     OW32656   0.905   5.534   4.875
10586SOL    HW132657   0.895   5.501   4.968
10586SOL    HW232658   0.843   5.611   4.860
10587SOL     OW32659   6.112   4.164   0.464
10587SOL    HW132660   6.113   4.113   0.551
10587SOL    HW232661   6.084   4.258   0.481
10588SOL     OW32662   0.169   3.779   2.358
10588SOL    HW132663   0.128   3.870   2.349
10588SOL    HW232664   0.251   3.774   2.301
10589SOL     OW32665   5.929   1.591   4.680
10589SOL    HW132666   5.931   1.630   4.588
10589SOL    HW232667   5.922   1.665   4.748
10590SOL     OW32668   1.554   0.255   1.602
10590SOL    HW132669   1.641   0.285   1.642
10590SOL    HW232670   1.486   0.245   1.674
10591SOL     OW32671   1.257   1.427   6.399
10591SOL    HW132672   1.260   1.527   6.393
10591SOL    HW232673   1.250   1.400   6.495
10592SOL     OW32674   6.487   2.641   0.457
10592SOL    HW132675   6.411   2.696   0.493
10592SOL    HW232676   6.556   2.702   0.418
10593SOL     OW32677   2.716   5.389   0.710
10593SOL    HW132678   2.624   5.426   0.702
10593SOL    HW232679   2.716   5.293   0.683
10594SOL     OW32680   5.228   0.889   2.520
10594SOL    HW132681   5.296   0.931   2.581
10594SOL    HW232682   5.155   0.955   2.502
10595SOL     OW32683   3.406   0.349   5.905
10595SOL    HW132684   3.364   0.371   5.817
10595SOL    HW232685   3.475   0.418   5.927
10596SOL     OW32686   5.092   0.093   0.716
10596SOL    HW132687   5.020   0.151   0.678
10596SOL    HW232688   5.149   0.057   0.642
10597SOL     OW32689   3.351   1.077   5.002
10597SOL    HW132690   3.346   0.977   5.000
10597SOL    HW232691   3.288   1.115   4.935
10598SOL     OW32692   2.886   2.725   6.600
10598SOL    HW132693   2.925   2.653   6.657
10598SOL    HW232694   2.791   2.702   6.576
10599SOL     OW32695   4.892   2.504   6.801
10599SOL    HW132696   4.839   2.564   6.742
10599SOL    HW232697   4.938   2.557   6.872
10600SOL     OW32698   1.700   3.051   0.231
10600SOL    HW132699   1.702   3.069   0.133
10600SOL    HW232700   1.668   2.958   0.247
10601SOL     OW32701   1.677   4.697   6.505
10601SOL    HW132702   1.621   4.751   6.568
10601SOL    HW232703   1.766   4.743   6.494
10602SOL     OW32704   5.128   1.725   2.960
10602SOL    HW132705   5.122   1.646   3.022
10602SOL    HW232706   5.167   1.803   3.009
10603SOL     OW32707   2.290   5.709   3.982
10603SOL    HW132708   2.339   5.790   3.950
10603SOL    HW232709   2.338   5.671   4.061
10604SOL     OW32710   5.922   4.012   5.252
10604SOL    HW132711   5.975   3.960   5.319
10604SOL    HW232712   5.982   4.076   5.204
10605SOL     OW32713   1.652   4.992   1.069
10605SOL    HW132714   1.625   4.918   1.007
10605SOL    HW232715   1.622   4.971   1.162
10606SOL     OW32716   6.299   0.144   2.811
10606SOL    HW132717   6.283   0.240   2.789
10606SOL    HW232718   6.392   0.134   2.847
10607SOL     OW32719   3.882   3.933   6.002
10607SOL    HW132720   3.938   4.015   6.020
10607SOL    HW232721   3.838   3.904   6.087
10608SOL     OW32722   5.478   1.870   5.551
10608SOL    HW132723   5.408   1.873   5.621
10608SOL    HW232724   5.552   1.933   5.574
10609SOL     OW32725   3.505   6.696   1.966
10609SOL    HW132726   3.473   6.649   2.049
10609SOL    HW232727   3.535   6.788   1.990
10610SOL     OW32728   0.354   3.497   6.230
10610SOL    HW132729   0.450   3.501   6.201
10610SOL    HW232730   0.295   3.491   6.150
10611SOL     OW32731   4.178   3.990   5.316
10611SOL    HW132732   4.278   3.992   5.310
10611SOL    HW232733   4.151   4.002   5.412
10612SOL     OW32734   2.838   6.996   5.606
10612SOL    HW132735   2.878   0.060   5.643
10612SOL    HW232736   2.911   6.933   5.579
10613SOL     OW32737   6.931   0.428   5.025
10613SOL    HW132738   0.011   0.442   5.022
10613SOL    HW232739   6.910   0.344   5.074
10614SOL     OW32740   6.511   1.978   4.739
10614SOL    HW132741   6.568   2.037   4.682
10614SOL    HW232742   6.432   2.030   4.772
10615SOL     OW32743   3.206   6.008   5.955
10615SOL    HW132744   3.139   6.082   5.957
10615SOL    HW232745   3.167   5.928   5.909
10616SOL     OW32746   2.839   6.407   0.755
10616SOL    HW132747   2.833   6.370   0.662
10616SOL    HW232748   2.755   6.384   0.805
10617SOL     OW32749   2.352   2.697   0.653
10617SOL    HW132750   2.306   2.785   0.642
10617SOL    HW232751   2.404   2.677   0.570
10618SOL     OW32752   5.818   3.699   6.910
10618SOL    HW132753   5.880   3.633   6.952
10618SOL    HW232754   5.870   3.757   6.847
10619SOL     OW32755   0.308   4.072   1.713
10619SOL    HW132756   0.366   4.043   1.637
10619SOL    HW232757   0.258   3.993   1.749
10620SOL     OW32758   1.077   5.513   5.776
10620SOL    HW132759   1.047   5.559   5.693
10620SOL    HW232760   1.159   5.557   5.811
10621SOL     OW32761   1.071   6.574   1.159
10621SOL    HW132762   1.058   6.648   1.226
10621SOL    HW232763   1.091   6.614   1.069
10622SOL     OW32764   5.372   1.181   0.967
10622SOL    HW132765   5.411   1.213   1.053
10622SOL    HW232766   5.424   1.219   0.891
10623SOL     OW32767   6.678   4.794   4.065
10623SOL    HW132768   6.630   4.863   4.011
10623SOL    HW232769   6.723   4.728   4.004
10624SOL     OW32770   0.621   1.350   4.923
10624SOL    HW132771   0.624   1.422   4.992
10624SOL    HW232772   0.556   1.374   4.852
10625SOL     OW32773   0.615   5.043   0.128
10625SOL    HW132774   0.522   5.031   0.164
10625SOL    HW232775   0.681   5.034   0.202
10626SOL     OW32776   0.703   3.058   1.333
10626SOL    HW132777   0.801   3.074   1.340
10626SOL    HW232778   0.676   3.057   1.236
10627SOL     OW32779   5.294   5.792   1.606
10627SOL    HW132780   5.281   5.815   1.703
10627SOL    HW232781   5.378   5.739   1.596
10628SOL     OW32782   5.354   5.282   6.014
10628SOL    HW132783   5.272   5.227   6.030
10628SOL    HW232784   5.328   5.378   6.005
10629SOL     OW32785   2.558   4.590   4.946
10629SOL    HW132786   2.652   4.602   4.979
10629SOL    HW232787   2.494   4.621   5.015
10630SOL     OW32788   6.424   1.389   3.638
10630SOL    HW132789   6.434   1.436   3.725
10630SOL    HW232790   6.483   1.433   3.570
10631SOL     OW32791   1.620   4.677   4.933
10631SOL    HW132792   1.696   4.612   4.938
10631SOL    HW232793   1.550   4.652   5.000
10632SOL     OW32794   5.645   1.696   4.171
10632SOL    HW132795   5.707   1.775   4.166
10632SOL    HW232796   5.573   1.716   4.238
10633SOL     OW32797   2.373   3.839   1.298
10633SOL    HW132798   2.417   3.836   1.388
10633SOL    HW232799   2.360   3.746   1.265
10634SOL     OW32800   3.067   5.276   1.230
10634SOL    HW132801   3.032   5.367   1.250
10634SOL    HW232802   3.127   5.280   1.151
10635SOL     OW32803   3.505   1.483   1.117
10635SOL    HW132804   3.466   1.514   1.030
10635SOL    HW232805   3.592   1.530   1.134
10636SOL     OW32806   1.276   2.169   1.426
10636SOL    HW132807   1.344   2.242   1.438
10636SOL    HW232808   1.297   2.093   1.487
10637SOL     OW32809   3.292   4.957   5.489
10637SOL    HW132810   3.279   4.878   5.428
10637SOL    HW232811   3.310   4.925   5.582
10638SOL     OW32812   0.189   5.747   2.767
10638SOL    HW132813   0.099   5.733   2.726
10638SOL    HW232814   0.178   5.773   2.863
10639SOL     OW32815   0.132   2.667   3.339
10639SOL    HW132816   0.217   2.654   3.390
10639SOL    HW232817   0.150   2.656   3.242
10640SOL     OW32818   4.103   0.246   6.262
10640SOL    HW132819   4.121   0.341   6.289
10640SOL    HW232820   4.070   0.244   6.168
10641SOL     OW32821   3.543   1.945   0.096
10641SOL    HW132822   3.477   1.891   0.043
10641SOL    HW232823   3.612   1.982   0.034
10642SOL     OW32824   0.214   2.489   1.936
10642SOL    HW132825   0.246   2.537   1.854
10642SOL    HW232826   0.160   2.409   1.909
10643SOL     OW32827   1.721   4.634   5.464
10643SOL    HW132828   1.773   4.628   5.378
10643SOL    HW232829   1.775   4.682   5.533
10644SOL     OW32830   5.741   2.039   3.214
10644SOL    HW132831   5.792   2.125   3.225
10644SOL    HW232832   5.663   2.039   3.276
10645SOL     OW32833   0.523   0.906   4.767
10645SOL    HW132834   0.537   0.906   4.668
10645SOL    HW232835   0.587   0.841   4.809
10646SOL     OW32836   0.574   1.731   5.507
10646SOL    HW132837   0.617   1.645   5.533
10646SOL    HW232838   0.548   1.727   5.411
10647SOL     OW32839   4.124   5.706   6.777
10647SOL    HW132840   4.213   5.701   6.733
10647SOL    HW232841   4.099   5.616   6.813
10648SOL     OW32842   4.682   3.433   6.493
10648SOL    HW132843   4.684   3.458   6.397
10648SOL    HW232844   4.733   3.501   6.546
10649SOL     OW32845   0.302   4.360   3.001
10649SOL    HW132846   0.242   4.422   3.052
10649SOL    HW232847   0.311   4.274   3.051
10650SOL     OW32848   1.228   6.140   3.021
10650SOL    HW132849   1.326   6.150   3.036
10650SOL    HW232850   1.197   6.209   2.956
10651SOL     OW32851   5.215   6.942   5.883
10651SOL    HW132852   5.225   6.846   5.856
10651SOL    HW232853   5.118   6.967   5.885
10652SOL     OW32854   3.638   0.139   6.542
10652SOL    HW132855   3.685   0.177   6.621
10652SOL    HW232856   3.539   0.149   6.554
10653SOL     OW32857   5.131   4.637   4.342
10653SOL    HW132858   5.079   4.553   4.353
10653SOL    HW232859   5.133   4.687   4.429
10654SOL     OW32860   4.421   1.238   0.607
10654SOL    HW132861   4.481   1.160   0.625
10654SOL    HW232862   4.358   1.215   0.533
10655SOL     OW32863   2.858   5.376   1.578
10655SOL    HW132864   2.778   5.326   1.610
10655SOL    HW232865   2.928   5.376   1.651
10656SOL     OW32866   6.086   2.199   0.598
10656SOL    HW132867   6.097   2.178   0.695
10656SOL    HW232868   5.989   2.217   0.579
10657SOL     OW32869   5.989   6.564   6.998
10657SOL    HW132870   5.962   6.470   0.000
10657SOL    HW232871   5.932   6.627   0.031
10658SOL     OW32872   6.718   3.949   4.601
10658SOL    HW132873   6.789   3.996   4.654
10658SOL    HW232874   6.628   3.977   4.634
10659SOL     OW32875   6.466   6.470   0.826
10659SOL    HW132876   6.410   6.401   0.873
10659SOL    HW232877   6.562   6.453   0.844
10660SOL     OW32878   5.185   4.738   6.588
10660SOL    HW132879   5.113   4.699   6.529
10660SOL    HW232880   5.274   4.724   6.545
10661SOL     OW32881   0.451   6.730   2.050
10661SOL    HW132882   0.485   6.820   2.077
10661SOL    HW232883   0.527   6.665   2.043
10662SOL     OW32884   5.664   0.800   1.987
10662SOL    HW132885   5.695   0.738   2.059
10662SOL    HW232886   5.739   0.861   1.960
10663SOL     OW32887   0.245   6.369   1.447
10663SOL    HW132888   0.248   6.278   1.488
10663SOL    HW232889   0.331   6.386   1.399
10664SOL     OW32890   1.811   4.172   5.864
10664SOL    HW132891   1.791   4.228   5.944
10664SOL    HW232892   1.725   4.139   5.824
10665SOL     OW32893   0.862   0.411   0.588
10665SOL    HW132894   0.793   0.447   0.526
10665SOL    HW232895   0.948   0.460   0.575
10666SOL     OW32896   3.923   4.609   0.215
10666SOL    HW132897   3.964   4.603   0.306
10666SOL    HW232898   3.895   4.518   0.186
10667SOL     OW32899   3.518   2.356   5.701
10667SOL    HW132900   3.514   2.279   5.637
10667SOL    HW232901   3.466   2.334   5.784
10668SOL     OW32902   1.182   1.582   4.924
10668SOL    HW132903   1.210   1.552   5.015
10668SOL    HW232904   1.223   1.522   4.855
10669SOL     OW32905   6.415   6.703   0.678
10669SOL    HW132906   6.449   6.620   0.722
10669SOL    HW232907   6.455   6.783   0.722
10670SOL     OW32908   5.115   4.298   5.781
10670SOL    HW132909   5.069   4.259   5.860
10670SOL    HW232910   5.149   4.390   5.803
10671SOL     OW32911   2.312   2.670   2.466
10671SOL    HW132912   2.405   2.635   2.475
10671SOL    HW232913   2.300   2.711   2.376
10672SOL     OW32914   6.855   2.734   0.603
10672SOL    HW132915   6.949   2.767   0.594
10672SOL    HW232916   6.855   2.649   0.656
10673SOL     OW32917   1.903   2.225   6.001
10673SOL    HW132918   1.881   2.127   6.007
10673SOL    HW232919   1.897   2.265   6.092
10674SOL     OW32920   3.838   3.315   0.638
10674SOL    HW132921   3.814   3.298   0.733
10674SOL    HW232922   3.771   3.271   0.578
10675SOL     OW32923   2.088   1.062   6.286
10675SOL    HW132924   2.001   1.074   6.238
10675SOL    HW232925   2.130   0.976   6.258
10676SOL     OW32926   6.068   0.019   6.393
10676SOL    HW132927   6.074   0.095   6.329
10676SOL    HW232928   6.145   6.976   6.379
10677SOL     OW32929   0.663   0.350   2.055
10677SOL    HW132930   0.681   0.336   1.957
10677SOL    HW232931   0.718   0.426   2.089
10678SOL     OW32932   3.547   5.327   3.148
10678SOL    HW132933   3.530   5.394   3.221
10678SOL    HW232934   3.587   5.373   3.069
10679SOL     OW32935   5.096   4.512   6.149
10679SOL    HW132936   5.036   4.568   6.206
10679SOL    HW232937   5.057   4.421   6.138
10680SOL     OW32938   2.199   2.395   4.105
10680SOL    HW132939   2.215   2.387   4.204
10680SOL    HW232940   2.138   2.472   4.088
10681SOL     OW32941   0.152   3.953   6.563
10681SOL    HW132942   0.139   3.913   6.473
10681SOL    HW232943   0.220   4.027   6.558
10682SOL     OW32944   1.614   1.807   3.214
10682SOL    HW132945   1.628   1.772   3.121
10682SOL    HW232946   1.694   1.785   3.270
10683SOL     OW32947   2.954   2.000   3.835
10683SOL    HW132948   2.996   1.914   3.863
10683SOL    HW232949   2.860   1.984   3.805
10684SOL     OW32950   4.424   3.803   0.464
10684SOL    HW132951   4.510   3.833   0.422
10684SOL    HW232952   4.418   3.704   0.458
10685SOL     OW32953   6.936   3.969   2.297
10685SOL    HW132954   6.926   3.931   2.205
10685SOL    HW232955   6.852   3.952   2.349
10686SOL     OW32956   4.228   5.927   6.431
10686SOL    HW132957   4.219   5.855   6.363
10686SOL    HW232958   4.172   6.006   6.405
10687SOL     OW32959   6.972   5.048   2.098
10687SOL    HW132960   6.934   5.053   2.006
10687SOL    HW232961   0.053   5.049   2.093
10688SOL     OW32962   5.790   4.257   2.528
10688SOL    HW132963   5.711   4.205   2.561
10688SOL    HW232964   5.870   4.235   2.584
10689SOL     OW32965   0.544   0.221   3.142
10689SOL    HW132966   0.454   0.181   3.121
10689SOL    HW232967   0.532   0.312   3.181
10690SOL     OW32968   5.843   5.340   3.668
10690SOL    HW132969   5.874   5.396   3.744
10690SOL    HW232970   5.875   5.380   3.582
10691SOL     OW32971   0.134   2.053   2.002
10691SOL    HW132972   0.213   2.104   2.036
10691SOL    HW232973   0.138   1.959   2.035
10692SOL     OW32974   3.113   5.267   3.498
10692SOL    HW132975   3.189   5.270   3.563
10692SOL    HW232976   3.149   5.267   3.405
10693SOL     OW32977   1.916   0.936   1.567
10693SOL    HW132978   1.867   0.869   1.621
10693SOL    HW232979   1.851   0.995   1.519
10694SOL     OW32980   3.604   6.318   1.167
10694SOL    HW132981   3.624   6.227   1.130
10694SOL    HW232982   3.677   6.343   1.232
10695SOL     OW32983   6.352   1.919   4.121
10695SOL    HW132984   6.424   1.985   4.100
10695SOL    HW232985   6.316   1.881   4.036
10696SOL     OW32986   6.841   5.076   1.859
10696SOL    HW132987   6.862   5.171   1.882
10696SOL    HW232988   6.884   5.053   1.772
10697SOL     OW32989   0.326   6.361   4.004
10697SOL    HW132990   0.285   6.270   4.015
10697SOL    HW232991   0.377   6.364   3.918
10698SOL     OW32992   3.262   6.372   4.064
10698SOL    HW132993   3.182   6.371   4.004
10698SOL    HW232994   3.303   6.281   4.068
10699SOL     OW32995   4.869   2.015   2.865
10699SOL    HW132996   4.932   2.056   2.799
10699SOL    HW232997   4.836   1.927   2.830
10700SOL     OW32998   1.136   0.460   0.614
10700SOL    HW132999   1.164   0.551   0.582
10700SOL    HW233000   1.198   0.391   0.577
10701SOL     OW33001   4.514   6.220   0.154
10701SOL    HW133002   4.516   6.277   0.236
10701SOL    HW233003   4.419   6.200   0.130
10702SOL     OW33004   5.390   2.382   1.522
10702SOL    HW133005   5.369   2.363   1.617
10702SOL    HW233006   5.320   2.341   1.463
10703SOL     OW33007   3.524   3.119   3.753
10703SOL    HW133008   3.579   3.160   3.680
10703SOL    HW233009   3.496   3.027   3.727
10704SOL     OW33010   4.926   6.303   2.090
10704SOL    HW133011   5.013   6.351   2.092
10704SOL    HW233012   4.918   6.245   2.172
10705SOL     OW33013   1.157   3.607   0.186
10705SOL    HW133014   1.178   3.510   0.169
10705SOL    HW233015   1.175   3.659   0.102
10706SOL     OW33016   4.870   0.305   1.536
10706SOL    HW133017   4.825   0.328   1.450
10706SOL    HW233018   4.810   0.327   1.613
10707SOL     OW33019   0.196   6.691   5.430
10707SOL    HW133020   0.154   6.718   5.517
10707SOL    HW233021   0.213   6.772   5.375
10708SOL     OW33022   4.884   1.057   1.442
10708SOL    HW133023   4.912   1.060   1.538
10708SOL    HW233024   4.965   1.058   1.384
10709SOL     OW33025   6.601   0.740   5.335
10709SOL    HW133026   6.669   0.811   5.350
10709SOL    HW233027   6.551   0.722   5.420
10710SOL     OW33028   0.647   6.312   4.880
10710SOL    HW133029   0.730   6.259   4.897
10710SOL    HW233030   0.581   6.296   4.954
10711SOL     OW33031   2.084   0.018   4.113
10711SOL    HW133032   2.096   0.057   4.022
10711SOL    HW233033   2.100   0.089   4.182
10712SOL     OW33034   4.012   1.069   3.802
10712SOL    HW133035   3.953   1.130   3.855
10712SOL    HW233036   3.958   1.022   3.732
10713SOL     OW33037   1.984   5.501   1.576
10713SOL    HW133038   2.083   5.510   1.589
10713SOL    HW233039   1.944   5.592   1.560
10714SOL     OW33040   0.076   4.039   4.938
10714SOL    HW133041   0.162   4.064   4.895
10714SOL    HW233042   0.063   3.940   4.932
10715SOL     OW33043   5.708   0.265   3.185
10715SOL    HW133044   5.691   0.184   3.128
10715SOL    HW233045   5.786   0.247   3.245
10716SOL     OW33046   6.791   1.537   3.697
10716SOL    HW133047   6.847   1.598   3.639
10716SOL    HW233048   6.766   1.456   3.645
10717SOL     OW33049   0.598   1.274   1.168
10717SOL    HW133050   0.611   1.304   1.074
10717SOL    HW233051   0.627   1.346   1.231
10718SOL     OW33052   6.839   5.208   0.513
10718SOL    HW133053   6.763   5.144   0.499
10718SOL    HW233054   6.888   5.221   0.427
10719SOL     OW33055   5.152   6.473   2.140
10719SOL    HW133056   5.133   6.484   2.238
10719SOL    HW233057   5.248   6.496   2.122
10720SOL     OW33058   6.583   3.411   5.992
10720SOL    HW133059   6.683   3.412   5.985
10720SOL    HW233060   6.543   3.444   5.906
10721SOL     OW33061   6.013   2.226   4.086
10721SOL    HW133062   5.961   2.141   4.093
10721SOL    HW233063   6.059   2.231   3.998
10722SOL     OW33064   0.277   3.703   7.005
10722SOL    HW133065   0.217   3.697   6.926
10722SOL    HW233066   0.340   3.780   6.994
10723SOL     OW33067   5.398   3.779   6.923
10723SOL    HW133068   5.314   3.760   6.974
10723SOL    HW233069   5.469   3.715   6.953
10724SOL     OW33070   4.095   6.741   6.357
10724SOL    HW133071   4.168   6.780   6.301
10724SOL    HW233072   4.070   6.806   6.429
10725SOL     OW33073   6.923   5.339   4.368
10725SOL    HW133074   6.899   5.266   4.305
10725SOL    HW233075   6.894   5.315   4.461
10726SOL     OW33076   5.766   0.557   5.098
10726SOL    HW133077   5.762   0.507   5.011
10726SOL    HW233078   5.743   0.494   5.173
10727SOL     OW33079   1.395   4.736   5.101
10727SOL    HW133080   1.365   4.774   5.014
10727SOL    HW233081   1.323   4.679   5.140
10728SOL     OW33082   5.559   6.783   3.105
10728SOL    HW133083   5.521   6.691   3.120
10728SOL    HW233084   5.518   6.822   3.022
10729SOL     OW33085   6.302   1.974   2.455
10729SOL    HW133086   6.362   2.022   2.519
10729SOL    HW233087   6.289   1.880   2.486
10730SOL     OW33088   2.517   5.931   2.091
10730SOL    HW133089   2.551   6.023   2.072
10730SOL    HW233090   2.418   5.935   2.105
10731SOL     OW33091   2.502   5.836   0.658
10731SOL    HW133092   2.541   5.826   0.750
10731SOL    HW233093   2.576   5.852   0.593
10732SOL     OW33094   6.700   6.814   3.252
10732SOL    HW133095   6.654   6.744   3.197
10732SOL    HW233096   6.637   6.890   3.269
10733SOL     OW33097   5.935   2.180   6.972
10733SOL    HW133098   5.988   2.098   6.952
10733SOL    HW233099   5.981   2.260   6.932
10734SOL     OW33100   0.482   0.227   6.363
10734SOL    HW133101   0.478   0.296   6.435
10734SOL    HW233102   0.487   0.272   6.274
10735SOL     OW33103   0.753   5.040   2.243
10735SOL    HW133104   0.819   5.015   2.314
10735SOL    HW233105   0.785   5.004   2.155
10736SOL     OW33106   0.334   0.663   3.372
10736SOL    HW133107   0.319   0.605   3.291
10736SOL    HW233108   0.314   0.758   3.349
10737SOL     OW33109   0.509   2.032   0.962
10737SOL    HW133110   0.599   1.994   0.978
10737SOL    HW233111   0.516   2.110   0.901
10738SOL     OW33112   2.467   0.384   2.810
10738SOL    HW133113   2.374   0.397   2.777
10738SOL    HW233114   2.488   0.287   2.817
10739SOL     OW33115   6.268   2.031   1.916
10739SOL    HW133116   6.237   2.045   2.010
10739SOL    HW233117   6.366   2.008   1.916
10740SOL     OW33118   1.603   6.534   5.490
10740SOL    HW133119   1.651   6.546   5.403
10740SOL    HW233120   1.505   6.522   5.474
10741SOL     OW33121   1.962   1.919   3.519
10741SOL    HW133122   2.058   1.907   3.543
10741SOL    HW233123   1.946   2.014   3.494
10742SOL     OW33124   5.874   6.332   2.035
10742SOL    HW133125   5.864   6.326   2.134
10742SOL    HW233126   5.937   6.261   2.003
10743SOL     OW33127   3.768   1.612   4.852
10743SOL    HW133128   3.814   1.605   4.941
10743SOL    HW233129   3.828   1.659   4.788
10744SOL     OW33130   2.852   1.426   2.168
10744SOL    HW133131   2.863   1.378   2.255
10744SOL    HW233132   2.879   1.366   2.093
10745SOL     OW33133   2.358   4.973   0.721
10745SOL    HW133134   2.440   4.998   0.670
10745SOL    HW233135   2.373   4.887   0.768
10746SOL     OW33136   2.389   5.720   1.398
10746SOL    HW133137   2.380   5.666   1.482
10746SOL    HW233138   2.428   5.662   1.326
10747SOL     OW33139   5.432   1.850   3.390
10747SOL    HW133140   5.350   1.907   3.389
10747SOL    HW233141   5.513   1.908   3.392
10748SOL     OW33142   5.321   5.651   1.155
10748SOL    HW133143   5.406   5.685   1.116
10748SOL    HW233144   5.324   5.660   1.255
10749SOL     OW33145   6.245   4.609   3.092
10749SOL    HW133146   6.341   4.582   3.087
10749SOL    HW233147   6.188   4.537   3.052
10750SOL     OW33148   4.860   4.136   4.595
10750SOL    HW133149   4.802   4.179   4.526
10750SOL    HW233150   4.805   4.109   4.674
10751SOL     OW33151   1.256   2.724   5.071
10751SOL    HW133152   1.353   2.700   5.064
10751SOL    HW233153   1.241   2.778   5.154
10752SOL     OW33154   5.825   4.611   6.997
10752SOL    HW133155   5.901   4.632   6.935
10752SOL    HW233156   5.861   4.582   0.066
10753SOL     OW33157   5.081   0.115   4.141
10753SOL    HW133158   5.067   0.212   4.121
10753SOL    HW233159   5.031   0.060   4.074
10754SOL     OW33160   0.633   2.801   2.027
10754SOL    HW133161   0.731   2.822   2.026
10754SOL    HW233162   0.582   2.884   2.050
10755SOL     OW33163   0.182   1.860   0.979
10755SOL    HW133164   0.171   1.959   0.967
10755SOL    HW233165   0.183   1.816   0.889
10756SOL     OW33166   6.628   2.229   0.159
10756SOL    HW133167   6.550   2.253   0.215
10756SOL    HW233168   6.597   2.178   0.079
10757SOL     OW33169   0.276   4.106   0.530
10757SOL    HW133170   0.278   4.109   0.630
10757SOL    HW233171   0.190   4.147   0.498
10758SOL     OW33172   0.472   5.547   6.066
10758SOL    HW133173   0.451   5.610   5.992
10758SOL    HW233174   0.534   5.591   6.130
10759SOL     OW33175   1.514   3.242   5.917
10759SOL    HW133176   1.424   3.201   5.905
10759SOL    HW233177   1.579   3.197   5.856
10760SOL     OW33178   1.160   5.710   1.041
10760SOL    HW133179   1.238   5.769   1.064
10760SOL    HW233180   1.079   5.767   1.025
10761SOL     OW33181   0.987   2.619   6.236
10761SOL    HW133182   1.064   2.667   6.193
10761SOL    HW233183   0.919   2.686   6.266
10762SOL     OW33184   4.640   0.741   6.043
10762SOL    HW133185   4.615   0.739   5.946
10762SOL    HW233186   4.705   0.815   6.058
10763SOL     OW33187   5.127   0.489   2.008
10763SOL    HW133188   5.159   0.515   1.917
10763SOL    HW233189   5.086   0.568   2.054
10764SOL     OW33190   5.203   1.252   5.604
10764SOL    HW133191   5.271   1.316   5.568
10764SOL    HW233192   5.148   1.298   5.673
10765SOL     OW33193   5.602   1.388   2.365
10765SOL    HW133194   5.682   1.421   2.415
10765SOL    HW233195   5.562   1.309   2.413
10766SOL     OW33196   1.865   4.455   0.480
10766SOL    HW133197   1.830   4.457   0.386
10766SOL    HW233198   1.955   4.410   0.481
10767SOL     OW33199   1.945   6.265   0.750
10767SOL    HW133200   1.983   6.357   0.744
10767SOL    HW233201   2.000   6.203   0.694
10768SOL     OW33202   5.012   5.419   0.615
10768SOL    HW133203   5.028   5.326   0.583
10768SOL    HW233204   5.002   5.419   0.715
10769SOL     OW33205   2.858   4.406   5.386
10769SOL    HW133206   2.875   4.451   5.298
10769SOL    HW233207   2.841   4.308   5.371
10770SOL     OW33208   5.302   0.205   4.665
10770SOL    HW133209   5.330   0.132   4.728
10770SOL    HW233210   5.301   0.170   4.572
10771SOL     OW33211   4.379   0.233   4.956
10771SOL    HW133212   4.316   0.305   4.926
10771SOL    HW233213   4.326   0.151   4.980
10772SOL     OW33214   6.978   6.491   3.792
10772SOL    HW133215   6.994   6.418   3.727
10772SOL    HW233216   6.887   6.531   3.776
10773SOL     OW33217   6.928   4.302   6.736
10773SOL    HW133218   7.015   4.292   6.785
10773SOL    HW233219   6.887   4.390   6.760
10774SOL     OW33220   1.741   2.686   1.704
10774SOL    HW133221   1.823   2.708   1.757
10774SOL    HW233222   1.744   2.736   1.617
10775SOL     OW33223   1.944   4.329   1.572
10775SOL    HW133224   1.998   4.290   1.498
10775SOL    HW233225   1.998   4.333   1.655
10776SOL     OW33226   0.451   6.893   2.375
10776SOL    HW133227   0.429   6.798   2.394
10776SOL    HW233228   0.389   6.928   2.305
10777SOL     OW33229   4.135   0.245   3.441
10777SOL    HW133230   4.198   0.254   3.364
10777SOL    HW233231   4.185   0.261   3.527
10778SOL     OW33232   6.400   5.876   4.994
10778SOL    HW133233   6.316   5.824   4.978
10778SOL    HW233234   6.406   5.950   4.928
10779SOL     OW33235   6.241   4.466   2.639
10779SOL    HW133236   6.219   4.389   2.578
10779SOL    HW233237   6.231   4.437   2.734
10780SOL     OW33238   6.853   5.564   4.209
10780SOL    HW133239   6.893   5.502   4.277
10780SOL    HW233240   6.925   5.594   4.146
10781SOL     OW33241   5.222   0.705   4.571
10781SOL    HW133242   5.240   0.752   4.657
10781SOL    HW233243   5.293   0.728   4.504
10782SOL     OW33244   6.215   3.407   4.317
10782SOL    HW133245   6.262   3.456   4.244
10782SOL    HW233246   6.124   3.446   4.331
10783SOL     OW33247   2.166   2.925   2.632
10783SOL    HW133248   2.226   2.856   2.592
10783SOL    HW233249   2.151   2.905   2.728
10784SOL     OW33250   2.487   6.172   1.778
10784SOL    HW133251   2.415   6.102   1.784
10784SOL    HW233252   2.537   6.175   1.864
10785SOL     OW33253   1.428   4.997   1.573
10785SOL    HW133254   1.413   5.016   1.670
10785SOL    HW233255   1.391   4.906   1.551
10786SOL     OW33256   4.246   2.022   2.563
10786SOL    HW133257   4.218   1.956   2.493
10786SOL    HW233258   4.324   1.987   2.614
10787SOL     OW33259   3.496   1.206   4.149
10787SOL    HW133260   3.445   1.220   4.064
10787SOL    HW233261   3.578   1.262   4.149
10788SOL     OW33262   1.913   4.135   0.150
10788SOL    HW133263   1.841   4.160   0.086
10788SOL    HW233264   1.877   4.072   0.218
10789SOL     OW33265   6.658   1.200   0.579
10789SOL    HW133266   6.757   1.202   0.565
10789SOL    HW233267   6.613   1.244   0.501
10790SOL     OW33268   6.443   1.373   5.738
10790SOL    HW133269   6.449   1.408   5.831
10790SOL    HW233270   6.505   1.296   5.727
10791SOL     OW33271   2.021   1.893   1.973
10791SOL    HW133272   2.077   1.931   2.047
10791SOL    HW233273   1.993   1.967   1.911
10792SOL     OW33274   3.479   2.684   1.198
10792SOL    HW133275   3.415   2.607   1.189
10792SOL    HW233276   3.518   2.684   1.290
10793SOL     OW33277   5.129   1.862   4.250
10793SOL    HW133278   5.147   1.764   4.251
10793SOL    HW233279   5.174   1.904   4.171
10794SOL     OW33280   3.896   3.809   1.777
10794SOL    HW133281   3.892   3.723   1.828
10794SOL    HW233282   3.941   3.794   1.689
10795SOL     OW33283   6.449   3.727   2.317
10795SOL    HW133284   6.356   3.741   2.350
10795SOL    HW233285   6.500   3.671   2.383
10796SOL     OW33286   4.679   6.894   6.313
10796SOL    HW133287   4.613   6.912   6.386
10796SOL    HW233288   4.725   6.806   6.332
10797SOL     OW33289   3.800   2.786   6.793
10797SOL    HW133290   3.735   2.733   6.847
10797SOL    HW233291   3.819   2.738   6.707
10798SOL     OW33292   2.607   0.129   6.586
10798SOL    HW133293   2.649   0.203   6.532
10798SOL    HW233294   2.622   0.146   6.683
10799SOL     OW33295   3.640   2.072   2.581
10799SOL    HW133296   3.738   2.084   2.564
10799SOL    HW233297   3.596   2.035   2.498
10800SOL     OW33298   2.683   6.719   0.929
10800SOL    HW133299   2.603   6.773   0.957
10800SOL    HW233300   2.719   6.670   1.009
10801SOL     OW33301   2.054   6.189   5.847
10801SOL    HW133302   2.087   6.234   5.764
10801SOL    HW233303   2.117   6.116   5.873
10802SOL     OW33304   1.812   3.118   3.617
10802SOL    HW133305   1.907   3.140   3.594
10802SOL    HW233306   1.761   3.095   3.534
10803SOL     OW33307   5.424   4.749   5.838
10803SOL    HW133308   5.391   4.841   5.860
10803SOL    HW233309   5.357   4.702   5.781
10804SOL     OW33310   6.676   3.838   0.846
10804SOL    HW133311   6.644   3.877   0.932
10804SOL    HW233312   6.735   3.759   0.865
10805SOL     OW33313   3.328   6.714   6.891
10805SOL    HW133314   3.301   6.673   6.979
10805SOL    HW233315   3.400   6.782   6.907
10806SOL     OW33316   6.217   3.929   0.346
10806SOL    HW133317   6.217   4.021   0.385
10806SOL    HW233318   6.139   3.878   0.381
10807SOL     OW33319   3.313   6.491   3.486
10807SOL    HW133320   3.354   6.414   3.536
10807SOL    HW233321   3.272   6.458   3.402
10808SOL     OW33322   0.471   4.067   6.968
10808SOL    HW133323   0.499   4.161   6.984
10808SOL    HW233324   0.477   4.015   0.033
10809SOL     OW33325   2.872   0.932   4.424
10809SOL    HW133326   2.843   0.893   4.511
10809SOL    HW233327   2.971   0.939   4.421
10810SOL     OW33328   0.449   1.223   5.881
10810SOL    HW133329   0.432   1.296   5.815
10810SOL    HW233330   0.441   1.259   5.973
10811SOL     OW33331   3.963   5.071   5.911
10811SOL    HW133332   3.925   5.160   5.935
10811SOL    HW233333   4.038   5.048   5.972
10812SOL     OW33334   0.438   2.555   2.908
10812SOL    HW133335   0.519   2.608   2.933
10812SOL    HW233336   0.406   2.585   2.818
10813SOL     OW33337   3.158   6.257   1.589
10813SOL    HW133338   3.159   6.202   1.505
10813SOL    HW233339   3.104   6.340   1.574
10814SOL     OW33340   1.675   0.487   5.894
10814SOL    HW133341   1.630   0.437   5.968
10814SOL    HW233342   1.679   0.584   5.918
10815SOL     OW33343   4.933   4.562   2.995
10815SOL    HW133344   4.951   4.654   2.958
10815SOL    HW233345   5.020   4.520   3.021
10816SOL     OW33346   1.385   1.319   2.233
10816SOL    HW133347   1.313   1.385   2.255
10816SOL    HW233348   1.343   1.235   2.200
10817SOL     OW33349   5.460   0.142   2.827
10817SOL    HW133350   5.461   0.227   2.880
10817SOL    HW233351   5.536   0.084   2.856
10818SOL     OW33352   5.579   2.884   6.509
10818SOL    HW133353   5.479   2.880   6.513
10818SOL    HW233354   5.607   2.970   6.465
10819SOL     OW33355   0.873   3.575   6.623
10819SOL    HW133356   0.822   3.533   6.548
10819SOL    HW233357   0.899   3.505   6.690
10820SOL     OW33358   0.055   0.018   3.999
10820SOL    HW133359   0.062   6.967   4.070
10820SOL    HW233360   7.011   7.008   3.928
10821SOL     OW33361   0.020   6.237   2.198
10821SOL    HW133362   6.968   6.168   2.192
10821SOL    HW233363   7.006   6.323   2.158
10822SOL     OW33364   1.287   3.567   2.470
10822SOL    HW133365   1.309   3.483   2.519
10822SOL    HW233366   1.247   3.633   2.533
10823SOL     OW33367   2.008   6.005   1.504
10823SOL    HW133368   1.920   5.960   1.491
10823SOL    HW233369   1.994   6.102   1.520
10824SOL     OW33370   5.192   6.826   3.580
10824SOL    HW133371   5.257   6.894   3.614
10824SOL    HW233372   5.104   6.871   3.563
10825SOL     OW33373   2.347   1.488   1.116
10825SOL    HW133374   2.354   1.523   1.209
10825SOL    HW233375   2.251   1.486   1.088
10826SOL     OW33376   6.858   3.549   2.167
10826SOL    HW133377   6.856   3.452   2.144
10826SOL    HW233378   6.768   3.590   2.152
10827SOL     OW33379   6.072   3.506   3.838
10827SOL    HW133380   6.028   3.447   3.770
10827SOL    HW233381   6.171   3.504   3.825
10828SOL     OW33382   0.909   6.179   1.653
10828SOL    HW133383   0.842   6.207   1.722
10828SOL    HW233384   0.887   6.223   1.566
10829SOL     OW33385   2.202   3.413   1.448
10829SOL    HW133386   2.133   3.373   1.509
10829SOL    HW233387   2.277   3.451   1.503
10830SOL     OW33388   5.872   3.000   4.592
10830SOL    HW133389   5.898   2.994   4.496
10830SOL    HW233390   5.941   3.052   4.642
10831SOL     OW33391   5.166   0.228   1.953
10831SOL    HW133392   5.150   0.327   1.948
10831SOL    HW233393   5.254   0.207   1.912
10832SOL     OW33394   0.674   2.271   0.577
10832SOL    HW133395   0.702   2.362   0.545
10832SOL    HW233396   0.736   2.202   0.540
10833SOL     OW33397   2.170   0.098   3.636
10833SOL    HW133398   2.241   0.123   3.570
10833SOL    HW233399   2.142   0.179   3.688
10834SOL     OW33400   0.371   1.724   5.258
10834SOL    HW133401   0.325   1.792   5.201
10834SOL    HW233402   0.310   1.698   5.333
10835SOL     OW33403   6.784   1.594   1.894
10835SOL    HW133404   6.721   1.599   1.971
10835SOL    HW233405   6.773   1.506   1.848
10836SOL     OW33406   6.976   1.528   5.365
10836SOL    HW133407   6.941   1.564   5.278
10836SOL    HW233408   6.940   1.582   5.440
10837SOL     OW33409   6.762   4.747   0.179
10837SOL    HW133410   6.832   4.762   0.249
10837SOL    HW233411   6.736   4.650   0.178
10838SOL     OW33412   5.659   0.513   5.801
10838SOL    HW133413   5.672   0.482   5.895
10838SOL    HW233414   5.576   0.569   5.795
10839SOL     OW33415   3.028   2.413   0.109
10839SOL    HW133416   2.966   2.386   0.037
10839SOL    HW233417   2.977   2.427   0.194
10840SOL     OW33418   3.632   6.054   1.480
10840SOL    HW133419   3.593   6.146   1.472
10840SOL    HW233420   3.732   6.059   1.471
10841SOL     OW33421   3.763   6.268   5.889
10841SOL    HW133422   3.801   6.314   5.809
10841SOL    HW233423   3.802   6.309   5.972
10842SOL     OW33424   6.551   2.935   1.199
10842SOL    HW133425   6.589   2.981   1.279
10842SOL    HW233426   6.626   2.897   1.144
10843SOL     OW33427   1.093   1.892   1.887
10843SOL    HW133428   1.151   1.953   1.833
10843SOL    HW233429   1.087   1.803   1.842
10844SOL     OW33430   6.605   6.006   4.643
10844SOL    HW133431   6.678   6.032   4.580
10844SOL    HW233432   6.596   6.075   4.715
10845SOL     OW33433   1.197   1.546   1.375
10845SOL    HW133434   1.216   1.624   1.435
10845SOL    HW233435   1.103   1.516   1.389
10846SOL     OW33436   5.072   1.759   0.260
10846SOL    HW133437   5.112   1.675   0.222
10846SOL    HW233438   5.007   1.734   0.332
10847SOL     OW33439   2.519   1.622   5.931
10847SOL    HW133440   2.511   1.721   5.922
10847SOL    HW233441   2.463   1.578   5.861
10848SOL     OW33442   2.847   1.960   0.024
10848SOL    HW133443   2.921   1.932   0.085
10848SOL    HW233444   2.825   2.056   0.041
10849SOL     OW33445   3.515   4.939   3.490
10849SOL    HW133446   3.570   5.010   3.446
10849SOL    HW233447   3.569   4.893   3.561
10850SOL     OW33448   3.926   6.785   6.783
10850SOL    HW133449   3.952   6.874   6.819
10850SOL    HW233450   3.829   6.769   6.801
10851SOL     OW33451   3.312   2.945   5.788
10851SOL    HW133452   3.371   2.865   5.792
10851SOL    HW233453   3.337   3.010   5.861
10852SOL     OW33454   0.085   0.776   6.382
10852SOL    HW133455   0.178   0.811   6.388
10852SOL    HW233456   0.055   0.775   6.287
10853SOL     OW33457   3.295   1.750   4.279
10853SOL    HW133458   3.257   1.662   4.249
10853SOL    HW233459   3.273   1.765   4.375
10854SOL     OW33460   5.753   0.391   6.808
10854SOL    HW133461   5.756   0.316   6.874
10854SOL    HW233462   5.707   0.359   6.725
10855SOL     OW33463   2.785   6.198   2.631
10855SOL    HW133464   2.752   6.109   2.662
10855SOL    HW233465   2.708   6.254   2.600
10856SOL     OW33466   6.076   0.276   0.827
10856SOL    HW133467   6.029   0.267   0.915
10856SOL    HW233468   6.172   0.252   0.839
10857SOL     OW33469   6.349   2.331   3.120
10857SOL    HW133470   6.295   2.247   3.112
10857SOL    HW233471   6.288   2.407   3.146
10858SOL     OW33472   1.829   3.421   0.080
10858SOL    HW133473   1.741   3.421   0.033
10858SOL    HW233474   1.816   3.453   0.174
10859SOL     OW33475   1.925   3.469   2.966
10859SOL    HW133476   2.012   3.457   3.014
10859SOL    HW233477   1.858   3.403   3.001
10860SOL     OW33478   6.528   1.154   0.318
10860SOL    HW133479   6.547   1.085   0.248
10860SOL    HW233480   6.580   1.237   0.299
10861SOL     OW33481   3.669   2.763   1.815
10861SOL    HW133482   3.735   2.789   1.885
10861SOL    HW233483   3.638   2.844   1.765
10862SOL     OW33484   2.577   2.183   6.521
10862SOL    HW133485   2.597   2.162   6.425
10862SOL    HW233486   2.626   2.266   6.547
10863SOL     OW33487   2.785   0.391   2.958
10863SOL    HW133488   2.814   0.444   2.877
10863SOL    HW233489   2.838   0.307   2.963
10864SOL     OW33490   2.560   4.550   1.117
10864SOL    HW133491   2.494   4.518   1.185
10864SOL    HW233492   2.650   4.559   1.160
10865SOL     OW33493   5.372   3.087   3.842
10865SOL    HW133494   5.292   3.082   3.902
10865SOL    HW233495   5.344   3.125   3.753
10866SOL     OW33496   6.153   3.070   1.059
10866SOL    HW133497   6.141   2.976   1.092
10866SOL    HW233498   6.094   3.131   1.112
10867SOL     OW33499   2.688   3.166   0.371
10867SOL    HW133500   2.723   3.174   0.464
10867SOL    HW233501   2.680   3.069   0.347
10868SOL     OW33502   0.952   2.093   3.249
10868SOL    HW133503   0.946   2.181   3.202
10868SOL    HW233504   0.955   2.109   3.348
10869NA      NA33505   0.721   1.899   6.074
10870NA      NA33506   4.544   4.412   5.119
10871NA      NA33507   1.971   4.912   2.984
10872NA      NA33508   5.260   4.237   3.871
10873NA      NA33509   4.332   2.479   5.287
10874NA      NA33510   2.986   4.922   1.409
10875NA      NA33511   1.332   4.887   0.439
10876NA      NA33512   3.949   4.278   1.603
10877NA      NA33513   4.603   3.812   0.846
10878NA      NA33514   3.394   1.232   5.794
10879NA      NA33515   5.059   5.805   2.024
10880NA      NA33516   1.621   0.468   5.651
10881NA      NA33517   5.072   5.055   1.872
10882NA      NA33518   3.165   3.340   0.353
   7.01953   7.01953   7.01953
