Generated by trjconv : CNT in water t= 560.00000
33518
    1C        C    1   2.848   2.775   4.750
    1C        C    2   2.899   2.722   4.871
    1C        C    3   2.845   2.780   4.986
    1C        C    4   2.850   2.779   4.263
    1C        C    5   2.903   2.731   4.385
    1C        C    6   2.844   2.774   4.505
    1C        C    7   3.014   2.647   4.628
    1C        C    8   2.897   2.726   4.627
    1C        C    9   3.079   2.610   4.748
    1C        C   10   3.010   2.634   4.869
    1C        C   11   3.180   2.489   4.979
    1C        C   12   3.062   2.566   4.980
    1C        C   13   2.849   2.767   3.775
    1C        C   14   2.900   2.721   3.899
    1C        C   15   2.846   2.771   4.020
    1C        C   16   3.014   2.643   4.141
    1C        C   17   2.900   2.726   4.142
    1C        C   18   3.079   2.611   4.263
    1C        C   19   3.018   2.648   4.385
    1C        C   20   3.208   2.556   4.508
    1C        C   21   3.079   2.614   4.507
    1C        C   22   3.279   2.540   4.629
    1C        C   23   3.210   2.555   4.751
    1C        C   24   3.413   2.487   4.864
    1C        C   25   3.271   2.505   4.870
    1C        C   26   3.490   2.476   4.980
    1C        C   27   2.849   2.766   3.285
    1C        C   28   2.905   2.722   3.407
    1C        C   29   2.854   2.772   3.529
    1C        C   30   3.016   2.639   3.653
    1C        C   31   2.901   2.722   3.652
    1C        C   32   3.078   2.604   3.775
    1C        C   33   3.017   2.643   3.896
    1C        C   34   3.208   2.556   4.019
    1C        C   35   3.078   2.609   4.020
    1C        C   36   3.277   2.535   4.141
    1C        C   37   3.209   2.556   4.263
    1C        C   38   3.415   2.510   4.384
    1C        C   39   3.276   2.535   4.386
    1C        C   40   3.487   2.502   4.505
    1C        C   41   3.415   2.505   4.627
    1C        C   42   3.632   2.483   4.747
    1C        C   43   3.490   2.483   4.745
    1C        C   44   3.709   2.485   4.865
    1C        C   45   3.629   2.478   4.980
    1C        C   46   2.833   2.749   2.796
    1C        C   47   2.892   2.708   2.917
    1C        C   48   2.844   2.760   3.040
    1C        C   49   3.014   2.634   3.162
    1C        C   50   2.900   2.718   3.162
    1C        C   51   3.078   2.603   3.284
    1C        C   52   3.017   2.636   3.406
    1C        C   53   3.207   2.547   3.529
    1C        C   54   3.077   2.604   3.530
    1C        C   55   3.275   2.527   3.650
    1C        C   56   3.209   2.550   3.773
    1C        C   57   3.415   2.512   3.897
    1C        C   58   3.275   2.533   3.896
    1C        C   59   3.485   2.506   4.020
    1C        C   60   3.415   2.507   4.142
    1C        C   61   3.629   2.507   4.262
    1C        C   62   3.488   2.503   4.263
    1C        C   63   3.701   2.514   4.384
    1C        C   64   3.628   2.504   4.504
    1C        C   65   3.837   2.545   4.622
    1C        C   66   3.701   2.507   4.626
    1C        C   67   3.907   2.565   4.742
    1C        C   68   3.843   2.529   4.863
    1C        C   69   4.049   2.587   4.977
    1C        C   70   3.920   2.533   4.981
    1C        C   71   2.821   2.732   2.310
    1C        C   72   2.882   2.690   2.430
    1C        C   73   2.831   2.745   2.551
    1C        C   74   3.003   2.623   2.673
    1C        C   75   2.887   2.703   2.673
    1C        C   76   3.067   2.589   2.795
    1C        C   77   3.008   2.627   2.917
    1C        C   78   3.206   2.551   3.039
    1C        C   79   3.073   2.599   3.039
    1C        C   80   3.277   2.532   3.160
    1C        C   81   3.211   2.552   3.283
    1C        C   82   3.415   2.506   3.404
    1C        C   83   3.276   2.531   3.407
    1C        C   84   3.485   2.498   3.527
    1C        C   85   3.415   2.504   3.649
    1C        C   86   3.623   2.509   3.771
    1C        C   87   3.482   2.499   3.773
    1C        C   88   3.693   2.521   3.893
    1C        C   89   3.626   2.514   4.018
    1C        C   90   3.834   2.559   4.135
    1C        C   91   3.698   2.518   4.139
    1C        C   92   3.900   2.584   4.257
    1C        C   93   3.836   2.554   4.380
    1C        C   94   4.030   2.639   4.498
    1C        C   95   3.906   2.572   4.501
    1C        C   96   4.094   2.672   4.620
    1C        C   97   4.035   2.628   4.740
    1C        C   98   4.193   2.766   4.863
    1C        C   99   4.098   2.659   4.864
    1C        C  100   4.218   2.844   4.977
    1C        C  101   2.826   2.728   2.070
    1C        C  102   2.991   2.592   2.191
    1C        C  103   2.874   2.676   2.190
    1C        C  104   3.065   2.580   2.312
    1C        C  105   3.002   2.617   2.433
    1C        C  106   3.199   2.534   2.555
    1C        C  107   3.066   2.581   2.554
    1C        C  108   3.272   2.524   2.676
    1C        C  109   3.200   2.540   2.796
    1C        C  110   3.411   2.504   2.914
    1C        C  111   3.271   2.524   2.917
    1C        C  112   3.485   2.502   3.034
    1C        C  113   3.417   2.512   3.158
    1C        C  114   3.626   2.507   3.284
    1C        C  115   3.485   2.505   3.281
    1C        C  116   3.697   2.513   3.405
    1C        C  117   3.626   2.508   3.527
    1C        C  118   3.832   2.552   3.648
    1C        C  119   3.695   2.518   3.650
    1C        C  120   3.899   2.576   3.770
    1C        C  121   3.831   2.552   3.892
    1C        C  122   4.027   2.642   4.013
    1C        C  123   3.900   2.582   4.012
    1C        C  124   4.092   2.677   4.134
    1C        C  125   4.028   2.642   4.255
    1C        C  126   4.203   2.764   4.378
    1C        C  127   4.088   2.681   4.377
    1C        C  128   4.249   2.817   4.500
    1C        C  129   4.201   2.764   4.622
    1C        C  130   4.328   2.936   4.742
    1C        C  131   4.247   2.820   4.743
    1C        C  132   4.362   3.003   4.862
    1C        C  133   4.294   2.960   4.976
    1C        C  134   3.174   2.466   2.088
    1C        C  135   3.043   2.515   2.083
    1C        C  136   3.262   2.481   2.196
    1C        C  137   3.195   2.524   2.313
    1C        C  138   3.406   2.487   2.431
    1C        C  139   3.267   2.510   2.434
    1C        C  140   3.482   2.492   2.550
    1C        C  141   3.411   2.501   2.671
    1C        C  142   3.624   2.499   2.792
    1C        C  143   3.483   2.494   2.793
    1C        C  144   3.695   2.511   2.914
    1C        C  145   3.626   2.503   3.037
    1C        C  146   3.830   2.556   3.157
    1C        C  147   3.693   2.519   3.160
    1C        C  148   3.898   2.578   3.279
    1C        C  149   3.834   2.550   3.402
    1C        C  150   4.028   2.631   3.524
    1C        C  151   3.899   2.573   3.525
    1C        C  152   4.087   2.671   3.646
    1C        C  153   4.025   2.639   3.769
    1C        C  154   4.199   2.763   3.886
    1C        C  155   4.087   2.677   3.890
    1C        C  156   4.251   2.810   4.008
    1C        C  157   4.203   2.764   4.133
    1C        C  158   4.344   2.921   4.255
    1C        C  159   4.256   2.811   4.255
    1C        C  160   4.375   2.987   4.376
    1C        C  161   4.329   2.934   4.498
    1C        C  162   4.439   3.116   4.616
    1C        C  163   4.371   2.993   4.620
    1C        C  164   4.469   3.186   4.735
    1C        C  165   4.436   3.123   4.857
    1C        C  166   4.518   3.320   4.973
    1C        C  167   4.483   3.186   4.973
    1C        C  168   3.475   2.436   2.075
    1C        C  169   3.402   2.459   2.192
    1C        C  170   3.620   2.476   2.306
    1C        C  171   3.478   2.468   2.310
    1C        C  172   3.693   2.494   2.425
    1C        C  173   3.623   2.495   2.548
    1C        C  174   3.829   2.551   2.668
    1C        C  175   3.693   2.514   2.670
    1C        C  176   3.897   2.570   2.791
    1C        C  177   3.831   2.548   2.913
    1C        C  178   4.027   2.631   3.035
    1C        C  179   3.899   2.572   3.035
    1C        C  180   4.089   2.671   3.156
    1C        C  181   4.026   2.637   3.278
    1C        C  182   4.202   2.752   3.400
    1C        C  183   4.088   2.669   3.402
    1C        C  184   4.253   2.806   3.521
    1C        C  185   4.201   2.754   3.642
    1C        C  186   4.345   2.913   3.766
    1C        C  187   4.253   2.806   3.762
    1C        C  188   4.384   2.974   3.887
    1C        C  189   4.340   2.920   4.009
    1C        C  190   4.451   3.102   4.129
    1C        C  191   4.382   2.978   4.131
    1C        C  192   4.477   3.172   4.249
    1C        C  193   4.449   3.107   4.372
    1C        C  194   4.509   3.314   4.492
    1C        C  195   4.473   3.177   4.493
    1C        C  196   4.524   3.389   4.611
    1C        C  197   4.508   3.323   4.735
    1C        C  198   4.557   3.536   4.853
    1C        C  199   4.531   3.395   4.855
    1C        C  200   4.592   3.621   4.962
    1C        C  201   3.615   2.426   2.071
    1C        C  202   3.826   2.522   2.184
    1C        C  203   3.692   2.472   2.183
    1C        C  204   3.896   2.552   2.304
    1C        C  205   3.831   2.524   2.426
    1C        C  206   4.026   2.619   2.544
    1C        C  207   3.899   2.556   2.545
    1C        C  208   4.087   2.658   2.666
    1C        C  209   4.026   2.629   2.790
    1C        C  210   4.203   2.746   2.909
    1C        C  211   4.087   2.665   2.912
    1C        C  212   4.258   2.793   3.030
    1C        C  213   4.204   2.753   3.154
    1C        C  214   4.344   2.908   3.277
    1C        C  215   4.255   2.798   3.278
    1C        C  216   4.384   2.972   3.397
    1C        C  217   4.339   2.918   3.519
    1C        C  218   4.438   3.102   3.641
    1C        C  219   4.378   2.975   3.643
    1C        C  220   4.470   3.166   3.763
    1C        C  221   4.446   3.101   3.887
    1C        C  222   4.502   3.308   4.005
    1C        C  223   4.472   3.170   4.007
    1C        C  224   4.513   3.381   4.125
    1C        C  225   4.506   3.310   4.247
    1C        C  226   4.512   3.523   4.369
    1C        C  227   4.513   3.382   4.369
    1C        C  228   4.518   3.599   4.488
    1C        C  229   4.530   3.530   4.611
    1C        C  230   4.498   3.743   4.729
    1C        C  231   4.530   3.605   4.731
    1C        C  232   4.493   3.820   4.847
    1C        C  233   4.544   3.753   4.959
    1C        C  234   4.023   2.607   2.066
    1C        C  235   3.897   2.549   2.066
    1C        C  236   4.089   2.648   2.183
    1C        C  237   4.026   2.608   2.303
    1C        C  238   4.205   2.733   2.423
    1C        C  239   4.090   2.650   2.422
    1C        C  240   4.254   2.788   2.544
    1C        C  241   4.202   2.739   2.666
    1C        C  242   4.344   2.902   2.787
    1C        C  243   4.255   2.792   2.786
    1C        C  244   4.380   2.962   2.909
    1C        C  245   4.345   2.904   3.033
    1C        C  246   4.448   3.091   3.150
    1C        C  247   4.385   2.964   3.154
    1C        C  248   4.462   3.164   3.270
    1C        C  249   4.441   3.101   3.395
    1C        C  250   4.509   3.300   3.517
    1C        C  251   4.468   3.165   3.518
    1C        C  252   4.516   3.373   3.638
    1C        C  253   4.500   3.304   3.760
    1C        C  254   4.518   3.518   3.881
    1C        C  255   4.511   3.376   3.881
    1C        C  256   4.518   3.591   4.002
    1C        C  257   4.517   3.522   4.125
    1C        C  258   4.493   3.734   4.245
    1C        C  259   4.506   3.594   4.247
    1C        C  260   4.467   3.804   4.366
    1C        C  261   4.488   3.737   4.488
    1C        C  262   4.420   3.942   4.602
    1C        C  263   4.473   3.811   4.607
    1C        C  264   4.401   4.013   4.723
    1C        C  265   4.434   3.948   4.844
    1C        C  266   4.317   4.134   4.960
    1C        C  267   4.391   4.016   4.959
    1C        C  268   4.268   2.773   2.064
    1C        C  269   4.204   2.730   2.181
    1C        C  270   4.351   2.888   2.300
    1C        C  271   4.258   2.780   2.301
    1C        C  272   4.390   2.952   2.420
    1C        C  273   4.348   2.893   2.542
    1C        C  274   4.446   3.084   2.662
    1C        C  275   4.385   2.956   2.663
    1C        C  276   4.478   3.150   2.783
    1C        C  277   4.449   3.086   2.905
    1C        C  278   4.503   3.293   3.027
    1C        C  279   4.472   3.155   3.026
    1C        C  280   4.516   3.365   3.148
    1C        C  281   4.502   3.300   3.273
    1C        C  282   4.521   3.511   3.390
    1C        C  283   4.517   3.370   3.395
    1C        C  284   4.510   3.582   3.511
    1C        C  285   4.515   3.514   3.635
    1C        C  286   4.491   3.725   3.755
    1C        C  287   4.513   3.586   3.757
    1C        C  288   4.470   3.793   3.877
    1C        C  289   4.490   3.730   4.001
    1C        C  290   4.427   3.934   4.117
    1C        C  291   4.476   3.802   4.122
    1C        C  292   4.396   4.001   4.237
    1C        C  293   4.423   3.938   4.361
    1C        C  294   4.328   4.132   4.480
    1C        C  295   4.397   4.009   4.480
    1C        C  296   4.289   4.193   4.601
    1C        C  297   4.333   4.137   4.724
    1C        C  298   4.204   4.319   4.838
    1C        C  299   4.284   4.201   4.841
    1C        C  300   4.168   4.401   4.951
    1C        C  301   4.357   2.881   2.064
    1C        C  302   4.472   3.070   2.178
    1C        C  303   4.402   2.945   2.180
    1C        C  304   4.488   3.142   2.299
    1C        C  305   4.455   3.077   2.420
    1C        C  306   4.510   3.285   2.537
    1C        C  307   4.480   3.147   2.540
    1C        C  308   4.521   3.356   2.658
    1C        C  309   4.505   3.289   2.781
    1C        C  310   4.522   3.500   2.899
    1C        C  311   4.514   3.359   2.903
    1C        C  312   4.510   3.574   3.020
    1C        C  313   4.512   3.506   3.143
    1C        C  314   4.487   3.716   3.263
    1C        C  315   4.512   3.577   3.265
    1C        C  316   4.467   3.785   3.385
    1C        C  317   4.487   3.722   3.510
    1C        C  318   4.425   3.925   3.629
    1C        C  319   4.476   3.793   3.631
    1C        C  320   4.391   3.989   3.750
    1C        C  321   4.417   3.925   3.873
    1C        C  322   4.317   4.114   3.990
    1C        C  323   4.392   3.994   3.994
    1C        C  324   4.281   4.175   4.112
    1C        C  325   4.324   4.122   4.236
    1C        C  326   4.186   4.287   4.356
    1C        C  327   4.284   4.185   4.356
    1C        C  328   4.137   4.343   4.477
    1C        C  329   4.194   4.297   4.598
    1C        C  330   4.023   4.433   4.716
    1C        C  331   4.143   4.356   4.715
    1C        C  332   3.973   4.495   4.832
    1C        C  333   4.054   4.482   4.946
    1C        C  334   4.555   3.270   2.060
    1C        C  335   4.539   3.131   2.067
    1C        C  336   4.539   3.350   2.174
    1C        C  337   4.517   3.281   2.296
    1C        C  338   4.522   3.498   2.413
    1C        C  339   4.519   3.356   2.415
    1C        C  340   4.519   3.569   2.535
    1C        C  341   4.520   3.498   2.657
    1C        C  342   4.493   3.710   2.773
    1C        C  343   4.517   3.571   2.777
    1C        C  344   4.476   3.781   2.894
    1C        C  345   4.486   3.713   3.018
    1C        C  346   4.416   3.913   3.139
    1C        C  347   4.471   3.783   3.140
    1C        C  348   4.388   3.979   3.261
    1C        C  349   4.419   3.918   3.384
    1C        C  350   4.321   4.107   3.504
    1C        C  351   4.395   3.986   3.506
    1C        C  352   4.272   4.164   3.623
    1C        C  353   4.317   4.109   3.746
    1C        C  354   4.182   4.275   3.868
    1C        C  355   4.277   4.170   3.867
    1C        C  356   4.131   4.323   3.990
    1C        C  357   4.185   4.279   4.113
    1C        C  358   4.015   4.408   4.229
    1C        C  359   4.134   4.332   4.233
    1C        C  360   3.957   4.452   4.350
    1C        C  361   4.022   4.424   4.473
    1C        C  362   3.829   4.516   4.593
    1C        C  363   3.960   4.463   4.594
    1C        C  364   3.766   4.551   4.714
    1C        C  365   3.843   4.552   4.832
    1C        C  366   3.632   4.596   4.950
    1C        C  367   3.770   4.575   4.949
    1C        C  368   4.518   3.564   2.054
    1C        C  369   4.528   3.490   2.173
    1C        C  370   4.494   3.707   2.288
    1C        C  371   4.517   3.568   2.291
    1C        C  372   4.478   3.778   2.409
    1C        C  373   4.493   3.708   2.531
    1C        C  374   4.422   3.911   2.649
    1C        C  375   4.474   3.780   2.652
    1C        C  376   4.391   3.974   2.772
    1C        C  377   4.422   3.912   2.895
    1C        C  378   4.318   4.099   3.016
    1C        C  379   4.390   3.977   3.016
    1C        C  380   4.272   4.157   3.136
    1C        C  381   4.315   4.100   3.258
    1C        C  382   4.174   4.257   3.379
    1C        C  383   4.276   4.159   3.381
    1C        C  384   4.123   4.312   3.499
    1C        C  385   4.178   4.269   3.622
    1C        C  386   4.015   4.402   3.743
    1C        C  387   4.129   4.319   3.744
    1C        C  388   3.950   4.435   3.865
    1C        C  389   4.012   4.400   3.987
    1C        C  390   3.822   4.496   4.109
    1C        C  391   3.953   4.442   4.107
    1C        C  392   3.755   4.523   4.231
    1C        C  393   3.827   4.507   4.351
    1C        C  394   3.619   4.551   4.476
    1C        C  395   3.759   4.536   4.472
    1C        C  396   3.550   4.564   4.599
    1C        C  397   3.626   4.569   4.718
    1C        C  398   3.412   4.552   4.842
    1C        C  399   3.551   4.573   4.838
    1C        C  400   3.346   4.522   4.962
    1C        C  401   4.505   3.703   2.053
    1C        C  402   4.452   3.917   2.165
    1C        C  403   4.490   3.781   2.168
    1C        C  404   4.414   3.981   2.285
    1C        C  405   4.433   3.912   2.407
    1C        C  406   4.322   4.097   2.527
    1C        C  407   4.392   3.974   2.527
    1C        C  408   4.282   4.155   2.650
    1C        C  409   4.318   4.095   2.772
    1C        C  410   4.177   4.256   2.889
    1C        C  411   4.274   4.153   2.893
    1C        C  412   4.126   4.305   3.011
    1C        C  413   4.176   4.260   3.136
    1C        C  414   4.003   4.383   3.254
    1C        C  415   4.120   4.305   3.258
    1C        C  416   3.945   4.424   3.376
    1C        C  417   4.008   4.395   3.499
    1C        C  418   3.819   4.488   3.621
    1C        C  419   3.949   4.432   3.622
    1C        C  420   3.751   4.507   3.744
    1C        C  421   3.817   4.484   3.866
    1C        C  422   3.613   4.542   3.987
    1C        C  423   3.751   4.511   3.988
    1C        C  424   3.544   4.540   4.110
    1C        C  425   3.615   4.540   4.233
    1C        C  426   3.405   4.546   4.359
    1C        C  427   3.546   4.552   4.355
    1C        C  428   3.336   4.542   4.483
    1C        C  429   3.409   4.555   4.603
    1C        C  430   3.197   4.516   4.722
    1C        C  431   3.336   4.546   4.723
    1C        C  432   3.130   4.499   4.847
    1C        C  433   3.211   4.491   4.961
    1C        C  434   4.387   4.124   2.050
    1C        C  435   4.448   3.998   2.051
    1C        C  436   4.304   4.164   2.161
    1C        C  437   4.335   4.099   2.284
    1C        C  438   4.186   4.254   2.401
    1C        C  439   4.287   4.155   2.404
    1C        C  440   4.129   4.300   2.522
    1C        C  441   4.183   4.256   2.645
    1C        C  442   4.007   4.380   2.768
    1C        C  443   4.125   4.302   2.766
    1C        C  444   3.945   4.417   2.890
    1C        C  445   4.007   4.381   3.011
    1C        C  446   3.816   4.481   3.132
    1C        C  447   3.942   4.418   3.131
    1C        C  448   3.749   4.507   3.254
    1C        C  449   3.818   4.486   3.376
    1C        C  450   3.613   4.533   3.498
    1C        C  451   3.753   4.511   3.499
    1C        C  452   3.544   4.542   3.621
    1C        C  453   3.614   4.541   3.743
    1C        C  454   3.402   4.544   3.866
    1C        C  455   3.543   4.553   3.865
    1C        C  456   3.337   4.533   3.990
    1C        C  457   3.403   4.542   4.114
    1C        C  458   3.198   4.499   4.237
    1C        C  459   3.335   4.533   4.237
    1C        C  460   3.129   4.486   4.360
    1C        C  461   3.198   4.510   4.481
    1C        C  462   2.998   4.434   4.604
    1C        C  463   3.127   4.492   4.602
    1C        C  464   2.936   4.397   4.725
    1C        C  465   2.998   4.442   4.845
    1C        C  466   2.811   4.335   4.961
    1C        C  467   2.911   4.433   4.958
    1C        C  468   4.119   4.282   2.042
    1C        C  469   4.188   4.247   2.159
    1C        C  470   4.008   4.370   2.282
    1C        C  471   4.129   4.296   2.279
    1C        C  472   3.947   4.412   2.403
    1C        C  473   4.011   4.378   2.524
    1C        C  474   3.817   4.467   2.645
    1C        C  475   3.947   4.412   2.645
    1C        C  476   3.749   4.498   2.765
    1C        C  477   3.816   4.475   2.887
    1C        C  478   3.610   4.523   3.010
    1C        C  479   3.749   4.499   3.009
    1C        C  480   3.539   4.533   3.132
    1C        C  481   3.610   4.529   3.254
    1C        C  482   3.400   4.539   3.380
    1C        C  483   3.541   4.539   3.376
    1C        C  484   3.331   4.531   3.503
    1C        C  485   3.403   4.540   3.624
    1C        C  486   3.194   4.498   3.747
    1C        C  487   3.329   4.540   3.745
    1C        C  488   3.131   4.477   3.871
    1C        C  489   3.200   4.498   3.993
    1C        C  490   3.005   4.414   4.116
    1C        C  491   3.132   4.474   4.115
    1C        C  492   2.945   4.381   4.240
    1C        C  493   3.004   4.421   4.362
    1C        C  494   2.828   4.304   4.483
    1C        C  495   2.937   4.393   4.484
    1C        C  496   2.773   4.258   4.605
    1C        C  497   2.821   4.313   4.726
    1C        C  498   2.666   4.167   4.850
    1C        C  499   2.760   4.272   4.846
    1C        C  500   2.599   4.118   4.962
    1C        C  501   4.000   4.354   2.040
    1C        C  502   3.817   4.462   2.159
    1C        C  503   3.942   4.397   2.160
    1C        C  504   3.747   4.485   2.279
    1C        C  505   3.816   4.465   2.401
    1C        C  506   3.608   4.506   2.523
    1C        C  507   3.748   4.484   2.523
    1C        C  508   3.537   4.519   2.645
    1C        C  509   3.610   4.523   2.765
    1C        C  510   3.398   4.525   2.887
    1C        C  511   3.540   4.532   2.887
    1C        C  512   3.327   4.522   3.009
    1C        C  513   3.397   4.534   3.131
    1C        C  514   3.195   4.492   3.257
    1C        C  515   3.332   4.526   3.256
    1C        C  516   3.127   4.472   3.379
    1C        C  517   3.194   4.496   3.501
    1C        C  518   3.004   4.406   3.625
    1C        C  519   3.129   4.471   3.624
    1C        C  520   2.947   4.368   3.749
    1C        C  521   3.005   4.412   3.870
    1C        C  522   2.837   4.287   3.998
    1C        C  523   2.947   4.375   3.993
    1C        C  524   2.787   4.236   4.119
    1C        C  525   2.836   4.291   4.239
    1C        C  526   2.699   4.133   4.366
    1C        C  527   2.779   4.249   4.362
    1C        C  528   2.658   4.078   4.489
    1C        C  529   2.688   4.145   4.610
    1C        C  530   2.584   3.963   4.733
    1C        C  531   2.644   4.092   4.732
    1C        C  532   2.541   3.906   4.856
    1C        C  533   2.529   3.997   4.965
    1C        C  534   3.623   4.566   2.044
    1C        C  535   3.753   4.513   2.044
    1C        C  536   3.540   4.536   2.157
    1C        C  537   3.608   4.514   2.280
    1C        C  538   3.396   4.518   2.400
    1C        C  539   3.537   4.521   2.402
    1C        C  540   3.326   4.508   2.522
    1C        C  541   3.396   4.517   2.645
    1C        C  542   3.186   4.485   2.765
    1C        C  543   3.325   4.513   2.767
    1C        C  544   3.123   4.461   2.889
    1C        C  545   3.192   4.484   3.011
    1C        C  546   3.004   4.396   3.137
    1C        C  547   3.128   4.464   3.135
    1C        C  548   2.946   4.358   3.260
    1C        C  549   3.004   4.402   3.382
    1C        C  550   2.832   4.280   3.508
    1C        C  551   2.943   4.367   3.504
    1C        C  552   2.783   4.232   3.632
    1C        C  553   2.838   4.278   3.754
    1C        C  554   2.699   4.121   3.878
    1C        C  555   2.790   4.229   3.877
    1C        C  556   2.658   4.065   4.001
    1C        C  557   2.697   4.127   4.122
    1C        C  558   2.596   3.944   4.248
    1C        C  559   2.660   4.070   4.246
    1C        C  560   2.564   3.883   4.371
    1C        C  561   2.597   3.950   4.491
    1C        C  562   2.530   3.752   4.616
    1C        C  563   2.564   3.889   4.614
    1C        C  564   2.516   3.687   4.740
    1C        C  565   2.516   3.765   4.859
    1C        C  566   2.533   3.552   4.977
    1C        C  567   2.518   3.690   4.977
    1C        C  568   3.330   4.474   2.042
    1C        C  569   3.400   4.512   2.157
    1C        C  570   3.188   4.470   2.282
    1C        C  571   3.326   4.505   2.278
    1C        C  572   3.116   4.461   2.403
    1C        C  573   3.187   4.488   2.522
    1C        C  574   2.989   4.405   2.649
    1C        C  575   3.118   4.464   2.643
    1C        C  576   2.932   4.363   2.771
    1C        C  577   2.997   4.397   2.892
    1C        C  578   2.829   4.275   3.018
    1C        C  579   2.939   4.363   3.016
    1C        C  580   2.785   4.219   3.141
    1C        C  581   2.836   4.270   3.263
    1C        C  582   2.691   4.121   3.385
    1C        C  583   2.781   4.229   3.386
    1C        C  584   2.654   4.063   3.508
    1C        C  585   2.698   4.119   3.630
    1C        C  586   2.595   3.939   3.757
    1C        C  587   2.661   4.063   3.755
    1C        C  588   2.567   3.874   3.880
    1C        C  589   2.596   3.938   4.003
    1C        C  590   2.536   3.739   4.129
    1C        C  591   2.569   3.877   4.127
    1C        C  592   2.528   3.672   4.253
    1C        C  593   2.534   3.745   4.374
    1C        C  594   2.517   3.536   4.501
    1C        C  595   2.519   3.677   4.497
    1C        C  596   2.524   3.468   4.625
    1C        C  597   2.519   3.544   4.744
    1C        C  598   2.529   3.329   4.863
    1C        C  599   2.528   3.470   4.863
    1C        C  600   2.531   3.251   4.979
    1C        C  601   3.198   4.436   2.047
    1C        C  602   2.984   4.390   2.161
    1C        C  603   3.117   4.442   2.162
    1C        C  604   2.926   4.358   2.287
    1C        C  605   2.989   4.399   2.406
    1C        C  606   2.821   4.273   2.530
    1C        C  607   2.927   4.367   2.529
    1C        C  608   2.771   4.220   2.651
    1C        C  609   2.826   4.270   2.772
    1C        C  610   2.688   4.116   2.898
    1C        C  611   2.778   4.224   2.897
    1C        C  612   2.649   4.055   3.019
    1C        C  613   2.694   4.111   3.141
    1C        C  614   2.589   3.931   3.268
    1C        C  615   2.652   4.057   3.265
    1C        C  616   2.567   3.869   3.393
    1C        C  617   2.590   3.937   3.514
    1C        C  618   2.529   3.734   3.638
    1C        C  619   2.565   3.871   3.637
    1C        C  620   2.518   3.667   3.762
    1C        C  621   2.529   3.738   3.884
    1C        C  622   2.516   3.528   4.010
    1C        C  623   2.523   3.669   4.007
    1C        C  624   2.520   3.458   4.133
    1C        C  625   2.514   3.532   4.254
    1C        C  626   2.539   3.326   4.382
    1C        C  627   2.518   3.466   4.378
    1C        C  628   2.557   3.255   4.503
    1C        C  629   2.543   3.328   4.623
    1C        C  630   2.598   3.121   4.746
    1C        C  631   2.553   3.256   4.744
    1C        C  632   2.617   3.049   4.868
    1C        C  633   2.561   3.114   4.982
    1C        C  634   2.780   4.309   2.060
    1C        C  635   2.891   4.394   2.052
    1C        C  636   2.747   4.232   2.172
    1C        C  637   2.809   4.278   2.290
    1C        C  638   2.677   4.110   2.413
    1C        C  639   2.763   4.222   2.411
    1C        C  640   2.632   4.054   2.535
    1C        C  641   2.679   4.113   2.654
    1C        C  642   2.584   3.926   2.779
    1C        C  643   2.647   4.053   2.778
    1C        C  644   2.564   3.858   2.901
    1C        C  645   2.591   3.926   3.022
    1C        C  646   2.525   3.728   3.150
    1C        C  647   2.566   3.863   3.146
    1C        C  648   2.515   3.659   3.272
    1C        C  649   2.535   3.731   3.392
    1C        C  650   2.516   3.523   3.520
    1C        C  651   2.522   3.664   3.516
    1C        C  652   2.520   3.455   3.643
    1C        C  653   2.512   3.526   3.765
    1C        C  654   2.543   3.319   3.893
    1C        C  655   2.513   3.457   3.888
    1C        C  656   2.556   3.249   4.015
    1C        C  657   2.541   3.319   4.137
    1C        C  658   2.606   3.122   4.258
    1C        C  659   2.556   3.254   4.262
    1C        C  660   2.630   3.056   4.381
    1C        C  661   2.602   3.121   4.503
    1C        C  662   2.711   2.940   4.627
    1C        C  663   2.630   3.056   4.625
    1C        C  664   2.749   2.877   4.748
    1C        C  665   2.696   2.930   4.868
    1C        C  666   2.744   2.875   4.988
    1C        C  667   2.675   4.027   2.056
    1C        C  668   2.688   4.103   2.172
    1C        C  669   2.590   3.913   2.293
    1C        C  670   2.642   4.046   2.292
    1C        C  671   2.560   3.851   2.417
    1C        C  672   2.577   3.924   2.537
    1C        C  673   2.522   3.721   2.662
    1C        C  674   2.554   3.858   2.659
    1C        C  675   2.514   3.648   2.783
    1C        C  676   2.531   3.721   2.904
    1C        C  677   2.507   3.516   3.030
    1C        C  678   2.510   3.657   3.028
    1C        C  679   2.509   3.448   3.154
    1C        C  680   2.509   3.518   3.276
    1C        C  681   2.536   3.310   3.402
    1C        C  682   2.514   3.449   3.400
    1C        C  683   2.558   3.246   3.526
    1C        C  684   2.539   3.315   3.648
    1C        C  685   2.605   3.115   3.771
    1C        C  686   2.556   3.247   3.771
    1C        C  687   2.641   3.051   3.892
    1C        C  688   2.609   3.118   4.013
    1C        C  689   2.708   2.934   4.140
    1C        C  690   2.638   3.057   4.137
    1C        C  691   2.750   2.879   4.263
    1C        C  692   2.706   2.937   4.384
    1C        C  693   2.750   2.880   4.506
    1C        C  694   2.623   3.897   2.058
    1C        C  695   2.535   3.701   2.178
    1C        C  696   2.584   3.834   2.177
    1C        C  697   2.513   3.640   2.303
    1C        C  698   2.523   3.715   2.422
    1C        C  699   2.488   3.507   2.543
    1C        C  700   2.500   3.647   2.544
    1C        C  701   2.498   3.436   2.665
    1C        C  702   2.499   3.508   2.786
    1C        C  703   2.527   3.302   2.912
    1C        C  704   2.503   3.441   2.911
    1C        C  705   2.551   3.237   3.036
    1C        C  706   2.532   3.308   3.157
    1C        C  707   2.604   3.110   3.281
    1C        C  708   2.552   3.242   3.280
    1C        C  709   2.632   3.047   3.404
    1C        C  710   2.609   3.114   3.526
    1C        C  711   2.715   2.933   3.650
    1C        C  712   2.637   3.051   3.650
    1C        C  713   2.757   2.874   3.771
    1C        C  714   2.716   2.932   3.894
    1C        C  715   2.752   2.877   4.019
    1C        C  716   2.450   3.500   2.069
    1C        C  717   2.495   3.633   2.062
    1C        C  718   2.462   3.420   2.187
    1C        C  719   2.487   3.500   2.302
    1C        C  720   2.516   3.291   2.426
    1C        C  721   2.490   3.430   2.425
    1C        C  722   2.538   3.224   2.548
    1C        C  723   2.524   3.297   2.668
    1C        C  724   2.596   3.099   2.794
    1C        C  725   2.545   3.231   2.791
    1C        C  726   2.627   3.038   2.917
    1C        C  727   2.601   3.105   3.039
    1C        C  728   2.711   2.924   3.162
    1C        C  729   2.636   3.043   3.161
    1C        C  730   2.756   2.873   3.286
    1C        C  731   2.710   2.929   3.407
    1C        C  732   2.756   2.874   3.528
    1C        C  733   2.495   3.199   2.073
    1C        C  734   2.490   3.280   2.187
    1C        C  735   2.583   3.084   2.306
    1C        C  736   2.525   3.214   2.308
    1C        C  737   2.614   3.022   2.429
    1C        C  738   2.588   3.092   2.549
    1C        C  739   2.699   2.913   2.673
    1C        C  740   2.627   3.035   2.672
    1C        C  741   2.740   2.856   2.796
    1C        C  742   2.705   2.920   2.916
    1C        C  743   2.751   2.866   3.039
    1C        C  744   2.549   3.071   2.073
    1C        C  745   2.684   2.895   2.186
    1C        C  746   2.611   3.016   2.186
    1C        C  747   2.729   2.840   2.308
    1C        C  748   2.693   2.904   2.429
    1C        C  749   2.740   2.853   2.552
    1C        C  750   2.739   2.837   2.071
    1C        C  751   3.666   2.326   1.974
    1C        O  752   3.736   2.226   2.001
    1C        O  753   3.705   2.374   1.848
    1C        C  754   4.640   3.062   1.984
    1C        O  755   4.600   3.022   1.872
    1C        O  756   4.775   3.099   1.982
    1C        C  757   4.420   4.211   1.936
    1C        O  758   4.522   4.284   1.941
    1C        O  759   4.355   4.184   1.815
    1C        C  760   3.598   4.672   1.944
    1C        O  761   3.615   4.796   1.951
    1C        O  762   3.594   4.638   1.808
    1C        C  763   2.877   4.518   1.972
    1C        O  764   2.893   4.503   1.847
    1C        O  765   2.790   4.627   1.978
    1C        C  766   2.339   3.472   1.975
    1C        O  767   2.360   3.439   1.856
    1C        O  768   2.216   3.538   1.988
    1C        C  769   4.698   3.588   5.061
    1C        O  770   4.674   3.520   5.164
    1C        O  771   4.797   3.680   5.096
    1C        C  772   4.246   4.413   5.076
    1C        O  773   4.196   4.393   5.190
    1C        O  774   4.323   4.529   5.096
    1C        C  775   4.137   2.533   5.083
    1C        O  776   4.150   2.409   5.102
    1C        O  777   4.123   2.579   5.214
    1C        C  778   2.904   4.545   5.054
    1C        O  779   2.832   4.648   5.040
    1C        O  780   2.929   4.528   5.191
    1C        C  781   2.478   3.040   5.080
    1C        O  782   2.370   2.983   5.050
    1C        O  783   2.486   3.065   5.217
    1C        C  784   2.412   3.993   5.056
    1C        O  785   2.307   4.054   5.025
    1C        O  786   2.443   3.955   5.187
    1C        C  787   2.952   2.428   2.005
    1C        O  788   2.975   2.389   1.888
    1C        O  789   2.877   2.337   2.079
    1C        C  790   3.164   2.352   5.033
    1C        O  791   3.099   2.266   4.968
    1C        O  792   3.231   2.298   5.143
    1C        H  793   4.267   3.030   5.053
    1C        H  794   4.222   2.794   5.072
    1C        H  795   4.543   3.126   5.038
    1C        H  796   4.473   3.378   5.051
    1C        H  797   4.550   3.803   5.053
    1C        H  798   4.408   3.973   5.055
    1C        H  799   4.295   4.173   5.057
    1C        H  800   4.041   4.554   5.024
    1C        H  801   3.815   4.550   5.043
    1C        H  802   3.595   4.671   5.016
    1C        H  803   3.401   4.514   5.053
    1C        H  804   3.169   4.454   5.052
    1C        H  805   3.903   2.452   5.050
    1C        H  806   3.678   2.477   5.075
    1C        H  807   2.996   2.553   5.063
    1C        H  808   3.443   2.459   5.074
    1C        H  809   2.883   2.757   5.083
    1C        H  810   2.722   2.924   5.081
    1C        H  811   2.537   3.301   5.074
    1C        H  812   2.582   3.512   5.064
    1C        H  813   2.547   3.739   5.067
    1C        H  814   2.605   4.175   5.053
    1C        H  815   2.748   4.332   5.048
    1C        H  816   2.733   2.883   1.975
    1C        H  817   2.886   2.721   1.981
    1C        H  818   3.207   2.418   1.998
    1C        H  819   3.423   2.444   1.982
    1C        H  820   3.881   2.489   1.979
    1C        H  821   4.071   2.611   1.971
    1C        H  822   4.259   2.717   1.974
    1C        H  823   4.426   2.883   1.983
    1C        H  824   4.578   3.311   1.964
    1C        H  825   4.460   3.518   1.978
    1C        H  826   4.487   3.739   1.954
    1C        H  827   3.803   4.526   1.951
    1C        H  828   3.954   4.368   1.945
    1C        H  829   4.126   4.212   1.961
    1C        H  830   4.525   3.985   1.977
    1C        H  831   2.622   3.847   1.963
    1C        H  832   2.697   4.068   1.959
    1C        H  833   2.712   4.317   1.978
    1C        H  834   3.360   4.523   1.951
    1C        H  835   3.163   4.385   1.960
    1C        H  836   2.564   3.020   1.980
    1C        H  837   2.421   3.219   1.998
    1C        H  838   2.487   3.686   1.970
    2V3OU   H29  839   2.803   3.552   6.121
    2V3OU   C27  840   2.784   3.503   6.220
    2V3OU   H27  841   2.725   3.570   6.287
    2V3OU   H28  842   2.728   3.405   6.214
    2V3OU   O11  843   2.910   3.474   6.280
    2V3OU   C15  844   2.920   3.402   6.397
    2V3OU   C13  845   3.053   3.374   6.436
    2V3OU   C14  846   3.081   3.265   6.519
    2V3OU   C16  847   2.975   3.189   6.564
    2V3OU    H6  848   2.988   3.104   6.634
    2V3OU   C12  849   3.220   3.230   6.557
    2V3OU    O2  850   3.236   3.128   6.629
    2V3OU   C10  851   3.332   3.305   6.500
    2V3OU    C8  852   3.465   3.263   6.508
    2V3OU   O10  853   3.495   3.162   6.595
    2V3OU   H26  854   3.409   3.123   6.617
    2V3OU    C6  855   3.567   3.345   6.452
    2V3OU    C5  856   3.537   3.463   6.384
    2V3OU    C4  857   3.708   3.297   6.446
    2V3OU    H4  858   3.730   3.230   6.534
    2V3OU    H5  859   3.713   3.232   6.353
    2V3OU    C2  860   3.820   3.400   6.445
    2V3OU    O6  861   3.809   3.474   6.567
    2V3OU   H21  862   3.770   3.561   6.547
    2V3OU    C3  863   3.778   3.495   6.332
    2V3OU    H2  864   3.856   3.575   6.329
    2V3OU    H3  865   3.783   3.445   6.232
    2V3OU   C25  866   3.956   3.331   6.434
    2V3OU    O7  867   4.000   3.298   6.324
    2V3OU   C26  868   4.037   3.292   6.556
    2V3OU   H22  869   4.059   3.387   6.612
    2V3OU   H23  870   4.128   3.236   6.523
    2V3OU    O8  871   3.963   3.207   6.642
    2V3OU   H24  872   3.925   3.263   6.712
    2V3OU    C1  873   3.643   3.563   6.348
    2V3OU    H1  874   3.623   3.621   6.253
    2V3OU    O3  875   3.661   3.659   6.452
    2V3OU   C19  876   3.618   3.794   6.431
    2V3OU    H9  877   3.526   3.794   6.365
    2V3OU    O4  878   3.721   3.849   6.352
    2V3OU   C20  879   3.852   3.871   6.404
    2V3OU   H10  880   3.898   3.769   6.420
    2V3OU   C24  881   3.611   3.858   6.570
    2V3OU   H16  882   3.544   3.799   6.639
    2V3OU   H17  883   3.568   3.958   6.542
    2V3OU   C23  884   3.751   3.876   6.627
    2V3OU   H15  885   3.795   3.771   6.637
    2V3OU    N1  886   3.739   3.957   6.747
    2V3OU   H19  887   3.814   3.927   6.807
    2V3OU   H20  888   3.654   3.937   6.796
    2V3OU   C21  889   3.850   3.952   6.534
    2V3OU   H11  890   3.957   3.929   6.563
    2V3OU    O5  891   3.825   4.091   6.550
    2V3OU   H18  892   3.784   4.104   6.637
    2V3OU   C22  893   3.915   3.950   6.291
    2V3OU   H12  894   3.867   4.051   6.280
    2V3OU   H13  895   3.910   3.889   6.197
    2V3OU   H14  896   4.026   3.959   6.304
    2V3OU   C11  897   3.161   3.470   6.407
    2V3OU    O1  898   3.128   3.586   6.375
    2V3OU    C9  899   3.299   3.428   6.438
    2V3OU    C7  900   3.399   3.503   6.377
    2V3OU    O9  901   3.380   3.618   6.304
    2V3OU   H25  902   3.284   3.629   6.305
    2V3OU   C17  903   2.816   3.317   6.440
    2V3OU    H7  904   2.710   3.334   6.419
    2V3OU   C18  905   2.843   3.212   6.526
    2V3OU    H8  906   2.755   3.150   6.549
    3SOL     OW  907   2.959   3.393   4.650
    3SOL    HW1  908   2.954   3.484   4.609
    3SOL    HW2  909   2.948   3.400   4.749
    4SOL     OW  910   1.060   6.942   0.741
    4SOL    HW1  911   1.088   0.001   0.785
    4SOL    HW2  912   0.960   6.938   0.738
    5SOL     OW  913   4.142   2.200   0.685
    5SOL    HW1  914   4.153   2.250   0.771
    5SOL    HW2  915   4.060   2.142   0.690
    6SOL     OW  916   3.511   1.698   2.309
    6SOL    HW1  917   3.567   1.780   2.300
    6SOL    HW2  918   3.466   1.678   2.222
    7SOL     OW  919   2.374   2.725   4.786
    7SOL    HW1  920   2.435   2.646   4.793
    7SOL    HW2  921   2.361   2.750   4.690
    8SOL     OW  922   0.754   2.081   5.888
    8SOL    HW1  923   0.695   2.065   5.809
    8SOL    HW2  924   0.762   1.997   5.942
    9SOL     OW  925   1.966   2.242   5.835
    9SOL    HW1  926   2.021   2.160   5.824
    9SOL    HW2  927   1.874   2.225   5.800
   10SOL     OW  928   5.585   5.434   1.257
   10SOL    HW1  929   5.509   5.424   1.321
   10SOL    HW2  930   5.549   5.444   1.164
   11SOL     OW  931   3.440   1.559   0.430
   11SOL    HW1  932   3.357   1.504   0.417
   11SOL    HW2  933   3.520   1.506   0.400
   12SOL     OW  934   5.311   4.873   1.331
   12SOL    HW1  935   5.373   4.930   1.385
   12SOL    HW2  936   5.237   4.930   1.295
   13SOL     OW  937   5.080   5.890   1.801
   13SOL    HW1  938   5.082   5.897   1.702
   13SOL    HW2  939   5.150   5.826   1.832
   14SOL     OW  940   4.014   5.704   0.976
   14SOL    HW1  941   4.084   5.775   0.983
   14SOL    HW2  942   4.031   5.647   0.896
   15SOL     OW  943   0.914   6.903   6.706
   15SOL    HW1  944   0.992   6.900   6.643
   15SOL    HW2  945   0.880   6.811   6.721
   16SOL     OW  946   1.851   5.695   5.217
   16SOL    HW1  947   1.939   5.734   5.189
   16SOL    HW2  948   1.865   5.634   5.295
   17SOL     OW  949   0.288   1.943   3.711
   17SOL    HW1  950   0.351   1.890   3.655
   17SOL    HW2  951   0.297   1.916   3.807
   18SOL     OW  952   2.575   1.267   5.599
   18SOL    HW1  953   2.566   1.347   5.540
   18SOL    HW2  954   2.619   1.193   5.549
   19SOL     OW  955   2.904   5.334   3.008
   19SOL    HW1  956   2.924   5.236   3.011
   19SOL    HW2  957   2.919   5.368   2.915
   20SOL     OW  958   6.968   1.512   5.367
   20SOL    HW1  959   6.909   1.476   5.294
   20SOL    HW2  960   6.929   1.597   5.402
   21SOL     OW  961   1.081   3.487   1.724
   21SOL    HW1  962   1.135   3.518   1.802
   21SOL    HW2  963   0.998   3.442   1.756
   22SOL     OW  964   0.546   1.048   0.384
   22SOL    HW1  965   0.469   0.993   0.352
   22SOL    HW2  966   0.555   1.130   0.327
   23SOL     OW  967   6.628   5.148   6.717
   23SOL    HW1  968   6.677   5.062   6.701
   23SOL    HW2  969   6.649   5.183   6.808
   24SOL     OW  970   5.145   1.004   6.984
   24SOL    HW1  971   5.104   1.067   0.024
   24SOL    HW2  972   5.112   1.026   6.893
   25SOL     OW  973   1.389   0.831   4.909
   25SOL    HW1  974   1.342   0.840   4.996
   25SOL    HW2  975   1.433   0.918   4.886
   26SOL     OW  976   2.134   7.016   5.658
   26SOL    HW1  977   2.130   0.086   5.632
   26SOL    HW2  978   2.065   6.997   5.728
   27SOL     OW  979   0.151   6.807   2.891
   27SOL    HW1  980   0.123   6.902   2.873
   27SOL    HW2  981   0.171   6.796   2.988
   28SOL     OW  982   1.592   0.881   5.656
   28SOL    HW1  983   1.643   0.965   5.637
   28SOL    HW2  984   1.546   0.890   5.745
   29SOL     OW  985   5.757   0.877   1.344
   29SOL    HW1  986   5.814   0.897   1.423
   29SOL    HW2  987   5.809   0.893   1.260
   30SOL     OW  988   4.244   0.296   4.469
   30SOL    HW1  989   4.311   0.367   4.492
   30SOL    HW2  990   4.241   0.286   4.369
   31SOL     OW  991   6.188   4.767   4.907
   31SOL    HW1  992   6.229   4.751   4.818
   31SOL    HW2  993   6.253   4.812   4.968
   32SOL     OW  994   3.080   1.375   1.110
   32SOL    HW1  995   3.142   1.308   1.149
   32SOL    HW2  996   2.985   1.343   1.118
   33SOL     OW  997   1.639   4.584   6.056
   33SOL    HW1  998   1.586   4.659   6.017
   33SOL    HW2  999   1.669   4.523   5.982
   34SOL     OW 1000   2.605   6.455   5.224
   34SOL    HW1 1001   2.541   6.382   5.200
   34SOL    HW2 1002   2.577   6.495   5.312
   35SOL     OW 1003   1.534   2.442   4.438
   35SOL    HW1 1004   1.625   2.406   4.457
   35SOL    HW2 1005   1.505   2.413   4.346
   36SOL     OW 1006   5.636   1.298   4.249
   36SOL    HW1 1007   5.558   1.352   4.282
   36SOL    HW2 1008   5.603   1.218   4.200
   37SOL     OW 1009   1.742   6.613   4.719
   37SOL    HW1 1010   1.704   6.551   4.649
   37SOL    HW2 1011   1.688   6.697   4.721
   38SOL     OW 1012   0.841   3.381   1.051
   38SOL    HW1 1013   0.814   3.286   1.035
   38SOL    HW2 1014   0.889   3.416   0.970
   39SOL     OW 1015   6.589   5.295   1.297
   39SOL    HW1 1016   6.628   5.210   1.262
   39SOL    HW2 1017   6.490   5.294   1.282
   40SOL     OW 1018   4.090   0.758   6.930
   40SOL    HW1 1019   4.064   0.725   6.840
   40SOL    HW2 1020   4.094   0.858   6.929
   41SOL     OW 1021   5.852   3.854   1.641
   41SOL    HW1 1022   5.802   3.892   1.563
   41SOL    HW2 1023   5.790   3.842   1.718
   42SOL     OW 1024   2.616   3.832   0.279
   42SOL    HW1 1025   2.542   3.893   0.310
   42SOL    HW2 1026   2.702   3.860   0.322
   43SOL     OW 1027   4.864   0.523   3.834
   43SOL    HW1 1028   4.868   0.441   3.891
   43SOL    HW2 1029   4.913   0.597   3.879
   44SOL     OW 1030   6.913   0.582   6.988
   44SOL    HW1 1031   6.856   0.598   0.042
   44SOL    HW2 1032   6.962   0.495   6.999
   45SOL     OW 1033   2.470   3.900   5.847
   45SOL    HW1 1034   2.468   3.990   5.891
   45SOL    HW2 1035   2.562   3.861   5.855
   46SOL     OW 1036   1.479   4.234   4.621
   46SOL    HW1 1037   1.422   4.268   4.696
   46SOL    HW2 1038   1.571   4.215   4.655
   47SOL     OW 1039   6.595   4.285   6.867
   47SOL    HW1 1040   6.577   4.191   6.837
   47SOL    HW2 1041   6.677   4.320   6.821
   48SOL     OW 1042   0.400   4.302   0.134
   48SOL    HW1 1043   0.479   4.248   0.104
   48SOL    HW2 1044   0.404   4.315   0.233
   49SOL     OW 1045   3.071   1.235   6.689
   49SOL    HW1 1046   3.130   1.167   6.733
   49SOL    HW2 1047   3.099   1.327   6.717
   50SOL     OW 1048   5.221   2.540   6.077
   50SOL    HW1 1049   5.217   2.444   6.107
   50SOL    HW2 1050   5.163   2.596   6.136
   51SOL     OW 1051   1.620   6.272   1.843
   51SOL    HW1 1052   1.661   6.317   1.764
   51SOL    HW2 1053   1.536   6.321   1.869
   52SOL     OW 1054   5.803   2.455   2.510
   52SOL    HW1 1055   5.870   2.527   2.490
   52SOL    HW2 1056   5.776   2.409   2.426
   53SOL     OW 1057   4.168   0.294   0.623
   53SOL    HW1 1058   4.217   0.375   0.588
   53SOL    HW2 1059   4.153   0.305   0.721
   54SOL     OW 1060   0.075   0.986   6.260
   54SOL    HW1 1061   0.124   0.908   6.299
   54SOL    HW2 1062   0.078   1.063   6.324
   55SOL     OW 1063   2.065   3.073   6.267
   55SOL    HW1 1064   2.153   3.034   6.293
   55SOL    HW2 1065   1.991   3.014   6.298
   56SOL     OW 1066   0.742   2.410   6.234
   56SOL    HW1 1067   0.745   2.318   6.272
   56SOL    HW2 1068   0.695   2.471   6.299
   57SOL     OW 1069   4.026   5.237   1.401
   57SOL    HW1 1070   3.966   5.211   1.476
   57SOL    HW2 1071   4.008   5.179   1.322
   58SOL     OW 1072   0.546   0.967   6.777
   58SOL    HW1 1073   0.573   1.063   6.775
   58SOL    HW2 1074   0.617   0.911   6.736
   59SOL     OW 1075   3.689   2.902   0.085
   59SOL    HW1 1076   3.727   2.825   0.137
   59SOL    HW2 1077   3.750   2.924   0.009
   60SOL     OW 1078   6.396   2.896   2.563
   60SOL    HW1 1079   6.442   2.820   2.607
   60SOL    HW2 1080   6.306   2.866   2.530
   61SOL     OW 1081   1.645   5.463   2.840
   61SOL    HW1 1082   1.560   5.507   2.812
   61SOL    HW2 1083   1.706   5.456   2.761
   62SOL     OW 1084   4.948   3.046   3.677
   62SOL    HW1 1085   5.048   3.038   3.671
   62SOL    HW2 1086   4.909   3.039   3.585
   63SOL     OW 1087   4.024   6.942   6.431
   63SOL    HW1 1088   4.029   6.915   6.527
   63SOL    HW2 1089   3.985   6.867   6.378
   64SOL     OW 1090   1.966   2.280   6.636
   64SOL    HW1 1091   1.913   2.300   6.553
   64SOL    HW2 1092   2.033   2.353   6.650
   65SOL     OW 1093   0.477   5.323   5.265
   65SOL    HW1 1094   0.460   5.259   5.191
   65SOL    HW2 1095   0.437   5.412   5.242
   66SOL     OW 1096   4.409   1.133   1.115
   66SOL    HW1 1097   4.401   1.034   1.121
   66SOL    HW2 1098   4.459   1.158   1.032
   67SOL     OW 1099   0.195   3.428   1.845
   67SOL    HW1 1100   0.165   3.333   1.846
   67SOL    HW2 1101   0.267   3.441   1.913
   68SOL     OW 1102   1.227   1.088   6.380
   68SOL    HW1 1103   1.199   1.075   6.475
   68SOL    HW2 1104   1.152   1.062   6.319
   69SOL     OW 1105   1.625   0.239   6.191
   69SOL    HW1 1106   1.615   0.246   6.290
   69SOL    HW2 1107   1.660   0.326   6.154
   70SOL     OW 1108   4.345   5.128   3.229
   70SOL    HW1 1109   4.412   5.182   3.177
   70SOL    HW2 1110   4.258   5.127   3.179
   71SOL     OW 1111   5.727   1.154   5.016
   71SOL    HW1 1112   5.793   1.184   5.085
   71SOL    HW2 1113   5.638   1.195   5.037
   72SOL     OW 1114   6.846   1.136   2.546
   72SOL    HW1 1115   6.867   1.150   2.643
   72SOL    HW2 1116   6.849   1.038   2.525
   73SOL     OW 1117   3.203   1.111   1.076
   73SOL    HW1 1118   3.263   1.169   1.132
   73SOL    HW2 1119   3.250   1.026   1.054
   74SOL     OW 1120   2.640   0.768   0.361
   74SOL    HW1 1121   2.670   0.736   0.271
   74SOL    HW2 1122   2.629   0.867   0.360
   75SOL     OW 1123   2.623   2.698   1.691
   75SOL    HW1 1124   2.550   2.652   1.742
   75SOL    HW2 1125   2.637   2.790   1.728
   76SOL     OW 1126   3.546   5.375   6.539
   76SOL    HW1 1127   3.608   5.400   6.613
   76SOL    HW2 1128   3.498   5.290   6.563
   77SOL     OW 1129   6.639   4.909   4.744
   77SOL    HW1 1130   6.688   4.822   4.753
   77SOL    HW2 1131   6.679   4.962   4.669
   78SOL     OW 1132   5.459   1.412   1.514
   78SOL    HW1 1133   5.461   1.312   1.521
   78SOL    HW2 1134   5.381   1.440   1.459
   79SOL     OW 1135   1.770   4.151   4.321
   79SOL    HW1 1136   1.802   4.192   4.407
   79SOL    HW2 1137   1.683   4.193   4.295
   80SOL     OW 1138   3.878   2.356   5.392
   80SOL    HW1 1139   3.847   2.383   5.483
   80SOL    HW2 1140   3.809   2.298   5.349
   81SOL     OW 1141   2.755   4.743   3.419
   81SOL    HW1 1142   2.788   4.731   3.513
   81SOL    HW2 1143   2.657   4.724   3.416
   82SOL     OW 1144   3.168   0.562   1.655
   82SOL    HW1 1145   3.201   0.473   1.624
   82SOL    HW2 1146   3.236   0.632   1.634
   83SOL     OW 1147   5.980   1.976   3.964
   83SOL    HW1 1148   5.950   1.885   3.992
   83SOL    HW2 1149   5.906   2.042   3.979
   84SOL     OW 1150   5.161   2.115   2.975
   84SOL    HW1 1151   5.249   2.070   2.960
   84SOL    HW2 1152   5.176   2.212   2.997
   85SOL     OW 1153   2.587   5.392   3.875
   85SOL    HW1 1154   2.569   5.344   3.961
   85SOL    HW2 1155   2.660   5.459   3.889
   86SOL     OW 1156   5.079   0.939   0.440
   86SOL    HW1 1157   5.087   0.985   0.351
   86SOL    HW2 1158   4.990   0.894   0.446
   87SOL     OW 1159   2.722   2.823   0.347
   87SOL    HW1 1160   2.650   2.762   0.313
   87SOL    HW2 1161   2.699   2.918   0.323
   88SOL     OW 1162   1.640   1.814   1.190
   88SOL    HW1 1163   1.658   1.716   1.187
   88SOL    HW2 1164   1.580   1.834   1.268
   89SOL     OW 1165   3.989   3.732   4.868
   89SOL    HW1 1166   3.981   3.826   4.835
   89SOL    HW2 1167   4.085   3.712   4.888
   90SOL     OW 1168   0.035   3.533   2.709
   90SOL    HW1 1169   0.062   3.461   2.645
   90SOL    HW2 1170   6.991   3.590   2.666
   91SOL     OW 1171   4.454   5.251   0.526
   91SOL    HW1 1172   4.512   5.171   0.544
   91SOL    HW2 1173   4.485   5.327   0.583
   92SOL     OW 1174   5.921   5.957   6.623
   92SOL    HW1 1175   6.013   5.954   6.585
   92SOL    HW2 1176   5.925   5.985   6.720
   93SOL     OW 1177   3.257   3.599   1.734
   93SOL    HW1 1178   3.183   3.628   1.794
   93SOL    HW2 1179   3.222   3.530   1.669
   94SOL     OW 1180   3.058   1.177   4.052
   94SOL    HW1 1181   3.119   1.255   4.039
   94SOL    HW2 1182   3.051   1.126   3.966
   95SOL     OW 1183   1.119   6.167   4.602
   95SOL    HW1 1184   1.185   6.242   4.600
   95SOL    HW2 1185   1.148   6.096   4.538
   96SOL     OW 1186   0.037   6.294   6.914
   96SOL    HW1 1187   0.126   6.335   6.933
   96SOL    HW2 1188   0.008   6.319   6.821
   97SOL     OW 1189   4.032   4.911   4.830
   97SOL    HW1 1190   4.115   4.873   4.789
   97SOL    HW2 1191   4.023   5.007   4.803
   98SOL     OW 1192   0.496   2.385   4.786
   98SOL    HW1 1193   0.459   2.345   4.870
   98SOL    HW2 1194   0.476   2.483   4.784
   99SOL     OW 1195   4.453   4.636   4.533
   99SOL    HW1 1196   4.515   4.566   4.498
   99SOL    HW2 1197   4.394   4.669   4.458
  100SOL     OW 1198   1.297   1.871   4.944
  100SOL    HW1 1199   1.344   1.802   4.889
  100SOL    HW2 1200   1.358   1.950   4.956
  101SOL     OW 1201   5.219   2.779   2.316
  101SOL    HW1 1202   5.309   2.749   2.347
  101SOL    HW2 1203   5.196   2.732   2.230
  102SOL     OW 1204   3.906   6.567   0.469
  102SOL    HW1 1205   3.819   6.600   0.506
  102SOL    HW2 1206   3.981   6.624   0.502
  103SOL     OW 1207   1.729   2.463   1.389
  103SOL    HW1 1208   1.814   2.449   1.441
  103SOL    HW2 1209   1.663   2.392   1.414
  104SOL     OW 1210   0.528   4.453   1.519
  104SOL    HW1 1211   0.598   4.383   1.534
  104SOL    HW2 1212   0.571   4.543   1.519
  105SOL     OW 1213   6.562   1.882   4.987
  105SOL    HW1 1214   6.611   1.927   4.912
  105SOL    HW2 1215   6.552   1.945   5.063
  106SOL     OW 1216   4.715   3.162   1.658
  106SOL    HW1 1217   4.710   3.107   1.742
  106SOL    HW2 1218   4.634   3.145   1.603
  107SOL     OW 1219   4.270   0.042   2.217
  107SOL    HW1 1220   4.256   0.133   2.255
  107SOL    HW2 1221   4.316   7.011   2.285
  108SOL     OW 1222   3.430   1.315   4.487
  108SOL    HW1 1223   3.421   1.215   4.494
  108SOL    HW2 1224   3.344   1.354   4.455
  109SOL     OW 1225   2.435   1.981   5.280
  109SOL    HW1 1226   2.342   1.978   5.243
  109SOL    HW2 1227   2.437   1.938   5.370
  110SOL     OW 1228   4.114   4.508   5.530
  110SOL    HW1 1229   4.023   4.470   5.513
  110SOL    HW2 1230   4.105   4.600   5.571
  111SOL     OW 1231   6.492   3.532   1.391
  111SOL    HW1 1232   6.487   3.478   1.306
  111SOL    HW2 1233   6.419   3.600   1.392
  112SOL     OW 1234   4.092   6.368   4.969
  112SOL    HW1 1235   4.076   6.450   4.914
  112SOL    HW2 1236   4.036   6.373   5.052
  113SOL     OW 1237   0.909   5.508   1.944
  113SOL    HW1 1238   0.983   5.526   2.009
  113SOL    HW2 1239   0.876   5.415   1.957
  114SOL     OW 1240   0.209   1.790   1.678
  114SOL    HW1 1241   0.200   1.762   1.583
  114SOL    HW2 1242   0.146   1.866   1.697
  115SOL     OW 1243   4.550   1.315   3.112
  115SOL    HW1 1244   4.645   1.340   3.130
  115SOL    HW2 1245   4.503   1.295   3.198
  116SOL     OW 1246   5.952   5.761   0.308
  116SOL    HW1 1247   5.901   5.775   0.223
  116SOL    HW2 1248   5.912   5.817   0.381
  117SOL     OW 1249   2.603   1.228   0.713
  117SOL    HW1 1250   2.540   1.305   0.718
  117SOL    HW2 1251   2.673   1.237   0.785
  118SOL     OW 1252   0.563   2.242   2.260
  118SOL    HW1 1253   0.468   2.265   2.238
  118SOL    HW2 1254   0.597   2.173   2.196
  119SOL     OW 1255   5.216   5.545   4.956
  119SOL    HW1 1256   5.171   5.481   4.893
  119SOL    HW2 1257   5.306   5.569   4.920
  120SOL     OW 1258   4.637   1.962   4.817
  120SOL    HW1 1259   4.602   1.873   4.786
  120SOL    HW2 1260   4.650   2.022   4.737
  121SOL     OW 1261   0.242   5.248   5.913
  121SOL    HW1 1262   0.206   5.308   5.984
  121SOL    HW2 1263   0.243   5.297   5.825
  122SOL     OW 1264   0.357   4.564   5.830
  122SOL    HW1 1265   0.340   4.663   5.835
  122SOL    HW2 1266   0.296   4.523   5.762
  123SOL     OW 1267   0.908   2.860   1.244
  123SOL    HW1 1268   0.985   2.922   1.231
  123SOL    HW2 1269   0.872   2.871   1.337
  124SOL     OW 1270   2.085   3.868   0.005
  124SOL    HW1 1271   2.074   3.823   0.094
  124SOL    HW2 1272   2.170   3.836   6.988
  125SOL     OW 1273   4.270   2.384   0.517
  125SOL    HW1 1274   4.210   2.333   0.579
  125SOL    HW2 1275   4.224   2.468   0.488
  126SOL     OW 1276   3.685   3.255   4.706
  126SOL    HW1 1277   3.661   3.189   4.777
  126SOL    HW2 1278   3.772   3.228   4.663
  127SOL     OW 1279   0.075   5.026   5.873
  127SOL    HW1 1280   0.120   5.115   5.868
  127SOL    HW2 1281   0.018   5.021   5.955
  128SOL     OW 1282   4.980   4.115   5.875
  128SOL    HW1 1283   4.882   4.097   5.888
  128SOL    HW2 1284   4.999   4.211   5.896
  129SOL     OW 1285   0.875   5.715   1.768
  129SOL    HW1 1286   0.857   5.634   1.823
  129SOL    HW2 1287   0.973   5.732   1.762
  130SOL     OW 1288   6.445   3.432   4.947
  130SOL    HW1 1289   6.421   3.459   4.854
  130SOL    HW2 1290   6.448   3.332   4.953
  131SOL     OW 1291   0.862   3.488   2.671
  131SOL    HW1 1292   0.922   3.543   2.730
  131SOL    HW2 1293   0.913   3.410   2.634
  132SOL     OW 1294   3.869   3.150   1.466
  132SOL    HW1 1295   3.829   3.208   1.396
  132SOL    HW2 1296   3.822   3.062   1.467
  133SOL     OW 1297   4.347   4.211   5.657
  133SOL    HW1 1298   4.252   4.191   5.681
  133SOL    HW2 1299   4.370   4.303   5.689
  134SOL     OW 1300   6.565   1.548   6.846
  134SOL    HW1 1301   6.472   1.514   6.858
  134SOL    HW2 1302   6.621   1.519   6.924
  135SOL     OW 1303   4.302   4.917   3.623
  135SOL    HW1 1304   4.205   4.930   3.644
  135SOL    HW2 1305   4.358   4.954   3.697
  136SOL     OW 1306   4.025   6.615   6.059
  136SOL    HW1 1307   4.015   6.630   6.157
  136SOL    HW2 1308   3.935   6.601   6.018
  137SOL     OW 1309   2.069   4.238   0.490
  137SOL    HW1 1310   2.164   4.213   0.509
  137SOL    HW2 1311   2.065   4.331   0.453
  138SOL     OW 1312   0.616   5.438   1.059
  138SOL    HW1 1313   0.692   5.388   1.101
  138SOL    HW2 1314   0.561   5.375   1.004
  139SOL     OW 1315   0.898   0.717   1.375
  139SOL    HW1 1316   0.946   0.721   1.288
  139SOL    HW2 1317   0.965   0.724   1.450
  140SOL     OW 1318   3.325   6.976   1.986
  140SOL    HW1 1319   3.351   0.042   2.013
  140SOL    HW2 1320   3.398   6.912   2.012
  141SOL     OW 1321   1.655   2.203   0.048
  141SOL    HW1 1322   1.557   2.210   0.067
  141SOL    HW2 1323   1.681   2.272   7.007
  142SOL     OW 1324   1.932   3.779   6.781
  142SOL    HW1 1325   1.922   3.680   6.792
  142SOL    HW2 1326   1.972   3.818   6.864
  143SOL     OW 1327   5.739   5.664   2.146
  143SOL    HW1 1328   5.793   5.740   2.182
  143SOL    HW2 1329   5.771   5.578   2.185
  144SOL     OW 1330   2.263   5.436   3.164
  144SOL    HW1 1331   2.347   5.473   3.124
  144SOL    HW2 1332   2.228   5.363   3.105
  145SOL     OW 1333   6.915   5.750   3.313
  145SOL    HW1 1334   6.913   5.800   3.227
  145SOL    HW2 1335   6.822   5.741   3.349
  146SOL     OW 1336   0.032   0.414   5.327
  146SOL    HW1 1337   0.048   0.397   5.424
  146SOL    HW2 1338   0.043   0.329   5.276
  147SOL     OW 1339   5.993   0.244   4.758
  147SOL    HW1 1340   6.058   0.171   4.738
  147SOL    HW2 1341   5.916   0.208   4.810
  148SOL     OW 1342   1.597   6.626   2.619
  148SOL    HW1 1343   1.672   6.637   2.554
  148SOL    HW2 1344   1.524   6.692   2.597
  149SOL     OW 1345   1.968   2.419   4.800
  149SOL    HW1 1346   2.008   2.466   4.721
  149SOL    HW2 1347   2.020   2.443   4.882
  150SOL     OW 1348   5.520   3.170   5.734
  150SOL    HW1 1349   5.546   3.083   5.692
  150SOL    HW2 1350   5.426   3.193   5.708
  151SOL     OW 1351   6.227   2.559   1.964
  151SOL    HW1 1352   6.299   2.626   1.948
  151SOL    HW2 1353   6.253   2.498   2.038
  152SOL     OW 1354   6.889   2.587   0.443
  152SOL    HW1 1355   6.820   2.587   0.371
  152SOL    HW2 1356   6.978   2.613   0.403
  153SOL     OW 1357   1.968   1.743   3.983
  153SOL    HW1 1358   1.945   1.647   4.002
  153SOL    HW2 1359   2.003   1.750   3.890
  154SOL     OW 1360   0.080   0.827   4.283
  154SOL    HW1 1361   0.024   0.842   4.201
  154SOL    HW2 1362   0.057   0.738   4.322
  155SOL     OW 1363   5.816   4.874   3.070
  155SOL    HW1 1364   5.901   4.910   3.110
  155SOL    HW2 1365   5.779   4.803   3.131
  156SOL     OW 1366   4.275   0.015   1.426
  156SOL    HW1 1367   4.320   0.081   1.366
  156SOL    HW2 1368   4.318   0.016   1.516
  157SOL     OW 1369   5.315   6.991   0.590
  157SOL    HW1 1370   5.304   6.949   0.680
  157SOL    HW2 1371   5.407   6.972   0.556
  158SOL     OW 1372   0.675   3.021   5.061
  158SOL    HW1 1373   0.672   3.030   4.961
  158SOL    HW2 1374   0.610   3.086   5.102
  159SOL     OW 1375   6.680   4.847   6.724
  159SOL    HW1 1376   6.774   4.831   6.755
  159SOL    HW2 1377   6.652   4.775   6.661
  160SOL     OW 1378   4.016   0.330   1.574
  160SOL    HW1 1379   4.062   0.368   1.494
  160SOL    HW2 1380   4.011   0.231   1.566
  161SOL     OW 1381   6.419   0.031   0.795
  161SOL    HW1 1382   6.352   6.984   0.795
  161SOL    HW2 1383   6.438   0.059   0.701
  162SOL     OW 1384   4.546   6.882   5.030
  162SOL    HW1 1385   4.629   6.921   4.990
  162SOL    HW2 1386   4.561   6.786   5.052
  163SOL     OW 1387   1.090   4.072   2.459
  163SOL    HW1 1388   1.163   4.004   2.453
  163SOL    HW2 1389   1.008   4.030   2.499
  164SOL     OW 1390   1.972   2.201   3.102
  164SOL    HW1 1391   2.046   2.144   3.069
  164SOL    HW2 1392   1.931   2.251   3.025
  165SOL     OW 1393   0.415   5.978   4.397
  165SOL    HW1 1394   0.339   5.964   4.461
  165SOL    HW2 1395   0.495   6.012   4.447
  166SOL     OW 1396   0.878   4.984   4.281
  166SOL    HW1 1397   0.826   5.059   4.322
  166SOL    HW2 1398   0.818   4.928   4.225
  167SOL     OW 1399   0.196   1.255   2.984
  167SOL    HW1 1400   0.161   1.167   2.953
  167SOL    HW2 1401   0.249   1.243   3.068
  168SOL     OW 1402   3.372   3.709   3.773
  168SOL    HW1 1403   3.451   3.764   3.746
  168SOL    HW2 1404   3.300   3.719   3.704
  169SOL     OW 1405   4.937   2.893   6.094
  169SOL    HW1 1406   4.977   2.809   6.130
  169SOL    HW2 1407   4.837   2.886   6.094
  170SOL     OW 1408   0.234   5.067   2.330
  170SOL    HW1 1409   0.260   5.097   2.422
  170SOL    HW2 1410   0.152   5.115   2.301
  171SOL     OW 1411   3.377   2.770   0.932
  171SOL    HW1 1412   3.447   2.805   0.994
  171SOL    HW2 1413   3.355   2.675   0.957
  172SOL     OW 1414   1.775   0.930   0.110
  172SOL    HW1 1415   1.768   1.029   0.123
  172SOL    HW2 1416   1.700   0.885   0.159
  173SOL     OW 1417   5.911   0.485   5.063
  173SOL    HW1 1418   5.866   0.550   5.123
  173SOL    HW2 1419   5.998   0.522   5.032
  174SOL     OW 1420   6.716   4.049   5.050
  174SOL    HW1 1421   6.722   4.121   4.981
  174SOL    HW2 1422   6.732   4.088   5.141
  175SOL     OW 1423   1.005   5.660   2.995
  175SOL    HW1 1424   0.912   5.632   3.017
  175SOL    HW2 1425   1.008   5.760   2.983
  176SOL     OW 1426   5.985   4.304   0.909
  176SOL    HW1 1427   5.896   4.313   0.954
  176SOL    HW2 1428   6.009   4.391   0.866
  177SOL     OW 1429   6.002   2.964   3.973
  177SOL    HW1 1430   5.911   2.992   3.943
  177SOL    HW2 1431   6.056   3.046   3.994
  178SOL     OW 1432   1.434   5.895   4.995
  178SOL    HW1 1433   1.494   5.880   5.074
  178SOL    HW2 1434   1.390   5.984   5.004
  179SOL     OW 1435   3.585   4.131   1.986
  179SOL    HW1 1436   3.534   4.212   1.956
  179SOL    HW2 1437   3.569   4.116   2.084
  180SOL     OW 1438   4.430   1.195   6.240
  180SOL    HW1 1439   4.454   1.098   6.244
  180SOL    HW2 1440   4.491   1.242   6.175
  181SOL     OW 1441   3.449   0.348   5.056
  181SOL    HW1 1442   3.480   0.253   5.053
  181SOL    HW2 1443   3.479   0.391   5.141
  182SOL     OW 1444   3.079   2.951   5.633
  182SOL    HW1 1445   3.091   2.979   5.538
  182SOL    HW2 1446   2.988   2.910   5.645
  183SOL     OW 1447   2.896   0.950   3.302
  183SOL    HW1 1448   2.955   1.012   3.250
  183SOL    HW2 1449   2.865   0.876   3.244
  184SOL     OW 1450   5.010   6.402   3.578
  184SOL    HW1 1451   5.076   6.383   3.506
  184SOL    HW2 1452   4.981   6.316   3.620
  185SOL     OW 1453   0.607   6.319   5.416
  185SOL    HW1 1454   0.634   6.272   5.501
  185SOL    HW2 1455   0.619   6.418   5.428
  186SOL     OW 1456   3.131   5.732   6.471
  186SOL    HW1 1457   3.149   5.786   6.389
  186SOL    HW2 1458   3.216   5.690   6.503
  187SOL     OW 1459   3.357   5.269   0.607
  187SOL    HW1 1460   3.374   5.342   0.673
  187SOL    HW2 1461   3.259   5.248   0.606
  188SOL     OW 1462   1.920   4.160   4.095
  188SOL    HW1 1463   1.871   4.092   4.040
  188SOL    HW2 1464   1.873   4.170   4.183
  189SOL     OW 1465   6.132   4.684   5.884
  189SOL    HW1 1466   6.042   4.666   5.844
  189SOL    HW2 1467   6.159   4.606   5.942
  190SOL     OW 1468   5.874   6.415   0.412
  190SOL    HW1 1469   5.917   6.396   0.324
  190SOL    HW2 1470   5.945   6.440   0.478
  191SOL     OW 1471   2.119   3.414   5.811
  191SOL    HW1 1472   2.041   3.372   5.764
  191SOL    HW2 1473   2.086   3.479   5.879
  192SOL     OW 1474   0.648   0.373   1.338
  192SOL    HW1 1475   0.630   0.437   1.413
  192SOL    HW2 1476   0.588   0.293   1.348
  193SOL     OW 1477   3.044   0.104   1.745
  193SOL    HW1 1478   2.964   0.159   1.724
  193SOL    HW2 1479   3.126   0.151   1.714
  194SOL     OW 1480   3.951   5.760   3.602
  194SOL    HW1 1481   4.030   5.712   3.564
  194SOL    HW2 1482   3.874   5.697   3.611
  195SOL     OW 1483   3.320   0.733   1.230
  195SOL    HW1 1484   3.322   0.781   1.143
  195SOL    HW2 1485   3.250   0.773   1.289
  196SOL     OW 1486   3.873   3.042   1.144
  196SOL    HW1 1487   3.849   3.135   1.114
  196SOL    HW2 1488   3.799   3.006   1.201
  197SOL     OW 1489   1.752   5.450   0.660
  197SOL    HW1 1490   1.789   5.540   0.638
  197SOL    HW2 1491   1.769   5.430   0.757
  198SOL     OW 1492   5.855   6.989   6.053
  198SOL    HW1 1493   5.766   6.974   6.009
  198SOL    HW2 1494   5.928   6.978   5.985
  199SOL     OW 1495   2.116   1.181   3.511
  199SOL    HW1 1496   2.039   1.181   3.447
  199SOL    HW2 1497   2.088   1.221   3.598
  200SOL     OW 1498   1.857   3.792   4.371
  200SOL    HW1 1499   1.889   3.825   4.460
  200SOL    HW2 1500   1.902   3.843   4.298
  201SOL     OW 1501   4.956   1.167   6.775
  201SOL    HW1 1502   4.904   1.250   6.795
  201SOL    HW2 1503   5.047   1.191   6.741
  202SOL     OW 1504   4.321   0.513   2.734
  202SOL    HW1 1505   4.408   0.553   2.706
  202SOL    HW2 1506   4.294   0.443   2.668
  203SOL     OW 1507   5.970   2.992   0.341
  203SOL    HW1 1508   6.017   2.914   0.299
  203SOL    HW2 1509   6.019   3.021   0.423
  204SOL     OW 1510   1.970   6.293   0.796
  204SOL    HW1 1511   1.953   6.378   0.746
  204SOL    HW2 1512   1.961   6.310   0.894
  205SOL     OW 1513   5.322   0.684   1.188
  205SOL    HW1 1514   5.410   0.712   1.228
  205SOL    HW2 1515   5.261   0.653   1.261
  206SOL     OW 1516   0.058   5.999   0.872
  206SOL    HW1 1517   0.083   6.051   0.954
  206SOL    HW2 1518   0.032   5.906   0.899
  207SOL     OW 1519   6.635   2.372   5.736
  207SOL    HW1 1520   6.688   2.447   5.776
  207SOL    HW2 1521   6.695   2.313   5.682
  208SOL     OW 1522   4.369   3.836   0.190
  208SOL    HW1 1523   4.345   3.893   0.111
  208SOL    HW2 1524   4.287   3.809   0.239
  209SOL     OW 1525   6.985   0.020   4.148
  209SOL    HW1 1526   0.012   0.090   4.195
  209SOL    HW2 1527   6.933   6.993   4.215
  210SOL     OW 1528   4.248   1.679   0.775
  210SOL    HW1 1529   4.199   1.743   0.834
  210SOL    HW2 1530   4.301   1.615   0.831
  211SOL     OW 1531   0.618   3.134   2.324
  211SOL    HW1 1532   0.706   3.094   2.297
  211SOL    HW2 1533   0.622   3.161   2.420
  212SOL     OW 1534   1.319   5.191   5.597
  212SOL    HW1 1535   1.359   5.207   5.507
  212SOL    HW2 1536   1.285   5.278   5.634
  213SOL     OW 1537   3.887   2.663   1.409
  213SOL    HW1 1538   3.848   2.742   1.456
  213SOL    HW2 1539   3.981   2.684   1.381
  214SOL     OW 1540   0.768   6.065   3.961
  214SOL    HW1 1541   0.804   6.105   3.877
  214SOL    HW2 1542   0.760   6.136   4.031
  215SOL     OW 1543   3.733   3.943   3.417
  215SOL    HW1 1544   3.706   3.882   3.343
  215SOL    HW2 1545   3.787   3.893   3.484
  216SOL     OW 1546   3.087   0.284   5.611
  216SOL    HW1 1547   2.990   0.308   5.605
  216SOL    HW2 1548   3.139   0.364   5.642
  217SOL     OW 1549   6.607   2.014   5.229
  217SOL    HW1 1550   6.516   2.043   5.255
  217SOL    HW2 1551   6.675   2.071   5.275
  218SOL     OW 1552   3.279   4.321   5.724
  218SOL    HW1 1553   3.207   4.251   5.728
  218SOL    HW2 1554   3.260   4.384   5.649
  219SOL     OW 1555   3.036   5.952   6.629
  219SOL    HW1 1556   3.040   5.852   6.626
  219SOL    HW2 1557   3.017   5.982   6.722
  220SOL     OW 1558   0.878   4.887   0.381
  220SOL    HW1 1559   0.922   4.912   0.294
  220SOL    HW2 1560   0.895   4.791   0.400
  221SOL     OW 1561   5.883   3.245   4.757
  221SOL    HW1 1562   5.783   3.244   4.754
  221SOL    HW2 1563   5.919   3.155   4.732
  222SOL     OW 1564   1.763   6.999   4.846
  222SOL    HW1 1565   1.744   6.909   4.807
  222SOL    HW2 1566   1.820   6.988   4.928
  223SOL     OW 1567   5.934   4.547   2.678
  223SOL    HW1 1568   5.989   4.629   2.659
  223SOL    HW2 1569   5.864   4.537   2.607
  224SOL     OW 1570   4.875   2.849   2.867
  224SOL    HW1 1571   4.972   2.856   2.841
  224SOL    HW2 1572   4.834   2.940   2.862
  225SOL     OW 1573   5.158   6.412   1.489
  225SOL    HW1 1574   5.107   6.347   1.433
  225SOL    HW2 1575   5.098   6.452   1.558
  226SOL     OW 1576   1.358   5.883   2.441
  226SOL    HW1 1577   1.435   5.880   2.505
  226SOL    HW2 1578   1.386   5.928   2.357
  227SOL     OW 1579   1.210   3.978   3.331
  227SOL    HW1 1580   1.297   4.023   3.349
  227SOL    HW2 1581   1.226   3.883   3.306
  228SOL     OW 1582   3.933   5.681   2.857
  228SOL    HW1 1583   4.022   5.684   2.811
  228SOL    HW2 1584   3.924   5.761   2.916
  229SOL     OW 1585   6.328   5.924   2.882
  229SOL    HW1 1586   6.278   5.854   2.832
  229SOL    HW2 1587   6.309   5.915   2.980
  230SOL     OW 1588   0.741   4.922   5.959
  230SOL    HW1 1589   0.813   4.861   5.995
  230SOL    HW2 1590   0.656   4.907   6.010
  231SOL     OW 1591   0.178   1.623   6.417
  231SOL    HW1 1592   0.123   1.577   6.487
  231SOL    HW2 1593   0.273   1.626   6.447
  232SOL     OW 1594   1.486   3.819   5.522
  232SOL    HW1 1595   1.481   3.852   5.616
  232SOL    HW2 1596   1.427   3.738   5.512
  233SOL     OW 1597   3.463   0.231   6.714
  233SOL    HW1 1598   3.431   0.184   6.797
  233SOL    HW2 1599   3.440   0.176   6.634
  234SOL     OW 1600   1.617   4.837   6.858
  234SOL    HW1 1601   1.521   4.828   6.884
  234SOL    HW2 1602   1.640   4.767   6.791
  235SOL     OW 1603   4.054   3.417   5.953
  235SOL    HW1 1604   4.138   3.380   5.992
  235SOL    HW2 1605   4.016   3.352   5.886
  236SOL     OW 1606   6.716   1.221   6.192
  236SOL    HW1 1607   6.717   1.289   6.265
  236SOL    HW2 1608   6.806   1.178   6.186
  237SOL     OW 1609   6.808   6.618   2.324
  237SOL    HW1 1610   6.895   6.667   2.315
  237SOL    HW2 1611   6.823   6.534   2.376
  238SOL     OW 1612   0.359   2.505   2.810
  238SOL    HW1 1613   0.260   2.518   2.803
  238SOL    HW2 1614   0.392   2.453   2.731
  239SOL     OW 1615   6.029   4.855   0.325
  239SOL    HW1 1616   6.024   4.771   0.272
  239SOL    HW2 1617   6.115   4.901   0.306
  240SOL     OW 1618   0.067   1.803   4.719
  240SOL    HW1 1619   0.058   1.897   4.687
  240SOL    HW2 1620   0.082   1.743   4.641
  241SOL     OW 1621   6.050   2.197   4.769
  241SOL    HW1 1622   6.135   2.162   4.729
  241SOL    HW2 1623   6.064   2.215   4.866
  242SOL     OW 1624   2.969   2.184   3.864
  242SOL    HW1 1625   2.940   2.276   3.890
  242SOL    HW2 1626   2.997   2.184   3.768
  243SOL     OW 1627   4.843   1.441   6.707
  243SOL    HW1 1628   4.763   1.434   6.647
  243SOL    HW2 1629   4.923   1.466   6.653
  244SOL     OW 1630   0.606   1.414   6.365
  244SOL    HW1 1631   0.655   1.329   6.383
  244SOL    HW2 1632   0.610   1.434   6.267
  245SOL     OW 1633   5.258   1.995   3.910
  245SOL    HW1 1634   5.327   1.936   3.869
  245SOL    HW2 1635   5.171   1.946   3.917
  246SOL     OW 1636   5.425   3.556   4.567
  246SOL    HW1 1637   5.500   3.584   4.626
  246SOL    HW2 1638   5.446   3.580   4.472
  247SOL     OW 1639   2.986   0.610   2.838
  247SOL    HW1 1640   3.060   0.542   2.836
  247SOL    HW2 1641   3.023   0.700   2.814
  248SOL     OW 1642   0.677   2.646   3.108
  248SOL    HW1 1643   0.617   2.695   3.171
  248SOL    HW2 1644   0.628   2.629   3.022
  249SOL     OW 1645   2.640   5.602   5.444
  249SOL    HW1 1646   2.624   5.665   5.367
  249SOL    HW2 1647   2.710   5.640   5.504
  250SOL     OW 1648   5.250   2.421   6.974
  250SOL    HW1 1649   5.311   2.453   0.019
  250SOL    HW2 1650   5.210   2.333   7.001
  251SOL     OW 1651   2.013   0.731   1.478
  251SOL    HW1 1652   1.914   0.723   1.485
  251SOL    HW2 1653   2.039   0.827   1.466
  252SOL     OW 1654   6.979   2.192   0.452
  252SOL    HW1 1655   6.918   2.261   0.491
  252SOL    HW2 1656   6.944   2.101   0.473
  253SOL     OW 1657   2.258   4.370   6.021
  253SOL    HW1 1658   2.281   4.348   6.115
  253SOL    HW2 1659   2.184   4.438   6.019
  254SOL     OW 1660   5.048   3.487   6.429
  254SOL    HW1 1661   4.978   3.426   6.466
  254SOL    HW2 1662   5.019   3.582   6.440
  255SOL     OW 1663   4.755   2.265   2.498
  255SOL    HW1 1664   4.661   2.235   2.511
  255SOL    HW2 1665   4.755   2.356   2.457
  256SOL     OW 1666   0.148   6.216   1.300
  256SOL    HW1 1667   0.106   6.194   1.388
  256SOL    HW2 1668   0.245   6.194   1.303
  257SOL     OW 1669   2.980   5.995   6.368
  257SOL    HW1 1670   2.987   5.973   6.465
  257SOL    HW2 1671   3.037   5.932   6.315
  258SOL     OW 1672   4.479   5.393   4.174
  258SOL    HW1 1673   4.406   5.373   4.240
  258SOL    HW2 1674   4.496   5.492   4.173
  259SOL     OW 1675   0.781   1.680   2.003
  259SOL    HW1 1676   0.781   1.779   1.990
  259SOL    HW2 1677   0.868   1.652   2.044
  260SOL     OW 1678   6.490   6.799   5.625
  260SOL    HW1 1679   6.428   6.722   5.609
  260SOL    HW2 1680   6.486   6.861   5.546
  261SOL     OW 1681   0.586   0.933   4.311
  261SOL    HW1 1682   0.504   0.971   4.267
  261SOL    HW2 1683   0.559   0.855   4.369
  262SOL     OW 1684   1.728   5.292   1.241
  262SOL    HW1 1685   1.771   5.377   1.271
  262SOL    HW2 1686   1.782   5.251   1.168
  263SOL     OW 1687   0.662   4.425   4.677
  263SOL    HW1 1688   0.581   4.482   4.663
  263SOL    HW2 1689   0.712   4.457   4.758
  264SOL     OW 1690   3.661   3.783   0.561
  264SOL    HW1 1691   3.618   3.874   0.560
  264SOL    HW2 1692   3.662   3.748   0.654
  265SOL     OW 1693   4.241   5.605   4.001
  265SOL    HW1 1694   4.293   5.560   3.929
  265SOL    HW2 1695   4.206   5.537   4.066
  266SOL     OW 1696   4.447   3.730   6.872
  266SOL    HW1 1697   4.480   3.668   6.801
  266SOL    HW2 1698   4.372   3.687   6.922
  267SOL     OW 1699   2.528   2.724   5.848
  267SOL    HW1 1700   2.605   2.716   5.911
  267SOL    HW2 1701   2.527   2.816   5.807
  268SOL     OW 1702   1.560   4.205   3.880
  268SOL    HW1 1703   1.587   4.110   3.862
  268SOL    HW2 1704   1.543   4.252   3.793
  269SOL     OW 1705   3.309   1.742   5.514
  269SOL    HW1 1706   3.382   1.678   5.489
  269SOL    HW2 1707   3.323   1.774   5.607
  270SOL     OW 1708   5.436   5.696   4.804
  270SOL    HW1 1709   5.353   5.700   4.748
  270SOL    HW2 1710   5.515   5.723   4.748
  271SOL     OW 1711   2.648   1.773   0.312
  271SOL    HW1 1712   2.569   1.722   0.346
  271SOL    HW2 1713   2.616   1.856   0.266
  272SOL     OW 1714   5.497   4.832   0.085
  272SOL    HW1 1715   5.433   4.863   0.156
  272SOL    HW2 1716   5.541   4.911   0.043
  273SOL     OW 1717   1.070   6.161   4.226
  273SOL    HW1 1718   1.011   6.242   4.225
  273SOL    HW2 1719   1.016   6.080   4.201
  274SOL     OW 1720   5.334   2.457   2.761
  274SOL    HW1 1721   5.244   2.474   2.721
  274SOL    HW2 1722   5.405   2.500   2.705
  275SOL     OW 1723   5.924   5.611   5.336
  275SOL    HW1 1724   5.891   5.520   5.314
  275SOL    HW2 1725   5.950   5.616   5.432
  276SOL     OW 1726   0.793   0.487   4.647
  276SOL    HW1 1727   0.848   0.467   4.729
  276SOL    HW2 1728   0.805   0.582   4.621
  277SOL     OW 1729   3.692   3.315   5.391
  277SOL    HW1 1730   3.780   3.274   5.369
  277SOL    HW2 1731   3.674   3.303   5.489
  278SOL     OW 1732   5.910   4.533   2.216
  278SOL    HW1 1733   5.844   4.567   2.283
  278SOL    HW2 1734   5.926   4.436   2.230
  279SOL     OW 1735   0.621   3.854   4.087
  279SOL    HW1 1736   0.539   3.882   4.136
  279SOL    HW2 1737   0.702   3.874   4.143
  280SOL     OW 1738   4.764   1.687   3.214
  280SOL    HW1 1739   4.693   1.714   3.148
  280SOL    HW2 1740   4.806   1.769   3.253
  281SOL     OW 1741   5.003   4.875   5.316
  281SOL    HW1 1742   4.903   4.887   5.312
  281SOL    HW2 1743   5.047   4.964   5.322
  282SOL     OW 1744   0.368   2.390   6.722
  282SOL    HW1 1745   0.298   2.322   6.700
  282SOL    HW2 1746   0.352   2.426   6.814
  283SOL     OW 1747   6.322   4.057   2.357
  283SOL    HW1 1748   6.411   4.023   2.326
  283SOL    HW2 1749   6.332   4.096   2.449
  284SOL     OW 1750   5.897   6.439   3.450
  284SOL    HW1 1751   5.906   6.394   3.361
  284SOL    HW2 1752   5.806   6.481   3.457
  285SOL     OW 1753   4.321   6.221   6.424
  285SOL    HW1 1754   4.295   6.136   6.471
  285SOL    HW2 1755   4.348   6.201   6.330
  286SOL     OW 1756   3.609   5.038   5.460
  286SOL    HW1 1757   3.553   5.120   5.464
  286SOL    HW2 1758   3.561   4.962   5.505
  287SOL     OW 1759   3.688   6.196   0.596
  287SOL    HW1 1760   3.691   6.098   0.613
  287SOL    HW2 1761   3.781   6.233   0.597
  288SOL     OW 1762   4.580   1.181   0.102
  288SOL    HW1 1763   4.579   1.140   0.193
  288SOL    HW2 1764   4.501   1.243   0.093
  289SOL     OW 1765   5.138   5.052   4.205
  289SOL    HW1 1766   5.177   5.022   4.292
  289SOL    HW2 1767   5.160   4.986   4.134
  290SOL     OW 1768   3.237   0.490   4.926
  290SOL    HW1 1769   3.306   0.418   4.921
  290SOL    HW2 1770   3.254   0.557   4.854
  291SOL     OW 1771   5.890   0.821   4.698
  291SOL    HW1 1772   5.861   0.914   4.722
  291SOL    HW2 1773   5.813   0.759   4.707
  292SOL     OW 1774   3.132   0.484   3.458
  292SOL    HW1 1775   3.134   0.490   3.358
  292SOL    HW2 1776   3.226   0.475   3.492
  293SOL     OW 1777   5.420   1.006   2.855
  293SOL    HW1 1778   5.369   1.030   2.937
  293SOL    HW2 1779   5.514   0.984   2.880
  294SOL     OW 1780   6.598   1.237   0.169
  294SOL    HW1 1781   6.505   1.200   0.172
  294SOL    HW2 1782   6.618   1.271   0.077
  295SOL     OW 1783   0.003   6.979   4.889
  295SOL    HW1 1784   7.000   6.884   4.900
  295SOL    HW2 1785   6.961   0.003   4.836
  296SOL     OW 1786   0.489   1.957   0.848
  296SOL    HW1 1787   0.519   1.873   0.893
  296SOL    HW2 1788   0.410   1.938   0.790
  297SOL     OW 1789   5.235   3.290   3.389
  297SOL    HW1 1790   5.282   3.375   3.413
  297SOL    HW2 1791   5.270   3.255   3.302
  298SOL     OW 1792   4.343   0.298   5.132
  298SOL    HW1 1793   4.259   0.329   5.177
  298SOL    HW2 1794   4.351   0.199   5.141
  299SOL     OW 1795   0.868   1.018   6.066
  299SOL    HW1 1796   0.815   0.933   6.075
  299SOL    HW2 1797   0.866   1.049   5.971
  300SOL     OW 1798   4.318   6.001   4.005
  300SOL    HW1 1799   4.298   6.042   3.916
  300SOL    HW2 1800   4.235   6.000   4.061
  301SOL     OW 1801   6.826   6.319   5.139
  301SOL    HW1 1802   6.838   6.223   5.115
  301SOL    HW2 1803   6.795   6.370   5.059
  302SOL     OW 1804   0.447   6.534   2.099
  302SOL    HW1 1805   0.407   6.509   2.187
  302SOL    HW2 1806   0.520   6.600   2.114
  303SOL     OW 1807   5.434   5.314   2.368
  303SOL    HW1 1808   5.408   5.380   2.298
  303SOL    HW2 1809   5.353   5.264   2.398
  304SOL     OW 1810   1.243   0.329   3.723
  304SOL    HW1 1811   1.170   0.388   3.690
  304SOL    HW2 1812   1.332   0.373   3.706
  305SOL     OW 1813   2.296   2.113   1.458
  305SOL    HW1 1814   2.356   2.100   1.537
  305SOL    HW2 1815   2.320   2.197   1.411
  306SOL     OW 1816   0.449   6.748   2.570
  306SOL    HW1 1817   0.413   6.816   2.507
  306SOL    HW2 1818   0.373   6.699   2.613
  307SOL     OW 1819   4.100   3.671   3.983
  307SOL    HW1 1820   4.152   3.701   4.064
  307SOL    HW2 1821   4.033   3.602   4.010
  308SOL     OW 1822   6.439   2.119   1.839
  308SOL    HW1 1823   6.534   2.100   1.813
  308SOL    HW2 1824   6.385   2.035   1.830
  309SOL     OW 1825   1.883   4.649   0.243
  309SOL    HW1 1826   1.951   4.635   0.171
  309SOL    HW2 1827   1.826   4.728   0.219
  310SOL     OW 1828   5.013   6.496   4.866
  310SOL    HW1 1829   4.994   6.593   4.881
  310SOL    HW2 1830   5.100   6.472   4.909
  311SOL     OW 1831   1.870   6.196   2.237
  311SOL    HW1 1832   1.830   6.288   2.240
  311SOL    HW2 1833   1.948   6.196   2.174
  312SOL     OW 1834   3.267   0.449   4.341
  312SOL    HW1 1835   3.247   0.463   4.244
  312SOL    HW2 1836   3.193   0.486   4.396
  313SOL     OW 1837   3.218   3.116   3.417
  313SOL    HW1 1838   3.135   3.168   3.394
  313SOL    HW2 1839   3.210   3.080   3.510
  314SOL     OW 1840   2.763   4.804   6.405
  314SOL    HW1 1841   2.709   4.833   6.483
  314SOL    HW2 1842   2.748   4.706   6.389
  315SOL     OW 1843   6.294   0.511   5.044
  315SOL    HW1 1844   6.233   0.569   5.098
  315SOL    HW2 1845   6.247   0.481   4.961
  316SOL     OW 1846   4.075   0.888   5.057
  316SOL    HW1 1847   4.007   0.865   5.127
  316SOL    HW2 1848   4.029   0.917   4.973
  317SOL     OW 1849   0.887   2.109   1.403
  317SOL    HW1 1850   0.821   2.176   1.437
  317SOL    HW2 1851   0.969   2.156   1.370
  318SOL     OW 1852   0.981   0.624   3.239
  318SOL    HW1 1853   1.023   0.643   3.150
  318SOL    HW2 1854   0.913   0.552   3.229
  319SOL     OW 1855   1.057   1.345   2.365
  319SOL    HW1 1856   1.056   1.372   2.461
  319SOL    HW2 1857   1.023   1.251   2.356
  320SOL     OW 1858   5.182   1.396   0.215
  320SOL    HW1 1859   5.240   1.428   0.140
  320SOL    HW2 1860   5.108   1.461   0.229
  321SOL     OW 1861   4.192   3.223   1.096
  321SOL    HW1 1862   4.119   3.193   1.157
  321SOL    HW2 1863   4.256   3.148   1.081
  322SOL     OW 1864   2.879   1.784   0.015
  322SOL    HW1 1865   2.859   1.711   0.081
  322SOL    HW2 1866   2.827   1.866   0.038
  323SOL     OW 1867   1.146   4.081   2.203
  323SOL    HW1 1868   1.123   4.086   2.301
  323SOL    HW2 1869   1.241   4.107   2.191
  324SOL     OW 1870   6.138   0.394   4.145
  324SOL    HW1 1871   6.059   0.390   4.084
  324SOL    HW2 1872   6.126   0.471   4.208
  325SOL     OW 1873   6.181   3.665   0.964
  325SOL    HW1 1874   6.254   3.626   1.020
  325SOL    HW2 1875   6.196   3.641   0.868
  326SOL     OW 1876   6.716   5.566   6.961
  326SOL    HW1 1877   6.624   5.553   6.999
  326SOL    HW2 1878   6.761   5.642   7.008
  327SOL     OW 1879   4.477   6.483   6.354
  327SOL    HW1 1880   4.451   6.387   6.366
  327SOL    HW2 1881   4.394   6.538   6.340
  328SOL     OW 1882   1.964   4.297   3.533
  328SOL    HW1 1883   1.990   4.280   3.629
  328SOL    HW2 1884   1.964   4.395   3.516
  329SOL     OW 1885   3.159   3.199   2.433
  329SOL    HW1 1886   3.253   3.188   2.399
  329SOL    HW2 1887   3.095   3.164   2.365
  330SOL     OW 1888   2.526   3.447   6.627
  330SOL    HW1 1889   2.472   3.493   6.698
  330SOL    HW2 1890   2.584   3.514   6.581
  331SOL     OW 1891   5.068   5.338   3.507
  331SOL    HW1 1892   5.032   5.264   3.564
  331SOL    HW2 1893   5.052   5.316   3.411
  332SOL     OW 1894   6.072   1.779   2.796
  332SOL    HW1 1895   6.037   1.802   2.705
  332SOL    HW2 1896   6.042   1.687   2.821
  333SOL     OW 1897   3.674   6.458   3.577
  333SOL    HW1 1898   3.680   6.381   3.515
  333SOL    HW2 1899   3.766   6.494   3.595
  334SOL     OW 1900   3.759   3.254   4.098
  334SOL    HW1 1901   3.811   3.169   4.089
  334SOL    HW2 1902   3.696   3.246   4.176
  335SOL     OW 1903   4.489   1.341   0.684
  335SOL    HW1 1904   4.540   1.425   0.669
  335SOL    HW2 1905   4.400   1.346   0.637
  336SOL     OW 1906   4.035   1.825   5.069
  336SOL    HW1 1907   3.958   1.885   5.048
  336SOL    HW2 1908   4.032   1.746   5.007
  337SOL     OW 1909   0.188   1.418   5.372
  337SOL    HW1 1910   0.096   1.456   5.389
  337SOL    HW2 1911   0.180   1.337   5.314
  338SOL     OW 1912   4.595   1.337   1.870
  338SOL    HW1 1913   4.595   1.437   1.863
  338SOL    HW2 1914   4.500   1.304   1.871
  339SOL     OW 1915   3.864   4.890   6.088
  339SOL    HW1 1916   3.811   4.816   6.046
  339SOL    HW2 1917   3.878   4.871   6.185
  340SOL     OW 1918   5.011   3.278   4.856
  340SOL    HW1 1919   5.082   3.311   4.918
  340SOL    HW2 1920   4.997   3.345   4.783
  341SOL     OW 1921   0.087   0.383   1.960
  341SOL    HW1 1922   0.051   0.476   1.952
  341SOL    HW2 1923   0.012   0.318   1.952
  342SOL     OW 1924   4.423   0.978   1.958
  342SOL    HW1 1925   4.516   0.961   1.992
  342SOL    HW2 1926   4.361   0.909   1.996
  343SOL     OW 1927   6.225   0.003   1.933
  343SOL    HW1 1928   6.298   0.001   2.001
  343SOL    HW2 1929   6.137   7.015   1.978
  344SOL     OW 1930   6.968   2.406   1.565
  344SOL    HW1 1931   7.001   2.473   1.499
  344SOL    HW2 1932   0.012   2.390   1.634
  345SOL     OW 1933   6.988   2.581   4.564
  345SOL    HW1 1934   6.946   2.491   4.577
  345SOL    HW2 1935   6.931   2.636   4.503
  346SOL     OW 1936   1.678   5.891   2.266
  346SOL    HW1 1937   1.688   5.792   2.278
  346SOL    HW2 1938   1.753   5.938   2.314
  347SOL     OW 1939   2.158   4.271   1.447
  347SOL    HW1 1940   2.199   4.360   1.466
  347SOL    HW2 1941   2.061   4.283   1.425
  348SOL     OW 1942   5.303   4.619   1.441
  348SOL    HW1 1943   5.312   4.700   1.384
  348SOL    HW2 1944   5.303   4.537   1.383
  349SOL     OW 1945   5.777   5.271   0.773
  349SOL    HW1 1946   5.727   5.271   0.859
  349SOL    HW2 1947   5.739   5.201   0.712
  350SOL     OW 1948   2.668   0.886   0.744
  350SOL    HW1 1949   2.605   0.813   0.717
  350SOL    HW2 1950   2.675   0.953   0.671
  351SOL     OW 1951   3.755   4.294   1.256
  351SOL    HW1 1952   3.830   4.252   1.306
  351SOL    HW2 1953   3.772   4.287   1.157
  352SOL     OW 1954   4.363   6.971   2.479
  352SOL    HW1 1955   4.297   6.921   2.535
  352SOL    HW2 1956   4.455   6.951   2.511
  353SOL     OW 1957   2.586   5.851   0.466
  353SOL    HW1 1958   2.572   5.756   0.437
  353SOL    HW2 1959   2.574   5.858   0.565
  354SOL     OW 1960   1.499   2.320   0.765
  354SOL    HW1 1961   1.433   2.255   0.803
  354SOL    HW2 1962   1.548   2.277   0.690
  355SOL     OW 1963   0.059   2.759   3.318
  355SOL    HW1 1964   0.072   2.779   3.415
  355SOL    HW2 1965   0.135   2.797   3.265
  356SOL     OW 1966   2.616   0.381   5.779
  356SOL    HW1 1967   2.606   0.448   5.852
  356SOL    HW2 1968   2.713   0.362   5.764
  357SOL     OW 1969   5.537   5.539   4.352
  357SOL    HW1 1970   5.451   5.488   4.351
  357SOL    HW2 1971   5.586   5.521   4.438
  358SOL     OW 1972   3.397   6.484   6.993
  358SOL    HW1 1973   3.342   6.522   6.918
  358SOL    HW2 1974   3.337   6.439   0.032
  359SOL     OW 1975   2.009   2.706   1.797
  359SOL    HW1 1976   1.978   2.801   1.802
  359SOL    HW2 1977   2.085   2.699   1.732
  360SOL     OW 1978   2.275   4.090   3.190
  360SOL    HW1 1979   2.341   4.165   3.190
  360SOL    HW2 1980   2.240   4.076   3.097
  361SOL     OW 1981   6.710   2.589   3.047
  361SOL    HW1 1982   6.793   2.628   3.008
  361SOL    HW2 1983   6.649   2.663   3.076
  362SOL     OW 1984   3.924   3.199   2.632
  362SOL    HW1 1985   3.982   3.190   2.552
  362SOL    HW2 1986   3.854   3.269   2.615
  363SOL     OW 1987   4.229   4.964   0.417
  363SOL    HW1 1988   4.247   5.009   0.329
  363SOL    HW2 1989   4.168   5.022   0.471
  364SOL     OW 1990   1.308   0.479   0.408
  364SOL    HW1 1991   1.259   0.561   0.379
  364SOL    HW2 1992   1.256   0.398   0.380
  365SOL     OW 1993   5.118   0.290   3.819
  365SOL    HW1 1994   5.075   0.200   3.815
  365SOL    HW2 1995   5.133   0.316   3.914
  366SOL     OW 1996   5.067   1.810   0.427
  366SOL    HW1 1997   5.053   1.738   0.495
  366SOL    HW2 1998   5.108   1.890   0.471
  367SOL     OW 1999   5.421   0.894   7.008
  367SOL    HW1 2000   5.452   0.907   0.076
  367SOL    HW2 2001   5.334   0.941   6.995
  368SOL     OW 2002   2.940   1.773   5.636
  368SOL    HW1 2003   2.917   1.786   5.732
  368SOL    HW2 2004   2.998   1.692   5.626
  369SOL     OW 2005   4.788   4.328   7.007
  369SOL    HW1 2006   4.726   4.404   7.027
  369SOL    HW2 2007   4.880   4.350   0.013
  370SOL     OW 2008   1.711   2.310   3.460
  370SOL    HW1 2009   1.795   2.287   3.508
  370SOL    HW2 2010   1.699   2.409   3.457
  371SOL     OW 2011   2.721   5.557   0.133
  371SOL    HW1 2012   2.797   5.622   0.125
  371SOL    HW2 2013   2.637   5.606   0.158
  372SOL     OW 2014   2.586   5.909   6.494
  372SOL    HW1 2015   2.599   5.811   6.477
  372SOL    HW2 2016   2.488   5.929   6.495
  373SOL     OW 2017   6.031   4.929   2.887
  373SOL    HW1 2018   6.055   4.878   2.804
  373SOL    HW2 2019   5.938   4.905   2.915
  374SOL     OW 2020   2.759   2.231   2.284
  374SOL    HW1 2021   2.794   2.138   2.294
  374SOL    HW2 2022   2.811   2.278   2.212
  375SOL     OW 2023   0.248   5.919   3.871
  375SOL    HW1 2024   0.202   6.001   3.837
  375SOL    HW2 2025   0.346   5.936   3.879
  376SOL     OW 2026   4.262   0.441   3.665
  376SOL    HW1 2027   4.225   0.349   3.682
  376SOL    HW2 2028   4.186   0.505   3.650
  377SOL     OW 2029   3.100   2.985   6.364
  377SOL    HW1 2030   3.159   3.013   6.289
  377SOL    HW2 2031   3.147   2.999   6.451
  378SOL     OW 2032   4.075   1.295   1.971
  378SOL    HW1 2033   3.999   1.290   1.906
  378SOL    HW2 2034   4.119   1.205   1.978
  379SOL     OW 2035   4.013   2.959   6.748
  379SOL    HW1 2036   3.940   2.899   6.782
  379SOL    HW2 2037   3.972   3.030   6.690
  380SOL     OW 2038   4.571   2.072   0.547
  380SOL    HW1 2039   4.617   2.157   0.571
  380SOL    HW2 2040   4.628   1.994   0.576
  381SOL     OW 2041   1.743   3.795   2.564
  381SOL    HW1 2042   1.736   3.885   2.522
  381SOL    HW2 2043   1.707   3.726   2.501
  382SOL     OW 2044   5.994   6.846   0.715
  382SOL    HW1 2045   5.926   6.905   0.670
  382SOL    HW2 2046   5.954   6.756   0.731
  383SOL     OW 2047   4.994   3.114   0.710
  383SOL    HW1 2048   4.909   3.081   0.669
  383SOL    HW2 2049   5.010   3.209   0.682
  384SOL     OW 2050   0.793   3.343   4.972
  384SOL    HW1 2051   0.783   3.259   4.918
  384SOL    HW2 2052   0.717   3.349   5.037
  385SOL     OW 2053   4.571   2.242   6.902
  385SOL    HW1 2054   4.488   2.261   6.850
  385SOL    HW2 2055   4.603   2.149   6.881
  386SOL     OW 2056   3.951   6.407   5.214
  386SOL    HW1 2057   3.917   6.324   5.259
  386SOL    HW2 2058   3.876   6.472   5.205
  387SOL     OW 2059   2.354   6.418   3.982
  387SOL    HW1 2060   2.330   6.338   4.036
  387SOL    HW2 2061   2.373   6.495   4.043
  388SOL     OW 2062   1.483   4.819   5.945
  388SOL    HW1 2063   1.420   4.742   5.936
  388SOL    HW2 2064   1.439   4.893   5.996
  389SOL     OW 2065   2.686   3.212   0.626
  389SOL    HW1 2066   2.710   3.275   0.552
  389SOL    HW2 2067   2.743   3.232   0.706
  390SOL     OW 2068   2.545   1.554   4.250
  390SOL    HW1 2069   2.622   1.604   4.290
  390SOL    HW2 2070   2.463   1.612   4.252
  391SOL     OW 2071   0.562   2.301   0.418
  391SOL    HW1 2072   0.488   2.234   0.418
  391SOL    HW2 2073   0.643   2.261   0.376
  392SOL     OW 2074   3.559   5.228   4.902
  392SOL    HW1 2075   3.479   5.190   4.856
  392SOL    HW2 2076   3.624   5.261   4.833
  393SOL     OW 2077   6.000   3.721   5.255
  393SOL    HW1 2078   5.958   3.728   5.346
  393SOL    HW2 2079   6.090   3.764   5.257
  394SOL     OW 2080   2.099   1.417   6.467
  394SOL    HW1 2081   2.111   1.337   6.409
  394SOL    HW2 2082   2.042   1.484   6.420
  395SOL     OW 2083   0.095   3.199   1.229
  395SOL    HW1 2084   0.141   3.136   1.292
  395SOL    HW2 2085   0.127   3.182   1.136
  396SOL     OW 2086   3.307   2.745   5.883
  396SOL    HW1 2087   3.316   2.792   5.795
  396SOL    HW2 2088   3.310   2.646   5.868
  397SOL     OW 2089   4.265   0.784   6.509
  397SOL    HW1 2090   4.362   0.776   6.532
  397SOL    HW2 2091   4.228   0.868   6.549
  398SOL     OW 2092   0.212   4.526   2.537
  398SOL    HW1 2093   0.189   4.612   2.583
  398SOL    HW2 2094   0.131   4.488   2.493
  399SOL     OW 2095   4.732   5.545   1.687
  399SOL    HW1 2096   4.790   5.478   1.733
  399SOL    HW2 2097   4.787   5.599   1.624
  400SOL     OW 2098   2.023   4.995   4.865
  400SOL    HW1 2099   2.115   5.011   4.902
  400SOL    HW2 2100   1.979   4.922   4.917
  401SOL     OW 2101   6.134   1.634   1.477
  401SOL    HW1 2102   6.106   1.604   1.568
  401SOL    HW2 2103   6.230   1.663   1.480
  402SOL     OW 2104   0.168   4.873   0.979
  402SOL    HW1 2105   0.265   4.865   1.001
  402SOL    HW2 2106   0.149   4.825   0.894
  403SOL     OW 2107   4.832   4.857   0.893
  403SOL    HW1 2108   4.858   4.771   0.850
  403SOL    HW2 2109   4.745   4.846   0.941
  404SOL     OW 2110   0.083   5.630   4.769
  404SOL    HW1 2111   0.090   5.641   4.670
  404SOL    HW2 2112   0.042   5.541   4.790
  405SOL     OW 2113   1.495   2.274   1.448
  405SOL    HW1 2114   1.443   2.342   1.501
  405SOL    HW2 2115   1.534   2.206   1.510
  406SOL     OW 2116   0.783   2.486   3.627
  406SOL    HW1 2117   0.812   2.522   3.539
  406SOL    HW2 2118   0.834   2.531   3.701
  407SOL     OW 2119   3.891   2.178   3.971
  407SOL    HW1 2120   3.837   2.162   4.053
  407SOL    HW2 2121   3.939   2.094   3.946
  408SOL     OW 2122   2.639   0.321   3.512
  408SOL    HW1 2123   2.731   0.316   3.472
  408SOL    HW2 2124   2.641   0.382   3.592
  409SOL     OW 2125   6.943   3.762   4.155
  409SOL    HW1 2126   6.881   3.686   4.135
  409SOL    HW2 2127   6.893   3.832   4.206
  410SOL     OW 2128   3.030   6.774   6.284
  410SOL    HW1 2129   2.954   6.827   6.246
  410SOL    HW2 2130   3.068   6.824   6.362
  411SOL     OW 2131   0.295   4.149   5.428
  411SOL    HW1 2132   0.304   4.050   5.430
  411SOL    HW2 2133   0.345   4.185   5.349
  412SOL     OW 2134   3.959   6.730   2.431
  412SOL    HW1 2135   3.919   6.701   2.518
  412SOL    HW2 2136   3.888   6.734   2.360
  413SOL     OW 2137   2.354   1.133   2.531
  413SOL    HW1 2138   2.361   1.219   2.583
  413SOL    HW2 2139   2.313   1.062   2.589
  414SOL     OW 2140   4.948   4.875   0.561
  414SOL    HW1 2141   4.918   4.961   0.603
  414SOL    HW2 2142   5.021   4.834   0.616
  415SOL     OW 2143   3.987   0.328   2.207
  415SOL    HW1 2144   3.952   0.387   2.280
  415SOL    HW2 2145   4.064   0.374   2.162
  416SOL     OW 2146   4.170   5.904   6.920
  416SOL    HW1 2147   4.240   5.942   6.860
  416SOL    HW2 2148   4.211   5.880   7.008
  417SOL     OW 2149   5.280   5.109   0.949
  417SOL    HW1 2150   5.292   5.185   1.013
  417SOL    HW2 2151   5.304   5.139   0.857
  418SOL     OW 2152   6.703   5.145   6.304
  418SOL    HW1 2153   6.656   5.058   6.293
  418SOL    HW2 2154   6.704   5.194   6.217
  419SOL     OW 2155   5.087   5.535   0.131
  419SOL    HW1 2156   4.995   5.496   0.122
  419SOL    HW2 2157   5.151   5.482   0.075
  420SOL     OW 2158   4.893   4.112   6.480
  420SOL    HW1 2159   4.849   4.187   6.530
  420SOL    HW2 2160   4.826   4.068   6.421
  421SOL     OW 2161   1.587   6.700   6.471
  421SOL    HW1 2162   1.587   6.704   6.571
  421SOL    HW2 2163   1.583   6.792   6.433
  422SOL     OW 2164   6.486   3.847   6.959
  422SOL    HW1 2165   6.397   3.893   6.961
  422SOL    HW2 2166   6.479   3.758   7.003
  423SOL     OW 2167   1.058   3.758   6.458
  423SOL    HW1 2168   1.122   3.707   6.401
  423SOL    HW2 2169   0.970   3.711   6.461
  424SOL     OW 2170   1.409   4.255   6.857
  424SOL    HW1 2171   1.360   4.168   6.851
  424SOL    HW2 2172   1.400   4.304   6.770
  425SOL     OW 2173   3.435   0.163   0.184
  425SOL    HW1 2174   3.438   0.257   0.218
  425SOL    HW2 2175   3.528   0.127   0.178
  426SOL     OW 2176   6.998   3.845   6.443
  426SOL    HW1 2177   0.025   3.783   6.386
  426SOL    HW2 2178   0.032   3.888   6.510
  427SOL     OW 2179   4.246   3.597   7.009
  427SOL    HW1 2180   4.243   3.614   0.081
  427SOL    HW2 2181   4.184   3.521   6.987
  428SOL     OW 2182   3.911   1.445   5.396
  428SOL    HW1 2183   4.005   1.419   5.420
  428SOL    HW2 2184   3.906   1.467   5.299
  429SOL     OW 2185   2.804   6.799   0.164
  429SOL    HW1 2186   2.744   6.876   0.182
  429SOL    HW2 2187   2.788   6.727   0.231
  430SOL     OW 2188   2.922   0.346   4.119
  430SOL    HW1 2189   2.973   0.276   4.168
  430SOL    HW2 2190   2.984   0.400   4.062
  431SOL     OW 2191   3.673   0.894   6.938
  431SOL    HW1 2192   3.681   0.938   6.848
  431SOL    HW2 2193   3.712   0.802   6.933
  432SOL     OW 2194   6.886   0.895   1.071
  432SOL    HW1 2195   6.973   0.847   1.058
  432SOL    HW2 2196   6.850   0.924   0.983
  433SOL     OW 2197   3.256   5.775   5.106
  433SOL    HW1 2198   3.317   5.761   5.028
  433SOL    HW2 2199   3.259   5.695   5.166
  434SOL     OW 2200   6.079   3.773   1.203
  434SOL    HW1 2201   6.018   3.722   1.264
  434SOL    HW2 2202   6.081   3.729   1.113
  435SOL     OW 2203   3.676   3.619   0.821
  435SOL    HW1 2204   3.755   3.591   0.876
  435SOL    HW2 2205   3.610   3.666   0.879
  436SOL     OW 2206   3.437   0.965   0.657
  436SOL    HW1 2207   3.337   0.969   0.660
  436SOL    HW2 2208   3.467   0.871   0.668
  437SOL     OW 2209   6.573   6.812   6.139
  437SOL    HW1 2210   6.515   6.860   6.074
  437SOL    HW2 2211   6.620   6.878   6.198
  438SOL     OW 2212   1.248   3.248   1.000
  438SOL    HW1 2213   1.229   3.263   0.903
  438SOL    HW2 2214   1.345   3.266   1.018
  439SOL     OW 2215   6.216   5.153   1.729
  439SOL    HW1 2216   6.229   5.192   1.820
  439SOL    HW2 2217   6.305   5.130   1.690
  440SOL     OW 2218   1.621   3.204   2.932
  440SOL    HW1 2219   1.699   3.158   2.889
  440SOL    HW2 2220   1.652   3.254   3.013
  441SOL     OW 2221   0.603   0.935   2.956
  441SOL    HW1 2222   0.696   0.929   2.920
  441SOL    HW2 2223   0.576   1.031   2.962
  442SOL     OW 2224   0.280   4.945   6.148
  442SOL    HW1 2225   0.274   4.997   6.063
  442SOL    HW2 2226   0.189   4.913   6.174
  443SOL     OW 2227   0.577   4.410   5.763
  443SOL    HW1 2228   0.510   4.482   5.785
  443SOL    HW2 2229   0.636   4.441   5.689
  444SOL     OW 2230   5.057   2.895   6.470
  444SOL    HW1 2231   5.134   2.953   6.498
  444SOL    HW2 2232   4.977   2.951   6.452
  445SOL     OW 2233   1.320   4.058   3.701
  445SOL    HW1 2234   1.344   3.991   3.630
  445SOL    HW2 2235   1.371   4.142   3.685
  446SOL     OW 2236   2.576   5.269   4.117
  446SOL    HW1 2237   2.560   5.301   4.210
  446SOL    HW2 2238   2.671   5.239   4.108
  447SOL     OW 2239   6.807   6.074   0.842
  447SOL    HW1 2240   6.898   6.034   0.828
  447SOL    HW2 2241   6.787   6.076   0.940
  448SOL     OW 2242   4.401   0.199   5.818
  448SOL    HW1 2243   4.389   0.298   5.807
  448SOL    HW2 2244   4.314   0.158   5.847
  449SOL     OW 2245   5.023   0.225   4.382
  449SOL    HW1 2246   5.104   0.260   4.335
  449SOL    HW2 2247   5.014   0.127   4.364
  450SOL     OW 2248   6.792   6.817   2.994
  450SOL    HW1 2249   6.771   6.781   3.085
  450SOL    HW2 2250   6.708   6.826   2.942
  451SOL     OW 2251   6.266   3.168   4.038
  451SOL    HW1 2252   6.335   3.237   4.016
  451SOL    HW2 2253   6.176   3.202   4.010
  452SOL     OW 2254   6.870   5.340   5.847
  452SOL    HW1 2255   6.876   5.359   5.749
  452SOL    HW2 2256   6.929   5.402   5.897
  453SOL     OW 2257   3.319   2.069   6.204
  453SOL    HW1 2258   3.289   1.979   6.171
  453SOL    HW2 2259   3.240   2.119   6.240
  454SOL     OW 2260   0.678   6.318   0.100
  454SOL    HW1 2261   0.739   6.285   0.028
  454SOL    HW2 2262   0.633   6.403   0.071
  455SOL     OW 2263   5.453   1.266   5.045
  455SOL    HW1 2264   5.439   1.262   4.946
  455SOL    HW2 2265   5.369   1.297   5.089
  456SOL     OW 2266   4.055   4.926   6.978
  456SOL    HW1 2267   4.040   4.940   0.049
  456SOL    HW2 2268   4.035   4.831   6.954
  457SOL     OW 2269   0.916   4.600   1.552
  457SOL    HW1 2270   1.009   4.636   1.557
  457SOL    HW2 2271   0.919   4.501   1.541
  458SOL     OW 2272   0.559   5.759   5.415
  458SOL    HW1 2273   0.579   5.810   5.331
  458SOL    HW2 2274   0.641   5.712   5.446
  459SOL     OW 2275   1.723   0.847   3.217
  459SOL    HW1 2276   1.710   0.946   3.213
  459SOL    HW2 2277   1.688   0.813   3.305
  460SOL     OW 2278   6.612   2.083   3.977
  460SOL    HW1 2279   6.647   2.175   3.961
  460SOL    HW2 2280   6.590   2.072   4.073
  461SOL     OW 2281   5.821   5.373   5.214
  461SOL    HW1 2282   5.766   5.391   5.132
  461SOL    HW2 2283   5.897   5.313   5.190
  462SOL     OW 2284   2.283   2.140   0.131
  462SOL    HW1 2285   2.283   2.089   0.045
  462SOL    HW2 2286   2.373   2.181   0.146
  463SOL     OW 2287   6.542   5.748   2.330
  463SOL    HW1 2288   6.562   5.835   2.283
  463SOL    HW2 2289   6.619   5.686   2.318
  464SOL     OW 2290   1.907   1.434   5.734
  464SOL    HW1 2291   1.955   1.446   5.821
  464SOL    HW2 2292   1.809   1.441   5.748
  465SOL     OW 2293   0.372   3.381   5.746
  465SOL    HW1 2294   0.296   3.318   5.759
  465SOL    HW2 2295   0.336   3.474   5.733
  466SOL     OW 2296   2.472   0.999   3.385
  466SOL    HW1 2297   2.500   0.920   3.440
  466SOL    HW2 2298   2.442   0.968   3.295
  467SOL     OW 2299   2.133   1.900   5.282
  467SOL    HW1 2300   2.113   1.822   5.223
  467SOL    HW2 2301   2.173   1.867   5.368
  468SOL     OW 2302   3.399   3.589   2.523
  468SOL    HW1 2303   3.422   3.684   2.500
  468SOL    HW2 2304   3.302   3.573   2.504
  469SOL     OW 2305   3.286   6.303   0.138
  469SOL    HW1 2306   3.343   6.235   0.185
  469SOL    HW2 2307   3.192   6.294   0.169
  470SOL     OW 2308   4.368   6.969   3.200
  470SOL    HW1 2309   4.308   6.912   3.256
  470SOL    HW2 2310   4.431   6.910   3.149
  471SOL     OW 2311   2.981   1.898   4.460
  471SOL    HW1 2312   3.044   1.975   4.458
  471SOL    HW2 2313   2.956   1.873   4.367
  472SOL     OW 2314   3.949   4.404   5.273
  472SOL    HW1 2315   3.910   4.313   5.255
  472SOL    HW2 2316   4.038   4.411   5.229
  473SOL     OW 2317   0.674   4.277   4.149
  473SOL    HW1 2318   0.651   4.193   4.199
  473SOL    HW2 2319   0.763   4.266   4.106
  474SOL     OW 2320   5.185   4.458   5.207
  474SOL    HW1 2321   5.266   4.472   5.264
  474SOL    HW2 2322   5.160   4.361   5.207
  475SOL     OW 2323   1.860   6.570   6.444
  475SOL    HW1 2324   1.803   6.543   6.522
  475SOL    HW2 2325   1.801   6.601   6.370
  476SOL     OW 2326   0.480   5.609   2.473
  476SOL    HW1 2327   0.565   5.596   2.422
  476SOL    HW2 2328   0.491   5.685   2.538
  477SOL     OW 2329   2.164   5.218   3.811
  477SOL    HW1 2330   2.212   5.257   3.889
  477SOL    HW2 2331   2.125   5.292   3.756
  478SOL     OW 2332   1.525   5.454   3.252
  478SOL    HW1 2333   1.476   5.403   3.322
  478SOL    HW2 2334   1.605   5.401   3.222
  479SOL     OW 2335   3.438   1.543   1.115
  479SOL    HW1 2336   3.517   1.521   1.172
  479SOL    HW2 2337   3.371   1.595   1.169
  480SOL     OW 2338   1.510   6.503   3.352
  480SOL    HW1 2339   1.585   6.556   3.392
  480SOL    HW2 2340   1.546   6.418   3.314
  481SOL     OW 2341   2.499   6.905   1.288
  481SOL    HW1 2342   2.445   6.915   1.205
  481SOL    HW2 2343   2.439   6.886   1.366
  482SOL     OW 2344   5.625   5.379   1.001
  482SOL    HW1 2345   5.536   5.396   0.960
  482SOL    HW2 2346   5.648   5.282   0.993
  483SOL     OW 2347   6.054   1.714   2.023
  483SOL    HW1 2348   6.050   1.687   1.927
  483SOL    HW2 2349   6.087   1.808   2.030
  484SOL     OW 2350   6.854   2.362   4.605
  484SOL    HW1 2351   6.827   2.413   4.686
  484SOL    HW2 2352   6.788   2.378   4.532
  485SOL     OW 2353   3.588   5.964   1.672
  485SOL    HW1 2354   3.588   6.040   1.737
  485SOL    HW2 2355   3.536   5.990   1.591
  486SOL     OW 2356   0.335   0.902   5.829
  486SOL    HW1 2357   0.281   0.862   5.755
  486SOL    HW2 2358   0.376   0.830   5.884
  487SOL     OW 2359   6.309   2.875   6.389
  487SOL    HW1 2360   6.216   2.843   6.409
  487SOL    HW2 2361   6.358   2.887   6.475
  488SOL     OW 2362   0.958   4.336   2.231
  488SOL    HW1 2363   0.961   4.412   2.166
  488SOL    HW2 2364   1.050   4.298   2.242
  489SOL     OW 2365   3.303   6.032   6.522
  489SOL    HW1 2366   3.206   6.016   6.543
  489SOL    HW2 2367   3.358   5.957   6.560
  490SOL     OW 2368   5.349   6.989   4.003
  490SOL    HW1 2369   5.327   6.954   3.911
  490SOL    HW2 2370   5.448   7.002   4.011
  491SOL     OW 2371   7.004   2.439   3.632
  491SOL    HW1 2372   6.975   2.450   3.537
  491SOL    HW2 2373   0.003   2.344   3.648
  492SOL     OW 2374   1.746   1.168   4.770
  492SOL    HW1 2375   1.687   1.205   4.698
  492SOL    HW2 2376   1.842   1.192   4.750
  493SOL     OW 2377   5.947   4.111   4.619
  493SOL    HW1 2378   5.999   4.026   4.610
  493SOL    HW2 2379   5.895   4.127   4.535
  494SOL     OW 2380   6.258   1.508   6.675
  494SOL    HW1 2381   6.290   1.569   6.604
  494SOL    HW2 2382   6.299   1.417   6.664
  495SOL     OW 2383   4.613   4.276   0.557
  495SOL    HW1 2384   4.693   4.285   0.617
  495SOL    HW2 2385   4.643   4.242   0.467
  496SOL     OW 2386   5.719   2.832   2.757
  496SOL    HW1 2387   5.733   2.801   2.663
  496SOL    HW2 2388   5.788   2.901   2.780
  497SOL     OW 2389   3.929   6.690   4.216
  497SOL    HW1 2390   3.946   6.679   4.118
  497SOL    HW2 2391   3.968   6.777   4.248
  498SOL     OW 2392   1.571   2.975   2.171
  498SOL    HW1 2393   1.626   2.893   2.185
  498SOL    HW2 2394   1.490   2.972   2.228
  499SOL     OW 2395   2.950   0.997   5.092
  499SOL    HW1 2396   2.858   1.025   5.119
  499SOL    HW2 2397   3.013   1.012   5.168
  500SOL     OW 2398   1.647   4.700   1.915
  500SOL    HW1 2399   1.629   4.755   1.834
  500SOL    HW2 2400   1.668   4.606   1.887
  501SOL     OW 2401   1.194   4.753   0.046
  501SOL    HW1 2402   1.130   4.822   0.079
  501SOL    HW2 2403   1.287   4.782   0.066
  502SOL     OW 2404   3.382   4.958   6.386
  502SOL    HW1 2405   3.335   4.883   6.339
  502SOL    HW2 2406   3.318   5.034   6.400
  503SOL     OW 2407   5.864   5.510   4.765
  503SOL    HW1 2408   5.927   5.443   4.805
  503SOL    HW2 2409   5.911   5.598   4.756
  504SOL     OW 2410   1.775   5.954   5.017
  504SOL    HW1 2411   1.788   5.864   5.059
  504SOL    HW2 2412   1.703   5.948   4.948
  505SOL     OW 2413   3.774   6.617   5.217
  505SOL    HW1 2414   3.689   6.661   5.247
  505SOL    HW2 2415   3.849   6.684   5.221
  506SOL     OW 2416   1.917   3.363   0.172
  506SOL    HW1 2417   1.991   3.297   0.186
  506SOL    HW2 2418   1.853   3.358   0.248
  507SOL     OW 2419   3.770   2.136   4.227
  507SOL    HW1 2420   3.824   2.052   4.228
  507SOL    HW2 2421   3.784   2.187   4.311
  508SOL     OW 2422   5.969   4.514   3.899
  508SOL    HW1 2423   5.895   4.517   3.967
  508SOL    HW2 2424   5.939   4.561   3.816
  509SOL     OW 2425   4.380   2.982   1.036
  509SOL    HW1 2426   4.420   2.927   0.963
  509SOL    HW2 2427   4.434   2.970   1.120
  510SOL     OW 2428   0.867   4.188   4.978
  510SOL    HW1 2429   0.842   4.144   5.065
  510SOL    HW2 2430   0.966   4.184   4.966
  511SOL     OW 2431   0.263   6.615   1.240
  511SOL    HW1 2432   0.272   6.577   1.331
  511SOL    HW2 2433   0.166   6.624   1.217
  512SOL     OW 2434   1.372   3.966   6.062
  512SOL    HW1 2435   1.318   3.943   5.981
  512SOL    HW2 2436   1.469   3.951   6.043
  513SOL     OW 2437   1.330   5.202   4.750
  513SOL    HW1 2438   1.400   5.185   4.680
  513SOL    HW2 2439   1.364   5.172   4.839
  514SOL     OW 2440   6.180   1.635   3.316
  514SOL    HW1 2441   6.240   1.570   3.270
  514SOL    HW2 2442   6.235   1.700   3.368
  515SOL     OW 2443   2.383   5.540   0.249
  515SOL    HW1 2444   2.412   5.498   0.163
  515SOL    HW2 2445   2.283   5.539   0.254
  516SOL     OW 2446   1.344   5.047   3.204
  516SOL    HW1 2447   1.394   5.015   3.284
  516SOL    HW2 2448   1.408   5.064   3.129
  517SOL     OW 2449   4.850   0.751   6.270
  517SOL    HW1 2450   4.871   0.786   6.361
  517SOL    HW2 2451   4.833   0.653   6.275
  518SOL     OW 2452   2.299   1.899   0.780
  518SOL    HW1 2453   2.354   1.970   0.824
  518SOL    HW2 2454   2.274   1.930   0.688
  519SOL     OW 2455   1.190   0.122   7.009
  519SOL    HW1 2456   1.124   0.103   0.054
  519SOL    HW2 2457   1.219   0.037   6.965
  520SOL     OW 2458   5.780   4.173   4.388
  520SOL    HW1 2459   5.715   4.226   4.444
  520SOL    HW2 2460   5.808   4.227   4.309
  521SOL     OW 2461   6.194   0.429   0.678
  521SOL    HW1 2462   6.096   0.405   0.682
  521SOL    HW2 2463   6.206   0.507   0.618
  522SOL     OW 2464   3.326   3.851   5.793
  522SOL    HW1 2465   3.269   3.780   5.835
  522SOL    HW2 2466   3.276   3.895   5.719
  523SOL     OW 2467   6.598   6.852   4.082
  523SOL    HW1 2468   6.668   6.839   4.011
  523SOL    HW2 2469   6.602   6.946   4.115
  524SOL     OW 2470   4.036   0.906   5.605
  524SOL    HW1 2471   4.114   0.887   5.546
  524SOL    HW2 2472   4.068   0.925   5.697
  525SOL     OW 2473   2.212   2.406   6.767
  525SOL    HW1 2474   2.189   2.433   6.861
  525SOL    HW2 2475   2.263   2.320   6.769
  526SOL     OW 2476   4.660   5.211   4.258
  526SOL    HW1 2477   4.754   5.244   4.249
  526SOL    HW2 2478   4.596   5.281   4.226
  527SOL     OW 2479   0.419   2.226   0.141
  527SOL    HW1 2480   0.499   2.201   0.088
  527SOL    HW2 2481   0.439   2.307   0.197
  528SOL     OW 2482   2.044   1.555   5.530
  528SOL    HW1 2483   1.986   1.574   5.452
  528SOL    HW2 2484   1.992   1.505   5.599
  529SOL     OW 2485   6.615   4.866   4.100
  529SOL    HW1 2486   6.521   4.848   4.129
  529SOL    HW2 2487   6.643   4.795   4.035
  530SOL     OW 2488   0.398   2.760   5.485
  530SOL    HW1 2489   0.372   2.674   5.442
  530SOL    HW2 2490   0.317   2.820   5.492
  531SOL     OW 2491   7.001   0.886   0.120
  531SOL    HW1 2492   6.904   0.898   0.099
  531SOL    HW2 2493   0.028   0.956   0.072
  532SOL     OW 2494   1.924   0.678   5.792
  532SOL    HW1 2495   1.947   0.582   5.803
  532SOL    HW2 2496   2.008   0.733   5.794
  533SOL     OW 2497   4.882   0.318   4.617
  533SOL    HW1 2498   4.933   0.282   4.539
  533SOL    HW2 2499   4.836   0.402   4.591
  534SOL     OW 2500   3.094   5.148   2.862
  534SOL    HW1 2501   3.076   5.050   2.869
  534SOL    HW2 2502   3.120   5.170   2.768
  535SOL     OW 2503   6.356   4.137   2.599
  535SOL    HW1 2504   6.355   4.096   2.690
  535SOL    HW2 2505   6.376   4.235   2.607
  536SOL     OW 2506   0.891   6.692   0.619
  536SOL    HW1 2507   0.884   6.761   0.692
  536SOL    HW2 2508   0.802   6.648   0.605
  537SOL     OW 2509   2.439   6.843   3.585
  537SOL    HW1 2510   2.356   6.879   3.627
  537SOL    HW2 2511   2.430   6.744   3.571
  538SOL     OW 2512   1.791   4.700   4.031
  538SOL    HW1 2513   1.764   4.791   4.063
  538SOL    HW2 2514   1.780   4.634   4.105
  539SOL     OW 2515   0.988   6.130   0.640
  539SOL    HW1 2516   1.068   6.135   0.580
  539SOL    HW2 2517   0.944   6.041   0.629
  540SOL     OW 2518   1.656   2.971   1.007
  540SOL    HW1 2519   1.586   2.912   1.047
  540SOL    HW2 2520   1.742   2.922   1.000
  541SOL     OW 2521   3.985   5.243   5.271
  541SOL    HW1 2522   4.002   5.335   5.237
  541SOL    HW2 2523   4.050   5.180   5.228
  542SOL     OW 2524   5.731   6.295   6.522
  542SOL    HW1 2525   5.812   6.252   6.482
  542SOL    HW2 2526   5.748   6.393   6.533
  543SOL     OW 2527   6.518   6.499   0.955
  543SOL    HW1 2528   6.433   6.551   0.971
  543SOL    HW2 2529   6.497   6.402   0.952
  544SOL     OW 2530   0.458   5.553   0.263
  544SOL    HW1 2531   0.374   5.500   0.273
  544SOL    HW2 2532   0.530   5.512   0.319
  545SOL     OW 2533   3.929   1.626   4.118
  545SOL    HW1 2534   3.991   1.688   4.167
  545SOL    HW2 2535   3.835   1.656   4.133
  546SOL     OW 2536   1.693   2.490   0.386
  546SOL    HW1 2537   1.599   2.466   0.413
  546SOL    HW2 2538   1.752   2.410   0.398
  547SOL     OW 2539   2.996   1.691   0.380
  547SOL    HW1 2540   2.919   1.709   0.440
  547SOL    HW2 2541   2.989   1.598   0.342
  548SOL     OW 2542   3.004   3.041   5.154
  548SOL    HW1 2543   3.007   3.086   5.065
  548SOL    HW2 2544   2.910   3.035   5.185
  549SOL     OW 2545   0.307   4.028   1.233
  549SOL    HW1 2546   0.361   4.111   1.241
  549SOL    HW2 2547   0.219   4.049   1.190
  550SOL     OW 2548   6.619   3.554   0.435
  550SOL    HW1 2549   6.674   3.491   0.489
  550SOL    HW2 2550   6.536   3.507   0.405
  551SOL     OW 2551   0.549   1.226   0.164
  551SOL    HW1 2552   0.569   1.287   0.087
  551SOL    HW2 2553   0.450   1.218   0.175
  552SOL     OW 2554   4.626   4.764   0.460
  552SOL    HW1 2555   4.663   4.738   0.371
  552SOL    HW2 2556   4.648   4.694   0.528
  553SOL     OW 2557   1.184   2.474   1.665
  553SOL    HW1 2558   1.187   2.375   1.649
  553SOL    HW2 2559   1.213   2.522   1.583
  554SOL     OW 2560   4.557   4.875   5.028
  554SOL    HW1 2561   4.605   4.851   4.943
  554SOL    HW2 2562   4.461   4.849   5.020
  555SOL     OW 2563   1.540   4.546   4.986
  555SOL    HW1 2564   1.510   4.513   5.076
  555SOL    HW2 2565   1.479   4.510   4.915
  556SOL     OW 2566   6.058   3.751   2.596
  556SOL    HW1 2567   6.133   3.765   2.532
  556SOL    HW2 2568   5.989   3.691   2.554
  557SOL     OW 2569   6.788   5.613   6.057
  557SOL    HW1 2570   6.887   5.602   6.052
  557SOL    HW2 2571   6.750   5.548   6.123
  558SOL     OW 2572   4.577   3.283   5.670
  558SOL    HW1 2573   4.594   3.279   5.572
  558SOL    HW2 2574   4.608   3.198   5.712
  559SOL     OW 2575   5.821   5.400   5.981
  559SOL    HW1 2576   5.795   5.397   6.078
  559SOL    HW2 2577   5.904   5.347   5.967
  560SOL     OW 2578   4.198   6.702   6.995
  560SOL    HW1 2579   4.290   6.672   6.968
  560SOL    HW2 2580   4.190   6.801   6.981
  561SOL     OW 2581   5.577   6.661   2.191
  561SOL    HW1 2582   5.490   6.620   2.167
  561SOL    HW2 2583   5.612   6.619   2.275
  562SOL     OW 2584   6.440   0.914   0.395
  562SOL    HW1 2585   6.534   0.944   0.412
  562SOL    HW2 2586   6.410   0.853   0.469
  563SOL     OW 2587   2.982   0.596   4.937
  563SOL    HW1 2588   3.074   0.573   4.906
  563SOL    HW2 2589   2.950   0.678   4.889
  564SOL     OW 2590   0.571   1.487   5.745
  564SOL    HW1 2591   0.587   1.397   5.785
  564SOL    HW2 2592   0.540   1.476   5.651
  565SOL     OW 2593   4.235   3.862   6.024
  565SOL    HW1 2594   4.190   3.874   5.936
  565SOL    HW2 2595   4.190   3.788   6.075
  566SOL     OW 2596   6.629   4.962   2.249
  566SOL    HW1 2597   6.620   4.903   2.169
  566SOL    HW2 2598   6.723   4.960   2.283
  567SOL     OW 2599   3.569   3.835   5.235
  567SOL    HW1 2600   3.515   3.751   5.230
  567SOL    HW2 2601   3.508   3.912   5.258
  568SOL     OW 2602   1.882   0.976   6.164
  568SOL    HW1 2603   1.842   0.947   6.077
  568SOL    HW2 2604   1.812   0.971   6.236
  569SOL     OW 2605   1.968   4.199   6.751
  569SOL    HW1 2606   2.003   4.251   6.829
  569SOL    HW2 2607   1.899   4.133   6.784
  570SOL     OW 2608   0.199   6.681   0.364
  570SOL    HW1 2609   0.182   6.757   0.426
  570SOL    HW2 2610   0.140   6.690   0.283
  571SOL     OW 2611   3.844   6.237   2.185
  571SOL    HW1 2612   3.833   6.139   2.166
  571SOL    HW2 2613   3.785   6.289   2.124
  572SOL     OW 2614   1.883   4.313   4.510
  572SOL    HW1 2615   1.948   4.312   4.586
  572SOL    HW2 2616   1.893   4.398   4.459
  573SOL     OW 2617   2.973   2.172   0.088
  573SOL    HW1 2618   3.048   2.130   0.037
  573SOL    HW2 2619   2.971   2.270   0.070
  574SOL     OW 2620   2.925   1.913   3.921
  574SOL    HW1 2621   2.916   2.012   3.913
  574SOL    HW2 2622   3.022   1.889   3.932
  575SOL     OW 2623   5.396   2.347   6.561
  575SOL    HW1 2624   5.444   2.277   6.614
  575SOL    HW2 2625   5.446   2.433   6.567
  576SOL     OW 2626   1.191   2.922   2.534
  576SOL    HW1 2627   1.255   2.936   2.458
  576SOL    HW2 2628   1.207   2.991   2.604
  577SOL     OW 2629   3.853   1.931   4.477
  577SOL    HW1 2630   3.767   1.898   4.517
  577SOL    HW2 2631   3.878   2.018   4.519
  578SOL     OW 2632   0.182   3.649   4.198
  578SOL    HW1 2633   0.207   3.708   4.275
  578SOL    HW2 2634   0.083   3.653   4.185
  579SOL     OW 2635   3.885   3.692   0.107
  579SOL    HW1 2636   3.954   3.627   0.139
  579SOL    HW2 2637   3.808   3.692   0.171
  580SOL     OW 2638   0.393   6.957   0.211
  580SOL    HW1 2639   0.372   6.892   0.138
  580SOL    HW2 2640   0.452   6.914   0.278
  581SOL     OW 2641   4.111   3.466   2.560
  581SOL    HW1 2642   4.086   3.379   2.518
  581SOL    HW2 2643   4.113   3.538   2.490
  582SOL     OW 2644   6.425   4.098   0.747
  582SOL    HW1 2645   6.358   4.053   0.807
  582SOL    HW2 2646   6.505   4.038   0.736
  583SOL     OW 2647   2.321   6.604   6.571
  583SOL    HW1 2648   2.379   6.580   6.493
  583SOL    HW2 2649   2.377   6.630   6.649
  584SOL     OW 2650   1.143   5.014   5.060
  584SOL    HW1 2651   1.111   5.010   5.155
  584SOL    HW2 2652   1.067   5.038   5.000
  585SOL     OW 2653   5.656   0.624   5.643
  585SOL    HW1 2654   5.721   0.571   5.588
  585SOL    HW2 2655   5.570   0.634   5.593
  586SOL     OW 2656   2.816   6.251   1.349
  586SOL    HW1 2657   2.822   6.187   1.426
  586SOL    HW2 2658   2.843   6.205   1.265
  587SOL     OW 2659   1.587   3.266   6.205
  587SOL    HW1 2660   1.604   3.201   6.279
  587SOL    HW2 2661   1.638   3.350   6.221
  588SOL     OW 2662   2.117   0.129   1.649
  588SOL    HW1 2663   2.153   0.094   1.562
  588SOL    HW2 2664   2.185   0.116   1.721
  589SOL     OW 2665   4.612   5.089   1.598
  589SOL    HW1 2666   4.570   5.093   1.688
  589SOL    HW2 2667   4.550   5.130   1.531
  590SOL     OW 2668   6.448   3.527   1.828
  590SOL    HW1 2669   6.424   3.624   1.841
  590SOL    HW2 2670   6.369   3.478   1.792
  591SOL     OW 2671   2.831   0.149   2.780
  591SOL    HW1 2672   2.904   0.081   2.778
  591SOL    HW2 2673   2.815   0.184   2.687
  592SOL     OW 2674   5.038   0.262   5.539
  592SOL    HW1 2675   5.036   0.274   5.638
  592SOL    HW2 2676   5.127   0.225   5.511
  593SOL     OW 2677   6.983   1.175   4.668
  593SOL    HW1 2678   0.037   1.223   4.702
  593SOL    HW2 2679   6.978   1.185   4.569
  594SOL     OW 2680   5.734   2.082   1.310
  594SOL    HW1 2681   5.764   1.994   1.274
  594SOL    HW2 2682   5.654   2.069   1.368
  595SOL     OW 2683   3.995   6.912   3.443
  595SOL    HW1 2684   4.065   6.870   3.386
  595SOL    HW2 2685   4.027   7.002   3.475
  596SOL     OW 2686   0.707   4.364   1.239
  596SOL    HW1 2687   0.678   4.451   1.199
  596SOL    HW2 2688   0.673   4.288   1.183
  597SOL     OW 2689   4.245   2.326   6.041
  597SOL    HW1 2690   4.207   2.365   6.125
  597SOL    HW2 2691   4.171   2.296   5.981
  598SOL     OW 2692   2.998   4.030   1.413
  598SOL    HW1 2693   2.939   3.950   1.426
  598SOL    HW2 2694   3.089   4.000   1.383
  599SOL     OW 2695   6.452   5.805   3.668
  599SOL    HW1 2696   6.404   5.892   3.661
  599SOL    HW2 2697   6.429   5.762   3.756
  600SOL     OW 2698   2.711   1.359   1.572
  600SOL    HW1 2699   2.770   1.430   1.609
  600SOL    HW2 2700   2.636   1.341   1.636
  601SOL     OW 2701   1.772   4.960   3.130
  601SOL    HW1 2702   1.691   4.985   3.078
  601SOL    HW2 2703   1.759   4.870   3.172
  602SOL     OW 2704   6.980   0.167   2.426
  602SOL    HW1 2705   0.023   0.161   2.498
  602SOL    HW2 2706   7.007   0.110   2.348
  603SOL     OW 2707   4.260   1.653   3.184
  603SOL    HW1 2708   4.180   1.596   3.202
  603SOL    HW2 2709   4.262   1.679   3.087
  604SOL     OW 2710   1.282   3.647   5.467
  604SOL    HW1 2711   1.263   3.575   5.401
  604SOL    HW2 2712   1.255   3.736   5.430
  605SOL     OW 2713   5.430   0.342   4.194
  605SOL    HW1 2714   5.391   0.432   4.177
  605SOL    HW2 2715   5.401   0.309   4.284
  606SOL     OW 2716   2.828   6.589   2.272
  606SOL    HW1 2717   2.872   6.661   2.325
  606SOL    HW2 2718   2.742   6.563   2.316
  607SOL     OW 2719   3.583   0.615   4.388
  607SOL    HW1 2720   3.661   0.635   4.447
  607SOL    HW2 2721   3.503   0.594   4.444
  608SOL     OW 2722   5.265   3.435   1.626
  608SOL    HW1 2723   5.260   3.339   1.601
  608SOL    HW2 2724   5.359   3.458   1.652
  609SOL     OW 2725   3.279   4.108   4.801
  609SOL    HW1 2726   3.327   4.042   4.742
  609SOL    HW2 2727   3.231   4.175   4.745
  610SOL     OW 2728   6.212   1.963   4.582
  610SOL    HW1 2729   6.218   1.891   4.652
  610SOL    HW2 2730   6.163   1.928   4.503
  611SOL     OW 2731   5.629   6.886   0.352
  611SOL    HW1 2732   5.650   6.789   0.366
  611SOL    HW2 2733   5.600   6.901   0.258
  612SOL     OW 2734   1.873   4.762   6.648
  612SOL    HW1 2735   1.937   4.727   6.579
  612SOL    HW2 2736   1.792   4.704   6.651
  613SOL     OW 2737   4.088   1.263   6.527
  613SOL    HW1 2738   3.994   1.261   6.562
  613SOL    HW2 2739   4.087   1.289   6.430
  614SOL     OW 2740   4.752   3.260   1.006
  614SOL    HW1 2741   4.845   3.252   1.043
  614SOL    HW2 2742   4.713   3.348   1.032
  615SOL     OW 2743   5.614   6.438   0.556
  615SOL    HW1 2744   5.515   6.445   0.563
  615SOL    HW2 2745   5.643   6.449   0.461
  616SOL     OW 2746   4.894   1.241   4.424
  616SOL    HW1 2747   4.846   1.160   4.389
  616SOL    HW2 2748   4.984   1.215   4.457
  617SOL     OW 2749   6.706   6.468   4.945
  617SOL    HW1 2750   6.716   6.494   4.849
  617SOL    HW2 2751   6.626   6.515   4.984
  618SOL     OW 2752   5.486   5.324   0.632
  618SOL    HW1 2753   5.574   5.297   0.593
  618SOL    HW2 2754   5.427   5.244   0.642
  619SOL     OW 2755   2.184   6.869   6.726
  619SOL    HW1 2756   2.260   6.806   6.742
  619SOL    HW2 2757   2.144   6.896   6.813
  620SOL     OW 2758   4.630   2.157   2.140
  620SOL    HW1 2759   4.690   2.127   2.214
  620SOL    HW2 2760   4.616   2.256   2.145
  621SOL     OW 2761   3.059   0.532   6.307
  621SOL    HW1 2762   2.995   0.602   6.275
  621SOL    HW2 2763   3.008   0.453   6.340
  622SOL     OW 2764   0.580   3.473   5.960
  622SOL    HW1 2765   0.547   3.430   5.876
  622SOL    HW2 2766   0.651   3.416   6.001
  623SOL     OW 2767   6.587   1.290   2.793
  623SOL    HW1 2768   6.621   1.199   2.815
  623SOL    HW2 2769   6.647   1.359   2.834
  624SOL     OW 2770   6.732   1.378   6.416
  624SOL    HW1 2771   6.816   1.426   6.441
  624SOL    HW2 2772   6.653   1.426   6.456
  625SOL     OW 2773   3.280   1.289   1.544
  625SOL    HW1 2774   3.186   1.299   1.578
  625SOL    HW2 2775   3.322   1.379   1.533
  626SOL     OW 2776   0.546   6.083   3.467
  626SOL    HW1 2777   0.479   6.011   3.451
  626SOL    HW2 2778   0.613   6.052   3.535
  627SOL     OW 2779   6.468   5.207   6.513
  627SOL    HW1 2780   6.513   5.260   6.441
  627SOL    HW2 2781   6.536   5.182   6.582
  628SOL     OW 2782   3.773   4.420   6.370
  628SOL    HW1 2783   3.844   4.386   6.432
  628SOL    HW2 2784   3.751   4.515   6.393
  629SOL     OW 2785   1.501   0.134   0.116
  629SOL    HW1 2786   1.536   0.115   0.208
  629SOL    HW2 2787   1.407   0.101   0.109
  630SOL     OW 2788   6.485   2.052   1.044
  630SOL    HW1 2789   6.396   2.081   1.009
  630SOL    HW2 2790   6.557   2.105   0.999
  631SOL     OW 2791   1.846   3.669   3.198
  631SOL    HW1 2792   1.801   3.628   3.118
  631SOL    HW2 2793   1.802   3.636   3.281
  632SOL     OW 2794   3.265   4.378   1.281
  632SOL    HW1 2795   3.182   4.341   1.241
  632SOL    HW2 2796   3.274   4.475   1.256
  633SOL     OW 2797   0.708   5.715   0.470
  633SOL    HW1 2798   0.645   5.743   0.543
  633SOL    HW2 2799   0.683   5.623   0.439
  634SOL     OW 2800   3.307   3.183   5.809
  634SOL    HW1 2801   3.311   3.155   5.713
  634SOL    HW2 2802   3.385   3.145   5.858
  635SOL     OW 2803   6.005   6.691   6.454
  635SOL    HW1 2804   6.065   6.771   6.450
  635SOL    HW2 2805   6.042   6.619   6.395
  636SOL     OW 2806   2.179   1.382   4.510
  636SOL    HW1 2807   2.223   1.320   4.444
  636SOL    HW2 2808   2.249   1.430   4.563
  637SOL     OW 2809   6.910   1.793   2.323
  637SOL    HW1 2810   6.863   1.880   2.310
  637SOL    HW2 2811   6.962   1.795   2.409
  638SOL     OW 2812   6.851   3.362   5.048
  638SOL    HW1 2813   6.925   3.412   5.094
  638SOL    HW2 2814   6.882   3.270   5.025
  639SOL     OW 2815   6.119   3.089   2.168
  639SOL    HW1 2816   6.028   3.065   2.134
  639SOL    HW2 2817   6.117   3.100   2.267
  640SOL     OW 2818   6.799   3.517   3.060
  640SOL    HW1 2819   6.742   3.599   3.068
  640SOL    HW2 2820   6.784   3.474   2.971
  641SOL     OW 2821   2.248   5.619   4.370
  641SOL    HW1 2822   2.165   5.571   4.401
  641SOL    HW2 2823   2.293   5.565   4.300
  642SOL     OW 2824   0.583   5.539   4.950
  642SOL    HW1 2825   0.633   5.507   5.031
  642SOL    HW2 2826   0.626   5.502   4.868
  643SOL     OW 2827   4.197   5.227   0.679
  643SOL    HW1 2828   4.186   5.281   0.762
  643SOL    HW2 2829   4.291   5.236   0.646
  644SOL     OW 2830   5.880   0.382   4.488
  644SOL    HW1 2831   5.914   0.377   4.582
  644SOL    HW2 2832   5.957   0.389   4.425
  645SOL     OW 2833   4.113   6.478   1.839
  645SOL    HW1 2834   4.031   6.510   1.887
  645SOL    HW2 2835   4.111   6.379   1.831
  646SOL     OW 2836   3.520   1.800   5.202
  646SOL    HW1 2837   3.488   1.790   5.108
  646SOL    HW2 2838   3.501   1.716   5.253
  647SOL     OW 2839   2.778   1.692   0.535
  647SOL    HW1 2840   2.740   1.732   0.452
  647SOL    HW2 2841   2.763   1.753   0.612
  648SOL     OW 2842   5.726   1.521   4.062
  648SOL    HW1 2843   5.628   1.541   4.073
  648SOL    HW2 2844   5.753   1.450   4.127
  649SOL     OW 2845   3.143   5.601   0.589
  649SOL    HW1 2846   3.061   5.606   0.532
  649SOL    HW2 2847   3.224   5.609   0.531
  650SOL     OW 2848   2.290   3.066   1.229
  650SOL    HW1 2849   2.307   3.011   1.147
  650SOL    HW2 2850   2.320   3.160   1.213
  651SOL     OW 2851   0.344   1.581   3.287
  651SOL    HW1 2852   0.403   1.584   3.206
  651SOL    HW2 2853   0.261   1.530   3.265
  652SOL     OW 2854   3.802   5.929   0.739
  652SOL    HW1 2855   3.892   5.901   0.705
  652SOL    HW2 2856   3.803   5.931   0.839
  653SOL     OW 2857   1.613   0.026   2.658
  653SOL    HW1 2858   1.683   0.029   2.587
  653SOL    HW2 2859   1.553   0.106   2.649
  654SOL     OW 2860   1.197   6.836   6.014
  654SOL    HW1 2861   1.208   6.926   6.056
  654SOL    HW2 2862   1.109   6.832   5.967
  655SOL     OW 2863   1.133   3.827   0.797
  655SOL    HW1 2864   1.113   3.877   0.713
  655SOL    HW2 2865   1.160   3.733   0.776
  656SOL     OW 2866   2.218   0.283   0.045
  656SOL    HW1 2867   2.175   0.314   6.987
  656SOL    HW2 2868   2.238   0.185   0.038
  657SOL     OW 2869   3.902   3.499   4.065
  657SOL    HW1 2870   3.833   3.565   4.094
  657SOL    HW2 2871   3.864   3.406   4.069
  658SOL     OW 2872   1.976   0.638   3.964
  658SOL    HW1 2873   1.981   0.736   3.984
  658SOL    HW2 2874   1.943   0.626   3.870
  659SOL     OW 2875   1.908   6.039   6.841
  659SOL    HW1 2876   1.861   6.006   6.759
  659SOL    HW2 2877   1.949   5.961   6.889
  660SOL     OW 2878   5.473   3.747   2.454
  660SOL    HW1 2879   5.493   3.835   2.498
  660SOL    HW2 2880   5.506   3.673   2.511
  661SOL     OW 2881   5.067   5.566   3.910
  661SOL    HW1 2882   5.149   5.580   3.967
  661SOL    HW2 2883   5.073   5.476   3.865
  662SOL     OW 2884   6.259   3.672   6.870
  662SOL    HW1 2885   6.180   3.611   6.866
  662SOL    HW2 2886   6.328   3.634   6.930
  663SOL     OW 2887   0.863   4.545   6.159
  663SOL    HW1 2888   0.878   4.481   6.083
  663SOL    HW2 2889   0.774   4.527   6.201
  664SOL     OW 2890   1.885   0.322   5.788
  664SOL    HW1 2891   1.828   0.309   5.707
  664SOL    HW2 2892   1.827   0.335   5.868
  665SOL     OW 2893   2.572   4.546   3.231
  665SOL    HW1 2894   2.542   4.613   3.300
  665SOL    HW2 2895   2.657   4.577   3.189
  666SOL     OW 2896   3.239   0.621   6.870
  666SOL    HW1 2897   3.164   0.555   6.876
  666SOL    HW2 2898   3.323   0.574   6.841
  667SOL     OW 2899   1.375   3.016   2.343
  667SOL    HW1 2900   1.453   3.019   2.406
  667SOL    HW2 2901   1.362   3.107   2.303
  668SOL     OW 2902   5.156   0.199   0.532
  668SOL    HW1 2903   5.213   0.281   0.541
  668SOL    HW2 2904   5.214   0.121   0.508
  669SOL     OW 2905   0.296   5.591   2.817
  669SOL    HW1 2906   0.266   5.604   2.912
  669SOL    HW2 2907   0.279   5.675   2.765
  670SOL     OW 2908   3.855   4.026   2.656
  670SOL    HW1 2909   3.852   4.027   2.756
  670SOL    HW2 2910   3.948   4.003   2.625
  671SOL     OW 2911   2.026   0.105   6.448
  671SOL    HW1 2912   1.973   0.153   6.378
  671SOL    HW2 2913   2.037   0.009   6.421
  672SOL     OW 2914   1.110   2.617   3.244
  672SOL    HW1 2915   1.198   2.579   3.216
  672SOL    HW2 2916   1.122   2.710   3.278
  673SOL     OW 2917   5.214   0.356   6.748
  673SOL    HW1 2918   5.206   0.439   6.692
  673SOL    HW2 2919   5.307   0.350   6.785
  674SOL     OW 2920   0.286   2.333   4.493
  674SOL    HW1 2921   0.368   2.280   4.516
  674SOL    HW2 2922   0.217   2.321   4.565
  675SOL     OW 2923   5.693   6.336   3.754
  675SOL    HW1 2924   5.707   6.288   3.667
  675SOL    HW2 2925   5.665   6.270   3.824
  676SOL     OW 2926   2.549   5.283   4.522
  676SOL    HW1 2927   2.507   5.195   4.501
  676SOL    HW2 2928   2.634   5.269   4.572
  677SOL     OW 2929   4.417   6.532   0.181
  677SOL    HW1 2930   4.412   6.453   0.120
  677SOL    HW2 2931   4.329   6.543   0.228
  678SOL     OW 2932   2.116   1.357   6.134
  678SOL    HW1 2933   2.105   1.304   6.218
  678SOL    HW2 2934   2.146   1.296   6.060
  679SOL     OW 2935   6.261   0.344   2.216
  679SOL    HW1 2936   6.351   0.301   2.218
  679SOL    HW2 2937   6.225   0.343   2.123
  680SOL     OW 2938   5.803   4.178   4.953
  680SOL    HW1 2939   5.869   4.113   4.991
  680SOL    HW2 2940   5.721   4.129   4.922
  681SOL     OW 2941   1.350   6.372   2.180
  681SOL    HW1 2942   1.363   6.295   2.242
  681SOL    HW2 2943   1.366   6.457   2.230
  682SOL     OW 2944   0.424   0.679   5.956
  682SOL    HW1 2945   0.417   0.610   5.883
  682SOL    HW2 2946   0.360   0.655   6.029
  683SOL     OW 2947   5.349   1.599   1.687
  683SOL    HW1 2948   5.411   1.669   1.719
  683SOL    HW2 2949   5.396   1.510   1.687
  684SOL     OW 2950   0.100   5.850   6.651
  684SOL    HW1 2951   0.101   5.873   6.554
  684SOL    HW2 2952   0.014   5.881   6.692
  685SOL     OW 2953   6.494   0.874   6.185
  685SOL    HW1 2954   6.570   0.813   6.163
  685SOL    HW2 2955   6.417   0.856   6.123
  686SOL     OW 2956   5.695   4.980   2.013
  686SOL    HW1 2957   5.790   4.991   1.983
  686SOL    HW2 2958   5.634   5.030   1.951
  687SOL     OW 2959   5.710   2.023   6.397
  687SOL    HW1 2960   5.635   2.060   6.341
  687SOL    HW2 2961   5.792   2.014   6.340
  688SOL     OW 2962   6.209   3.298   5.302
  688SOL    HW1 2963   6.219   3.272   5.398
  688SOL    HW2 2964   6.124   3.347   5.289
  689SOL     OW 2965   5.101   4.460   4.426
  689SOL    HW1 2966   5.188   4.438   4.471
  689SOL    HW2 2967   5.112   4.545   4.374
  690SOL     OW 2968   0.100   3.200   4.632
  690SOL    HW1 2969   0.168   3.189   4.559
  690SOL    HW2 2970   0.098   3.116   4.687
  691SOL     OW 2971   0.105   3.107   6.852
  691SOL    HW1 2972   0.189   3.059   6.875
  691SOL    HW2 2973   0.100   3.121   6.753
  692SOL     OW 2974   2.876   0.253   3.334
  692SOL    HW1 2975   2.901   0.293   3.246
  692SOL    HW2 2976   2.952   0.263   3.398
  693SOL     OW 2977   6.712   1.632   3.664
  693SOL    HW1 2978   6.748   1.724   3.681
  693SOL    HW2 2979   6.618   1.638   3.631
  694SOL     OW 2980   1.584   0.244   2.343
  694SOL    HW1 2981   1.537   0.192   2.414
  694SOL    HW2 2982   1.525   0.252   2.263
  695SOL     OW 2983   4.502   5.396   6.761
  695SOL    HW1 2984   4.548   5.440   6.683
  695SOL    HW2 2985   4.469   5.467   6.824
  696SOL     OW 2986   5.393   5.890   2.359
  696SOL    HW1 2987   5.371   5.826   2.432
  696SOL    HW2 2988   5.405   5.982   2.397
  697SOL     OW 2989   1.293   3.746   3.647
  697SOL    HW1 2990   1.342   3.733   3.560
  697SOL    HW2 2991   1.197   3.720   3.635
  698SOL     OW 2992   4.706   5.693   3.609
  698SOL    HW1 2993   4.700   5.595   3.590
  698SOL    HW2 2994   4.802   5.721   3.612
  699SOL     OW 2995   0.920   4.565   6.430
  699SOL    HW1 2996   0.908   4.601   6.338
  699SOL    HW2 2997   0.898   4.637   6.497
  700SOL     OW 2998   1.733   1.764   4.951
  700SOL    HW1 2999   1.819   1.803   4.918
  700SOL    HW2 3000   1.710   1.804   5.040
  701SOL     OW 3001   1.169   4.701   5.063
  701SOL    HW1 3002   1.242   4.728   5.001
  701SOL    HW2 3003   1.145   4.779   5.122
  702SOL     OW 3004   5.969   6.228   5.297
  702SOL    HW1 3005   5.979   6.251   5.201
  702SOL    HW2 3006   5.954   6.129   5.307
  703SOL     OW 3007   5.295   4.308   6.252
  703SOL    HW1 3008   5.357   4.373   6.209
  703SOL    HW2 3009   5.308   4.217   6.213
  704SOL     OW 3010   2.178   6.851   1.686
  704SOL    HW1 3011   2.246   6.808   1.626
  704SOL    HW2 3012   2.089   6.810   1.671
  705SOL     OW 3013   0.851   1.895   3.899
  705SOL    HW1 3014   0.759   1.862   3.878
  705SOL    HW2 3015   0.903   1.904   3.813
  706SOL     OW 3016   5.204   3.745   4.559
  706SOL    HW1 3017   5.245   3.829   4.524
  706SOL    HW2 3018   5.276   3.688   4.599
  707SOL     OW 3019   5.089   2.645   3.035
  707SOL    HW1 3020   5.023   2.712   3.000
  707SOL    HW2 3021   5.060   2.614   3.126
  708SOL     OW 3022   4.526   1.339   2.269
  708SOL    HW1 3023   4.582   1.349   2.187
  708SOL    HW2 3024   4.437   1.382   2.254
  709SOL     OW 3025   0.997   5.154   6.829
  709SOL    HW1 3026   0.964   5.247   6.812
  709SOL    HW2 3027   1.050   5.152   6.913
  710SOL     OW 3028   3.189   3.813   2.929
  710SOL    HW1 3029   3.183   3.898   2.877
  710SOL    HW2 3030   3.243   3.829   3.012
  711SOL     OW 3031   0.252   1.002   4.925
  711SOL    HW1 3032   0.225   1.096   4.907
  711SOL    HW2 3033   0.347   0.988   4.897
  712SOL     OW 3034   0.226   3.797   3.420
  712SOL    HW1 3035   0.174   3.882   3.410
  712SOL    HW2 3036   0.234   3.753   3.330
  713SOL     OW 3037   3.165   3.574   4.861
  713SOL    HW1 3038   3.103   3.640   4.819
  713SOL    HW2 3039   3.259   3.610   4.858
  714SOL     OW 3040   4.715   4.940   5.276
  714SOL    HW1 3041   4.677   4.859   5.232
  714SOL    HW2 3042   4.689   5.021   5.224
  715SOL     OW 3043   6.133   0.088   6.435
  715SOL    HW1 3044   6.087   0.126   6.355
  715SOL    HW2 3045   6.170   7.025   6.413
  716SOL     OW 3046   5.956   5.533   0.471
  716SOL    HW1 3047   5.946   5.610   0.408
  716SOL    HW2 3048   5.987   5.453   0.420
  717SOL     OW 3049   6.210   3.399   6.043
  717SOL    HW1 3050   6.202   3.440   6.133
  717SOL    HW2 3051   6.305   3.407   6.012
  718SOL     OW 3052   2.874   2.651   0.103
  718SOL    HW1 3053   2.810   2.704   0.047
  718SOL    HW2 3054   2.892   2.700   0.188
  719SOL     OW 3055   5.700   4.653   0.040
  719SOL    HW1 3056   5.622   4.713   0.057
  719SOL    HW2 3057   5.758   4.693   6.995
  720SOL     OW 3058   4.061   1.202   5.606
  720SOL    HW1 3059   4.042   1.140   5.682
  720SOL    HW2 3060   4.053   1.152   5.520
  721SOL     OW 3061   1.205   6.956   5.528
  721SOL    HW1 3062   1.210   7.020   5.605
  721SOL    HW2 3063   1.296   6.941   5.491
  722SOL     OW 3064   5.010   0.031   4.995
  722SOL    HW1 3065   4.974   0.102   4.935
  722SOL    HW2 3066   4.972   6.969   4.969
  723SOL     OW 3067   1.469   3.497   1.780
  723SOL    HW1 3068   1.472   3.555   1.698
  723SOL    HW2 3069   1.438   3.405   1.755
  724SOL     OW 3070   0.319   1.629   5.272
  724SOL    HW1 3071   0.269   1.555   5.318
  724SOL    HW2 3072   0.379   1.674   5.339
  725SOL     OW 3073   2.538   5.270   2.630
  725SOL    HW1 3074   2.501   5.328   2.702
  725SOL    HW2 3075   2.464   5.241   2.569
  726SOL     OW 3076   5.394   6.009   5.259
  726SOL    HW1 3077   5.382   5.962   5.171
  726SOL    HW2 3078   5.403   5.941   5.332
  727SOL     OW 3079   2.268   4.330   4.410
  727SOL    HW1 3080   2.206   4.353   4.334
  727SOL    HW2 3081   2.231   4.369   4.495
  728SOL     OW 3082   6.670   2.853   5.835
  728SOL    HW1 3083   6.578   2.845   5.873
  728SOL    HW2 3084   6.680   2.943   5.791
  729SOL     OW 3085   4.651   1.555   0.645
  729SOL    HW1 3086   4.741   1.591   0.670
  729SOL    HW2 3087   4.630   1.580   0.550
  730SOL     OW 3088   5.923   1.409   4.718
  730SOL    HW1 3089   6.013   1.365   4.720
  730SOL    HW2 3090   5.885   1.404   4.626
  731SOL     OW 3091   6.951   2.179   4.163
  731SOL    HW1 3092   6.865   2.224   4.138
  731SOL    HW2 3093   7.026   2.245   4.155
  732SOL     OW 3094   0.681   3.571   3.495
  732SOL    HW1 3095   0.708   3.658   3.535
  732SOL    HW2 3096   0.623   3.521   3.559
  733SOL     OW 3097   4.529   4.991   4.300
  733SOL    HW1 3098   4.479   5.013   4.217
  733SOL    HW2 3099   4.603   5.056   4.313
  734SOL     OW 3100   0.859   5.752   6.864
  734SOL    HW1 3101   0.795   5.726   6.937
  734SOL    HW2 3102   0.951   5.761   6.902
  735SOL     OW 3103   2.856   4.976   6.943
  735SOL    HW1 3104   2.939   4.992   6.997
  735SOL    HW2 3105   2.859   5.032   6.860
  736SOL     OW 3106   5.772   0.966   2.680
  736SOL    HW1 3107   5.857   0.950   2.630
  736SOL    HW2 3108   5.790   0.965   2.779
  737SOL     OW 3109   5.438   3.962   7.021
  737SOL    HW1 3110   5.519   4.020   0.004
  737SOL    HW2 3111   5.390   3.986   6.936
  738SOL     OW 3112   0.971   4.049   3.204
  738SOL    HW1 3113   1.063   4.011   3.215
  738SOL    HW2 3114   0.938   4.033   3.111
  739SOL     OW 3115   4.788   6.591   6.170
  739SOL    HW1 3116   4.727   6.518   6.139
  739SOL    HW2 3117   4.865   6.599   6.107
  740SOL     OW 3118   5.174   6.959   0.255
  740SOL    HW1 3119   5.198   6.949   0.352
  740SOL    HW2 3120   5.158   6.869   0.215
  741SOL     OW 3121   2.603   0.169   3.767
  741SOL    HW1 3122   2.650   0.172   3.678
  741SOL    HW2 3123   2.629   0.249   3.821
  742SOL     OW 3124   1.551   6.394   2.809
  742SOL    HW1 3125   1.565   6.476   2.754
  742SOL    HW2 3126   1.548   6.314   2.749
  743SOL     OW 3127   1.414   3.532   3.731
  743SOL    HW1 3128   1.362   3.617   3.726
  743SOL    HW2 3129   1.385   3.471   3.657
  744SOL     OW 3130   6.386   5.231   0.942
  744SOL    HW1 3131   6.368   5.329   0.934
  744SOL    HW2 3132   6.358   5.185   0.858
  745SOL     OW 3133   2.056   5.601   2.578
  745SOL    HW1 3134   2.114   5.643   2.508
  745SOL    HW2 3135   1.989   5.668   2.609
  746SOL     OW 3136   3.468   0.124   2.967
  746SOL    HW1 3137   3.504   0.094   3.055
  746SOL    HW2 3138   3.376   0.161   2.980
  747SOL     OW 3139   6.422   3.619   1.082
  747SOL    HW1 3140   6.438   3.521   1.078
  747SOL    HW2 3141   6.496   3.667   1.034
  748SOL     OW 3142   3.700   2.870   2.828
  748SOL    HW1 3143   3.774   2.864   2.895
  748SOL    HW2 3144   3.737   2.901   2.740
  749SOL     OW 3145   5.809   2.339   4.964
  749SOL    HW1 3146   5.727   2.374   4.918
  749SOL    HW2 3147   5.851   2.412   5.018
  750SOL     OW 3148   3.090   3.341   1.835
  750SOL    HW1 3149   3.106   3.334   1.737
  750SOL    HW2 3150   3.020   3.409   1.853
  751SOL     OW 3151   5.522   1.565   0.504
  751SOL    HW1 3152   5.525   1.612   0.592
  751SOL    HW2 3153   5.427   1.560   0.472
  752SOL     OW 3154   4.716   0.986   1.899
  752SOL    HW1 3155   4.795   0.982   1.960
  752SOL    HW2 3156   4.743   0.955   1.808
  753SOL     OW 3157   4.116   1.890   2.509
  753SOL    HW1 3158   4.072   1.801   2.497
  753SOL    HW2 3159   4.047   1.962   2.501
  754SOL     OW 3160   5.680   5.761   0.247
  754SOL    HW1 3161   5.694   5.779   0.344
  754SOL    HW2 3162   5.617   5.829   0.209
  755SOL     OW 3163   6.336   6.108   2.410
  755SOL    HW1 3164   6.395   6.085   2.488
  755SOL    HW2 3165   6.276   6.031   2.390
  756SOL     OW 3166   2.696   6.638   3.637
  756SOL    HW1 3167   2.694   6.629   3.737
  756SOL    HW2 3168   2.686   6.547   3.596
  757SOL     OW 3169   6.588   0.999   3.706
  757SOL    HW1 3170   6.680   1.034   3.689
  757SOL    HW2 3171   6.538   1.064   3.764
  758SOL     OW 3172   4.627   2.005   0.961
  758SOL    HW1 3173   4.543   1.959   0.992
  758SOL    HW2 3174   4.651   1.971   0.870
  759SOL     OW 3175   1.988   1.012   1.400
  759SOL    HW1 3176   1.995   1.027   1.498
  759SOL    HW2 3177   2.070   1.046   1.355
  760SOL     OW 3178   4.643   1.806   5.804
  760SOL    HW1 3179   4.586   1.749   5.863
  760SOL    HW2 3180   4.660   1.758   5.717
  761SOL     OW 3181   5.528   0.955   6.748
  761SOL    HW1 3182   5.507   0.932   6.843
  761SOL    HW2 3183   5.447   0.936   6.691
  762SOL     OW 3184   2.361   4.673   4.523
  762SOL    HW1 3185   2.292   4.601   4.515
  762SOL    HW2 3186   2.449   4.638   4.491
  763SOL     OW 3187   5.951   5.097   6.772
  763SOL    HW1 3188   5.934   5.033   6.846
  763SOL    HW2 3189   5.960   5.189   6.809
  764SOL     OW 3190   5.744   1.459   2.905
  764SOL    HW1 3191   5.691   1.389   2.954
  764SOL    HW2 3192   5.719   1.549   2.940
  765SOL     OW 3193   0.645   6.699   3.539
  765SOL    HW1 3194   0.618   6.647   3.458
  765SOL    HW2 3195   0.736   6.669   3.568
  766SOL     OW 3196   6.502   6.473   0.309
  766SOL    HW1 3197   6.529   6.407   0.379
  766SOL    HW2 3198   6.583   6.516   0.271
  767SOL     OW 3199   5.895   6.378   1.691
  767SOL    HW1 3200   5.884   6.455   1.629
  767SOL    HW2 3201   5.953   6.405   1.768
  768SOL     OW 3202   3.052   6.468   3.953
  768SOL    HW1 3203   3.060   6.453   3.854
  768SOL    HW2 3204   2.992   6.546   3.970
  769SOL     OW 3205   4.140   0.964   0.173
  769SOL    HW1 3206   4.107   0.976   0.079
  769SOL    HW2 3207   4.120   0.870   0.202
  770SOL     OW 3208   3.004   4.860   4.504
  770SOL    HW1 3209   3.057   4.816   4.431
  770SOL    HW2 3210   2.911   4.877   4.472
  771SOL     OW 3211   0.884   6.285   4.706
  771SOL    HW1 3212   0.817   6.217   4.736
  771SOL    HW2 3213   0.963   6.238   4.666
  772SOL     OW 3214   0.189   4.169   5.924
  772SOL    HW1 3215   0.269   4.178   5.865
  772SOL    HW2 3216   0.129   4.249   5.911
  773SOL     OW 3217   0.096   2.999   2.605
  773SOL    HW1 3218   0.071   3.081   2.658
  773SOL    HW2 3219   0.128   2.928   2.668
  774SOL     OW 3220   1.451   0.848   1.738
  774SOL    HW1 3221   1.531   0.907   1.723
  774SOL    HW2 3222   1.475   0.753   1.720
  775SOL     OW 3223   1.513   2.556   4.058
  775SOL    HW1 3224   1.470   2.471   4.087
  775SOL    HW2 3225   1.443   2.624   4.039
  776SOL     OW 3226   2.068   0.601   5.119
  776SOL    HW1 3227   2.124   0.549   5.054
  776SOL    HW2 3228   2.075   0.699   5.099
  777SOL     OW 3229   4.334   6.786   6.567
  777SOL    HW1 3230   4.269   6.861   6.552
  777SOL    HW2 3231   4.406   6.816   6.629
  778SOL     OW 3232   4.445   5.430   4.735
  778SOL    HW1 3233   4.486   5.510   4.778
  778SOL    HW2 3234   4.403   5.372   4.805
  779SOL     OW 3235   0.547   0.188   2.392
  779SOL    HW1 3236   0.635   0.225   2.363
  779SOL    HW2 3237   0.492   0.167   2.311
  780SOL     OW 3238   5.482   2.579   4.811
  780SOL    HW1 3239   5.565   2.580   4.756
  780SOL    HW2 3240   5.405   2.611   4.757
  781SOL     OW 3241   0.141   2.602   6.452
  781SOL    HW1 3242   0.065   2.593   6.517
  781SOL    HW2 3243   0.147   2.519   6.396
  782SOL     OW 3244   6.710   5.025   0.678
  782SOL    HW1 3245   6.756   4.999   0.763
  782SOL    HW2 3246   6.769   5.087   0.626
  783SOL     OW 3247   1.773   5.030   0.287
  783SOL    HW1 3248   1.723   4.960   0.237
  783SOL    HW2 3249   1.853   5.057   0.234
  784SOL     OW 3250   5.196   4.944   3.301
  784SOL    HW1 3251   5.101   4.921   3.319
  784SOL    HW2 3252   5.232   4.997   3.378
  785SOL     OW 3253   6.287   2.321   3.861
  785SOL    HW1 3254   6.255   2.233   3.895
  785SOL    HW2 3255   6.240   2.344   3.775
  786SOL     OW 3256   6.026   6.518   0.596
  786SOL    HW1 3257   6.018   6.521   0.695
  786SOL    HW2 3258   6.121   6.534   0.569
  787SOL     OW 3259   4.589   1.538   6.819
  787SOL    HW1 3260   4.555   1.516   6.910
  787SOL    HW2 3261   4.689   1.535   6.820
  788SOL     OW 3262   0.908   4.269   3.375
  788SOL    HW1 3263   0.844   4.260   3.451
  788SOL    HW2 3264   0.894   4.193   3.311
  789SOL     OW 3265   5.399   3.043   0.873
  789SOL    HW1 3266   5.462   3.098   0.817
  789SOL    HW2 3267   5.452   2.994   0.943
  790SOL     OW 3268   3.361   0.431   3.867
  790SOL    HW1 3269   3.338   0.494   3.792
  790SOL    HW2 3270   3.416   0.356   3.831
  791SOL     OW 3271   4.075   1.430   5.119
  791SOL    HW1 3272   4.140   1.356   5.136
  791SOL    HW2 3273   4.105   1.513   5.166
  792SOL     OW 3274   5.374   0.583   3.287
  792SOL    HW1 3275   5.450   0.520   3.303
  792SOL    HW2 3276   5.313   0.546   3.217
  793SOL     OW 3277   6.988   0.324   6.692
  793SOL    HW1 3278   7.020   0.417   6.708
  793SOL    HW2 3279   6.891   0.326   6.668
  794SOL     OW 3280   3.578   4.726   5.359
  794SOL    HW1 3281   3.678   4.732   5.354
  794SOL    HW2 3282   3.548   4.639   5.319
  795SOL     OW 3283   4.847   5.409   0.100
  795SOL    HW1 3284   4.786   5.421   0.177
  795SOL    HW2 3285   4.798   5.428   0.015
  796SOL     OW 3286   0.350   1.215   5.678
  796SOL    HW1 3287   0.395   1.301   5.652
  796SOL    HW2 3288   0.380   1.188   5.770
  797SOL     OW 3289   5.964   3.077   5.491
  797SOL    HW1 3290   5.894   3.006   5.495
  797SOL    HW2 3291   6.054   3.035   5.477
  798SOL     OW 3292   6.856   0.763   5.019
  798SOL    HW1 3293   6.778   0.790   4.963
  798SOL    HW2 3294   6.940   0.800   4.979
  799SOL     OW 3295   6.722   3.877   3.255
  799SOL    HW1 3296   6.804   3.823   3.274
  799SOL    HW2 3297   6.656   3.821   3.203
  800SOL     OW 3298   6.977   1.360   2.229
  800SOL    HW1 3299   6.985   1.355   2.129
  800SOL    HW2 3300   6.953   1.270   2.265
  801SOL     OW 3301   0.298   2.371   3.916
  801SOL    HW1 3302   0.371   2.426   3.957
  801SOL    HW2 3303   0.328   2.337   3.826
  802SOL     OW 3304   6.608   1.553   1.875
  802SOL    HW1 3305   6.522   1.592   1.843
  802SOL    HW2 3306   6.601   1.531   1.973
  803SOL     OW 3307   1.505   0.070   4.805
  803SOL    HW1 3308   1.495   0.112   4.715
  803SOL    HW2 3309   1.600   0.041   4.818
  804SOL     OW 3310   6.250   6.672   0.952
  804SOL    HW1 3311   6.260   6.710   0.860
  804SOL    HW2 3312   6.221   6.743   1.015
  805SOL     OW 3313   1.611   3.099   5.754
  805SOL    HW1 3314   1.637   3.120   5.660
  805SOL    HW2 3315   1.679   3.136   5.817
  806SOL     OW 3316   4.425   0.153   0.311
  806SOL    HW1 3317   4.464   0.187   0.226
  806SOL    HW2 3318   4.491   0.165   0.386
  807SOL     OW 3319   1.002   6.906   2.994
  807SOL    HW1 3320   0.928   6.970   3.014
  807SOL    HW2 3321   1.030   6.860   3.078
  808SOL     OW 3322   5.960   3.961   5.109
  808SOL    HW1 3323   5.964   3.878   5.165
  808SOL    HW2 3324   6.029   3.955   5.036
  809SOL     OW 3325   0.952   5.875   6.169
  809SOL    HW1 3326   0.981   5.821   6.090
  809SOL    HW2 3327   1.017   5.950   6.183
  810SOL     OW 3328   6.453   5.681   6.277
  810SOL    HW1 3329   6.468   5.591   6.236
  810SOL    HW2 3330   6.538   5.713   6.318
  811SOL     OW 3331   3.353   5.118   3.331
  811SOL    HW1 3332   3.442   5.132   3.374
  811SOL    HW2 3333   3.359   5.136   3.233
  812SOL     OW 3334   7.012   0.433   2.579
  812SOL    HW1 3335   7.001   0.395   2.671
  812SOL    HW2 3336   6.922   0.444   2.536
  813SOL     OW 3337   5.718   5.568   1.856
  813SOL    HW1 3338   5.809   5.541   1.889
  813SOL    HW2 3339   5.712   5.668   1.854
  814SOL     OW 3340   4.873   5.610   1.289
  814SOL    HW1 3341   4.905   5.570   1.203
  814SOL    HW2 3342   4.773   5.616   1.288
  815SOL     OW 3343   1.357   1.402   0.392
  815SOL    HW1 3344   1.346   1.497   0.363
  815SOL    HW2 3345   1.286   1.378   0.458
  816SOL     OW 3346   5.678   0.841   1.667
  816SOL    HW1 3347   5.589   0.816   1.629
  816SOL    HW2 3348   5.747   0.775   1.637
  817SOL     OW 3349   0.851   2.137   2.154
  817SOL    HW1 3350   0.843   2.062   2.219
  817SOL    HW2 3351   0.871   2.222   2.203
  818SOL     OW 3352   5.302   1.394   2.697
  818SOL    HW1 3353   5.296   1.329   2.773
  818SOL    HW2 3354   5.209   1.416   2.666
  819SOL     OW 3355   0.036   5.513   2.302
  819SOL    HW1 3356   0.105   5.562   2.355
  819SOL    HW2 3357   7.009   5.456   2.364
  820SOL     OW 3358   1.747   2.922   5.081
  820SOL    HW1 3359   1.741   2.823   5.097
  820SOL    HW2 3360   1.841   2.947   5.061
  821SOL     OW 3361   1.137   4.310   0.747
  821SOL    HW1 3362   1.080   4.360   0.812
  821SOL    HW2 3363   1.219   4.278   0.793
  822SOL     OW 3364   1.018   3.035   4.798
  822SOL    HW1 3365   1.037   3.131   4.813
  822SOL    HW2 3366   1.006   2.989   4.886
  823SOL     OW 3367   3.725   3.867   1.694
  823SOL    HW1 3368   3.759   3.869   1.600
  823SOL    HW2 3369   3.773   3.936   1.748
  824SOL     OW 3370   6.383   2.570   6.200
  824SOL    HW1 3371   6.457   2.628   6.232
  824SOL    HW2 3372   6.420   2.499   6.140
  825SOL     OW 3373   1.098   3.754   1.535
  825SOL    HW1 3374   1.017   3.796   1.577
  825SOL    HW2 3375   1.093   3.655   1.547
  826SOL     OW 3376   1.417   3.684   5.858
  826SOL    HW1 3377   1.419   3.681   5.958
  826SOL    HW2 3378   1.448   3.597   5.821
  827SOL     OW 3379   3.375   4.795   0.946
  827SOL    HW1 3380   3.313   4.720   0.923
  827SOL    HW2 3381   3.369   4.865   0.875
  828SOL     OW 3382   6.230   0.508   5.912
  828SOL    HW1 3383   6.326   0.489   5.894
  828SOL    HW2 3384   6.221   0.598   5.953
  829SOL     OW 3385   3.413   3.570   5.523
  829SOL    HW1 3386   3.417   3.521   5.609
  829SOL    HW2 3387   3.491   3.632   5.515
  830SOL     OW 3388   4.361   3.323   5.997
  830SOL    HW1 3389   4.422   3.397   6.024
  830SOL    HW2 3390   4.344   3.327   5.899
  831SOL     OW 3391   5.629   0.385   4.726
  831SOL    HW1 3392   5.607   0.319   4.654
  831SOL    HW2 3393   5.688   0.341   4.793
  832SOL     OW 3394   2.505   1.728   5.773
  832SOL    HW1 3395   2.539   1.814   5.812
  832SOL    HW2 3396   2.406   1.721   5.788
  833SOL     OW 3397   1.335   0.655   5.641
  833SOL    HW1 3398   1.326   0.632   5.738
  833SOL    HW2 3399   1.432   0.664   5.618
  834SOL     OW 3400   3.331   4.646   5.748
  834SOL    HW1 3401   3.296   4.663   5.840
  834SOL    HW2 3402   3.257   4.610   5.690
  835SOL     OW 3403   4.154   1.288   2.732
  835SOL    HW1 3404   4.109   1.372   2.700
  835SOL    HW2 3405   4.234   1.313   2.788
  836SOL     OW 3406   2.594   1.086   6.392
  836SOL    HW1 3407   2.644   1.119   6.472
  836SOL    HW2 3408   2.504   1.054   6.420
  837SOL     OW 3409   3.985   1.366   4.841
  837SOL    HW1 3410   4.014   1.376   4.936
  837SOL    HW2 3411   4.032   1.288   4.799
  838SOL     OW 3412   1.519   6.277   2.442
  838SOL    HW1 3413   1.438   6.328   2.471
  838SOL    HW2 3414   1.555   6.225   2.519
  839SOL     OW 3415   2.955   1.494   1.894
  839SOL    HW1 3416   2.988   1.513   1.987
  839SOL    HW2 3417   2.886   1.422   1.899
  840SOL     OW 3418   0.994   1.229   5.570
  840SOL    HW1 3419   1.072   1.194   5.519
  840SOL    HW2 3420   0.992   1.329   5.564
  841SOL     OW 3421   0.243   3.533   1.392
  841SOL    HW1 3422   0.165   3.499   1.444
  841SOL    HW2 3423   0.326   3.484   1.421
  842SOL     OW 3424   3.448   4.865   3.987
  842SOL    HW1 3425   3.525   4.827   4.039
  842SOL    HW2 3426   3.480   4.943   3.932
  843SOL     OW 3427   0.166   3.839   1.807
  843SOL    HW1 3428   0.137   3.760   1.861
  843SOL    HW2 3429   0.127   3.832   1.715
  844SOL     OW 3430   5.618   5.079   6.491
  844SOL    HW1 3431   5.595   5.028   6.574
  844SOL    HW2 3432   5.682   5.153   6.514
  845SOL     OW 3433   2.261   4.862   5.729
  845SOL    HW1 3434   2.342   4.902   5.686
  845SOL    HW2 3435   2.180   4.884   5.675
  846SOL     OW 3436   4.336   2.238   0.017
  846SOL    HW1 3437   4.433   2.219   0.004
  846SOL    HW2 3438   4.323   2.287   0.103
  847SOL     OW 3439   5.266   4.037   2.388
  847SOL    HW1 3440   5.283   4.127   2.427
  847SOL    HW2 3441   5.213   4.046   2.303
  848SOL     OW 3442   6.009   6.961   5.442
  848SOL    HW1 3443   6.104   6.990   5.451
  848SOL    HW2 3444   5.982   6.909   5.524
  849SOL     OW 3445   0.950   5.693   4.297
  849SOL    HW1 3446   0.940   5.753   4.376
  849SOL    HW2 3447   1.041   5.653   4.295
  850SOL     OW 3448   3.651   0.674   3.130
  850SOL    HW1 3449   3.637   0.577   3.112
  850SOL    HW2 3450   3.737   0.687   3.178
  851SOL     OW 3451   0.167   0.857   5.592
  851SOL    HW1 3452   0.125   0.946   5.611
  851SOL    HW2 3453   0.265   0.869   5.576
  852SOL     OW 3454   2.880   4.636   5.638
  852SOL    HW1 3455   2.914   4.730   5.636
  852SOL    HW2 3456   2.785   4.634   5.608
  853SOL     OW 3457   0.866   4.522   0.731
  853SOL    HW1 3458   0.788   4.458   0.729
  853SOL    HW2 3459   0.933   4.490   0.799
  854SOL     OW 3460   6.085   5.400   1.401
  854SOL    HW1 3461   6.078   5.427   1.305
  854SOL    HW2 3462   6.057   5.477   1.459
  855SOL     OW 3463   5.195   0.499   0.580
  855SOL    HW1 3464   5.256   0.568   0.542
  855SOL    HW2 3465   5.103   0.512   0.544
  856SOL     OW 3466   1.669   0.344   5.321
  856SOL    HW1 3467   1.574   0.376   5.327
  856SOL    HW2 3468   1.670   0.248   5.294
  857SOL     OW 3469   5.282   3.673   1.323
  857SOL    HW1 3470   5.196   3.624   1.308
  857SOL    HW2 3471   5.348   3.612   1.366
  858SOL     OW 3472   3.720   3.762   2.301
  858SOL    HW1 3473   3.631   3.760   2.256
  858SOL    HW2 3474   3.771   3.842   2.271
  859SOL     OW 3475   0.288   4.337   0.701
  859SOL    HW1 3476   0.356   4.402   0.666
  859SOL    HW2 3477   0.316   4.303   0.790
  860SOL     OW 3478   1.851   3.738   6.461
  860SOL    HW1 3479   1.761   3.745   6.503
  860SOL    HW2 3480   1.879   3.642   6.458
  861SOL     OW 3481   3.607   4.174   5.816
  861SOL    HW1 3482   3.586   4.268   5.789
  861SOL    HW2 3483   3.607   4.168   5.916
  862SOL     OW 3484   4.427   4.548   3.157
  862SOL    HW1 3485   4.395   4.545   3.252
  862SOL    HW2 3486   4.474   4.462   3.136
  863SOL     OW 3487   5.791   2.421   1.695
  863SOL    HW1 3488   5.848   2.410   1.613
  863SOL    HW2 3489   5.771   2.332   1.734
  864SOL     OW 3490   0.633   5.154   2.726
  864SOL    HW1 3491   0.583   5.212   2.661
  864SOL    HW2 3492   0.604   5.178   2.819
  865SOL     OW 3493   1.935   0.931   3.731
  865SOL    HW1 3494   2.029   0.918   3.765
  865SOL    HW2 3495   1.937   0.961   3.636
  866SOL     OW 3496   4.637   0.833   1.098
  866SOL    HW1 3497   4.681   0.765   1.157
  866SOL    HW2 3498   4.704   0.866   1.031
  867SOL     OW 3499   2.362   1.751   6.662
  867SOL    HW1 3500   2.399   1.787   6.748
  867SOL    HW2 3501   2.391   1.808   6.586
  868SOL     OW 3502   5.357   2.248   3.250
  868SOL    HW1 3503   5.385   2.153   3.261
  868SOL    HW2 3504   5.416   2.292   3.182
  869SOL     OW 3505   6.584   3.839   0.970
  869SOL    HW1 3506   6.625   3.835   0.879
  869SOL    HW2 3507   6.565   3.934   0.994
  870SOL     OW 3508   6.385   1.837   0.600
  870SOL    HW1 3509   6.319   1.783   0.547
  870SOL    HW2 3510   6.458   1.777   0.633
  871SOL     OW 3511   6.613   4.589   0.595
  871SOL    HW1 3512   6.653   4.582   0.503
  871SOL    HW2 3513   6.606   4.497   0.634
  872SOL     OW 3514   0.072   2.045   1.696
  872SOL    HW1 3515   0.012   2.080   1.624
  872SOL    HW2 3516   0.041   2.079   1.784
  873SOL     OW 3517   3.867   6.814   4.541
  873SOL    HW1 3518   3.779   6.772   4.561
  873SOL    HW2 3519   3.939   6.744   4.545
  874SOL     OW 3520   0.574   4.261   6.595
  874SOL    HW1 3521   0.673   4.268   6.602
  874SOL    HW2 3522   0.534   4.352   6.584
  875SOL     OW 3523   6.186   5.791   6.329
  875SOL    HW1 3524   6.277   5.761   6.299
  875SOL    HW2 3525   6.128   5.712   6.344
  876SOL     OW 3526   2.018   2.150   1.419
  876SOL    HW1 3527   1.968   2.080   1.469
  876SOL    HW2 3528   2.109   2.162   1.460
  877SOL     OW 3529   5.417   5.743   6.748
  877SOL    HW1 3530   5.354   5.817   6.771
  877SOL    HW2 3531   5.464   5.712   6.830
  878SOL     OW 3532   3.447   3.028   0.823
  878SOL    HW1 3533   3.513   2.986   0.761
  878SOL    HW2 3534   3.373   2.963   0.842
  879SOL     OW 3535   4.851   3.160   3.899
  879SOL    HW1 3536   4.760   3.124   3.916
  879SOL    HW2 3537   4.893   3.109   3.823
  880SOL     OW 3538   4.187   5.808   1.286
  880SOL    HW1 3539   4.214   5.840   1.195
  880SOL    HW2 3540   4.249   5.846   1.355
  881SOL     OW 3541   4.885   4.573   3.131
  881SOL    HW1 3542   4.928   4.512   3.198
  881SOL    HW2 3543   4.932   4.661   3.130
  882SOL     OW 3544   1.016   2.336   4.573
  882SOL    HW1 3545   1.032   2.245   4.535
  882SOL    HW2 3546   0.918   2.350   4.586
  883SOL     OW 3547   3.185   4.741   6.837
  883SOL    HW1 3548   3.124   4.742   6.757
  883SOL    HW2 3549   3.214   4.648   6.856
  884SOL     OW 3550   4.165   3.904   1.529
  884SOL    HW1 3551   4.186   3.985   1.474
  884SOL    HW2 3552   4.138   3.933   1.621
  885SOL     OW 3553   4.808   6.150   5.591
  885SOL    HW1 3554   4.828   6.247   5.592
  885SOL    HW2 3555   4.893   6.098   5.596
  886SOL     OW 3556   3.599   2.393   6.436
  886SOL    HW1 3557   3.665   2.466   6.456
  886SOL    HW2 3558   3.570   2.350   6.521
  887SOL     OW 3559   6.069   6.062   5.012
  887SOL    HW1 3560   6.111   6.147   5.045
  887SOL    HW2 3561   5.976   6.081   4.982
  888SOL     OW 3562   6.257   0.379   3.517
  888SOL    HW1 3563   6.327   0.412   3.454
  888SOL    HW2 3564   6.167   0.402   3.481
  889SOL     OW 3565   0.764   0.257   4.474
  889SOL    HW1 3566   0.801   0.319   4.544
  889SOL    HW2 3567   0.719   0.180   4.518
  890SOL     OW 3568   1.444   3.930   1.320
  890SOL    HW1 3569   1.437   3.912   1.418
  890SOL    HW2 3570   1.541   3.938   1.295
  891SOL     OW 3571   5.949   3.871   6.538
  891SOL    HW1 3572   5.947   3.945   6.605
  891SOL    HW2 3573   5.886   3.892   6.464
  892SOL     OW 3574   1.969   5.389   1.833
  892SOL    HW1 3575   1.931   5.423   1.920
  892SOL    HW2 3576   1.917   5.428   1.757
  893SOL     OW 3577   2.124   0.197   2.377
  893SOL    HW1 3578   2.102   0.161   2.286
  893SOL    HW2 3579   2.088   0.136   2.447
  894SOL     OW 3580   1.429   5.600   4.771
  894SOL    HW1 3581   1.338   5.574   4.740
  894SOL    HW2 3582   1.456   5.543   4.848
  895SOL     OW 3583   2.417   0.660   4.560
  895SOL    HW1 3584   2.325   0.699   4.573
  895SOL    HW2 3585   2.485   0.733   4.567
  896SOL     OW 3586   5.045   6.327   3.279
  896SOL    HW1 3587   5.096   6.411   3.298
  896SOL    HW2 3588   5.067   6.294   3.187
  897SOL     OW 3589   5.715   1.163   6.123
  897SOL    HW1 3590   5.806   1.135   6.153
  897SOL    HW2 3591   5.685   1.244   6.174
  898SOL     OW 3592   5.199   6.649   3.626
  898SOL    HW1 3593   5.231   6.707   3.700
  898SOL    HW2 3594   5.214   6.553   3.651
  899SOL     OW 3595   1.409   4.926   0.092
  899SOL    HW1 3596   1.392   4.940   0.189
  899SOL    HW2 3597   1.457   5.006   0.054
  900SOL     OW 3598   0.654   5.083   3.648
  900SOL    HW1 3599   0.637   5.072   3.746
  900SOL    HW2 3600   0.575   5.127   3.605
  901SOL     OW 3601   6.149   2.001   3.752
  901SOL    HW1 3602   6.117   2.005   3.658
  901SOL    HW2 3603   6.070   1.989   3.813
  902SOL     OW 3604   1.429   6.067   6.851
  902SOL    HW1 3605   1.441   6.043   6.947
  902SOL    HW2 3606   1.447   5.987   6.794
  903SOL     OW 3607   0.409   4.962   6.445
  903SOL    HW1 3608   0.334   5.022   6.477
  903SOL    HW2 3609   0.408   4.958   6.345
  904SOL     OW 3610   2.290   1.145   4.318
  904SOL    HW1 3611   2.363   1.209   4.345
  904SOL    HW2 3612   2.317   1.100   4.232
  905SOL     OW 3613   6.095   3.490   3.725
  905SOL    HW1 3614   6.127   3.397   3.744
  905SOL    HW2 3615   6.034   3.490   3.647
  906SOL     OW 3616   6.454   3.437   5.205
  906SOL    HW1 3617   6.355   3.427   5.221
  906SOL    HW2 3618   6.471   3.439   5.107
  907SOL     OW 3619   0.257   3.697   2.739
  907SOL    HW1 3620   0.176   3.640   2.732
  907SOL    HW2 3621   0.328   3.663   2.677
  908SOL     OW 3622   2.411   1.132   3.735
  908SOL    HW1 3623   2.439   1.227   3.720
  908SOL    HW2 3624   2.464   1.072   3.674
  909SOL     OW 3625   4.029   6.869   1.658
  909SOL    HW1 3626   4.032   6.814   1.575
  909SOL    HW2 3627   3.935   6.900   1.674
  910SOL     OW 3628   1.585   0.985   2.078
  910SOL    HW1 3629   1.677   0.946   2.091
  910SOL    HW2 3630   1.593   1.081   2.050
  911SOL     OW 3631   1.018   3.350   0.767
  911SOL    HW1 3632   0.979   3.442   0.758
  911SOL    HW2 3633   0.993   3.296   0.686
  912SOL     OW 3634   1.853   1.182   6.971
  912SOL    HW1 3635   1.879   1.090   6.940
  912SOL    HW2 3636   1.831   1.239   6.892
  913SOL     OW 3637   2.061   1.630   2.737
  913SOL    HW1 3638   2.096   1.616   2.644
  913SOL    HW2 3639   2.063   1.727   2.759
  914SOL     OW 3640   2.275   5.051   1.964
  914SOL    HW1 3641   2.186   5.082   1.931
  914SOL    HW2 3642   2.347   5.098   1.913
  915SOL     OW 3643   2.376   2.184   0.761
  915SOL    HW1 3644   2.331   2.184   0.850
  915SOL    HW2 3645   2.448   2.253   0.761
  916SOL     OW 3646   1.300   3.333   2.562
  916SOL    HW1 3647   1.368   3.268   2.594
  916SOL    HW2 3648   1.209   3.307   2.595
  917SOL     OW 3649   3.536   0.836   5.934
  917SOL    HW1 3650   3.533   0.837   6.034
  917SOL    HW2 3651   3.444   0.822   5.897
  918SOL     OW 3652   0.586   1.978   4.692
  918SOL    HW1 3653   0.501   1.973   4.744
  918SOL    HW2 3654   0.664   1.981   4.755
  919SOL     OW 3655   1.420   0.799   1.076
  919SOL    HW1 3656   1.358   0.837   1.145
  919SOL    HW2 3657   1.501   0.856   1.069
  920SOL     OW 3658   1.765   1.644   3.143
  920SOL    HW1 3659   1.790   1.661   3.238
  920SOL    HW2 3660   1.740   1.730   3.099
  921SOL     OW 3661   3.886   4.579   0.101
  921SOL    HW1 3662   3.856   4.503   0.158
  921SOL    HW2 3663   3.986   4.583   0.100
  922SOL     OW 3664   2.305   5.982   0.177
  922SOL    HW1 3665   2.274   6.067   0.220
  922SOL    HW2 3666   2.226   5.924   0.156
  923SOL     OW 3667   4.334   1.290   0.088
  923SOL    HW1 3668   4.261   1.321   0.149
  923SOL    HW2 3669   4.320   1.327   7.023
  924SOL     OW 3670   6.012   4.641   1.908
  924SOL    HW1 3671   5.954   4.588   1.846
  924SOL    HW2 3672   6.055   4.580   1.974
  925SOL     OW 3673   6.511   2.217   2.191
  925SOL    HW1 3674   6.431   2.250   2.140
  925SOL    HW2 3675   6.585   2.283   2.184
  926SOL     OW 3676   3.889   5.869   1.182
  926SOL    HW1 3677   3.932   5.825   1.104
  926SOL    HW2 3678   3.938   5.953   1.204
  927SOL     OW 3679   4.802   5.253   4.805
  927SOL    HW1 3680   4.751   5.340   4.813
  927SOL    HW2 3681   4.793   5.218   4.712
  928SOL     OW 3682   0.444   1.892   1.582
  928SOL    HW1 3683   0.523   1.831   1.579
  928SOL    HW2 3684   0.372   1.850   1.638
  929SOL     OW 3685   0.260   2.232   2.382
  929SOL    HW1 3686   0.279   2.266   2.290
  929SOL    HW2 3687   0.163   2.212   2.392
  930SOL     OW 3688   6.253   5.243   1.998
  930SOL    HW1 3689   6.243   5.340   2.021
  930SOL    HW2 3690   6.238   5.187   2.079
  931SOL     OW 3691   1.283   2.689   2.045
  931SOL    HW1 3692   1.312   2.785   2.043
  931SOL    HW2 3693   1.228   2.668   1.964
  932SOL     OW 3694   4.490   5.982   1.296
  932SOL    HW1 3695   4.562   5.922   1.332
  932SOL    HW2 3696   4.424   6.001   1.368
  933SOL     OW 3697   0.886   6.326   3.393
  933SOL    HW1 3698   0.952   6.292   3.325
  933SOL    HW2 3699   0.936   6.363   3.471
  934SOL     OW 3700   2.999   1.358   5.400
  934SOL    HW1 3701   2.922   1.326   5.454
  934SOL    HW2 3702   3.024   1.451   5.429
  935SOL     OW 3703   1.511   3.767   4.288
  935SOL    HW1 3704   1.464   3.837   4.341
  935SOL    HW2 3705   1.571   3.715   4.348
  936SOL     OW 3706   1.225   1.494   2.184
  936SOL    HW1 3707   1.164   1.445   2.246
  936SOL    HW2 3708   1.292   1.431   2.146
  937SOL     OW 3709   5.131   2.242   3.647
  937SOL    HW1 3710   5.051   2.277   3.600
  937SOL    HW2 3711   5.117   2.247   3.746
  938SOL     OW 3712   0.591   0.749   6.468
  938SOL    HW1 3713   0.547   0.690   6.400
  938SOL    HW2 3714   0.615   0.694   6.548
  939SOL     OW 3715   6.112   0.980   4.574
  939SOL    HW1 3716   6.021   0.948   4.600
  939SOL    HW2 3717   6.170   0.985   4.655
  940SOL     OW 3718   6.411   0.353   3.761
  940SOL    HW1 3719   6.313   0.375   3.768
  940SOL    HW2 3720   6.443   0.377   3.669
  941SOL     OW 3721   5.985   2.490   5.523
  941SOL    HW1 3722   5.950   2.415   5.467
  941SOL    HW2 3723   5.910   2.530   5.575
  942SOL     OW 3724   4.312   0.017   5.150
  942SOL    HW1 3725   4.243   6.976   5.123
  942SOL    HW2 3726   4.402   7.001   5.150
  943SOL     OW 3727   5.352   2.574   0.207
  943SOL    HW1 3728   5.280   2.519   0.249
  943SOL    HW2 3729   5.329   2.671   0.216
  944SOL     OW 3730   4.911   4.378   3.673
  944SOL    HW1 3731   4.864   4.446   3.617
  944SOL    HW2 3732   4.846   4.311   3.707
  945SOL     OW 3733   5.695   3.343   6.814
  945SOL    HW1 3734   5.697   3.432   6.858
  945SOL    HW2 3735   5.786   3.302   6.816
  946SOL     OW 3736   6.180   3.754   6.507
  946SOL    HW1 3737   6.176   3.660   6.542
  946SOL    HW2 3738   6.100   3.805   6.538
  947SOL     OW 3739   0.667   3.012   5.342
  947SOL    HW1 3740   0.675   2.948   5.419
  947SOL    HW2 3741   0.682   2.963   5.256
  948SOL     OW 3742   3.517   2.093   0.553
  948SOL    HW1 3743   3.465   2.126   0.631
  948SOL    HW2 3744   3.471   2.014   0.513
  949SOL     OW 3745   5.139   6.212   6.212
  949SOL    HW1 3746   5.041   6.198   6.226
  949SOL    HW2 3747   5.181   6.243   6.298
  950SOL     OW 3748   3.335   5.205   0.985
  950SOL    HW1 3749   3.290   5.145   0.919
  950SOL    HW2 3750   3.326   5.167   1.077
  951SOL     OW 3751   1.354   2.967   4.050
  951SOL    HW1 3752   1.420   3.008   4.113
  951SOL    HW2 3753   1.356   3.016   3.963
  952SOL     OW 3754   5.018   1.175   1.020
  952SOL    HW1 3755   5.064   1.110   0.959
  952SOL    HW2 3756   5.072   1.186   1.103
  953SOL     OW 3757   4.457   6.436   5.819
  953SOL    HW1 3758   4.374   6.436   5.874
  953SOL    HW2 3759   4.509   6.520   5.837
  954SOL     OW 3760   6.188   0.028   1.496
  954SOL    HW1 3761   6.269   0.049   1.550
  954SOL    HW2 3762   6.190   0.082   1.412
  955SOL     OW 3763   1.052   5.905   2.896
  955SOL    HW1 3764   0.972   5.955   2.930
  955SOL    HW2 3765   1.134   5.960   2.910
  956SOL     OW 3766   1.856   2.706   0.745
  956SOL    HW1 3767   1.857   2.742   0.651
  956SOL    HW2 3768   1.861   2.782   0.809
  957SOL     OW 3769   2.072   6.355   4.875
  957SOL    HW1 3770   2.139   6.280   4.876
  957SOL    HW2 3771   2.061   6.391   4.968
  958SOL     OW 3772   4.585   2.630   6.747
  958SOL    HW1 3773   4.647   2.701   6.716
  958SOL    HW2 3774   4.623   2.586   6.829
  959SOL     OW 3775   1.540   4.004   0.692
  959SOL    HW1 3776   1.466   3.969   0.635
  959SOL    HW2 3777   1.550   3.947   0.773
  960SOL     OW 3778   1.600   4.393   5.822
  960SOL    HW1 3779   1.608   4.294   5.806
  960SOL    HW2 3780   1.561   4.436   5.741
  961SOL     OW 3781   3.515   6.687   6.773
  961SOL    HW1 3782   3.435   6.633   6.747
  961SOL    HW2 3783   3.579   6.629   6.824
  962SOL     OW 3784   0.931   0.044   3.368
  962SOL    HW1 3785   0.984   0.092   3.298
  962SOL    HW2 3786   0.993   0.013   3.440
  963SOL     OW 3787   5.763   7.020   2.234
  963SOL    HW1 3788   5.680   7.006   2.180
  963SOL    HW2 3789   5.750   6.984   2.326
  964SOL     OW 3790   5.755   4.064   1.221
  964SOL    HW1 3791   5.656   4.058   1.236
  964SOL    HW2 3792   5.779   4.008   1.142
  965SOL     OW 3793   1.959   1.581   0.284
  965SOL    HW1 3794   1.946   1.674   0.249
  965SOL    HW2 3795   1.939   1.515   0.212
  966SOL     OW 3796   6.115   2.343   1.849
  966SOL    HW1 3797   6.161   2.426   1.883
  966SOL    HW2 3798   6.032   2.327   1.901
  967SOL     OW 3799   1.167   5.321   2.901
  967SOL    HW1 3800   1.186   5.337   2.804
  967SOL    HW2 3801   1.240   5.359   2.956
  968SOL     OW 3802   6.836   4.139   0.174
  968SOL    HW1 3803   6.886   4.213   0.219
  968SOL    HW2 3804   6.896   4.095   0.106
  969SOL     OW 3805   4.069   6.473   6.334
  969SOL    HW1 3806   4.127   6.397   6.303
  969SOL    HW2 3807   4.045   6.460   6.430
  970SOL     OW 3808   5.338   3.289   6.434
  970SOL    HW1 3809   5.374   3.242   6.353
  970SOL    HW2 3810   5.304   3.380   6.407
  971SOL     OW 3811   0.334   2.960   6.903
  971SOL    HW1 3812   0.374   2.914   6.824
  971SOL    HW2 3813   0.361   2.912   6.987
  972SOL     OW 3814   4.918   6.617   0.633
  972SOL    HW1 3815   4.859   6.536   0.632
  972SOL    HW2 3816   4.979   6.613   0.713
  973SOL     OW 3817   6.503   3.498   5.642
  973SOL    HW1 3818   6.465   3.584   5.678
  973SOL    HW2 3819   6.591   3.480   5.686
  974SOL     OW 3820   1.681   0.341   4.604
  974SOL    HW1 3821   1.753   0.374   4.543
  974SOL    HW2 3822   1.707   0.358   4.699
  975SOL     OW 3823   2.783   0.088   5.577
  975SOL    HW1 3824   2.848   0.107   5.503
  975SOL    HW2 3825   2.833   0.074   5.662
  976SOL     OW 3826   0.295   4.780   3.905
  976SOL    HW1 3827   0.218   4.843   3.894
  976SOL    HW2 3828   0.332   4.759   3.814
  977SOL     OW 3829   0.932   2.340   2.321
  977SOL    HW1 3830   0.985   2.421   2.295
  977SOL    HW2 3831   0.855   2.367   2.379
  978SOL     OW 3832   5.462   2.774   4.322
  978SOL    HW1 3833   5.457   2.809   4.228
  978SOL    HW2 3834   5.385   2.809   4.374
  979SOL     OW 3835   6.426   1.860   2.748
  979SOL    HW1 3836   6.354   1.797   2.779
  979SOL    HW2 3837   6.515   1.820   2.764
  980SOL     OW 3838   6.644   6.941   5.797
  980SOL    HW1 3839   6.724   6.898   5.839
  980SOL    HW2 3840   6.619   6.891   5.714
  981SOL     OW 3841   6.253   2.924   6.122
  981SOL    HW1 3842   6.188   3.000   6.121
  981SOL    HW2 3843   6.296   2.918   6.212
  982SOL     OW 3844   1.355   4.458   0.934
  982SOL    HW1 3845   1.434   4.518   0.946
  982SOL    HW2 3846   1.354   4.422   0.840
  983SOL     OW 3847   5.463   1.526   3.692
  983SOL    HW1 3848   5.408   1.486   3.766
  983SOL    HW2 3849   5.559   1.505   3.708
  984SOL     OW 3850   4.884   3.030   5.330
  984SOL    HW1 3851   4.818   3.103   5.344
  984SOL    HW2 3852   4.973   3.070   5.308
  985SOL     OW 3853   1.609   4.546   0.325
  985SOL    HW1 3854   1.590   4.478   0.254
  985SOL    HW2 3855   1.706   4.571   0.322
  986SOL     OW 3856   5.003   4.348   6.074
  986SOL    HW1 3857   5.001   4.429   6.132
  986SOL    HW2 3858   4.994   4.266   6.130
  987SOL     OW 3859   3.685   0.258   2.531
  987SOL    HW1 3860   3.717   0.330   2.593
  987SOL    HW2 3861   3.764   0.219   2.482
  988SOL     OW 3862   3.482   2.779   1.390
  988SOL    HW1 3863   3.393   2.756   1.429
  988SOL    HW2 3864   3.539   2.697   1.384
  989SOL     OW 3865   0.811   1.079   4.285
  989SOL    HW1 3866   0.740   1.010   4.271
  989SOL    HW2 3867   0.834   1.121   4.197
  990SOL     OW 3868   5.392   6.483   2.110
  990SOL    HW1 3869   5.410   6.489   2.012
  990SOL    HW2 3870   5.311   6.426   2.125
  991SOL     OW 3871   5.952   1.781   5.641
  991SOL    HW1 3872   5.956   1.699   5.698
  991SOL    HW2 3873   5.902   1.853   5.689
  992SOL     OW 3874   0.188   2.822   1.020
  992SOL    HW1 3875   0.194   2.766   0.938
  992SOL    HW2 3876   0.235   2.909   1.005
  993SOL     OW 3877   4.052   6.605   4.526
  993SOL    HW1 3878   4.109   6.676   4.485
  993SOL    HW2 3879   4.076   6.516   4.489
  994SOL     OW 3880   2.904   3.368   3.092
  994SOL    HW1 3881   2.948   3.457   3.097
  994SOL    HW2 3882   2.934   3.321   3.008
  995SOL     OW 3883   0.486   1.560   4.722
  995SOL    HW1 3884   0.441   1.649   4.721
  995SOL    HW2 3885   0.490   1.526   4.816
  996SOL     OW 3886   0.917   3.397   7.019
  996SOL    HW1 3887   0.954   3.318   6.970
  996SOL    HW2 3888   0.914   3.376   0.090
  997SOL     OW 3889   0.078   1.742   0.529
  997SOL    HW1 3890   0.110   1.781   0.443
  997SOL    HW2 3891   7.005   1.749   0.534
  998SOL     OW 3892   4.976   6.754   3.180
  998SOL    HW1 3893   4.917   6.827   3.216
  998SOL    HW2 3894   5.071   6.778   3.196
  999SOL     OW 3895   6.406   5.652   1.070
  999SOL    HW1 3896   6.379   5.629   1.164
  999SOL    HW2 3897   6.472   5.727   1.072
 1000SOL     OW 3898   4.344   1.941   4.653
 1000SOL    HW1 3899   4.386   1.879   4.719
 1000SOL    HW2 3900   4.256   1.904   4.623
 1001SOL     OW 3901   4.746   1.063   5.218
 1001SOL    HW1 3902   4.656   1.046   5.178
 1001SOL    HW2 3903   4.816   1.027   5.156
 1002SOL     OW 3904   0.874   1.330   0.579
 1002SOL    HW1 3905   0.826   1.248   0.608
 1002SOL    HW2 3906   0.860   1.345   0.481
 1003SOL     OW 3907   4.089   5.206   2.640
 1003SOL    HW1 3908   4.034   5.276   2.594
 1003SOL    HW2 3909   4.149   5.162   2.573
 1004SOL     OW 3910   6.058   6.146   0.302
 1004SOL    HW1 3911   6.123   6.222   0.295
 1004SOL    HW2 3912   6.108   6.063   0.327
 1005SOL     OW 3913   6.680   5.944   3.598
 1005SOL    HW1 3914   6.681   6.017   3.530
 1005SOL    HW2 3915   6.592   5.898   3.597
 1006SOL     OW 3916   1.670   4.823   0.123
 1006SOL    HW1 3917   1.573   4.828   0.148
 1006SOL    HW2 3918   1.677   4.815   0.023
 1007SOL     OW 3919   6.761   1.483   2.990
 1007SOL    HW1 3920   6.736   1.547   3.063
 1007SOL    HW2 3921   6.855   1.451   3.004
 1008SOL     OW 3922   2.993   2.093   5.121
 1008SOL    HW1 3923   3.021   2.170   5.064
 1008SOL    HW2 3924   3.067   2.069   5.184
 1009SOL     OW 3925   3.089   6.201   6.231
 1009SOL    HW1 3926   3.008   6.256   6.213
 1009SOL    HW2 3927   3.069   6.136   6.305
 1010SOL     OW 3928   5.492   6.896   5.478
 1010SOL    HW1 3929   5.463   6.804   5.503
 1010SOL    HW2 3930   5.435   6.931   5.403
 1011SOL     OW 3931   2.759   5.604   3.925
 1011SOL    HW1 3932   2.701   5.673   3.883
 1011SOL    HW2 3933   2.774   5.627   4.021
 1012SOL     OW 3934   3.760   6.035   1.012
 1012SOL    HW1 3935   3.798   5.961   1.068
 1012SOL    HW2 3936   3.791   6.123   1.049
 1013SOL     OW 3937   0.759   0.497   0.262
 1013SOL    HW1 3938   0.760   0.434   0.339
 1013SOL    HW2 3939   0.846   0.490   0.211
 1014SOL     OW 3940   6.021   6.599   6.055
 1014SOL    HW1 3941   5.947   6.544   6.094
 1014SOL    HW2 3942   6.080   6.541   5.998
 1015SOL     OW 3943   2.765   0.386   4.831
 1015SOL    HW1 3944   2.795   0.415   4.740
 1015SOL    HW2 3945   2.719   0.297   4.824
 1016SOL     OW 3946   4.134   2.855   1.563
 1016SOL    HW1 3947   4.183   2.942   1.576
 1016SOL    HW2 3948   4.148   2.824   1.468
 1017SOL     OW 3949   5.118   0.752   6.130
 1017SOL    HW1 3950   5.097   0.697   6.211
 1017SOL    HW2 3951   5.117   0.849   6.155
 1018SOL     OW 3952   1.501   2.840   1.528
 1018SOL    HW1 3953   1.583   2.799   1.569
 1018SOL    HW2 3954   1.493   2.935   1.559
 1019SOL     OW 3955   6.192   1.832   0.811
 1019SOL    HW1 3956   6.120   1.763   0.805
 1019SOL    HW2 3957   6.255   1.821   0.734
 1020SOL     OW 3958   3.648   2.191   1.660
 1020SOL    HW1 3959   3.676   2.264   1.722
 1020SOL    HW2 3960   3.720   2.122   1.654
 1021SOL     OW 3961   6.916   1.159   1.110
 1021SOL    HW1 3962   6.905   1.060   1.099
 1021SOL    HW2 3963   7.006   1.178   1.150
 1022SOL     OW 3964   3.260   2.731   0.065
 1022SOL    HW1 3965   3.259   2.686   0.154
 1022SOL    HW2 3966   3.193   2.686   0.005
 1023SOL     OW 3967   0.001   0.570   4.817
 1023SOL    HW1 3968   0.043   0.657   4.842
 1023SOL    HW2 3969   6.995   0.524   4.900
 1024SOL     OW 3970   6.165   2.657   3.804
 1024SOL    HW1 3971   6.219   2.605   3.739
 1024SOL    HW2 3972   6.209   2.745   3.821
 1025SOL     OW 3973   3.065   4.778   1.411
 1025SOL    HW1 3974   3.025   4.730   1.489
 1025SOL    HW2 3975   3.048   4.876   1.420
 1026SOL     OW 3976   0.536   2.168   6.064
 1026SOL    HW1 3977   0.533   2.260   6.027
 1026SOL    HW2 3978   0.615   2.119   6.026
 1027SOL     OW 3979   2.311   4.633   1.160
 1027SOL    HW1 3980   2.348   4.543   1.186
 1027SOL    HW2 3981   2.381   4.685   1.113
 1028SOL     OW 3982   0.080   5.471   0.267
 1028SOL    HW1 3983   0.074   5.557   0.318
 1028SOL    HW2 3984   7.018   5.450   0.226
 1029SOL     OW 3985   3.744   0.262   4.842
 1029SOL    HW1 3986   3.698   0.297   4.761
 1029SOL    HW2 3987   3.842   0.257   4.826
 1030SOL     OW 3988   3.989   4.848   5.098
 1030SOL    HW1 3989   3.995   4.858   4.998
 1030SOL    HW2 3990   3.940   4.926   5.136
 1031SOL     OW 3991   2.422   5.935   0.929
 1031SOL    HW1 3992   2.328   5.970   0.923
 1031SOL    HW2 3993   2.425   5.861   0.996
 1032SOL     OW 3994   1.151   1.576   5.066
 1032SOL    HW1 3995   1.232   1.569   5.008
 1032SOL    HW2 3996   1.135   1.672   5.090
 1033SOL     OW 3997   2.573   6.842   1.931
 1033SOL    HW1 3998   2.630   6.914   1.972
 1033SOL    HW2 3999   2.528   6.878   1.850
 1034SOL     OW 4000   1.031   6.407   2.101
 1034SOL    HW1 4001   1.086   6.332   2.064
 1034SOL    HW2 4002   1.084   6.455   2.172
 1035SOL     OW 4003   3.558   1.838   2.635
 1035SOL    HW1 4004   3.470   1.826   2.589
 1035SOL    HW2 4005   3.604   1.919   2.598
 1036SOL     OW 4006   4.791   7.011   6.588
 1036SOL    HW1 4007   4.788   0.071   6.539
 1036SOL    HW2 4008   4.820   6.938   6.525
 1037SOL     OW 4009   3.591   1.456   5.949
 1037SOL    HW1 4010   3.585   1.357   5.959
 1037SOL    HW2 4011   3.655   1.492   6.017
 1038SOL     OW 4012   2.558   2.246   5.411
 1038SOL    HW1 4013   2.476   2.190   5.406
 1038SOL    HW2 4014   2.623   2.217   5.341
 1039SOL     OW 4015   5.037   1.741   3.498
 1039SOL    HW1 4016   4.987   1.806   3.442
 1039SOL    HW2 4017   5.131   1.772   3.510
 1040SOL     OW 4018   6.371   4.072   4.153
 1040SOL    HW1 4019   6.325   3.987   4.129
 1040SOL    HW2 4020   6.390   4.125   4.071
 1041SOL     OW 4021   1.592   6.831   4.691
 1041SOL    HW1 4022   1.564   6.870   4.603
 1041SOL    HW2 4023   1.516   6.838   4.756
 1042SOL     OW 4024   4.503   3.927   0.446
 1042SOL    HW1 4025   4.525   3.871   0.525
 1042SOL    HW2 4026   4.496   3.869   0.364
 1043SOL     OW 4027   4.225   0.389   6.778
 1043SOL    HW1 4028   4.212   0.385   6.679
 1043SOL    HW2 4029   4.164   0.459   6.817
 1044SOL     OW 4030   3.992   3.758   2.982
 1044SOL    HW1 4031   4.049   3.729   2.905
 1044SOL    HW2 4032   3.899   3.724   2.969
 1045SOL     OW 4033   3.903   0.718   3.230
 1045SOL    HW1 4034   3.900   0.767   3.317
 1045SOL    HW2 4035   3.990   0.734   3.185
 1046SOL     OW 4036   3.094   0.712   2.214
 1046SOL    HW1 4037   3.016   0.649   2.208
 1046SOL    HW2 4038   3.176   0.661   2.239
 1047SOL     OW 4039   0.645   6.104   1.975
 1047SOL    HW1 4040   0.735   6.110   2.018
 1047SOL    HW2 4041   0.624   6.191   1.930
 1048SOL     OW 4042   6.169   3.907   4.936
 1048SOL    HW1 4043   6.140   3.931   4.844
 1048SOL    HW2 4044   6.239   3.836   4.931
 1049SOL     OW 4045   0.575   3.554   5.345
 1049SOL    HW1 4046   0.538   3.620   5.410
 1049SOL    HW2 4047   0.670   3.534   5.370
 1050SOL     OW 4048   2.654   0.403   1.139
 1050SOL    HW1 4049   2.688   0.380   1.230
 1050SOL    HW2 4050   2.657   0.502   1.125
 1051SOL     OW 4051   4.786   4.644   1.879
 1051SOL    HW1 4052   4.753   4.722   1.825
 1051SOL    HW2 4053   4.886   4.645   1.883
 1052SOL     OW 4054   3.603   0.366   3.683
 1052SOL    HW1 4055   3.597   0.445   3.743
 1052SOL    HW2 4056   3.697   0.330   3.685
 1053SOL     OW 4057   3.386   5.024   3.711
 1053SOL    HW1 4058   3.482   5.038   3.688
 1053SOL    HW2 4059   3.348   5.108   3.751
 1054SOL     OW 4060   4.242   5.724   4.876
 1054SOL    HW1 4061   4.209   5.643   4.827
 1054SOL    HW2 4062   4.314   5.697   4.939
 1055SOL     OW 4063   3.975   4.850   4.501
 1055SOL    HW1 4064   4.064   4.840   4.546
 1055SOL    HW2 4065   3.904   4.859   4.571
 1056SOL     OW 4066   2.680   6.090   6.994
 1056SOL    HW1 4067   2.690   6.077   0.066
 1056SOL    HW2 4068   2.766   6.065   6.948
 1057SOL     OW 4069   3.934   4.164   1.431
 1057SOL    HW1 4070   3.860   4.099   1.417
 1057SOL    HW2 4071   3.920   4.214   1.516
 1058SOL     OW 4072   2.977   6.356   2.058
 1058SOL    HW1 4073   3.059   6.324   2.009
 1058SOL    HW2 4074   2.975   6.456   2.059
 1059SOL     OW 4075   4.294   0.764   0.682
 1059SOL    HW1 4076   4.196   0.779   0.696
 1059SOL    HW2 4077   4.346   0.832   0.733
 1060SOL     OW 4078   3.628   1.413   4.103
 1060SOL    HW1 4079   3.644   1.504   4.141
 1060SOL    HW2 4080   3.534   1.385   4.122
 1061SOL     OW 4081   2.250   5.631   1.276
 1061SOL    HW1 4082   2.167   5.634   1.220
 1061SOL    HW2 4083   2.238   5.563   1.348
 1062SOL     OW 4084   4.881   4.527   4.590
 1062SOL    HW1 4085   4.965   4.487   4.555
 1062SOL    HW2 4086   4.867   4.499   4.684
 1063SOL     OW 4087   3.003   2.369   6.604
 1063SOL    HW1 4088   2.984   2.407   6.513
 1063SOL    HW2 4089   3.042   2.440   6.662
 1064SOL     OW 4090   0.260   2.949   2.026
 1064SOL    HW1 4091   0.264   2.973   2.123
 1064SOL    HW2 4092   0.170   2.911   2.005
 1065SOL     OW 4093   4.470   4.916   5.918
 1065SOL    HW1 4094   4.528   4.982   5.870
 1065SOL    HW2 4095   4.516   4.886   6.002
 1066SOL     OW 4096   4.568   0.351   3.524
 1066SOL    HW1 4097   4.470   0.367   3.534
 1066SOL    HW2 4098   4.617   0.438   3.533
 1067SOL     OW 4099   2.956   3.911   0.042
 1067SOL    HW1 4100   2.907   3.960   6.997
 1067SOL    HW2 4101   3.027   3.969   0.080
 1068SOL     OW 4102   0.626   4.978   1.560
 1068SOL    HW1 4103   0.538   5.019   1.535
 1068SOL    HW2 4104   0.613   4.919   1.639
 1069SOL     OW 4105   3.430   2.890   2.461
 1069SOL    HW1 4106   3.362   2.819   2.478
 1069SOL    HW2 4107   3.522   2.853   2.475
 1070SOL     OW 4108   2.201   6.608   0.518
 1070SOL    HW1 4109   2.134   6.663   0.567
 1070SOL    HW2 4110   2.286   6.660   0.505
 1071SOL     OW 4111   5.133   5.621   3.009
 1071SOL    HW1 4112   5.186   5.540   3.037
 1071SOL    HW2 4113   5.065   5.594   2.941
 1072SOL     OW 4114   3.883   5.908   3.017
 1072SOL    HW1 4115   3.811   5.859   3.066
 1072SOL    HW2 4116   3.894   5.999   3.056
 1073SOL     OW 4117   2.781   5.517   3.505
 1073SOL    HW1 4118   2.852   5.478   3.446
 1073SOL    HW2 4119   2.740   5.445   3.561
 1074SOL     OW 4120   1.916   5.068   3.474
 1074SOL    HW1 4121   2.010   5.094   3.452
 1074SOL    HW2 4122   1.906   4.969   3.470
 1075SOL     OW 4123   0.641   3.898   2.621
 1075SOL    HW1 4124   0.582   3.975   2.594
 1075SOL    HW2 4125   0.614   3.865   2.711
 1076SOL     OW 4126   6.230   3.663   2.982
 1076SOL    HW1 4127   6.317   3.614   2.992
 1076SOL    HW2 4128   6.246   3.762   2.991
 1077SOL     OW 4129   4.754   0.025   1.995
 1077SOL    HW1 4130   4.670   6.998   1.996
 1077SOL    HW2 4131   4.822   7.007   1.937
 1078SOL     OW 4132   6.984   2.886   2.423
 1078SOL    HW1 4133   0.010   2.804   2.399
 1078SOL    HW2 4134   0.018   2.952   2.468
 1079SOL     OW 4135   1.632   4.688   3.384
 1079SOL    HW1 4136   1.543   4.733   3.377
 1079SOL    HW2 4137   1.620   4.599   3.428
 1080SOL     OW 4138   1.823   5.402   3.829
 1080SOL    HW1 4139   1.919   5.404   3.802
 1080SOL    HW2 4140   1.777   5.326   3.783
 1081SOL     OW 4141   1.423   0.654   0.027
 1081SOL    HW1 4142   1.407   0.732   6.992
 1081SOL    HW2 4143   1.472   0.685   0.108
 1082SOL     OW 4144   2.020   0.351   1.176
 1082SOL    HW1 4145   1.959   0.276   1.148
 1082SOL    HW2 4146   2.111   0.315   1.193
 1083SOL     OW 4147   3.677   2.801   1.723
 1083SOL    HW1 4148   3.611   2.863   1.765
 1083SOL    HW2 4149   3.638   2.709   1.717
 1084SOL     OW 4150   6.803   3.973   1.155
 1084SOL    HW1 4151   6.766   3.900   1.213
 1084SOL    HW2 4152   6.731   4.008   1.095
 1085SOL     OW 4153   1.713   5.594   4.339
 1085SOL    HW1 4154   1.685   5.689   4.350
 1085SOL    HW2 4155   1.691   5.543   4.422
 1086SOL     OW 4156   2.949   5.712   2.481
 1086SOL    HW1 4157   2.913   5.680   2.394
 1086SOL    HW2 4158   3.021   5.779   2.465
 1087SOL     OW 4159   3.681   3.145   5.109
 1087SOL    HW1 4160   3.759   3.081   5.105
 1087SOL    HW2 4161   3.700   3.215   5.177
 1088SOL     OW 4162   0.325   4.366   2.740
 1088SOL    HW1 4163   0.266   4.418   2.802
 1088SOL    HW2 4164   0.304   4.391   2.645
 1089SOL     OW 4165   6.764   0.175   3.216
 1089SOL    HW1 4166   6.679   0.128   3.237
 1089SOL    HW2 4167   6.763   0.206   3.121
 1090SOL     OW 4168   1.848   2.303   6.391
 1090SOL    HW1 4169   1.865   2.379   6.329
 1090SOL    HW2 4170   1.837   2.219   6.338
 1091SOL     OW 4171   0.458   2.220   5.479
 1091SOL    HW1 4172   0.488   2.163   5.556
 1091SOL    HW2 4173   0.530   2.285   5.455
 1092SOL     OW 4174   2.727   4.740   1.596
 1092SOL    HW1 4175   2.736   4.759   1.498
 1092SOL    HW2 4176   2.741   4.642   1.613
 1093SOL     OW 4177   0.126   2.530   1.760
 1093SOL    HW1 4178   0.093   2.614   1.716
 1093SOL    HW2 4179   0.226   2.531   1.761
 1094SOL     OW 4180   1.002   6.004   2.618
 1094SOL    HW1 4181   1.071   6.003   2.690
 1094SOL    HW2 4182   0.949   6.089   2.624
 1095SOL     OW 4183   0.818   3.617   6.484
 1095SOL    HW1 4184   0.783   3.640   6.574
 1095SOL    HW2 4185   0.744   3.622   6.416
 1096SOL     OW 4186   3.455   2.903   1.995
 1096SOL    HW1 4187   3.549   2.874   2.009
 1096SOL    HW2 4188   3.449   3.002   2.002
 1097SOL     OW 4189   3.030   4.586   5.848
 1097SOL    HW1 4190   2.971   4.593   5.767
 1097SOL    HW2 4191   3.020   4.668   5.904
 1098SOL     OW 4192   3.450   0.302   2.413
 1098SOL    HW1 4193   3.549   0.287   2.416
 1098SOL    HW2 4194   3.417   0.282   2.321
 1099SOL     OW 4195   3.385   0.219   2.050
 1099SOL    HW1 4196   3.400   0.309   2.008
 1099SOL    HW2 4197   3.321   0.228   2.126
 1100SOL     OW 4198   6.709   0.972   0.447
 1100SOL    HW1 4199   6.767   1.037   0.399
 1100SOL    HW2 4200   6.762   0.927   0.519
 1101SOL     OW 4201   5.156   2.929   0.844
 1101SOL    HW1 4202   5.242   2.979   0.839
 1101SOL    HW2 4203   5.080   2.991   0.819
 1102SOL     OW 4204   0.058   3.377   4.208
 1102SOL    HW1 4205   0.038   3.389   4.111
 1102SOL    HW2 4206   0.156   3.381   4.223
 1103SOL     OW 4207   0.484   3.183   6.980
 1103SOL    HW1 4208   0.531   3.094   6.974
 1103SOL    HW2 4209   0.408   3.176   0.017
 1104SOL     OW 4210   2.530   5.600   5.844
 1104SOL    HW1 4211   2.431   5.590   5.832
 1104SOL    HW2 4212   2.573   5.510   5.841
 1105SOL     OW 4213   3.968   5.261   0.969
 1105SOL    HW1 4214   3.934   5.185   0.914
 1105SOL    HW2 4215   3.891   5.312   1.007
 1106SOL     OW 4216   0.919   1.347   6.649
 1106SOL    HW1 4217   0.900   1.410   6.573
 1106SOL    HW2 4218   1.001   1.377   6.696
 1107SOL     OW 4219   6.922   0.177   1.996
 1107SOL    HW1 4220   6.822   0.172   2.000
 1107SOL    HW2 4221   6.961   0.132   2.077
 1108SOL     OW 4222   1.202   1.300   0.184
 1108SOL    HW1 4223   1.110   1.333   0.199
 1108SOL    HW2 4224   1.262   1.331   0.258
 1109SOL     OW 4225   4.314   1.083   3.438
 1109SOL    HW1 4226   4.325   1.081   3.537
 1109SOL    HW2 4227   4.291   0.992   3.405
 1110SOL     OW 4228   3.300   2.904   2.827
 1110SOL    HW1 4229   3.232   2.957   2.776
 1110SOL    HW2 4230   3.256   2.862   2.907
 1111SOL     OW 4231   4.532   6.809   6.748
 1111SOL    HW1 4232   4.565   6.895   6.787
 1111SOL    HW2 4233   4.497   6.750   6.820
 1112SOL     OW 4234   1.314   1.366   2.502
 1112SOL    HW1 4235   1.403   1.367   2.456
 1112SOL    HW2 4236   1.244   1.335   2.437
 1113SOL     OW 4237   6.426   3.800   1.283
 1113SOL    HW1 4238   6.415   3.893   1.249
 1113SOL    HW2 4239   6.403   3.735   1.211
 1114SOL     OW 4240   5.797   1.325   5.754
 1114SOL    HW1 4241   5.717   1.379   5.780
 1114SOL    HW2 4242   5.880   1.370   5.787
 1115SOL     OW 4243   2.389   4.884   0.755
 1115SOL    HW1 4244   2.340   4.797   0.755
 1115SOL    HW2 4245   2.347   4.946   0.689
 1116SOL     OW 4246   3.776   6.240   6.488
 1116SOL    HW1 4247   3.761   6.332   6.524
 1116SOL    HW2 4248   3.864   6.206   6.518
 1117SOL     OW 4249   2.844   3.344   1.096
 1117SOL    HW1 4250   2.867   3.423   1.040
 1117SOL    HW2 4251   2.773   3.369   1.162
 1118SOL     OW 4252   1.475   3.160   1.327
 1118SOL    HW1 4253   1.404   3.098   1.294
 1118SOL    HW2 4254   1.441   3.212   1.405
 1119SOL     OW 4255   3.093   3.894   3.352
 1119SOL    HW1 4256   3.109   3.830   3.277
 1119SOL    HW2 4257   3.157   3.971   3.344
 1120SOL     OW 4258   3.766   0.994   4.056
 1120SOL    HW1 4259   3.837   1.042   4.005
 1120SOL    HW2 4260   3.803   0.908   4.093
 1121SOL     OW 4261   5.270   3.562   3.487
 1121SOL    HW1 4262   5.265   3.602   3.396
 1121SOL    HW2 4263   5.177   3.541   3.519
 1122SOL     OW 4264   4.544   5.256   6.310
 1122SOL    HW1 4265   4.560   5.181   6.374
 1122SOL    HW2 4266   4.477   5.228   6.241
 1123SOL     OW 4267   3.586   1.045   2.045
 1123SOL    HW1 4268   3.541   1.015   2.128
 1123SOL    HW2 4269   3.555   1.138   2.021
 1124SOL     OW 4270   1.891   5.243   4.154
 1124SOL    HW1 4271   1.964   5.310   4.142
 1124SOL    HW2 4272   1.803   5.290   4.162
 1125SOL     OW 4273   3.164   3.460   5.183
 1125SOL    HW1 4274   3.122   3.550   5.170
 1125SOL    HW2 4275   3.158   3.433   5.279
 1126SOL     OW 4276   6.299   0.591   2.342
 1126SOL    HW1 4277   6.238   0.647   2.287
 1126SOL    HW2 4278   6.280   0.494   2.326
 1127SOL     OW 4279   2.235   5.635   6.218
 1127SOL    HW1 4280   2.264   5.730   6.213
 1127SOL    HW2 4281   2.147   5.629   6.267
 1128SOL     OW 4282   2.577   2.402   4.456
 1128SOL    HW1 4283   2.617   2.311   4.443
 1128SOL    HW2 4284   2.593   2.432   4.550
 1129SOL     OW 4285   4.073   6.057   6.060
 1129SOL    HW1 4286   4.119   5.989   6.003
 1129SOL    HW2 4287   3.974   6.050   6.047
 1130SOL     OW 4288   0.336   5.184   5.621
 1130SOL    HW1 4289   0.243   5.153   5.603
 1130SOL    HW2 4290   0.397   5.105   5.630
 1131SOL     OW 4291   6.910   4.614   5.855
 1131SOL    HW1 4292   6.836   4.558   5.819
 1131SOL    HW2 4293   6.899   4.709   5.824
 1132SOL     OW 4294   5.662   6.313   4.882
 1132SOL    HW1 4295   5.564   6.335   4.883
 1132SOL    HW2 4296   5.715   6.398   4.882
 1133SOL     OW 4297   6.531   2.188   6.947
 1133SOL    HW1 4298   6.615   2.223   6.904
 1133SOL    HW2 4299   6.452   2.217   6.892
 1134SOL     OW 4300   0.208   2.946   6.041
 1134SOL    HW1 4301   0.214   2.859   6.090
 1134SOL    HW2 4302   0.294   2.996   6.051
 1135SOL     OW 4303   6.778   1.427   4.416
 1135SOL    HW1 4304   6.680   1.427   4.434
 1135SOL    HW2 4305   6.828   1.442   4.501
 1136SOL     OW 4306   3.646   5.496   4.380
 1136SOL    HW1 4307   3.698   5.412   4.392
 1136SOL    HW2 4308   3.556   5.487   4.424
 1137SOL     OW 4309   1.320   1.000   0.263
 1137SOL    HW1 4310   1.322   1.049   0.176
 1137SOL    HW2 4311   1.227   0.971   0.283
 1138SOL     OW 4312   1.102   3.661   6.025
 1138SOL    HW1 4313   1.079   3.564   6.016
 1138SOL    HW2 4314   1.176   3.672   6.092
 1139SOL     OW 4315   0.653   0.263   2.673
 1139SOL    HW1 4316   0.725   0.196   2.687
 1139SOL    HW2 4317   0.608   0.246   2.585
 1140SOL     OW 4318   3.925   2.194   3.043
 1140SOL    HW1 4319   3.975   2.111   3.066
 1140SOL    HW2 4320   3.945   2.265   3.110
 1141SOL     OW 4321   6.900   6.315   6.360
 1141SOL    HW1 4322   6.813   6.302   6.313
 1141SOL    HW2 4323   6.975   6.315   6.294
 1142SOL     OW 4324   6.956   0.282   4.936
 1142SOL    HW1 4325   6.884   0.214   4.950
 1142SOL    HW2 4326   6.940   0.360   4.997
 1143SOL     OW 4327   5.023   2.407   1.127
 1143SOL    HW1 4328   4.975   2.322   1.149
 1143SOL    HW2 4329   5.121   2.396   1.145
 1144SOL     OW 4330   0.980   6.148   5.170
 1144SOL    HW1 4331   1.080   6.154   5.173
 1144SOL    HW2 4332   0.941   6.230   5.211
 1145SOL     OW 4333   1.982   4.949   4.601
 1145SOL    HW1 4334   2.032   5.016   4.545
 1145SOL    HW2 4335   2.002   4.965   4.698
 1146SOL     OW 4336   5.918   1.512   1.662
 1146SOL    HW1 4337   5.847   1.507   1.733
 1146SOL    HW2 4338   5.874   1.518   1.572
 1147SOL     OW 4339   6.468   3.817   1.763
 1147SOL    HW1 4340   6.418   3.832   1.849
 1147SOL    HW2 4341   6.412   3.847   1.686
 1148SOL     OW 4342   5.513   0.723   6.215
 1148SOL    HW1 4343   5.500   0.818   6.241
 1148SOL    HW2 4344   5.457   0.702   6.135
 1149SOL     OW 4345   5.273   3.017   3.037
 1149SOL    HW1 4346   5.179   3.050   3.041
 1149SOL    HW2 4347   5.277   2.932   2.984
 1150SOL     OW 4348   1.603   5.625   5.631
 1150SOL    HW1 4349   1.608   5.525   5.635
 1150SOL    HW2 4350   1.682   5.664   5.679
 1151SOL     OW 4351   2.464   5.404   0.023
 1151SOL    HW1 4352   2.485   5.487   6.997
 1151SOL    HW2 4353   2.539   5.339   0.013
 1152SOL     OW 4354   0.221   0.943   3.452
 1152SOL    HW1 4355   0.178   0.989   3.374
 1152SOL    HW2 4356   0.287   1.004   3.495
 1153SOL     OW 4357   2.467   4.841   2.616
 1153SOL    HW1 4358   2.425   4.797   2.536
 1153SOL    HW2 4359   2.507   4.771   2.675
 1154SOL     OW 4360   1.313   4.569   2.189
 1154SOL    HW1 4361   1.354   4.659   2.174
 1154SOL    HW2 4362   1.378   4.498   2.164
 1155SOL     OW 4363   4.476   0.550   2.075
 1155SOL    HW1 4364   4.505   0.457   2.097
 1155SOL    HW2 4365   4.552   0.613   2.094
 1156SOL     OW 4366   1.973   0.806   4.364
 1156SOL    HW1 4367   1.963   0.890   4.417
 1156SOL    HW2 4368   1.981   0.829   4.267
 1157SOL     OW 4369   1.535   3.311   3.858
 1157SOL    HW1 4370   1.518   3.400   3.814
 1157SOL    HW2 4371   1.452   3.280   3.904
 1158SOL     OW 4372   4.535   6.186   6.227
 1158SOL    HW1 4373   4.572   6.145   6.310
 1158SOL    HW2 4374   4.493   6.114   6.170
 1159SOL     OW 4375   6.054   4.210   2.560
 1159SOL    HW1 4376   6.140   4.159   2.558
 1159SOL    HW2 4377   6.026   4.225   2.654
 1160SOL     OW 4378   2.626   2.678   1.067
 1160SOL    HW1 4379   2.647   2.771   1.095
 1160SOL    HW2 4380   2.586   2.679   0.975
 1161SOL     OW 4381   4.073   0.724   3.738
 1161SOL    HW1 4382   3.975   0.744   3.746
 1161SOL    HW2 4383   4.124   0.780   3.804
 1162SOL     OW 4384   3.343   4.949   1.513
 1162SOL    HW1 4385   3.316   4.930   1.418
 1162SOL    HW2 4386   3.333   5.047   1.531
 1163SOL     OW 4387   5.013   7.023   2.369
 1163SOL    HW1 4388   4.978   0.038   2.453
 1163SOL    HW2 4389   4.985   6.927   2.366
 1164SOL     OW 4390   6.426   3.970   4.603
 1164SOL    HW1 4391   6.506   3.914   4.623
 1164SOL    HW2 4392   6.426   4.052   4.661
 1165SOL     OW 4393   0.700   4.627   2.200
 1165SOL    HW1 4394   0.742   4.590   2.283
 1165SOL    HW2 4395   0.765   4.620   2.124
 1166SOL     OW 4396   3.334   1.072   6.796
 1166SOL    HW1 4397   3.413   1.122   6.759
 1166SOL    HW2 4398   3.353   1.047   6.891
 1167SOL     OW 4399   4.378   1.602   5.539
 1167SOL    HW1 4400   4.475   1.612   5.560
 1167SOL    HW2 4401   4.340   1.691   5.515
 1168SOL     OW 4402   5.610   0.441   3.378
 1168SOL    HW1 4403   5.655   0.353   3.393
 1168SOL    HW2 4404   5.669   0.515   3.409
 1169SOL     OW 4405   1.324   2.986   1.194
 1169SOL    HW1 4406   1.363   2.898   1.168
 1169SOL    HW2 4407   1.265   3.020   1.121
 1170SOL     OW 4408   2.567   0.817   1.415
 1170SOL    HW1 4409   2.607   0.907   1.433
 1170SOL    HW2 4410   2.516   0.786   1.496
 1171SOL     OW 4411   4.087   0.726   0.264
 1171SOL    HW1 4412   4.025   0.653   0.293
 1171SOL    HW2 4413   4.175   0.715   0.310
 1172SOL     OW 4414   3.145   3.384   5.946
 1172SOL    HW1 4415   3.197   3.469   5.953
 1172SOL    HW2 4416   3.175   3.332   5.866
 1173SOL     OW 4417   5.441   6.649   5.577
 1173SOL    HW1 4418   5.508   6.600   5.632
 1173SOL    HW2 4419   5.367   6.682   5.636
 1174SOL     OW 4420   3.696   5.839   6.915
 1174SOL    HW1 4421   3.723   5.899   6.990
 1174SOL    HW2 4422   3.773   5.782   6.888
 1175SOL     OW 4423   0.042   5.031   4.533
 1175SOL    HW1 4424   0.095   5.084   4.467
 1175SOL    HW2 4425   0.091   5.026   4.620
 1176SOL     OW 4426   5.775   2.773   1.346
 1176SOL    HW1 4427   5.871   2.801   1.339
 1176SOL    HW2 4428   5.765   2.704   1.417
 1177SOL     OW 4429   6.611   3.257   6.416
 1177SOL    HW1 4430   6.612   3.242   6.514
 1177SOL    HW2 4431   6.699   3.230   6.377
 1178SOL     OW 4432   5.084   4.790   2.513
 1178SOL    HW1 4433   5.145   4.803   2.434
 1178SOL    HW2 4434   5.107   4.856   2.584
 1179SOL     OW 4435   1.178   5.482   6.088
 1179SOL    HW1 4436   1.247   5.445   6.150
 1179SOL    HW2 4437   1.129   5.557   6.134
 1180SOL     OW 4438   2.120   0.547   4.160
 1180SOL    HW1 4439   2.064   0.593   4.091
 1180SOL    HW2 4440   2.186   0.613   4.197
 1181SOL     OW 4441   1.608   4.871   2.298
 1181SOL    HW1 4442   1.570   4.827   2.217
 1181SOL    HW2 4443   1.551   4.950   2.323
 1182SOL     OW 4444   1.565   3.823   4.010
 1182SOL    HW1 4445   1.634   3.892   3.987
 1182SOL    HW2 4446   1.577   3.794   4.105
 1183SOL     OW 4447   4.251   5.195   1.036
 1183SOL    HW1 4448   4.237   5.228   1.130
 1183SOL    HW2 4449   4.164   5.161   1.000
 1184SOL     OW 4450   3.266   2.785   6.581
 1184SOL    HW1 4451   3.210   2.727   6.522
 1184SOL    HW2 4452   3.334   2.833   6.526
 1185SOL     OW 4453   3.214   1.369   6.425
 1185SOL    HW1 4454   3.215   1.431   6.503
 1185SOL    HW2 4455   3.145   1.298   6.440
 1186SOL     OW 4456   4.067   0.559   4.858
 1186SOL    HW1 4457   3.997   0.607   4.910
 1186SOL    HW2 4458   4.030   0.472   4.824
 1187SOL     OW 4459   1.345   1.806   4.576
 1187SOL    HW1 4460   1.337   1.708   4.559
 1187SOL    HW2 4461   1.394   1.821   4.662
 1188SOL     OW 4462   1.688   0.857   5.160
 1188SOL    HW1 4463   1.762   0.790   5.151
 1188SOL    HW2 4464   1.601   0.810   5.177
 1189SOL     OW 4465   0.700   0.958   1.381
 1189SOL    HW1 4466   0.787   0.909   1.367
 1189SOL    HW2 4467   0.689   1.027   1.310
 1190SOL     OW 4468   3.869   5.606   1.784
 1190SOL    HW1 4469   3.796   5.631   1.848
 1190SOL    HW2 4470   3.956   5.603   1.834
 1191SOL     OW 4471   2.199   4.540   1.510
 1191SOL    HW1 4472   2.120   4.601   1.499
 1191SOL    HW2 4473   2.226   4.538   1.607
 1192SOL     OW 4474   3.741   5.494   2.380
 1192SOL    HW1 4475   3.771   5.415   2.432
 1192SOL    HW2 4476   3.818   5.557   2.366
 1193SOL     OW 4477   3.045   0.465   3.912
 1193SOL    HW1 4478   3.078   0.379   3.873
 1193SOL    HW2 4479   3.112   0.500   3.977
 1194SOL     OW 4480   6.392   1.686   2.271
 1194SOL    HW1 4481   6.401   1.778   2.233
 1194SOL    HW2 4482   6.321   1.687   2.342
 1195SOL     OW 4483   3.355   0.091   6.953
 1195SOL    HW1 4484   3.372   7.019   6.959
 1195SOL    HW2 4485   3.380   0.134   0.013
 1196SOL     OW 4486   1.586   5.599   3.567
 1196SOL    HW1 4487   1.626   5.518   3.525
 1196SOL    HW2 4488   1.583   5.588   3.667
 1197SOL     OW 4489   3.493   5.073   6.872
 1197SOL    HW1 4490   3.576   5.065   6.927
 1197SOL    HW2 4491   3.518   5.078   6.775
 1198SOL     OW 4492   3.726   0.479   2.777
 1198SOL    HW1 4493   3.696   0.424   2.855
 1198SOL    HW2 4494   3.740   0.574   2.806
 1199SOL     OW 4495   3.627   3.783   3.977
 1199SOL    HW1 4496   3.567   3.773   3.898
 1199SOL    HW2 4497   3.682   3.866   3.967
 1200SOL     OW 4498   4.667   3.506   1.075
 1200SOL    HW1 4499   4.637   3.564   0.999
 1200SOL    HW2 4500   4.704   3.565   1.148
 1201SOL     OW 4501   1.647   2.189   4.952
 1201SOL    HW1 4502   1.629   2.163   4.857
 1201SOL    HW2 4503   1.575   2.250   4.984
 1202SOL     OW 4504   6.452   6.751   4.558
 1202SOL    HW1 4505   6.379   6.764   4.490
 1202SOL    HW2 4506   6.521   6.688   4.521
 1203SOL     OW 4507   6.193   6.946   2.757
 1203SOL    HW1 4508   6.134   7.023   2.734
 1203SOL    HW2 4509   6.206   6.941   2.856
 1204SOL     OW 4510   1.833   0.246   0.307
 1204SOL    HW1 4511   1.877   0.335   0.297
 1204SOL    HW2 4512   1.749   0.256   0.360
 1205SOL     OW 4513   0.728   3.091   5.988
 1205SOL    HW1 4514   0.776   3.079   5.901
 1205SOL    HW2 4515   0.633   3.062   5.977
 1206SOL     OW 4516   6.683   0.995   4.719
 1206SOL    HW1 4517   6.733   1.029   4.799
 1206SOL    HW2 4518   6.647   1.072   4.667
 1207SOL     OW 4519   6.320   6.039   6.291
 1207SOL    HW1 4520   6.289   6.081   6.205
 1207SOL    HW2 4521   6.256   5.967   6.318
 1208SOL     OW 4522   3.641   3.442   2.842
 1208SOL    HW1 4523   3.545   3.459   2.819
 1208SOL    HW2 4524   3.693   3.426   2.758
 1209SOL     OW 4525   0.047   4.219   4.702
 1209SOL    HW1 4526   7.022   4.183   4.779
 1209SOL    HW2 4527   0.028   4.165   4.620
 1210SOL     OW 4528   2.185   0.291   2.691
 1210SOL    HW1 4529   2.155   0.324   2.602
 1210SOL    HW2 4530   2.133   0.337   2.763
 1211SOL     OW 4531   0.442   3.489   3.280
 1211SOL    HW1 4532   0.462   3.391   3.282
 1211SOL    HW2 4533   0.528   3.541   3.279
 1212SOL     OW 4534   1.278   4.527   3.929
 1212SOL    HW1 4535   1.377   4.526   3.944
 1212SOL    HW2 4536   1.234   4.458   3.987
 1213SOL     OW 4537   5.842   3.735   5.471
 1213SOL    HW1 4538   5.755   3.687   5.458
 1213SOL    HW2 4539   5.873   3.724   5.565
 1214SOL     OW 4540   1.287   1.967   1.587
 1214SOL    HW1 4541   1.197   1.923   1.579
 1214SOL    HW2 4542   1.348   1.909   1.640
 1215SOL     OW 4543   0.635   5.535   2.229
 1215SOL    HW1 4544   0.567   5.545   2.156
 1215SOL    HW2 4545   0.725   5.516   2.189
 1216SOL     OW 4546   2.227   0.212   1.283
 1216SOL    HW1 4547   2.185   0.130   1.322
 1216SOL    HW2 4548   2.323   0.194   1.262
 1217SOL     OW 4549   2.048   2.477   3.021
 1217SOL    HW1 4550   1.994   2.414   2.966
 1217SOL    HW2 4551   2.142   2.444   3.027
 1218SOL     OW 4552   0.927   3.777   3.358
 1218SOL    HW1 4553   0.928   3.854   3.421
 1218SOL    HW2 4554   0.861   3.794   3.285
 1219SOL     OW 4555   2.573   5.837   2.980
 1219SOL    HW1 4556   2.585   5.749   3.026
 1219SOL    HW2 4557   2.650   5.897   3.004
 1220SOL     OW 4558   6.402   5.140   2.634
 1220SOL    HW1 4559   6.346   5.200   2.576
 1220SOL    HW2 4560   6.426   5.058   2.583
 1221SOL     OW 4561   4.568   4.673   5.664
 1221SOL    HW1 4562   4.493   4.739   5.680
 1221SOL    HW2 4563   4.549   4.589   5.714
 1222SOL     OW 4564   6.976   4.270   1.771
 1222SOL    HW1 4565   6.887   4.298   1.736
 1222SOL    HW2 4566   7.018   4.204   1.709
 1223SOL     OW 4567   0.045   4.688   4.841
 1223SOL    HW1 4568   6.991   4.694   4.783
 1223SOL    HW2 4569   0.096   4.604   4.819
 1224SOL     OW 4570   4.456   4.092   1.267
 1224SOL    HW1 4571   4.476   4.100   1.364
 1224SOL    HW2 4572   4.436   4.182   1.229
 1225SOL     OW 4573   4.667   2.216   6.647
 1225SOL    HW1 4574   4.645   2.266   6.730
 1225SOL    HW2 4575   4.749   2.256   6.604
 1226SOL     OW 4576   6.041   5.728   0.836
 1226SOL    HW1 4577   6.048   5.643   0.887
 1226SOL    HW2 4578   6.132   5.756   0.805
 1227SOL     OW 4579   4.813   4.100   6.859
 1227SOL    HW1 4580   4.793   4.162   6.935
 1227SOL    HW2 4581   4.887   4.139   6.803
 1228SOL     OW 4582   4.002   3.921   4.224
 1228SOL    HW1 4583   4.009   3.891   4.319
 1228SOL    HW2 4584   4.036   4.015   4.216
 1229SOL     OW 4585   2.297   5.342   2.302
 1229SOL    HW1 4586   2.375   5.307   2.249
 1229SOL    HW2 4587   2.318   5.335   2.400
 1230SOL     OW 4588   4.687   4.086   0.305
 1230SOL    HW1 4589   4.617   4.067   0.237
 1230SOL    HW2 4590   4.672   4.029   0.386
 1231SOL     OW 4591   2.296   1.255   0.399
 1231SOL    HW1 4592   2.234   1.319   0.352
 1231SOL    HW2 4593   2.284   1.265   0.498
 1232SOL     OW 4594   2.652   2.273   5.967
 1232SOL    HW1 4595   2.651   2.373   5.966
 1232SOL    HW2 4596   2.663   2.239   5.873
 1233SOL     OW 4597   0.421   5.280   4.541
 1233SOL    HW1 4598   0.356   5.213   4.575
 1233SOL    HW2 4599   0.437   5.266   4.443
 1234SOL     OW 4600   6.412   4.488   6.166
 1234SOL    HW1 4601   6.492   4.536   6.132
 1234SOL    HW2 4602   6.439   4.428   6.241
 1235SOL     OW 4603   6.007   5.167   0.869
 1235SOL    HW1 4604   6.080   5.180   0.802
 1235SOL    HW2 4605   5.927   5.220   0.841
 1236SOL     OW 4606   0.609   1.227   2.996
 1236SOL    HW1 4607   0.687   1.232   3.058
 1236SOL    HW2 4608   0.628   1.282   2.914
 1237SOL     OW 4609   0.843   0.374   4.223
 1237SOL    HW1 4610   0.797   0.356   4.136
 1237SOL    HW2 4611   0.807   0.312   4.292
 1238SOL     OW 4612   0.341   0.954   4.138
 1238SOL    HW1 4613   0.391   0.878   4.095
 1238SOL    HW2 4614   0.276   0.918   4.204
 1239SOL     OW 4615   5.016   4.447   3.345
 1239SOL    HW1 4616   5.103   4.480   3.381
 1239SOL    HW2 4617   4.943   4.470   3.409
 1240SOL     OW 4618   0.566   3.911   1.150
 1240SOL    HW1 4619   0.623   3.936   1.229
 1240SOL    HW2 4620   0.470   3.912   1.177
 1241SOL     OW 4621   3.159   5.337   5.685
 1241SOL    HW1 4622   3.243   5.314   5.735
 1241SOL    HW2 4623   3.172   5.422   5.634
 1242SOL     OW 4624   2.219   5.487   0.729
 1242SOL    HW1 4625   2.288   5.555   0.705
 1242SOL    HW2 4626   2.137   5.502   0.673
 1243SOL     OW 4627   6.971   3.716   3.622
 1243SOL    HW1 4628   6.960   3.815   3.632
 1243SOL    HW2 4629   0.031   3.688   3.663
 1244SOL     OW 4630   6.990   6.678   4.877
 1244SOL    HW1 4631   6.916   6.623   4.915
 1244SOL    HW2 4632   6.970   6.701   4.782
 1245SOL     OW 4633   4.898   6.836   1.085
 1245SOL    HW1 4634   4.869   6.818   1.179
 1245SOL    HW2 4635   4.835   6.901   1.042
 1246SOL     OW 4636   5.590   2.527   1.859
 1246SOL    HW1 4637   5.667   2.492   1.807
 1246SOL    HW2 4638   5.510   2.534   1.800
 1247SOL     OW 4639   5.050   6.568   2.154
 1247SOL    HW1 4640   5.130   6.604   2.106
 1247SOL    HW2 4641   4.967   6.601   2.109
 1248SOL     OW 4642   0.756   6.903   4.947
 1248SOL    HW1 4643   0.745   6.805   4.963
 1248SOL    HW2 4644   0.671   6.951   4.970
 1249SOL     OW 4645   6.348   6.463   6.710
 1249SOL    HW1 4646   6.391   6.521   6.779
 1249SOL    HW2 4647   6.322   6.376   6.751
 1250SOL     OW 4648   0.374   4.466   5.130
 1250SOL    HW1 4649   0.323   4.381   5.116
 1250SOL    HW2 4650   0.332   4.520   5.202
 1251SOL     OW 4651   2.676   0.373   2.853
 1251SOL    HW1 4652   2.722   0.285   2.856
 1251SOL    HW2 4653   2.578   0.359   2.840
 1252SOL     OW 4654   2.310   5.187   6.427
 1252SOL    HW1 4655   2.229   5.159   6.376
 1252SOL    HW2 4656   2.283   5.247   6.503
 1253SOL     OW 4657   2.931   5.727   0.126
 1253SOL    HW1 4658   2.921   5.826   0.118
 1253SOL    HW2 4659   2.994   5.694   0.055
 1254SOL     OW 4660   6.424   1.280   3.953
 1254SOL    HW1 4661   6.442   1.378   3.955
 1254SOL    HW2 4662   6.375   1.253   4.036
 1255SOL     OW 4663   6.200   2.230   6.141
 1255SOL    HW1 4664   6.240   2.141   6.163
 1255SOL    HW2 4665   6.216   2.250   6.044
 1256SOL     OW 4666   6.957   5.446   5.621
 1256SOL    HW1 4667   6.981   5.372   5.557
 1256SOL    HW2 4668   6.895   5.510   5.575
 1257SOL     OW 4669   0.151   6.557   3.403
 1257SOL    HW1 4670   0.102   6.567   3.317
 1257SOL    HW2 4671   0.155   6.645   3.450
 1258SOL     OW 4672   4.520   5.154   6.875
 1258SOL    HW1 4673   4.570   5.077   6.835
 1258SOL    HW2 4674   4.520   5.230   6.811
 1259SOL     OW 4675   5.525   6.823   4.987
 1259SOL    HW1 4676   5.562   6.789   5.074
 1259SOL    HW2 4677   5.559   6.766   4.912
 1260SOL     OW 4678   3.289   1.127   0.321
 1260SOL    HW1 4679   3.268   1.064   0.395
 1260SOL    HW2 4680   3.289   1.221   0.356
 1261SOL     OW 4681   0.191   4.485   4.762
 1261SOL    HW1 4682   0.148   4.395   4.749
 1261SOL    HW2 4683   0.271   4.493   4.703
 1262SOL     OW 4684   4.015   5.877   1.503
 1262SOL    HW1 4685   3.931   5.825   1.521
 1262SOL    HW2 4686   4.053   5.849   1.415
 1263SOL     OW 4687   7.014   1.511   1.386
 1263SOL    HW1 4688   6.953   1.581   1.423
 1263SOL    HW2 4689   0.001   1.439   1.454
 1264SOL     OW 4690   6.280   2.398   4.741
 1264SOL    HW1 4691   6.276   2.495   4.718
 1264SOL    HW2 4692   6.201   2.374   4.798
 1265SOL     OW 4693   5.963   5.756   5.035
 1265SOL    HW1 4694   5.877   5.744   5.084
 1265SOL    HW2 4695   5.950   5.822   4.961
 1266SOL     OW 4696   2.897   0.870   3.594
 1266SOL    HW1 4697   2.879   0.879   3.496
 1266SOL    HW2 4698   2.880   0.776   3.623
 1267SOL     OW 4699   0.503   4.403   2.151
 1267SOL    HW1 4700   0.483   4.407   2.053
 1267SOL    HW2 4701   0.573   4.471   2.173
 1268SOL     OW 4702   6.053   4.579   6.782
 1268SOL    HW1 4703   6.031   4.483   6.800
 1268SOL    HW2 4704   6.152   4.588   6.769
 1269SOL     OW 4705   6.746   4.750   6.354
 1269SOL    HW1 4706   6.747   4.678   6.423
 1269SOL    HW2 4707   6.837   4.790   6.347
 1270SOL     OW 4708   1.342   1.810   4.029
 1270SOL    HW1 4709   1.396   1.850   4.103
 1270SOL    HW2 4710   1.378   1.839   3.941
 1271SOL     OW 4711   5.578   2.882   3.008
 1271SOL    HW1 4712   5.495   2.935   2.989
 1271SOL    HW2 4713   5.610   2.840   2.923
 1272SOL     OW 4714   6.146   6.661   0.041
 1272SOL    HW1 4715   6.134   6.648   6.969
 1272SOL    HW2 4716   6.095   6.742   0.070
 1273SOL     OW 4717   2.686   0.123   4.817
 1273SOL    HW1 4718   2.709   0.025   4.815
 1273SOL    HW2 4719   2.624   0.143   4.742
 1274SOL     OW 4720   5.515   2.478   2.128
 1274SOL    HW1 4721   5.511   2.522   2.038
 1274SOL    HW2 4722   5.539   2.382   2.117
 1275SOL     OW 4723   4.104   1.486   3.778
 1275SOL    HW1 4724   4.023   1.523   3.823
 1275SOL    HW2 4725   4.108   1.517   3.683
 1276SOL     OW 4726   5.751   6.839   2.801
 1276SOL    HW1 4727   5.838   6.805   2.835
 1276SOL    HW2 4728   5.676   6.796   2.851
 1277SOL     OW 4729   1.305   1.496   4.563
 1277SOL    HW1 4730   1.229   1.546   4.522
 1277SOL    HW2 4731   1.272   1.443   4.640
 1278SOL     OW 4732   3.416   1.759   4.941
 1278SOL    HW1 4733   3.456   1.669   4.962
 1278SOL    HW2 4734   3.325   1.747   4.902
 1279SOL     OW 4735   2.188   5.035   0.526
 1279SOL    HW1 4736   2.143   4.952   0.493
 1279SOL    HW2 4737   2.239   5.077   0.450
 1280SOL     OW 4738   1.542   6.002   2.847
 1280SOL    HW1 4739   1.512   5.970   2.937
 1280SOL    HW2 4740   1.542   5.926   2.782
 1281SOL     OW 4741   0.724   6.636   3.997
 1281SOL    HW1 4742   0.665   6.595   3.927
 1281SOL    HW2 4743   0.799   6.573   4.018
 1282SOL     OW 4744   1.672   6.163   2.633
 1282SOL    HW1 4745   1.613   6.090   2.668
 1282SOL    HW2 4746   1.739   6.189   2.702
 1283SOL     OW 4747   4.978   4.184   5.465
 1283SOL    HW1 4748   4.931   4.169   5.552
 1283SOL    HW2 4749   5.074   4.158   5.474
 1284SOL     OW 4750   3.097   1.557   2.959
 1284SOL    HW1 4751   3.090   1.523   2.865
 1284SOL    HW2 4752   3.006   1.563   2.999
 1285SOL     OW 4753   5.780   2.968   6.058
 1285SOL    HW1 4754   5.837   3.001   6.133
 1285SOL    HW2 4755   5.814   2.880   6.025
 1286SOL     OW 4756   5.595   5.696   1.034
 1286SOL    HW1 4757   5.633   5.627   0.973
 1286SOL    HW2 4758   5.663   5.722   1.102
 1287SOL     OW 4759   6.392   3.744   5.744
 1287SOL    HW1 4760   6.310   3.792   5.714
 1287SOL    HW2 4761   6.450   3.806   5.797
 1288SOL     OW 4762   6.658   3.726   3.616
 1288SOL    HW1 4763   6.754   3.753   3.619
 1288SOL    HW2 4764   6.650   3.629   3.640
 1289SOL     OW 4765   0.307   5.094   2.876
 1289SOL    HW1 4766   0.347   5.008   2.907
 1289SOL    HW2 4767   0.286   5.151   2.956
 1290SOL     OW 4768   0.299   0.095   1.858
 1290SOL    HW1 4769   0.208   0.100   1.817
 1290SOL    HW2 4770   0.367   0.130   1.793
 1291SOL     OW 4771   1.661   6.387   1.221
 1291SOL    HW1 4772   1.648   6.356   1.127
 1291SOL    HW2 4773   1.633   6.316   1.285
 1292SOL     OW 4774   1.549   5.773   6.872
 1292SOL    HW1 4775   1.474   5.727   6.919
 1292SOL    HW2 4776   1.628   5.780   6.933
 1293SOL     OW 4777   6.232   2.067   6.502
 1293SOL    HW1 4778   6.330   2.048   6.497
 1293SOL    HW2 4779   6.216   2.164   6.483
 1294SOL     OW 4780   0.451   1.693   3.641
 1294SOL    HW1 4781   0.359   1.661   3.622
 1294SOL    HW2 4782   0.516   1.646   3.581
 1295SOL     OW 4783   5.027   3.582   1.234
 1295SOL    HW1 4784   4.953   3.631   1.280
 1295SOL    HW2 4785   5.014   3.587   1.135
 1296SOL     OW 4786   3.632   1.675   0.022
 1296SOL    HW1 4787   3.727   1.667   0.050
 1296SOL    HW2 4788   3.583   1.590   0.043
 1297SOL     OW 4789   7.016   0.620   5.724
 1297SOL    HW1 4790   6.977   0.554   5.660
 1297SOL    HW2 4791   0.049   0.683   5.674
 1298SOL     OW 4792   6.561   3.066   3.443
 1298SOL    HW1 4793   6.639   3.005   3.438
 1298SOL    HW2 4794   6.507   3.058   3.359
 1299SOL     OW 4795   1.712   3.044   4.602
 1299SOL    HW1 4796   1.793   3.023   4.547
 1299SOL    HW2 4797   1.711   2.986   4.683
 1300SOL     OW 4798   3.975   3.206   2.913
 1300SOL    HW1 4799   4.014   3.289   2.953
 1300SOL    HW2 4800   3.971   3.216   2.813
 1301SOL     OW 4801   1.352   1.692   2.325
 1301SOL    HW1 4802   1.284   1.686   2.398
 1301SOL    HW2 4803   1.328   1.630   2.251
 1302SOL     OW 4804   2.432   6.145   5.691
 1302SOL    HW1 4805   2.361   6.182   5.632
 1302SOL    HW2 4806   2.390   6.107   5.774
 1303SOL     OW 4807   3.364   0.462   1.177
 1303SOL    HW1 4808   3.356   0.559   1.200
 1303SOL    HW2 4809   3.295   0.411   1.228
 1304SOL     OW 4810   3.684   1.031   5.814
 1304SOL    HW1 4811   3.706   0.994   5.724
 1304SOL    HW2 4812   3.625   0.968   5.863
 1305SOL     OW 4813   5.857   6.666   3.999
 1305SOL    HW1 4814   5.880   6.572   4.026
 1305SOL    HW2 4815   5.772   6.665   3.945
 1306SOL     OW 4816   1.597   5.445   4.553
 1306SOL    HW1 4817   1.537   5.521   4.576
 1306SOL    HW2 4818   1.666   5.435   4.624
 1307SOL     OW 4819   0.990   0.839   4.178
 1307SOL    HW1 4820   1.085   0.859   4.202
 1307SOL    HW2 4821   0.930   0.907   4.220
 1308SOL     OW 4822   4.566   5.946   3.142
 1308SOL    HW1 4823   4.607   5.903   3.222
 1308SOL    HW2 4824   4.526   6.034   3.169
 1309SOL     OW 4825   5.134   3.154   4.332
 1309SOL    HW1 4826   5.230   3.180   4.319
 1309SOL    HW2 4827   5.103   3.186   4.421
 1310SOL     OW 4828   5.280   3.366   5.747
 1310SOL    HW1 4829   5.317   3.459   5.752
 1310SOL    HW2 4830   5.232   3.344   5.831
 1311SOL     OW 4831   4.700   5.075   5.810
 1311SOL    HW1 4832   4.772   5.134   5.847
 1311SOL    HW2 4833   4.742   5.008   5.748
 1312SOL     OW 4834   6.717   0.618   1.721
 1312SOL    HW1 4835   6.621   0.590   1.713
 1312SOL    HW2 4836   6.721   0.711   1.758
 1313SOL     OW 4837   3.340   5.122   4.797
 1313SOL    HW1 4838   3.301   5.043   4.844
 1313SOL    HW2 4839   3.267   5.185   4.771
 1314SOL     OW 4840   6.701   1.258   5.815
 1314SOL    HW1 4841   6.684   1.332   5.749
 1314SOL    HW2 4842   6.668   1.286   5.905
 1315SOL     OW 4843   1.899   6.931   3.536
 1315SOL    HW1 4844   1.867   7.007   3.479
 1315SOL    HW2 4845   1.985   6.896   3.500
 1316SOL     OW 4846   3.142   6.386   3.278
 1316SOL    HW1 4847   3.053   6.400   3.322
 1316SOL    HW2 4848   3.130   6.385   3.179
 1317SOL     OW 4849   0.360   3.360   4.304
 1317SOL    HW1 4850   0.383   3.456   4.318
 1317SOL    HW2 4851   0.442   3.309   4.277
 1318SOL     OW 4852   1.012   6.471   1.538
 1318SOL    HW1 4853   0.962   6.437   1.458
 1318SOL    HW2 4854   1.085   6.407   1.562
 1319SOL     OW 4855   6.440   0.108   0.544
 1319SOL    HW1 4856   6.472   0.056   0.464
 1319SOL    HW2 4857   6.424   0.203   0.517
 1320SOL     OW 4858   5.206   5.754   4.628
 1320SOL    HW1 4859   5.161   5.796   4.549
 1320SOL    HW2 4860   5.148   5.763   4.709
 1321SOL     OW 4861   3.862   0.911   0.365
 1321SOL    HW1 4862   3.958   0.900   0.341
 1321SOL    HW2 4863   3.813   0.954   0.290
 1322SOL     OW 4864   5.277   1.274   6.257
 1322SOL    HW1 4865   5.179   1.266   6.272
 1322SOL    HW2 4866   5.300   1.370   6.240
 1323SOL     OW 4867   6.663   0.504   3.825
 1323SOL    HW1 4868   6.637   0.596   3.795
 1323SOL    HW2 4869   6.614   0.436   3.771
 1324SOL     OW 4870   1.160   2.378   0.370
 1324SOL    HW1 4871   1.077   2.426   0.343
 1324SOL    HW2 4872   1.138   2.312   0.442
 1325SOL     OW 4873   4.387   5.707   4.208
 1325SOL    HW1 4874   4.322   5.758   4.266
 1325SOL    HW2 4875   4.359   5.714   4.112
 1326SOL     OW 4876   5.571   4.043   4.898
 1326SOL    HW1 4877   5.581   3.969   4.831
 1326SOL    HW2 4878   5.475   4.070   4.902
 1327SOL     OW 4879   2.887   6.157   4.133
 1327SOL    HW1 4880   2.894   6.211   4.217
 1327SOL    HW2 4881   2.826   6.203   4.069
 1328SOL     OW 4882   2.261   1.076   1.294
 1328SOL    HW1 4883   2.297   1.116   1.379
 1328SOL    HW2 4884   2.324   1.007   1.261
 1329SOL     OW 4885   1.343   6.431   1.632
 1329SOL    HW1 4886   1.357   6.446   1.730
 1329SOL    HW2 4887   1.343   6.519   1.584
 1330SOL     OW 4888   4.841   6.554   1.076
 1330SOL    HW1 4889   4.802   6.524   0.989
 1330SOL    HW2 4890   4.869   6.650   1.069
 1331SOL     OW 4891   1.046   2.118   1.937
 1331SOL    HW1 4892   1.003   2.186   1.996
 1331SOL    HW2 4893   0.994   2.111   1.851
 1332SOL     OW 4894   4.632   2.188   1.200
 1332SOL    HW1 4895   4.642   2.144   1.111
 1332SOL    HW2 4896   4.547   2.240   1.202
 1333SOL     OW 4897   4.185   3.516   4.943
 1333SOL    HW1 4898   4.171   3.449   4.870
 1333SOL    HW2 4899   4.261   3.576   4.918
 1334SOL     OW 4900   0.931   3.336   4.025
 1334SOL    HW1 4901   0.842   3.293   4.032
 1334SOL    HW2 4902   0.996   3.290   4.087
 1335SOL     OW 4903   1.810   5.552   3.344
 1335SOL    HW1 4904   1.764   5.639   3.329
 1335SOL    HW2 4905   1.818   5.503   3.257
 1336SOL     OW 4906   0.063   6.876   5.510
 1336SOL    HW1 4907   0.011   6.793   5.530
 1336SOL    HW2 4908   0.089   6.876   5.413
 1337SOL     OW 4909   4.251   6.900   0.304
 1337SOL    HW1 4910   4.277   6.971   0.369
 1337SOL    HW2 4911   4.167   6.927   0.256
 1338SOL     OW 4912   3.155   5.180   1.169
 1338SOL    HW1 4913   3.094   5.221   1.101
 1338SOL    HW2 4914   3.117   5.194   1.260
 1339SOL     OW 4915   0.246   4.063   6.991
 1339SOL    HW1 4916   0.275   4.142   0.019
 1339SOL    HW2 4917   0.320   4.039   6.928
 1340SOL     OW 4918   2.870   1.413   6.159
 1340SOL    HW1 4919   2.958   1.379   6.193
 1340SOL    HW2 4920   2.876   1.511   6.142
 1341SOL     OW 4921   5.653   2.536   4.333
 1341SOL    HW1 4922   5.599   2.457   4.303
 1341SOL    HW2 4923   5.593   2.616   4.342
 1342SOL     OW 4924   0.473   6.922   1.594
 1342SOL    HW1 4925   0.529   6.901   1.674
 1342SOL    HW2 4926   0.386   6.874   1.601
 1343SOL     OW 4927   2.603   6.064   3.978
 1343SOL    HW1 4928   2.645   6.154   3.982
 1343SOL    HW2 4929   2.609   6.019   4.067
 1344SOL     OW 4930   5.674   1.785   2.637
 1344SOL    HW1 4931   5.642   1.765   2.545
 1344SOL    HW2 4932   5.679   1.884   2.650
 1345SOL     OW 4933   0.269   5.844   2.655
 1345SOL    HW1 4934   0.297   5.923   2.600
 1345SOL    HW2 4935   0.225   5.875   2.739
 1346SOL     OW 4936   0.010   1.459   3.044
 1346SOL    HW1 4937   0.004   1.549   3.002
 1346SOL    HW2 4938   0.080   1.404   2.997
 1347SOL     OW 4939   4.573   0.881   3.596
 1347SOL    HW1 4940   4.487   0.922   3.626
 1347SOL    HW2 4941   4.604   0.924   3.512
 1348SOL     OW 4942   4.838   5.647   4.482
 1348SOL    HW1 4943   4.835   5.700   4.567
 1348SOL    HW2 4944   4.772   5.684   4.417
 1349SOL     OW 4945   4.752   2.019   0.287
 1349SOL    HW1 4946   4.751   2.112   0.251
 1349SOL    HW2 4947   4.757   2.022   0.387
 1350SOL     OW 4948   2.894   0.847   4.840
 1350SOL    HW1 4949   2.795   0.837   4.850
 1350SOL    HW2 4950   2.933   0.887   4.923
 1351SOL     OW 4951   2.018   1.675   3.396
 1351SOL    HW1 4952   2.113   1.681   3.428
 1351SOL    HW2 4953   1.964   1.748   3.437
 1352SOL     OW 4954   1.201   6.444   4.525
 1352SOL    HW1 4955   1.272   6.412   4.463
 1352SOL    HW2 4956   1.220   6.538   4.551
 1353SOL     OW 4957   2.198   3.155   5.510
 1353SOL    HW1 4958   2.188   3.241   5.461
 1353SOL    HW2 4959   2.136   3.153   5.588
 1354SOL     OW 4960   0.700   6.995   0.086
 1354SOL    HW1 4961   0.748   0.007   0.165
 1354SOL    HW2 4962   0.650   6.913   0.115
 1355SOL     OW 4963   4.107   3.342   6.932
 1355SOL    HW1 4964   4.171   3.335   6.855
 1355SOL    HW2 4965   4.016   3.364   6.897
 1356SOL     OW 4966   3.285   2.498   1.728
 1356SOL    HW1 4967   3.241   2.586   1.746
 1356SOL    HW2 4968   3.240   2.453   1.651
 1357SOL     OW 4969   3.567   2.591   5.747
 1357SOL    HW1 4970   3.566   2.586   5.647
 1357SOL    HW2 4971   3.560   2.686   5.776
 1358SOL     OW 4972   1.668   3.546   5.703
 1358SOL    HW1 4973   1.708   3.637   5.717
 1358SOL    HW2 4974   1.682   3.518   5.608
 1359SOL     OW 4975   6.986   1.790   6.403
 1359SOL    HW1 4976   0.009   1.708   6.372
 1359SOL    HW2 4977   0.012   1.872   6.380
 1360SOL     OW 4978   3.471   3.570   4.206
 1360SOL    HW1 4979   3.568   3.592   4.213
 1360SOL    HW2 4980   3.450   3.535   4.115
 1361SOL     OW 4981   0.975   6.565   1.138
 1361SOL    HW1 4982   0.930   6.489   1.186
 1361SOL    HW2 4983   1.065   6.535   1.107
 1362SOL     OW 4984   3.191   2.011   0.007
 1362SOL    HW1 4985   3.194   1.955   6.951
 1362SOL    HW2 4986   3.163   1.955   0.085
 1363SOL     OW 4987   0.014   6.635   0.752
 1363SOL    HW1 4988   6.995   6.609   0.667
 1363SOL    HW2 4989   0.012   6.734   0.762
 1364SOL     OW 4990   1.229   3.576   0.771
 1364SOL    HW1 4991   1.327   3.558   0.781
 1364SOL    HW2 4992   1.179   3.529   0.844
 1365SOL     OW 4993   1.024   3.427   6.227
 1365SOL    HW1 4994   1.087   3.505   6.228
 1365SOL    HW2 4995   0.981   3.419   6.317
 1366SOL     OW 4996   3.805   0.249   1.246
 1366SOL    HW1 4997   3.758   0.334   1.271
 1366SOL    HW2 4998   3.851   0.211   1.326
 1367SOL     OW 4999   1.051   6.915   4.780
 1367SOL    HW1 5000   1.075   7.005   4.743
 1367SOL    HW2 5001   0.963   6.922   4.828
 1368SOL     OW 5002   1.667   6.444   4.474
 1368SOL    HW1 5003   1.662   6.345   4.481
 1368SOL    HW2 5004   1.736   6.469   4.405
 1369SOL     OW 5005   1.941   5.596   4.001
 1369SOL    HW1 5006   1.933   5.691   4.032
 1369SOL    HW2 5007   1.860   5.571   3.948
 1370SOL     OW 5008   6.666   2.325   3.203
 1370SOL    HW1 5009   6.657   2.410   3.152
 1370SOL    HW2 5010   6.762   2.305   3.219
 1371SOL     OW 5011   6.052   2.090   5.829
 1371SOL    HW1 5012   6.043   1.996   5.860
 1371SOL    HW2 5013   5.962   2.124   5.799
 1372SOL     OW 5014   5.686   2.661   1.592
 1372SOL    HW1 5015   5.590   2.634   1.603
 1372SOL    HW2 5016   5.744   2.601   1.647
 1373SOL     OW 5017   5.846   3.024   1.869
 1373SOL    HW1 5018   5.923   2.975   1.828
 1373SOL    HW2 5019   5.769   2.961   1.879
 1374SOL     OW 5020   4.064   3.244   2.400
 1374SOL    HW1 5021   3.995   3.184   2.361
 1374SOL    HW2 5022   4.128   3.272   2.329
 1375SOL     OW 5023   5.278   4.925   4.417
 1375SOL    HW1 5024   5.375   4.905   4.407
 1375SOL    HW2 5025   5.257   4.943   4.513
 1376SOL     OW 5026   2.978   4.146   5.518
 1376SOL    HW1 5027   3.003   4.178   5.426
 1376SOL    HW2 5028   2.927   4.217   5.566
 1377SOL     OW 5029   1.153   1.663   3.210
 1377SOL    HW1 5030   1.126   1.611   3.291
 1377SOL    HW2 5031   1.166   1.759   3.236
 1378SOL     OW 5032   4.860   2.179   4.405
 1378SOL    HW1 5033   4.876   2.249   4.336
 1378SOL    HW2 5034   4.944   2.126   4.418
 1379SOL     OW 5035   4.401   5.496   0.149
 1379SOL    HW1 5036   4.380   5.416   0.093
 1379SOL    HW2 5037   4.320   5.521   0.202
 1380SOL     OW 5038   0.509   5.977   3.872
 1380SOL    HW1 5039   0.529   6.050   3.938
 1380SOL    HW2 5040   0.576   5.980   3.797
 1381SOL     OW 5041   6.399   2.866   5.868
 1381SOL    HW1 5042   6.342   2.883   5.949
 1381SOL    HW2 5043   6.343   2.873   5.786
 1382SOL     OW 5044   4.012   2.218   6.347
 1382SOL    HW1 5045   4.079   2.144   6.344
 1382SOL    HW2 5046   4.060   2.306   6.348
 1383SOL     OW 5047   6.421   0.747   1.250
 1383SOL    HW1 5048   6.427   0.662   1.197
 1383SOL    HW2 5049   6.505   0.801   1.236
 1384SOL     OW 5050   6.165   1.960   2.056
 1384SOL    HW1 5051   6.251   1.966   2.107
 1384SOL    HW2 5052   6.096   2.016   2.102
 1385SOL     OW 5053   7.025   6.155   1.895
 1385SOL    HW1 5054   0.008   6.104   1.980
 1385SOL    HW2 5055   0.015   6.094   1.817
 1386SOL     OW 5056   2.011   6.423   3.945
 1386SOL    HW1 5057   2.045   6.484   4.017
 1386SOL    HW2 5058   2.072   6.428   3.866
 1387SOL     OW 5059   1.720   5.855   1.512
 1387SOL    HW1 5060   1.665   5.780   1.476
 1387SOL    HW2 5061   1.817   5.831   1.507
 1388SOL     OW 5062   6.535   0.228   1.797
 1388SOL    HW1 5063   6.457   0.187   1.750
 1388SOL    HW2 5064   6.510   0.319   1.831
 1389SOL     OW 5065   6.139   1.135   2.139
 1389SOL    HW1 5066   6.175   1.097   2.053
 1389SOL    HW2 5067   6.215   1.162   2.198
 1390SOL     OW 5068   1.663   1.809   4.448
 1390SOL    HW1 5069   1.645   1.906   4.429
 1390SOL    HW2 5070   1.576   1.760   4.456
 1391SOL     OW 5071   0.523   2.708   3.763
 1391SOL    HW1 5072   0.604   2.666   3.804
 1391SOL    HW2 5073   0.461   2.637   3.729
 1392SOL     OW 5074   5.234   4.328   3.985
 1392SOL    HW1 5075   5.332   4.341   4.000
 1392SOL    HW2 5076   5.193   4.288   4.067
 1393SOL     OW 5077   3.896   4.897   6.460
 1393SOL    HW1 5078   3.805   4.932   6.480
 1393SOL    HW2 5079   3.944   4.961   6.399
 1394SOL     OW 5080   1.145   6.226   6.860
 1394SOL    HW1 5081   1.047   6.246   6.870
 1394SOL    HW2 5082   1.162   6.130   6.885
 1395SOL     OW 5083   3.718   4.621   5.928
 1395SOL    HW1 5084   3.636   4.565   5.915
 1395SOL    HW2 5085   3.747   4.659   5.840
 1396SOL     OW 5086   5.660   6.207   3.509
 1396SOL    HW1 5087   5.636   6.255   3.424
 1396SOL    HW2 5088   5.614   6.117   3.510
 1397SOL     OW 5089   4.959   6.359   5.315
 1397SOL    HW1 5090   4.872   6.402   5.337
 1397SOL    HW2 5091   5.013   6.349   5.399
 1398SOL     OW 5092   1.884   0.526   4.497
 1398SOL    HW1 5093   1.970   0.510   4.545
 1398SOL    HW2 5094   1.838   0.606   4.536
 1399SOL     OW 5095   2.993   5.845   2.208
 1399SOL    HW1 5096   2.988   5.768   2.144
 1399SOL    HW2 5097   2.910   5.900   2.200
 1400SOL     OW 5098   1.256   0.461   2.961
 1400SOL    HW1 5099   1.314   0.497   3.035
 1400SOL    HW2 5100   1.313   0.441   2.881
 1401SOL     OW 5101   6.719   1.708   4.338
 1401SOL    HW1 5102   6.733   1.642   4.412
 1401SOL    HW2 5103   6.632   1.755   4.352
 1402SOL     OW 5104   6.376   3.040   6.960
 1402SOL    HW1 5105   6.283   3.005   6.958
 1402SOL    HW2 5106   6.374   3.140   6.954
 1403SOL     OW 5107   3.706   0.765   2.026
 1403SOL    HW1 5108   3.662   0.706   1.959
 1403SOL    HW2 5109   3.644   0.840   2.050
 1404SOL     OW 5110   5.088   2.074   0.520
 1404SOL    HW1 5111   5.057   2.170   0.520
 1404SOL    HW2 5112   5.032   2.021   0.583
 1405SOL     OW 5113   3.223   2.731   1.466
 1405SOL    HW1 5114   3.210   2.632   1.459
 1405SOL    HW2 5115   3.144   2.772   1.510
 1406SOL     OW 5116   1.391   3.887   1.847
 1406SOL    HW1 5117   1.428   3.980   1.849
 1406SOL    HW2 5118   1.349   3.865   1.935
 1407SOL     OW 5119   6.709   2.304   2.450
 1407SOL    HW1 5120   6.657   2.220   2.467
 1407SOL    HW2 5121   6.803   2.292   2.481
 1408SOL     OW 5122   6.021   6.012   6.278
 1408SOL    HW1 5123   5.942   6.020   6.217
 1408SOL    HW2 5124   6.067   5.924   6.263
 1409SOL     OW 5125   0.460   1.625   3.968
 1409SOL    HW1 5126   0.513   1.666   3.894
 1409SOL    HW2 5127   0.413   1.543   3.935
 1410SOL     OW 5128   6.127   2.160   6.972
 1410SOL    HW1 5129   6.128   2.091   6.900
 1410SOL    HW2 5130   6.044   2.151   7.026
 1411SOL     OW 5131   1.784   0.753   2.109
 1411SOL    HW1 5132   1.722   0.698   2.053
 1411SOL    HW2 5133   1.856   0.694   2.145
 1412SOL     OW 5134   1.007   2.536   6.739
 1412SOL    HW1 5135   1.097   2.541   6.695
 1412SOL    HW2 5136   0.995   2.446   6.780
 1413SOL     OW 5137   2.336   6.741   3.000
 1413SOL    HW1 5138   2.428   6.776   3.011
 1413SOL    HW2 5139   2.340   6.646   2.968
 1414SOL     OW 5140   2.746   0.974   1.873
 1414SOL    HW1 5141   2.652   0.985   1.906
 1414SOL    HW2 5142   2.794   0.907   1.930
 1415SOL     OW 5143   5.053   6.069   4.964
 1415SOL    HW1 5144   5.149   6.093   4.955
 1415SOL    HW2 5145   5.036   5.979   4.923
 1416SOL     OW 5146   4.324   5.265   3.692
 1416SOL    HW1 5147   4.352   5.358   3.716
 1416SOL    HW2 5148   4.364   5.241   3.603
 1417SOL     OW 5149   3.140   3.159   6.157
 1417SOL    HW1 5150   3.162   3.077   6.104
 1417SOL    HW2 5151   3.148   3.239   6.097
 1418SOL     OW 5152   3.375   4.107   3.069
 1418SOL    HW1 5153   3.473   4.117   3.051
 1418SOL    HW2 5154   3.358   4.110   3.167
 1419SOL     OW 5155   3.803   6.266   3.812
 1419SOL    HW1 5156   3.866   6.201   3.770
 1419SOL    HW2 5157   3.816   6.357   3.772
 1420SOL     OW 5158   0.485   5.906   1.982
 1420SOL    HW1 5159   0.505   5.882   2.077
 1420SOL    HW2 5160   0.550   5.975   1.951
 1421SOL     OW 5161   3.881   1.055   2.097
 1421SOL    HW1 5162   3.786   1.067   2.070
 1421SOL    HW2 5163   3.939   1.054   2.015
 1422SOL     OW 5164   2.629   0.147   0.425
 1422SOL    HW1 5165   2.559   0.162   0.494
 1422SOL    HW2 5166   2.675   0.233   0.404
 1423SOL     OW 5167   5.034   0.782   1.671
 1423SOL    HW1 5168   5.090   0.858   1.703
 1423SOL    HW2 5169   5.065   0.697   1.713
 1424SOL     OW 5170   6.990   5.129   2.565
 1424SOL    HW1 5171   6.934   5.111   2.647
 1424SOL    HW2 5172   0.058   5.146   2.592
 1425SOL     OW 5173   1.445   0.166   4.504
 1425SOL    HW1 5174   1.371   0.195   4.444
 1425SOL    HW2 5175   1.505   0.244   4.523
 1426SOL     OW 5176   1.883   1.301   5.344
 1426SOL    HW1 5177   1.973   1.261   5.360
 1426SOL    HW2 5178   1.893   1.395   5.312
 1427SOL     OW 5179   5.809   0.670   5.237
 1427SOL    HW1 5180   5.748   0.709   5.168
 1427SOL    HW2 5181   5.818   0.734   5.313
 1428SOL     OW 5182   5.371   1.144   0.277
 1428SOL    HW1 5183   5.279   1.108   0.262
 1428SOL    HW2 5184   5.372   1.202   0.358
 1429SOL     OW 5185   5.679   6.687   0.015
 1429SOL    HW1 5186   5.652   6.703   0.110
 1429SOL    HW2 5187   5.779   6.694   0.007
 1430SOL     OW 5188   2.101   4.564   3.007
 1430SOL    HW1 5189   2.138   4.648   3.045
 1430SOL    HW2 5190   2.177   4.506   2.976
 1431SOL     OW 5191   1.351   0.119   0.935
 1431SOL    HW1 5192   1.403   0.122   1.020
 1431SOL    HW2 5193   1.395   0.176   0.866
 1432SOL     OW 5194   2.959   0.221   0.935
 1432SOL    HW1 5195   2.966   0.162   0.855
 1432SOL    HW2 5196   3.022   0.298   0.926
 1433SOL     OW 5197   4.141   0.202   3.839
 1433SOL    HW1 5198   4.237   0.202   3.867
 1433SOL    HW2 5199   4.122   0.121   3.784
 1434SOL     OW 5200   1.164   1.130   5.139
 1434SOL    HW1 5201   1.099   1.133   5.063
 1434SOL    HW2 5202   1.183   1.222   5.171
 1435SOL     OW 5203   6.904   2.154   3.431
 1435SOL    HW1 5204   6.865   2.245   3.441
 1435SOL    HW2 5205   6.868   2.094   3.502
 1436SOL     OW 5206   4.511   3.675   0.613
 1436SOL    HW1 5207   4.432   3.667   0.674
 1436SOL    HW2 5208   4.595   3.667   0.667
 1437SOL     OW 5209   4.532   1.674   2.087
 1437SOL    HW1 5210   4.553   1.679   1.989
 1437SOL    HW2 5211   4.445   1.625   2.100
 1438SOL     OW 5212   2.443   0.743   1.679
 1438SOL    HW1 5213   2.380   0.683   1.728
 1438SOL    HW2 5214   2.534   0.737   1.722
 1439SOL     OW 5215   0.408   5.779   2.237
 1439SOL    HW1 5216   0.365   5.731   2.161
 1439SOL    HW2 5217   0.387   5.732   2.323
 1440SOL     OW 5218   2.154   3.044   2.006
 1440SOL    HW1 5219   2.131   3.044   2.103
 1440SOL    HW2 5220   2.239   2.994   1.992
 1441SOL     OW 5221   5.079   5.973   0.200
 1441SOL    HW1 5222   5.053   5.941   0.291
 1441SOL    HW2 5223   5.145   6.047   0.208
 1442SOL     OW 5224   5.312   5.125   0.661
 1442SOL    HW1 5225   5.214   5.142   0.663
 1442SOL    HW2 5226   5.330   5.036   0.619
 1443SOL     OW 5227   0.329   2.329   2.138
 1443SOL    HW1 5228   0.348   2.427   2.142
 1443SOL    HW2 5229   0.354   2.294   2.047
 1444SOL     OW 5230   0.611   5.609   6.195
 1444SOL    HW1 5231   0.692   5.634   6.248
 1444SOL    HW2 5232   0.528   5.634   6.245
 1445SOL     OW 5233   0.595   2.806   1.204
 1445SOL    HW1 5234   0.680   2.758   1.223
 1445SOL    HW2 5235   0.543   2.755   1.135
 1446SOL     OW 5236   6.661   5.780   0.704
 1446SOL    HW1 5237   6.642   5.876   0.727
 1446SOL    HW2 5238   6.619   5.758   0.616
 1447SOL     OW 5239   6.393   5.456   4.182
 1447SOL    HW1 5240   6.397   5.357   4.164
 1447SOL    HW2 5241   6.340   5.473   4.265
 1448SOL     OW 5242   0.987   1.629   6.245
 1448SOL    HW1 5243   0.962   1.636   6.149
 1448SOL    HW2 5244   0.993   1.720   6.285
 1449SOL     OW 5245   2.117   3.398   2.999
 1449SOL    HW1 5246   2.133   3.449   3.084
 1449SOL    HW2 5247   2.100   3.462   2.924
 1450SOL     OW 5248   3.330   2.104   3.748
 1450SOL    HW1 5249   3.427   2.123   3.736
 1450SOL    HW2 5250   3.318   2.012   3.786
 1451SOL     OW 5251   3.212   1.341   2.469
 1451SOL    HW1 5252   3.266   1.423   2.490
 1451SOL    HW2 5253   3.117   1.366   2.455
 1452SOL     OW 5254   4.105   2.758   6.592
 1452SOL    HW1 5255   4.159   2.723   6.669
 1452SOL    HW2 5256   4.058   2.842   6.621
 1453SOL     OW 5257   0.693   3.895   5.437
 1453SOL    HW1 5258   0.689   3.808   5.486
 1453SOL    HW2 5259   0.708   3.878   5.339
 1454SOL     OW 5260   3.436   1.981   2.926
 1454SOL    HW1 5261   3.506   2.051   2.914
 1454SOL    HW2 5262   3.428   1.959   3.023
 1455SOL     OW 5263   0.264   5.167   2.630
 1455SOL    HW1 5264   0.297   5.125   2.715
 1455SOL    HW2 5265   0.325   5.241   2.603
 1456SOL     OW 5266   6.498   5.815   4.137
 1456SOL    HW1 5267   6.435   5.738   4.133
 1456SOL    HW2 5268   6.576   5.791   4.195
 1457SOL     OW 5269   0.904   5.140   6.503
 1457SOL    HW1 5270   0.952   5.058   6.532
 1457SOL    HW2 5271   0.823   5.115   6.449
 1458SOL     OW 5272   6.024   5.277   4.944
 1458SOL    HW1 5273   6.030   5.362   4.995
 1458SOL    HW2 5274   6.079   5.207   4.990
 1459SOL     OW 5275   6.468   6.636   5.025
 1459SOL    HW1 5276   6.372   6.654   5.002
 1459SOL    HW2 5277   6.474   6.611   5.121
 1460SOL     OW 5278   1.567   6.171   5.292
 1460SOL    HW1 5279   1.522   6.227   5.222
 1460SOL    HW2 5280   1.548   6.209   5.382
 1461SOL     OW 5281   6.020   3.234   4.024
 1461SOL    HW1 5282   5.947   3.248   3.957
 1461SOL    HW2 5283   5.981   3.202   4.111
 1462SOL     OW 5284   0.577   1.500   1.937
 1462SOL    HW1 5285   0.491   1.525   1.892
 1462SOL    HW2 5286   0.622   1.584   1.969
 1463SOL     OW 5287   1.454   5.393   6.890
 1463SOL    HW1 5288   1.459   5.330   6.967
 1463SOL    HW2 5289   1.464   5.341   6.805
 1464SOL     OW 5290   1.036   4.313   4.615
 1464SOL    HW1 5291   1.089   4.346   4.693
 1464SOL    HW2 5292   1.069   4.223   4.587
 1465SOL     OW 5293   1.460   2.954   5.100
 1465SOL    HW1 5294   1.415   3.028   5.050
 1465SOL    HW2 5295   1.558   2.955   5.083
 1466SOL     OW 5296   5.545   1.093   2.624
 1466SOL    HW1 5297   5.637   1.055   2.639
 1466SOL    HW2 5298   5.485   1.063   2.698
 1467SOL     OW 5299   0.648   6.980   3.420
 1467SOL    HW1 5300   0.748   6.987   3.421
 1467SOL    HW2 5301   0.620   6.897   3.469
 1468SOL     OW 5302   3.400   5.994   2.919
 1468SOL    HW1 5303   3.329   6.044   2.870
 1468SOL    HW2 5304   3.447   5.932   2.856
 1469SOL     OW 5305   5.850   4.141   2.794
 1469SOL    HW1 5306   5.915   4.109   2.862
 1469SOL    HW2 5307   5.865   4.092   2.708
 1470SOL     OW 5308   6.241   2.109   2.347
 1470SOL    HW1 5309   6.147   2.137   2.325
 1470SOL    HW2 5310   6.238   2.033   2.412
 1471SOL     OW 5311   4.877   0.215   0.436
 1471SOL    HW1 5312   4.974   0.194   0.453
 1471SOL    HW2 5313   4.863   0.231   0.339
 1472SOL     OW 5314   2.000   0.874   6.487
 1472SOL    HW1 5315   2.006   0.779   6.518
 1472SOL    HW2 5316   2.036   0.881   6.394
 1473SOL     OW 5317   1.323   6.001   3.732
 1473SOL    HW1 5318   1.352   5.952   3.814
 1473SOL    HW2 5319   1.355   6.096   3.737
 1474SOL     OW 5320   2.139   4.790   1.768
 1474SOL    HW1 5321   2.068   4.784   1.837
 1474SOL    HW2 5322   2.106   4.846   1.691
 1475SOL     OW 5323   5.905   0.202   6.562
 1475SOL    HW1 5324   5.910   0.274   6.631
 1475SOL    HW2 5325   5.997   0.164   6.547
 1476SOL     OW 5326   5.367   0.139   6.336
 1476SOL    HW1 5327   5.279   0.161   6.377
 1476SOL    HW2 5328   5.389   0.043   6.355
 1477SOL     OW 5329   3.408   4.245   1.786
 1477SOL    HW1 5330   3.348   4.321   1.761
 1477SOL    HW2 5331   3.364   4.159   1.763
 1478SOL     OW 5332   4.980   4.808   6.159
 1478SOL    HW1 5333   5.067   4.793   6.207
 1478SOL    HW2 5334   4.929   4.881   6.204
 1479SOL     OW 5335   4.929   4.086   0.854
 1479SOL    HW1 5336   4.912   4.069   0.951
 1479SOL    HW2 5337   4.915   4.001   0.803
 1480SOL     OW 5338   2.734   1.028   4.417
 1480SOL    HW1 5339   2.832   1.028   4.398
 1480SOL    HW2 5340   2.685   0.989   4.340
 1481SOL     OW 5341   4.471   2.334   5.827
 1481SOL    HW1 5342   4.409   2.347   5.903
 1481SOL    HW2 5343   4.436   2.261   5.767
 1482SOL     OW 5344   6.268   1.232   1.848
 1482SOL    HW1 5345   6.231   1.324   1.831
 1482SOL    HW2 5346   6.332   1.236   1.924
 1483SOL     OW 5347   6.347   0.261   6.995
 1483SOL    HW1 5348   6.258   0.284   0.007
 1483SOL    HW2 5349   6.345   0.167   6.961
 1484SOL     OW 5350   3.747   5.750   5.298
 1484SOL    HW1 5351   3.666   5.801   5.327
 1484SOL    HW2 5352   3.824   5.771   5.358
 1485SOL     OW 5353   5.004   3.526   3.535
 1485SOL    HW1 5354   4.934   3.510   3.465
 1485SOL    HW2 5355   4.990   3.616   3.576
 1486SOL     OW 5356   4.951   6.023   3.988
 1486SOL    HW1 5357   4.895   6.104   3.971
 1486SOL    HW2 5358   4.978   5.983   3.901
 1487SOL     OW 5359   6.391   1.201   0.777
 1487SOL    HW1 5360   6.343   1.115   0.794
 1487SOL    HW2 5361   6.382   1.261   0.856
 1488SOL     OW 5362   6.450   2.284   2.693
 1488SOL    HW1 5363   6.461   2.189   2.664
 1488SOL    HW2 5364   6.404   2.336   2.621
 1489SOL     OW 5365   3.019   4.930   0.227
 1489SOL    HW1 5366   3.082   4.960   0.155
 1489SOL    HW2 5367   2.942   4.994   0.233
 1490SOL     OW 5368   6.808   3.372   2.349
 1490SOL    HW1 5369   6.794   3.284   2.395
 1490SOL    HW2 5370   6.776   3.366   2.254
 1491SOL     OW 5371   5.190   2.940   3.700
 1491SOL    HW1 5372   5.233   3.029   3.712
 1491SOL    HW2 5373   5.260   2.869   3.692
 1492SOL     OW 5374   0.428   2.392   2.565
 1492SOL    HW1 5375   0.521   2.359   2.547
 1492SOL    HW2 5376   0.362   2.333   2.518
 1493SOL     OW 5377   6.109   2.344   6.575
 1493SOL    HW1 5378   6.026   2.395   6.550
 1493SOL    HW2 5379   6.186   2.377   6.522
 1494SOL     OW 5380   0.335   4.248   6.385
 1494SOL    HW1 5381   0.361   4.344   6.392
 1494SOL    HW2 5382   0.400   4.192   6.435
 1495SOL     OW 5383   6.800   3.954   4.271
 1495SOL    HW1 5384   6.825   4.040   4.315
 1495SOL    HW2 5385   6.706   3.931   4.296
 1496SOL     OW 5386   6.750   6.373   6.009
 1496SOL    HW1 5387   6.785   6.465   6.026
 1496SOL    HW2 5388   6.694   6.343   6.086
 1497SOL     OW 5389   5.776   2.472   2.217
 1497SOL    HW1 5390   5.686   2.503   2.188
 1497SOL    HW2 5391   5.824   2.430   2.140
 1498SOL     OW 5392   3.844   4.445   0.520
 1498SOL    HW1 5393   3.781   4.392   0.578
 1498SOL    HW2 5394   3.927   4.466   0.571
 1499SOL     OW 5395   0.107   4.502   4.205
 1499SOL    HW1 5396   0.177   4.497   4.134
 1499SOL    HW2 5397   0.076   4.410   4.228
 1500SOL     OW 5398   1.656   5.564   1.945
 1500SOL    HW1 5399   1.722   5.532   2.012
 1500SOL    HW2 5400   1.631   5.658   1.965
 1501SOL     OW 5401   6.373   1.563   0.720
 1501SOL    HW1 5402   6.341   1.469   0.723
 1501SOL    HW2 5403   6.473   1.565   0.722
 1502SOL     OW 5404   0.440   6.694   6.314
 1502SOL    HW1 5405   0.519   6.713   6.373
 1502SOL    HW2 5406   0.409   6.779   6.272
 1503SOL     OW 5407   0.132   4.983   1.545
 1503SOL    HW1 5408   0.099   5.047   1.614
 1503SOL    HW2 5409   0.090   5.005   1.457
 1504SOL     OW 5410   1.718   6.985   3.284
 1504SOL    HW1 5411   1.755   6.942   3.202
 1504SOL    HW2 5412   1.690   0.052   3.263
 1505SOL     OW 5413   6.459   5.407   5.025
 1505SOL    HW1 5414   6.430   5.397   5.121
 1505SOL    HW2 5415   6.391   5.459   4.975
 1506SOL     OW 5416   1.332   1.171   0.841
 1506SOL    HW1 5417   1.414   1.145   0.893
 1506SOL    HW2 5418   1.324   1.111   0.762
 1507SOL     OW 5419   2.951   2.118   3.337
 1507SOL    HW1 5420   2.893   2.100   3.257
 1507SOL    HW2 5421   2.909   2.190   3.391
 1508SOL     OW 5422   1.819   0.403   1.833
 1508SOL    HW1 5423   1.918   0.399   1.846
 1508SOL    HW2 5424   1.774   0.398   1.922
 1509SOL     OW 5425   5.104   1.165   3.981
 1509SOL    HW1 5426   5.101   1.257   4.019
 1509SOL    HW2 5427   5.115   1.170   3.881
 1510SOL     OW 5428   3.608   6.262   4.978
 1510SOL    HW1 5429   3.635   6.356   4.956
 1510SOL    HW2 5430   3.674   6.199   4.937
 1511SOL     OW 5431   3.141   3.731   5.243
 1511SOL    HW1 5432   3.142   3.828   5.220
 1511SOL    HW2 5433   3.135   3.720   5.342
 1512SOL     OW 5434   5.335   6.438   0.691
 1512SOL    HW1 5435   5.339   6.406   0.786
 1512SOL    HW2 5436   5.286   6.371   0.635
 1513SOL     OW 5437   2.830   0.937   5.797
 1513SOL    HW1 5438   2.871   0.999   5.730
 1513SOL    HW2 5439   2.738   0.969   5.820
 1514SOL     OW 5440   2.786   2.328   6.782
 1514SOL    HW1 5441   2.801   2.367   6.873
 1514SOL    HW2 5442   2.869   2.339   6.727
 1515SOL     OW 5443   3.498   0.518   2.601
 1515SOL    HW1 5444   3.461   0.457   2.530
 1515SOL    HW2 5445   3.555   0.466   2.663
 1516SOL     OW 5446   6.190   6.815   6.120
 1516SOL    HW1 5447   6.251   6.829   6.042
 1516SOL    HW2 5448   6.133   6.735   6.103
 1517SOL     OW 5449   2.549   6.108   3.122
 1517SOL    HW1 5450   2.567   6.202   3.150
 1517SOL    HW2 5451   2.629   6.051   3.142
 1518SOL     OW 5452   0.877   2.931   6.904
 1518SOL    HW1 5453   0.845   2.900   6.814
 1518SOL    HW2 5454   0.801   2.929   6.969
 1519SOL     OW 5455   0.299   4.401   6.881
 1519SOL    HW1 5456   0.214   4.454   6.888
 1519SOL    HW2 5457   0.326   4.370   6.973
 1520SOL     OW 5458   0.145   6.775   3.550
 1520SOL    HW1 5459   0.185   6.783   3.642
 1520SOL    HW2 5460   0.102   6.862   3.525
 1521SOL     OW 5461   1.893   5.026   6.573
 1521SOL    HW1 5462   1.897   5.018   6.473
 1521SOL    HW2 5463   1.885   4.935   6.614
 1522SOL     OW 5464   5.302   6.381   4.128
 1522SOL    HW1 5465   5.243   6.301   4.117
 1522SOL    HW2 5466   5.398   6.352   4.133
 1523SOL     OW 5467   2.636   6.615   0.568
 1523SOL    HW1 5468   2.619   6.529   0.616
 1523SOL    HW2 5469   2.709   6.665   0.614
 1524SOL     OW 5470   1.942   2.120   3.527
 1524SOL    HW1 5471   1.986   2.167   3.603
 1524SOL    HW2 5472   1.982   2.151   3.441
 1525SOL     OW 5473   4.834   4.406   6.467
 1525SOL    HW1 5474   4.825   4.414   6.368
 1525SOL    HW2 5475   4.880   4.487   6.503
 1526SOL     OW 5476   0.953   1.643   1.227
 1526SOL    HW1 5477   0.927   1.557   1.184
 1526SOL    HW2 5478   0.999   1.625   1.314
 1527SOL     OW 5479   4.841   1.393   4.649
 1527SOL    HW1 5480   4.884   1.340   4.576
 1527SOL    HW2 5481   4.832   1.488   4.621
 1528SOL     OW 5482   3.751   3.405   2.586
 1528SOL    HW1 5483   3.661   3.397   2.543
 1528SOL    HW2 5484   3.817   3.440   2.519
 1529SOL     OW 5485   4.325   1.285   5.745
 1529SOL    HW1 5486   4.246   1.265   5.688
 1529SOL    HW2 5487   4.312   1.374   5.790
 1530SOL     OW 5488   2.083   7.024   0.876
 1530SOL    HW1 5489   2.029   0.077   0.850
 1530SOL    HW2 5490   2.159   0.027   0.935
 1531SOL     OW 5491   4.914   5.874   4.309
 1531SOL    HW1 5492   4.945   5.783   4.335
 1531SOL    HW2 5493   4.908   5.880   4.209
 1532SOL     OW 5494   2.503   5.923   1.492
 1532SOL    HW1 5495   2.520   5.921   1.394
 1532SOL    HW2 5496   2.509   6.017   1.525
 1533SOL     OW 5497   5.952   6.396   1.086
 1533SOL    HW1 5498   5.882   6.326   1.070
 1533SOL    HW2 5499   5.941   6.433   1.178
 1534SOL     OW 5500   2.347   4.882   6.507
 1534SOL    HW1 5501   2.402   4.901   6.587
 1534SOL    HW2 5502   2.330   4.967   6.457
 1535SOL     OW 5503   5.149   4.149   3.678
 1535SOL    HW1 5504   5.070   4.200   3.644
 1535SOL    HW2 5505   5.130   4.117   3.771
 1536SOL     OW 5506   4.201   4.066   6.506
 1536SOL    HW1 5507   4.234   3.977   6.538
 1536SOL    HW2 5508   4.279   4.128   6.496
 1537SOL     OW 5509   2.694   5.023   2.624
 1537SOL    HW1 5510   2.615   4.964   2.640
 1537SOL    HW2 5511   2.665   5.117   2.614
 1538SOL     OW 5512   2.988   1.405   0.283
 1538SOL    HW1 5513   2.905   1.353   0.299
 1538SOL    HW2 5514   3.049   1.353   0.224
 1539SOL     OW 5515   6.881   3.271   0.858
 1539SOL    HW1 5516   6.847   3.362   0.832
 1539SOL    HW2 5517   6.933   3.279   0.942
 1540SOL     OW 5518   3.574   6.621   3.255
 1540SOL    HW1 5519   3.477   6.611   3.278
 1540SOL    HW2 5520   3.603   6.546   3.196
 1541SOL     OW 5521   4.660   2.662   5.437
 1541SOL    HW1 5522   4.642   2.665   5.339
 1541SOL    HW2 5523   4.575   2.680   5.487
 1542SOL     OW 5524   6.849   5.296   2.765
 1542SOL    HW1 5525   6.948   5.313   2.762
 1542SOL    HW2 5526   6.803   5.361   2.705
 1543SOL     OW 5527   3.017   5.475   0.245
 1543SOL    HW1 5528   3.046   5.379   0.245
 1543SOL    HW2 5529   3.080   5.529   0.188
 1544SOL     OW 5530   4.064   3.199   3.983
 1544SOL    HW1 5531   4.051   3.190   3.884
 1544SOL    HW2 5532   4.014   3.126   4.030
 1545SOL     OW 5533   5.855   5.534   1.582
 1545SOL    HW1 5534   5.770   5.570   1.620
 1545SOL    HW2 5535   5.895   5.469   1.646
 1546SOL     OW 5536   6.141   6.403   5.431
 1546SOL    HW1 5537   6.062   6.367   5.382
 1546SOL    HW2 5538   6.141   6.369   5.525
 1547SOL     OW 5539   2.057   3.566   6.034
 1547SOL    HW1 5540   2.066   3.478   6.081
 1547SOL    HW2 5541   2.147   3.606   6.020
 1548SOL     OW 5542   6.580   2.424   0.752
 1548SOL    HW1 5543   6.507   2.358   0.769
 1548SOL    HW2 5544   6.569   2.503   0.812
 1549SOL     OW 5545   5.146   0.961   4.704
 1549SOL    HW1 5546   5.060   0.946   4.655
 1549SOL    HW2 5547   5.176   0.874   4.744
 1550SOL     OW 5548   3.006   3.201   4.032
 1550SOL    HW1 5549   3.051   3.163   4.113
 1550SOL    HW2 5550   2.967   3.290   4.055
 1551SOL     OW 5551   6.741   5.094   5.923
 1551SOL    HW1 5552   6.817   5.082   5.986
 1551SOL    HW2 5553   6.760   5.172   5.862
 1552SOL     OW 5554   1.906   4.311   1.410
 1552SOL    HW1 5555   1.836   4.316   1.339
 1552SOL    HW2 5556   1.957   4.397   1.412
 1553SOL     OW 5557   1.699   2.412   5.636
 1553SOL    HW1 5558   1.789   2.437   5.602
 1553SOL    HW2 5559   1.664   2.484   5.695
 1554SOL     OW 5560   4.427   1.626   3.392
 1554SOL    HW1 5561   4.375   1.637   3.307
 1554SOL    HW2 5562   4.495   1.699   3.398
 1555SOL     OW 5563   5.983   5.274   5.614
 1555SOL    HW1 5564   5.893   5.238   5.590
 1555SOL    HW2 5565   6.035   5.204   5.663
 1556SOL     OW 5566   1.765   1.090   5.664
 1556SOL    HW1 5567   1.728   1.178   5.633
 1556SOL    HW2 5568   1.862   1.085   5.640
 1557SOL     OW 5569   0.683   2.021   5.003
 1557SOL    HW1 5570   0.726   1.933   4.980
 1557SOL    HW2 5571   0.739   2.095   4.966
 1558SOL     OW 5572   0.160   6.435   4.556
 1558SOL    HW1 5573   0.237   6.382   4.590
 1558SOL    HW2 5574   0.147   6.415   4.459
 1559SOL     OW 5575   1.385   1.553   5.379
 1559SOL    HW1 5576   1.290   1.535   5.354
 1559SOL    HW2 5577   1.445   1.520   5.306
 1560SOL     OW 5578   0.063   0.362   0.040
 1560SOL    HW1 5579   0.078   0.350   0.138
 1560SOL    HW2 5580   0.128   0.307   7.015
 1561SOL     OW 5581   6.374   6.656   2.033
 1561SOL    HW1 5582   6.284   6.692   2.059
 1561SOL    HW2 5583   6.438   6.669   2.109
 1562SOL     OW 5584   5.325   0.624   4.126
 1562SOL    HW1 5585   5.258   0.573   4.072
 1562SOL    HW2 5586   5.410   0.632   4.075
 1563SOL     OW 5587   3.271   6.899   5.846
 1563SOL    HW1 5588   3.187   6.872   5.894
 1563SOL    HW2 5589   3.349   6.850   5.885
 1564SOL     OW 5590   1.400   2.040   3.315
 1564SOL    HW1 5591   1.483   1.990   3.339
 1564SOL    HW2 5592   1.404   2.068   3.219
 1565SOL     OW 5593   6.290   4.426   1.109
 1565SOL    HW1 5594   6.248   4.430   1.200
 1565SOL    HW2 5595   6.285   4.517   1.067
 1566SOL     OW 5596   6.193   4.558   2.260
 1566SOL    HW1 5597   6.097   4.530   2.248
 1566SOL    HW2 5598   6.253   4.483   2.231
 1567SOL     OW 5599   6.774   5.602   5.520
 1567SOL    HW1 5600   6.681   5.606   5.555
 1567SOL    HW2 5601   6.796   5.687   5.471
 1568SOL     OW 5602   6.988   6.995   0.263
 1568SOL    HW1 5603   6.934   7.021   0.183
 1568SOL    HW2 5604   0.017   6.915   0.242
 1569SOL     OW 5605   3.361   6.445   5.647
 1569SOL    HW1 5606   3.410   6.434   5.560
 1569SOL    HW2 5607   3.292   6.517   5.638
 1570SOL     OW 5608   3.104   2.216   1.740
 1570SOL    HW1 5609   3.066   2.283   1.805
 1570SOL    HW2 5610   3.204   2.219   1.744
 1571SOL     OW 5611   0.407   3.479   0.709
 1571SOL    HW1 5612   0.321   3.430   0.697
 1571SOL    HW2 5613   0.479   3.414   0.732
 1572SOL     OW 5614   0.814   5.521   2.714
 1572SOL    HW1 5615   0.905   5.561   2.702
 1572SOL    HW2 5616   0.802   5.492   2.809
 1573SOL     OW 5617   4.474   6.810   0.190
 1573SOL    HW1 5618   4.474   6.711   0.176
 1573SOL    HW2 5619   4.386   6.837   0.230
 1574SOL     OW 5620   5.236   3.022   2.494
 1574SOL    HW1 5621   5.247   2.987   2.401
 1574SOL    HW2 5622   5.139   3.018   2.520
 1575SOL     OW 5623   3.213   1.883   0.604
 1575SOL    HW1 5624   3.260   1.942   0.670
 1575SOL    HW2 5625   3.194   1.794   0.647
 1576SOL     OW 5626   6.072   5.354   3.054
 1576SOL    HW1 5627   6.114   5.306   3.131
 1576SOL    HW2 5628   6.047   5.447   3.083
 1577SOL     OW 5629   1.604   0.401   0.405
 1577SOL    HW1 5630   1.645   0.438   0.488
 1577SOL    HW2 5631   1.515   0.444   0.389
 1578SOL     OW 5632   5.920   5.621   4.396
 1578SOL    HW1 5633   5.961   5.697   4.346
 1578SOL    HW2 5634   5.941   5.535   4.350
 1579SOL     OW 5635   0.194   0.204   3.116
 1579SOL    HW1 5636   0.288   0.173   3.127
 1579SOL    HW2 5637   0.150   0.153   3.042
 1580SOL     OW 5638   3.000   4.002   5.917
 1580SOL    HW1 5639   3.013   3.904   5.933
 1580SOL    HW2 5640   3.089   4.046   5.908
 1581SOL     OW 5641   6.302   2.985   4.875
 1581SOL    HW1 5642   6.294   3.059   4.943
 1581SOL    HW2 5643   6.218   2.932   4.874
 1582SOL     OW 5644   6.111   6.087   4.656
 1582SOL    HW1 5645   6.194   6.092   4.601
 1582SOL    HW2 5646   6.106   5.998   4.701
 1583SOL     OW 5647   2.172   2.268   2.358
 1583SOL    HW1 5648   2.108   2.344   2.363
 1583SOL    HW2 5649   2.242   2.288   2.290
 1584SOL     OW 5650   2.405   0.454   6.383
 1584SOL    HW1 5651   2.444   0.426   6.471
 1584SOL    HW2 5652   2.306   0.466   6.393
 1585SOL     OW 5653   6.321   1.307   6.011
 1585SOL    HW1 5654   6.232   1.262   6.001
 1585SOL    HW2 5655   6.383   1.245   6.058
 1586SOL     OW 5656   4.091   3.458   3.037
 1586SOL    HW1 5657   4.050   3.498   3.119
 1586SOL    HW2 5658   4.114   3.531   2.973
 1587SOL     OW 5659   2.517   6.451   6.034
 1587SOL    HW1 5660   2.584   6.416   6.100
 1587SOL    HW2 5661   2.435   6.482   6.083
 1588SOL     OW 5662   5.807   3.643   1.042
 1588SOL    HW1 5663   5.708   3.654   1.052
 1588SOL    HW2 5664   5.828   3.621   0.946
 1589SOL     OW 5665   4.692   4.979   2.949
 1589SOL    HW1 5666   4.659   4.888   2.976
 1589SOL    HW2 5667   4.694   4.986   2.850
 1590SOL     OW 5668   2.230   6.754   5.133
 1590SOL    HW1 5669   2.208   6.663   5.167
 1590SOL    HW2 5670   2.292   6.800   5.197
 1591SOL     OW 5671   1.467   3.687   0.583
 1591SOL    HW1 5672   1.500   3.661   0.674
 1591SOL    HW2 5673   1.381   3.737   0.593
 1592SOL     OW 5674   3.924   3.885   3.937
 1592SOL    HW1 5675   3.983   3.810   3.967
 1592SOL    HW2 5676   3.901   3.872   3.840
 1593SOL     OW 5677   1.599   4.602   4.432
 1593SOL    HW1 5678   1.649   4.620   4.517
 1593SOL    HW2 5679   1.518   4.660   4.427
 1594SOL     OW 5680   0.976   4.947   3.150
 1594SOL    HW1 5681   0.880   4.921   3.146
 1594SOL    HW2 5682   1.010   4.933   3.243
 1595SOL     OW 5683   0.019   4.083   5.009
 1595SOL    HW1 5684   0.049   4.031   4.930
 1595SOL    HW2 5685   6.952   4.058   5.033
 1596SOL     OW 5686   2.770   5.311   7.021
 1596SOL    HW1 5687   2.866   5.309   6.992
 1596SOL    HW2 5688   2.754   5.392   0.051
 1597SOL     OW 5689   2.376   0.429   0.409
 1597SOL    HW1 5690   2.332   0.485   0.478
 1597SOL    HW2 5691   2.377   0.478   0.322
 1598SOL     OW 5692   6.956   5.496   1.458
 1598SOL    HW1 5693   6.877   5.527   1.406
 1598SOL    HW2 5694   6.933   5.412   1.508
 1599SOL     OW 5695   3.104   5.209   0.313
 1599SOL    HW1 5696   3.094   5.115   0.281
 1599SOL    HW2 5697   3.114   5.209   0.413
 1600SOL     OW 5698   3.104   1.079   5.301
 1600SOL    HW1 5699   3.081   1.153   5.365
 1600SOL    HW2 5700   3.198   1.049   5.317
 1601SOL     OW 5701   1.469   5.440   5.002
 1601SOL    HW1 5702   1.455   5.340   5.002
 1601SOL    HW2 5703   1.420   5.479   5.080
 1602SOL     OW 5704   0.635   3.752   2.212
 1602SOL    HW1 5705   0.610   3.690   2.287
 1602SOL    HW2 5706   0.554   3.774   2.159
 1603SOL     OW 5707   5.759   6.647   0.644
 1603SOL    HW1 5708   5.682   6.583   0.642
 1603SOL    HW2 5709   5.838   6.606   0.599
 1604SOL     OW 5710   0.970   5.758   5.021
 1604SOL    HW1 5711   0.915   5.725   4.944
 1604SOL    HW2 5712   1.039   5.690   5.045
 1605SOL     OW 5713   5.567   5.520   2.539
 1605SOL    HW1 5714   5.636   5.504   2.468
 1605SOL    HW2 5715   5.499   5.446   2.537
 1606SOL     OW 5716   5.898   5.944   4.752
 1606SOL    HW1 5717   5.875   5.967   4.658
 1606SOL    HW2 5718   5.859   6.012   4.814
 1607SOL     OW 5719   4.279   2.993   1.323
 1607SOL    HW1 5720   4.284   2.894   1.312
 1607SOL    HW2 5721   4.370   3.029   1.343
 1608SOL     OW 5722   2.904   0.646   0.535
 1608SOL    HW1 5723   2.822   0.679   0.489
 1608SOL    HW2 5724   2.883   0.630   0.632
 1609SOL     OW 5725   5.255   0.871   5.599
 1609SOL    HW1 5726   5.157   0.864   5.617
 1609SOL    HW2 5727   5.270   0.924   5.516
 1610SOL     OW 5728   4.783   6.346   2.740
 1610SOL    HW1 5729   4.780   6.382   2.833
 1610SOL    HW2 5730   4.850   6.398   2.686
 1611SOL     OW 5731   4.294   3.384   1.414
 1611SOL    HW1 5732   4.237   3.465   1.431
 1611SOL    HW2 5733   4.238   3.302   1.424
 1612SOL     OW 5734   3.348   0.441   4.630
 1612SOL    HW1 5735   3.341   0.462   4.532
 1612SOL    HW2 5736   3.440   0.408   4.650
 1613SOL     OW 5737   1.683   0.700   0.882
 1613SOL    HW1 5738   1.586   0.711   0.860
 1613SOL    HW2 5739   1.695   0.699   0.982
 1614SOL     OW 5740   6.928   2.490   5.103
 1614SOL    HW1 5741   6.969   2.436   5.177
 1614SOL    HW2 5742   6.934   2.587   5.126
 1615SOL     OW 5743   6.499   4.743   5.459
 1615SOL    HW1 5744   6.542   4.720   5.546
 1615SOL    HW2 5745   6.556   4.807   5.409
 1616SOL     OW 5746   2.690   2.173   6.524
 1616SOL    HW1 5747   2.626   2.234   6.478
 1616SOL    HW2 5748   2.702   2.201   6.619
 1617SOL     OW 5749   3.937   0.793   4.133
 1617SOL    HW1 5750   3.877   0.714   4.122
 1617SOL    HW2 5751   3.982   0.789   4.222
 1618SOL     OW 5752   5.487   2.679   2.369
 1618SOL    HW1 5753   5.491   2.603   2.304
 1618SOL    HW2 5754   5.573   2.684   2.419
 1619SOL     OW 5755   1.755   2.844   4.403
 1619SOL    HW1 5756   1.665   2.848   4.446
 1619SOL    HW2 5757   1.756   2.902   4.321
 1620SOL     OW 5758   3.599   6.110   1.951
 1620SOL    HW1 5759   3.572   6.145   2.041
 1620SOL    HW2 5760   3.547   6.158   1.880
 1621SOL     OW 5761   1.906   1.568   2.217
 1621SOL    HW1 5762   1.859   1.510   2.151
 1621SOL    HW2 5763   1.990   1.604   2.176
 1622SOL     OW 5764   2.298   2.328   4.897
 1622SOL    HW1 5765   2.320   2.254   4.961
 1622SOL    HW2 5766   2.254   2.403   4.946
 1623SOL     OW 5767   2.210   2.177   4.639
 1623SOL    HW1 5768   2.229   2.257   4.695
 1623SOL    HW2 5769   2.292   2.121   4.633
 1624SOL     OW 5770   2.477   0.718   0.634
 1624SOL    HW1 5771   2.518   0.725   0.543
 1624SOL    HW2 5772   2.395   0.661   0.630
 1625SOL     OW 5773   0.696   6.203   1.013
 1625SOL    HW1 5774   0.625   6.145   1.053
 1625SOL    HW2 5775   0.661   6.297   1.006
 1626SOL     OW 5776   2.025   3.149   6.009
 1626SOL    HW1 5777   2.093   3.219   5.983
 1626SOL    HW2 5778   2.048   3.112   6.098
 1627SOL     OW 5779   4.891   3.778   3.714
 1627SOL    HW1 5780   4.861   3.812   3.803
 1627SOL    HW2 5781   4.986   3.805   3.699
 1628SOL     OW 5782   2.783   3.214   0.145
 1628SOL    HW1 5783   2.866   3.255   0.183
 1628SOL    HW2 5784   2.740   3.155   0.214
 1629SOL     OW 5785   3.264   2.135   2.742
 1629SOL    HW1 5786   3.308   2.115   2.654
 1629SOL    HW2 5787   3.318   2.095   2.815
 1630SOL     OW 5788   5.961   4.789   4.332
 1630SOL    HW1 5789   6.028   4.856   4.299
 1630SOL    HW2 5790   5.979   4.769   4.429
 1631SOL     OW 5791   0.901   0.030   6.050
 1631SOL    HW1 5792   0.840   0.109   6.060
 1631SOL    HW2 5793   0.852   6.974   6.077
 1632SOL     OW 5794   4.746   6.810   7.024
 1632SOL    HW1 5795   4.781   6.891   6.975
 1632SOL    HW2 5796   4.722   6.836   0.091
 1633SOL     OW 5797   6.208   3.535   3.346
 1633SOL    HW1 5798   6.274   3.607   3.327
 1633SOL    HW2 5799   6.254   3.455   3.384
 1634SOL     OW 5800   4.089   1.198   1.092
 1634SOL    HW1 5801   4.155   1.269   1.118
 1634SOL    HW2 5802   4.111   1.114   1.141
 1635SOL     OW 5803   1.263   5.001   3.947
 1635SOL    HW1 5804   1.360   4.980   3.944
 1635SOL    HW2 5805   1.221   4.958   4.027
 1636SOL     OW 5806   2.566   6.310   0.267
 1636SOL    HW1 5807   2.608   6.380   0.325
 1636SOL    HW2 5808   2.467   6.314   0.276
 1637SOL     OW 5809   0.926   2.753   2.535
 1637SOL    HW1 5810   1.024   2.771   2.527
 1637SOL    HW2 5811   0.909   2.685   2.606
 1638SOL     OW 5812   1.328   2.338   5.487
 1638SOL    HW1 5813   1.306   2.415   5.426
 1638SOL    HW2 5814   1.255   2.326   5.553
 1639SOL     OW 5815   4.042   4.838   2.452
 1639SOL    HW1 5816   3.961   4.875   2.498
 1639SOL    HW2 5817   4.075   4.757   2.501
 1640SOL     OW 5818   5.296   0.332   1.377
 1640SOL    HW1 5819   5.275   0.239   1.407
 1640SOL    HW2 5820   5.212   0.385   1.374
 1641SOL     OW 5821   6.777   2.488   4.890
 1641SOL    HW1 5822   6.715   2.409   4.893
 1641SOL    HW2 5823   6.855   2.470   4.950
 1642SOL     OW 5824   0.792   2.325   1.793
 1642SOL    HW1 5825   0.867   2.362   1.848
 1642SOL    HW2 5826   0.748   2.399   1.743
 1643SOL     OW 5827   3.615   0.642   5.476
 1643SOL    HW1 5828   3.591   0.647   5.573
 1643SOL    HW2 5829   3.542   0.684   5.421
 1644SOL     OW 5830   4.317   1.132   0.368
 1644SOL    HW1 5831   4.269   1.197   0.427
 1644SOL    HW2 5832   4.251   1.083   0.311
 1645SOL     OW 5833   1.862   6.069   6.376
 1645SOL    HW1 5834   1.827   6.138   6.439
 1645SOL    HW2 5835   1.896   6.113   6.293
 1646SOL     OW 5836   1.959   3.789   0.403
 1646SOL    HW1 5837   1.863   3.804   0.427
 1646SOL    HW2 5838   1.966   3.709   0.344
 1647SOL     OW 5839   5.714   2.865   2.461
 1647SOL    HW1 5840   5.742   2.842   2.368
 1647SOL    HW2 5841   5.718   2.964   2.474
 1648SOL     OW 5842   3.735   6.895   2.700
 1648SOL    HW1 5843   3.660   6.909   2.635
 1648SOL    HW2 5844   3.700   6.855   2.784
 1649SOL     OW 5845   2.470   0.283   3.278
 1649SOL    HW1 5846   2.512   0.259   3.365
 1649SOL    HW2 5847   2.534   0.266   3.203
 1650SOL     OW 5848   3.147   6.985   4.103
 1650SOL    HW1 5849   3.154   6.929   4.020
 1650SOL    HW2 5850   3.183   0.050   4.084
 1651SOL     OW 5851   1.221   0.076   1.979
 1651SOL    HW1 5852   1.273   0.046   2.059
 1651SOL    HW2 5853   1.124   0.057   1.994
 1652SOL     OW 5854   3.275   3.365   2.072
 1652SOL    HW1 5855   3.315   3.457   2.076
 1652SOL    HW2 5856   3.216   3.358   1.992
 1653SOL     OW 5857   1.198   5.055   1.275
 1653SOL    HW1 5858   1.284   5.078   1.320
 1653SOL    HW2 5859   1.214   5.043   1.177
 1654SOL     OW 5860   0.534   2.067   3.984
 1654SOL    HW1 5861   0.447   2.033   3.951
 1654SOL    HW2 5862   0.529   2.081   4.083
 1655SOL     OW 5863   4.605   4.228   5.544
 1655SOL    HW1 5864   4.517   4.201   5.584
 1655SOL    HW2 5865   4.591   4.258   5.450
 1656SOL     OW 5866   0.236   3.707   2.367
 1656SOL    HW1 5867   0.167   3.636   2.353
 1656SOL    HW2 5868   0.193   3.787   2.410
 1657SOL     OW 5869   1.028   0.733   5.247
 1657SOL    HW1 5870   1.010   0.662   5.316
 1657SOL    HW2 5871   0.970   0.717   5.167
 1658SOL     OW 5872   6.070   6.343   2.893
 1658SOL    HW1 5873   6.069   6.404   2.973
 1658SOL    HW2 5874   6.148   6.281   2.899
 1659SOL     OW 5875   5.330   2.169   6.355
 1659SOL    HW1 5876   5.273   2.203   6.280
 1659SOL    HW2 5877   5.354   2.244   6.416
 1660SOL     OW 5878   2.225   6.256   3.400
 1660SOL    HW1 5879   2.262   6.196   3.470
 1660SOL    HW2 5880   2.225   6.208   3.312
 1661SOL     OW 5881   3.082   0.309   2.821
 1661SOL    HW1 5882   2.985   0.292   2.803
 1661SOL    HW2 5883   3.136   0.277   2.744
 1662SOL     OW 5884   6.596   0.986   2.848
 1662SOL    HW1 5885   6.685   1.002   2.892
 1662SOL    HW2 5886   6.531   0.951   2.916
 1663SOL     OW 5887   1.891   0.360   3.696
 1663SOL    HW1 5888   1.869   0.450   3.732
 1663SOL    HW2 5889   1.981   0.361   3.654
 1664SOL     OW 5890   2.131   5.317   4.556
 1664SOL    HW1 5891   2.066   5.393   4.552
 1664SOL    HW2 5892   2.119   5.259   4.475
 1665SOL     OW 5893   0.373   1.062   3.649
 1665SOL    HW1 5894   0.414   1.022   3.731
 1665SOL    HW2 5895   0.404   1.156   3.639
 1666SOL     OW 5896   5.520   2.905   6.169
 1666SOL    HW1 5897   5.607   2.920   6.121
 1666SOL    HW2 5898   5.469   2.831   6.124
 1667SOL     OW 5899   6.843   0.675   0.544
 1667SOL    HW1 5900   6.827   0.581   0.514
 1667SOL    HW2 5901   6.939   0.699   0.529
 1668SOL     OW 5902   1.790   0.484   5.086
 1668SOL    HW1 5903   1.746   0.441   5.165
 1668SOL    HW2 5904   1.865   0.542   5.117
 1669SOL     OW 5905   5.795   5.764   6.206
 1669SOL    HW1 5906   5.773   5.858   6.179
 1669SOL    HW2 5907   5.883   5.738   6.167
 1670SOL     OW 5908   6.547   3.186   6.664
 1670SOL    HW1 5909   6.498   3.270   6.685
 1670SOL    HW2 5910   6.635   3.185   6.713
 1671SOL     OW 5911   5.309   5.364   0.303
 1671SOL    HW1 5912   5.233   5.316   0.347
 1671SOL    HW2 5913   5.278   5.456   0.278
 1672SOL     OW 5914   1.828   5.434   2.631
 1672SOL    HW1 5915   1.915   5.479   2.610
 1672SOL    HW2 5916   1.835   5.337   2.610
 1673SOL     OW 5917   6.098   2.842   3.340
 1673SOL    HW1 5918   6.085   2.873   3.246
 1673SOL    HW2 5919   6.094   2.743   3.343
 1674SOL     OW 5920   2.497   5.756   0.146
 1674SOL    HW1 5921   2.447   5.679   0.187
 1674SOL    HW2 5922   2.465   5.842   0.187
 1675SOL     OW 5923   4.429   2.230   0.378
 1675SOL    HW1 5924   4.480   2.170   0.440
 1675SOL    HW2 5925   4.381   2.300   0.432
 1676SOL     OW 5926   2.854   1.242   4.230
 1676SOL    HW1 5927   2.910   1.224   4.150
 1676SOL    HW2 5928   2.839   1.157   4.281
 1677SOL     OW 5929   6.010   0.338   5.935
 1677SOL    HW1 5930   5.938   0.388   5.983
 1677SOL    HW2 5931   6.085   0.400   5.912
 1678SOL     OW 5932   5.232   6.851   1.601
 1678SOL    HW1 5933   5.279   6.867   1.687
 1678SOL    HW2 5934   5.280   6.780   1.549
 1679SOL     OW 5935   5.527   4.446   0.163
 1679SOL    HW1 5936   5.606   4.492   0.123
 1679SOL    HW2 5937   5.449   4.509   0.165
 1680SOL     OW 5938   0.660   2.396   5.433
 1680SOL    HW1 5939   0.755   2.371   5.412
 1680SOL    HW2 5940   0.634   2.476   5.378
 1681SOL     OW 5941   4.315   5.172   0.264
 1681SOL    HW1 5942   4.367   5.208   0.187
 1681SOL    HW2 5943   4.362   5.195   0.350
 1682SOL     OW 5944   6.978   2.784   5.529
 1682SOL    HW1 5945   6.918   2.864   5.523
 1682SOL    HW2 5946   6.943   2.711   5.471
 1683SOL     OW 5947   5.387   5.446   5.974
 1683SOL    HW1 5948   5.435   5.493   6.049
 1683SOL    HW2 5949   5.454   5.410   5.909
 1684SOL     OW 5950   0.393   6.617   4.308
 1684SOL    HW1 5951   0.357   6.693   4.363
 1684SOL    HW2 5952   0.440   6.654   4.228
 1685SOL     OW 5953   0.598   1.763   0.408
 1685SOL    HW1 5954   0.584   1.830   0.480
 1685SOL    HW2 5955   0.688   1.777   0.367
 1686SOL     OW 5956   2.157   6.351   6.707
 1686SOL    HW1 5957   2.241   6.318   6.663
 1686SOL    HW2 5958   2.155   6.451   6.704
 1687SOL     OW 5959   3.294   6.322   2.076
 1687SOL    HW1 5960   3.371   6.283   2.127
 1687SOL    HW2 5961   3.287   6.276   1.987
 1688SOL     OW 5962   0.555   1.520   3.451
 1688SOL    HW1 5963   0.630   1.566   3.403
 1688SOL    HW2 5964   0.467   1.557   3.419
 1689SOL     OW 5965   3.337   1.919   1.556
 1689SOL    HW1 5966   3.401   1.986   1.520
 1689SOL    HW2 5967   3.260   1.909   1.492
 1690SOL     OW 5968   0.941   2.514   0.303
 1690SOL    HW1 5969   0.853   2.526   0.348
 1690SOL    HW2 5970   0.948   2.576   0.226
 1691SOL     OW 5971   4.230   4.660   2.597
 1691SOL    HW1 5972   4.271   4.669   2.507
 1691SOL    HW2 5973   4.292   4.610   2.657
 1692SOL     OW 5974   1.027   0.403   3.540
 1692SOL    HW1 5975   0.981   0.329   3.492
 1692SOL    HW2 5976   0.982   0.490   3.520
 1693SOL     OW 5977   3.778   1.985   3.584
 1693SOL    HW1 5978   3.730   2.008   3.500
 1693SOL    HW2 5979   3.797   1.886   3.586
 1694SOL     OW 5980   6.173   5.805   5.236
 1694SOL    HW1 5981   6.177   5.882   5.172
 1694SOL    HW2 5982   6.092   5.750   5.218
 1695SOL     OW 5983   3.851   1.215   5.954
 1695SOL    HW1 5984   3.840   1.167   6.041
 1695SOL    HW2 5985   3.781   1.185   5.890
 1696SOL     OW 5986   3.117   6.077   1.970
 1696SOL    HW1 5987   3.158   5.996   1.929
 1696SOL    HW2 5988   3.117   6.068   2.070
 1697SOL     OW 5989   1.141   1.924   2.104
 1697SOL    HW1 5990   1.134   2.011   2.055
 1697SOL    HW2 5991   1.157   1.942   2.201
 1698SOL     OW 5992   4.774   2.256   0.902
 1698SOL    HW1 5993   4.695   2.200   0.874
 1698SOL    HW2 5994   4.793   2.241   0.999
 1699SOL     OW 5995   2.637   4.672   0.456
 1699SOL    HW1 5996   2.567   4.616   0.500
 1699SOL    HW2 5997   2.647   4.758   0.505
 1700SOL     OW 5998   5.895   2.482   4.459
 1700SOL    HW1 5999   5.831   2.503   4.385
 1700SOL    HW2 6000   5.986   2.514   4.433
 1701SOL     OW 6001   6.211   2.890   5.163
 1701SOL    HW1 6002   6.122   2.853   5.138
 1701SOL    HW2 6003   6.212   2.989   5.148
 1702SOL     OW 6004   4.505   2.761   1.763
 1702SOL    HW1 6005   4.550   2.738   1.677
 1702SOL    HW2 6006   4.546   2.844   1.801
 1703SOL     OW 6007   1.798   3.330   0.413
 1703SOL    HW1 6008   1.704   3.300   0.422
 1703SOL    HW2 6009   1.807   3.424   0.447
 1704SOL     OW 6010   0.083   1.296   2.495
 1704SOL    HW1 6011   0.080   1.227   2.567
 1704SOL    HW2 6012   0.041   1.380   2.527
 1705SOL     OW 6013   3.760   2.958   2.555
 1705SOL    HW1 6014   3.778   3.041   2.609
 1705SOL    HW2 6015   3.790   2.973   2.461
 1706SOL     OW 6016   2.131   0.494   6.376
 1706SOL    HW1 6017   2.088   0.487   6.286
 1706SOL    HW2 6018   2.071   0.453   6.445
 1707SOL     OW 6019   5.061   1.493   2.609
 1707SOL    HW1 6020   4.992   1.498   2.537
 1707SOL    HW2 6021   5.017   1.467   2.695
 1708SOL     OW 6022   0.303   4.786   1.686
 1708SOL    HW1 6023   0.302   4.686   1.678
 1708SOL    HW2 6024   0.242   4.825   1.616
 1709SOL     OW 6025   2.739   5.469   4.764
 1709SOL    HW1 6026   2.817   5.484   4.825
 1709SOL    HW2 6027   2.750   5.383   4.715
 1710SOL     OW 6028   6.762   5.041   4.523
 1710SOL    HW1 6029   6.749   4.969   4.455
 1710SOL    HW2 6030   6.859   5.068   4.525
 1711SOL     OW 6031   1.443   4.445   5.209
 1711SOL    HW1 6032   1.358   4.496   5.222
 1711SOL    HW2 6033   1.438   4.358   5.258
 1712SOL     OW 6034   2.322   5.009   1.404
 1712SOL    HW1 6035   2.349   5.102   1.379
 1712SOL    HW2 6036   2.389   4.971   1.467
 1713SOL     OW 6037   2.125   3.129   0.800
 1713SOL    HW1 6038   2.166   3.039   0.787
 1713SOL    HW2 6039   2.196   3.199   0.796
 1714SOL     OW 6040   4.348   1.223   1.503
 1714SOL    HW1 6041   4.287   1.149   1.530
 1714SOL    HW2 6042   4.442   1.201   1.530
 1715SOL     OW 6043   0.370   2.886   3.905
 1715SOL    HW1 6044   0.288   2.903   3.849
 1715SOL    HW2 6045   0.433   2.828   3.853
 1716SOL     OW 6046   0.394   0.306   6.741
 1716SOL    HW1 6047   0.463   0.236   6.763
 1716SOL    HW2 6048   0.436   0.396   6.746
 1717SOL     OW 6049   3.164   0.342   6.726
 1717SOL    HW1 6050   3.256   0.313   6.753
 1717SOL    HW2 6051   3.112   0.368   6.808
 1718SOL     OW 6052   1.767   4.478   5.180
 1718SOL    HW1 6053   1.687   4.513   5.229
 1718SOL    HW2 6054   1.740   4.400   5.123
 1719SOL     OW 6055   1.781   3.389   1.053
 1719SOL    HW1 6056   1.764   3.480   1.090
 1719SOL    HW2 6057   1.804   3.326   1.127
 1720SOL     OW 6058   6.862   2.069   2.217
 1720SOL    HW1 6059   6.872   2.085   2.118
 1720SOL    HW2 6060   6.808   2.143   2.257
 1721SOL     OW 6061   1.350   6.295   4.304
 1721SOL    HW1 6062   1.403   6.347   4.236
 1721SOL    HW2 6063   1.401   6.214   4.330
 1722SOL     OW 6064   5.793   0.252   1.931
 1722SOL    HW1 6065   5.729   0.191   1.977
 1722SOL    HW2 6066   5.751   0.286   1.847
 1723SOL     OW 6067   5.679   1.022   2.964
 1723SOL    HW1 6068   5.647   1.116   2.969
 1723SOL    HW2 6069   5.701   0.989   3.056
 1724SOL     OW 6070   4.917   0.513   0.501
 1724SOL    HW1 6071   4.871   0.425   0.487
 1724SOL    HW2 6072   4.935   0.556   0.412
 1725SOL     OW 6073   3.526   5.581   1.983
 1725SOL    HW1 6074   3.527   5.628   1.895
 1725SOL    HW2 6075   3.576   5.495   1.976
 1726SOL     OW 6076   6.634   3.782   4.661
 1726SOL    HW1 6077   6.694   3.739   4.593
 1726SOL    HW2 6078   6.673   3.770   4.752
 1727SOL     OW 6079   2.602   3.454   5.366
 1727SOL    HW1 6080   2.591   3.551   5.390
 1727SOL    HW2 6081   2.686   3.443   5.312
 1728SOL     OW 6082   4.143   5.178   3.445
 1728SOL    HW1 6083   4.199   5.167   3.363
 1728SOL    HW2 6084   4.201   5.181   3.526
 1729SOL     OW 6085   1.215   3.590   1.936
 1729SOL    HW1 6086   1.245   3.685   1.946
 1729SOL    HW2 6087   1.290   3.529   1.963
 1730SOL     OW 6088   5.412   1.873   4.780
 1730SOL    HW1 6089   5.438   1.777   4.782
 1730SOL    HW2 6090   5.494   1.930   4.777
 1731SOL     OW 6091   0.128   6.901   0.542
 1731SOL    HW1 6092   0.082   6.942   0.464
 1731SOL    HW2 6093   0.165   6.973   0.601
 1732SOL     OW 6094   0.941   4.621   0.142
 1732SOL    HW1 6095   0.952   4.556   0.067
 1732SOL    HW2 6096   1.019   4.684   0.144
 1733SOL     OW 6097   0.826   4.412   6.902
 1733SOL    HW1 6098   0.885   4.380   6.828
 1733SOL    HW2 6099   0.784   4.333   6.948
 1734SOL     OW 6100   5.357   4.144   1.044
 1734SOL    HW1 6101   5.395   4.236   1.034
 1734SOL    HW2 6102   5.339   4.105   0.954
 1735SOL     OW 6103   5.115   5.798   0.010
 1735SOL    HW1 6104   5.109   5.707   0.051
 1735SOL    HW2 6105   5.095   5.867   0.080
 1736SOL     OW 6106   3.003   3.266   0.293
 1736SOL    HW1 6107   3.019   3.175   0.255
 1736SOL    HW2 6108   3.084   3.323   0.279
 1737SOL     OW 6109   0.611   5.637   3.405
 1737SOL    HW1 6110   0.702   5.641   3.363
 1737SOL    HW2 6111   0.618   5.594   3.495
 1738SOL     OW 6112   1.030   1.420   1.954
 1738SOL    HW1 6113   0.982   1.394   2.037
 1738SOL    HW2 6114   1.092   1.497   1.973
 1739SOL     OW 6115   4.180   2.460   6.340
 1739SOL    HW1 6116   4.215   2.551   6.319
 1739SOL    HW2 6117   4.251   2.408   6.387
 1740SOL     OW 6118   0.399   1.763   5.739
 1740SOL    HW1 6119   0.340   1.821   5.681
 1740SOL    HW2 6120   0.486   1.747   5.691
 1741SOL     OW 6121   1.794   1.142   2.447
 1741SOL    HW1 6122   1.889   1.171   2.439
 1741SOL    HW2 6123   1.786   1.046   2.418
 1742SOL     OW 6124   5.964   6.067   4.311
 1742SOL    HW1 6125   5.946   6.162   4.286
 1742SOL    HW2 6126   6.057   6.059   4.347
 1743SOL     OW 6127   5.010   1.581   0.246
 1743SOL    HW1 6128   4.918   1.555   0.274
 1743SOL    HW2 6129   5.008   1.673   0.206
 1744SOL     OW 6130   3.210   6.269   1.804
 1744SOL    HW1 6131   3.169   6.195   1.857
 1744SOL    HW2 6132   3.139   6.319   1.755
 1745SOL     OW 6133   6.955   3.120   4.942
 1745SOL    HW1 6134   0.014   3.115   4.994
 1745SOL    HW2 6135   6.970   3.086   4.849
 1746SOL     OW 6136   2.196   1.192   5.924
 1746SOL    HW1 6137   2.190   1.177   5.825
 1746SOL    HW2 6138   2.291   1.211   5.949
 1747SOL     OW 6139   5.035   6.840   5.224
 1747SOL    HW1 6140   5.115   6.786   5.252
 1747SOL    HW2 6141   5.014   6.821   5.128
 1748SOL     OW 6142   5.668   1.106   1.558
 1748SOL    HW1 6143   5.727   1.175   1.600
 1748SOL    HW2 6144   5.677   1.020   1.608
 1749SOL     OW 6145   5.104   0.295   6.043
 1749SOL    HW1 6146   5.142   0.291   5.951
 1749SOL    HW2 6147   5.132   0.214   6.095
 1750SOL     OW 6148   4.214   0.253   4.137
 1750SOL    HW1 6149   4.134   0.252   4.077
 1750SOL    HW2 6150   4.234   0.159   4.167
 1751SOL     OW 6151   1.829   5.807   4.628
 1751SOL    HW1 6152   1.867   5.877   4.568
 1751SOL    HW2 6153   1.730   5.821   4.638
 1752SOL     OW 6154   6.746   1.949   6.394
 1752SOL    HW1 6155   6.726   1.949   6.296
 1752SOL    HW2 6156   6.844   1.935   6.407
 1753SOL     OW 6157   2.485   6.290   2.292
 1753SOL    HW1 6158   2.500   6.361   2.360
 1753SOL    HW2 6159   2.434   6.328   2.215
 1754SOL     OW 6160   3.101   3.071   1.901
 1754SOL    HW1 6161   3.101   3.040   1.996
 1754SOL    HW2 6162   3.094   3.171   1.898
 1755SOL     OW 6163   6.356   4.431   0.344
 1755SOL    HW1 6164   6.426   4.412   0.275
 1755SOL    HW2 6165   6.329   4.346   0.389
 1756SOL     OW 6166   5.741   5.099   4.415
 1756SOL    HW1 6167   5.720   5.120   4.320
 1756SOL    HW2 6168   5.709   5.174   4.474
 1757SOL     OW 6169   3.577   0.436   5.298
 1757SOL    HW1 6170   3.582   0.526   5.341
 1757SOL    HW2 6171   3.590   0.365   5.368
 1758SOL     OW 6172   3.373   1.643   3.188
 1758SOL    HW1 6173   3.292   1.703   3.183
 1758SOL    HW2 6174   3.344   1.549   3.206
 1759SOL     OW 6175   0.275   5.540   6.103
 1759SOL    HW1 6176   0.285   5.586   6.191
 1759SOL    HW2 6177   0.352   5.563   6.044
 1760SOL     OW 6178   4.863   6.759   2.070
 1760SOL    HW1 6179   4.905   6.834   2.020
 1760SOL    HW2 6180   4.804   6.707   2.008
 1761SOL     OW 6181   5.410   3.216   1.545
 1761SOL    HW1 6182   5.483   3.273   1.507
 1761SOL    HW2 6183   5.402   3.131   1.492
 1762SOL     OW 6184   5.812   3.032   0.596
 1762SOL    HW1 6185   5.726   2.981   0.597
 1762SOL    HW2 6186   5.795   3.125   0.563
 1763SOL     OW 6187   2.237   2.936   3.941
 1763SOL    HW1 6188   2.229   3.024   3.893
 1763SOL    HW2 6189   2.244   2.953   4.040
 1764SOL     OW 6190   6.655   3.415   3.755
 1764SOL    HW1 6191   6.597   3.370   3.688
 1764SOL    HW2 6192   6.751   3.407   3.727
 1765SOL     OW 6193   2.174   3.605   6.317
 1765SOL    HW1 6194   2.176   3.646   6.225
 1765SOL    HW2 6195   2.202   3.509   6.311
 1766SOL     OW 6196   6.133   3.622   5.759
 1766SOL    HW1 6197   6.227   3.640   5.789
 1766SOL    HW2 6198   6.125   3.528   5.728
 1767SOL     OW 6199   6.532   4.785   0.962
 1767SOL    HW1 6200   6.517   4.837   0.879
 1767SOL    HW2 6201   6.449   4.734   0.985
 1768SOL     OW 6202   6.337   6.631   3.496
 1768SOL    HW1 6203   6.345   6.731   3.494
 1768SOL    HW2 6204   6.250   6.606   3.538
 1769SOL     OW 6205   4.899   0.757   3.207
 1769SOL    HW1 6206   4.872   0.662   3.223
 1769SOL    HW2 6207   4.965   0.786   3.277
 1770SOL     OW 6208   3.582   5.723   5.589
 1770SOL    HW1 6209   3.680   5.701   5.586
 1770SOL    HW2 6210   3.570   5.812   5.634
 1771SOL     OW 6211   4.643   6.598   6.630
 1771SOL    HW1 6212   4.739   6.587   6.658
 1771SOL    HW2 6213   4.609   6.685   6.665
 1772SOL     OW 6214   2.808   6.285   2.829
 1772SOL    HW1 6215   2.788   6.189   2.811
 1772SOL    HW2 6216   2.779   6.308   2.922
 1773SOL     OW 6217   1.088   0.413   0.805
 1773SOL    HW1 6218   1.123   0.501   0.836
 1773SOL    HW2 6219   1.000   0.425   0.759
 1774SOL     OW 6220   2.937   4.904   2.653
 1774SOL    HW1 6221   2.847   4.940   2.627
 1774SOL    HW2 6222   3.007   4.974   2.637
 1775SOL     OW 6223   0.907   4.883   1.300
 1775SOL    HW1 6224   0.990   4.827   1.297
 1775SOL    HW2 6225   0.892   4.924   1.210
 1776SOL     OW 6226   3.015   6.363   5.534
 1776SOL    HW1 6227   3.052   6.423   5.605
 1776SOL    HW2 6228   3.002   6.272   5.571
 1777SOL     OW 6229   3.126   6.588   0.295
 1777SOL    HW1 6230   3.087   6.591   0.387
 1777SOL    HW2 6231   3.180   6.505   0.284
 1778SOL     OW 6232   6.850   3.140   5.886
 1778SOL    HW1 6233   6.830   3.228   5.929
 1778SOL    HW2 6234   6.781   3.119   5.817
 1779SOL     OW 6235   3.722   0.305   5.631
 1779SOL    HW1 6236   3.712   0.233   5.561
 1779SOL    HW2 6237   3.632   0.342   5.652
 1780SOL     OW 6238   3.238   3.288   6.956
 1780SOL    HW1 6239   3.217   3.220   6.886
 1780SOL    HW2 6240   3.283   3.243   0.006
 1781SOL     OW 6241   3.082   5.814   3.697
 1781SOL    HW1 6242   3.007   5.863   3.742
 1781SOL    HW2 6243   3.050   5.778   3.609
 1782SOL     OW 6244   3.214   1.478   4.470
 1782SOL    HW1 6245   3.235   1.567   4.510
 1782SOL    HW2 6246   3.115   1.464   4.467
 1783SOL     OW 6247   2.287   6.069   6.938
 1783SOL    HW1 6248   2.312   6.003   7.008
 1783SOL    HW2 6249   2.250   6.022   6.858
 1784SOL     OW 6250   2.734   0.265   6.067
 1784SOL    HW1 6251   2.637   0.288   6.075
 1784SOL    HW2 6252   2.781   0.337   6.015
 1785SOL     OW 6253   6.704   5.505   1.736
 1785SOL    HW1 6254   6.678   5.420   1.692
 1785SOL    HW2 6255   6.629   5.536   1.795
 1786SOL     OW 6256   3.960   2.706   1.715
 1786SOL    HW1 6257   3.876   2.751   1.747
 1786SOL    HW2 6258   4.018   2.772   1.668
 1787SOL     OW 6259   3.682   0.852   5.149
 1787SOL    HW1 6260   3.591   0.863   5.190
 1787SOL    HW2 6261   3.678   0.875   5.052
 1788SOL     OW 6262   1.280   4.906   5.550
 1788SOL    HW1 6263   1.278   5.006   5.554
 1788SOL    HW2 6264   1.374   4.874   5.565
 1789SOL     OW 6265   5.854   6.945   6.795
 1789SOL    HW1 6266   5.867   6.901   6.884
 1789SOL    HW2 6267   5.942   6.975   6.760
 1790SOL     OW 6268   2.749   6.786   2.645
 1790SOL    HW1 6269   2.693   6.839   2.709
 1790SOL    HW2 6270   2.760   6.693   2.678
 1791SOL     OW 6271   0.412   6.380   2.870
 1791SOL    HW1 6272   0.409   6.281   2.885
 1791SOL    HW2 6273   0.498   6.405   2.826
 1792SOL     OW 6274   1.240   3.577   4.068
 1792SOL    HW1 6275   1.277   3.659   4.023
 1792SOL    HW2 6276   1.304   3.546   4.139
 1793SOL     OW 6277   0.230   0.424   3.775
 1793SOL    HW1 6278   0.197   0.393   3.687
 1793SOL    HW2 6279   0.319   0.469   3.763
 1794SOL     OW 6280   4.401   5.874   6.453
 1794SOL    HW1 6281   4.453   5.789   6.467
 1794SOL    HW2 6282   4.395   5.893   6.355
 1795SOL     OW 6283   0.488   3.184   6.690
 1795SOL    HW1 6284   0.490   3.283   6.675
 1795SOL    HW2 6285   0.483   3.166   6.789
 1796SOL     OW 6286   3.655   0.623   5.827
 1796SOL    HW1 6287   3.617   0.701   5.877
 1796SOL    HW2 6288   3.725   0.579   5.883
 1797SOL     OW 6289   0.217   1.393   1.723
 1797SOL    HW1 6290   0.291   1.393   1.655
 1797SOL    HW2 6291   0.239   1.458   1.796
 1798SOL     OW 6292   5.637   1.679   3.061
 1798SOL    HW1 6293   5.572   1.673   2.985
 1798SOL    HW2 6294   5.705   1.749   3.041
 1799SOL     OW 6295   2.306   1.721   0.076
 1799SOL    HW1 6296   2.388   1.706   0.020
 1799SOL    HW2 6297   2.243   1.781   0.028
 1800SOL     OW 6298   3.200   4.979   2.573
 1800SOL    HW1 6299   3.224   4.916   2.499
 1800SOL    HW2 6300   3.216   5.073   2.542
 1801SOL     OW 6301   5.668   6.854   0.793
 1801SOL    HW1 6302   5.740   6.863   0.862
 1801SOL    HW2 6303   5.686   6.774   0.736
 1802SOL     OW 6304   5.989   4.832   3.611
 1802SOL    HW1 6305   6.079   4.870   3.592
 1802SOL    HW2 6306   5.993   4.732   3.606
 1803SOL     OW 6307   5.789   5.243   1.224
 1803SOL    HW1 6308   5.708   5.303   1.226
 1803SOL    HW2 6309   5.784   5.179   1.299
 1804SOL     OW 6310   3.067   3.743   6.137
 1804SOL    HW1 6311   3.060   3.828   6.189
 1804SOL    HW2 6312   3.044   3.666   6.196
 1805SOL     OW 6313   5.938   2.998   6.751
 1805SOL    HW1 6314   6.000   3.053   6.696
 1805SOL    HW2 6315   5.971   2.996   6.846
 1806SOL     OW 6316   6.803   0.438   0.451
 1806SOL    HW1 6317   6.796   0.405   0.357
 1806SOL    HW2 6318   6.750   0.377   0.511
 1807SOL     OW 6319   6.511   2.104   5.967
 1807SOL    HW1 6320   6.484   2.196   5.994
 1807SOL    HW2 6321   6.435   2.059   5.920
 1808SOL     OW 6322   2.365   4.880   4.329
 1808SOL    HW1 6323   2.426   4.935   4.387
 1808SOL    HW2 6324   2.329   4.804   4.383
 1809SOL     OW 6325   3.769   0.490   6.360
 1809SOL    HW1 6326   3.795   0.536   6.445
 1809SOL    HW2 6327   3.837   0.511   6.289
 1810SOL     OW 6328   3.216   6.650   2.700
 1810SOL    HW1 6329   3.282   6.611   2.764
 1810SOL    HW2 6330   3.123   6.632   2.732
 1811SOL     OW 6331   5.885   5.753   2.812
 1811SOL    HW1 6332   5.975   5.771   2.852
 1811SOL    HW2 6333   5.873   5.809   2.730
 1812SOL     OW 6334   4.617   4.893   6.152
 1812SOL    HW1 6335   4.685   4.965   6.161
 1812SOL    HW2 6336   4.565   4.886   6.236
 1813SOL     OW 6337   6.800   5.453   5.302
 1813SOL    HW1 6338   6.780   5.508   5.383
 1813SOL    HW2 6339   6.888   5.408   5.314
 1814SOL     OW 6340   4.590   6.347   2.533
 1814SOL    HW1 6341   4.652   6.278   2.494
 1814SOL    HW2 6342   4.643   6.412   2.588
 1815SOL     OW 6343   0.282   1.382   2.749
 1815SOL    HW1 6344   0.236   1.339   2.826
 1815SOL    HW2 6345   0.367   1.425   2.780
 1816SOL     OW 6346   1.175   4.973   0.991
 1816SOL    HW1 6347   1.076   4.985   0.976
 1816SOL    HW2 6348   1.210   4.905   0.927
 1817SOL     OW 6349   1.428   5.398   1.780
 1817SOL    HW1 6350   1.348   5.446   1.743
 1817SOL    HW2 6351   1.495   5.465   1.812
 1818SOL     OW 6352   1.115   1.505   3.432
 1818SOL    HW1 6353   1.078   1.414   3.416
 1818SOL    HW2 6354   1.072   1.545   3.513
 1819SOL     OW 6355   0.480   4.087   2.292
 1819SOL    HW1 6356   0.447   4.114   2.202
 1819SOL    HW2 6357   0.578   4.105   2.298
 1820SOL     OW 6358   5.805   0.129   2.819
 1820SOL    HW1 6359   5.829   0.141   2.915
 1820SOL    HW2 6360   5.831   0.037   2.790
 1821SOL     OW 6361   1.615   1.841   3.860
 1821SOL    HW1 6362   1.645   1.882   3.947
 1821SOL    HW2 6363   1.651   1.748   3.854
 1822SOL     OW 6364   2.999   3.876   2.289
 1822SOL    HW1 6365   2.916   3.931   2.296
 1822SOL    HW2 6366   2.974   3.779   2.278
 1823SOL     OW 6367   4.670   0.151   2.562
 1823SOL    HW1 6368   4.658   0.243   2.600
 1823SOL    HW2 6369   4.672   0.155   2.462
 1824SOL     OW 6370   5.458   2.288   1.298
 1824SOL    HW1 6371   5.487   2.193   1.291
 1824SOL    HW2 6372   5.537   2.348   1.287
 1825SOL     OW 6373   0.634   0.319   2.040
 1825SOL    HW1 6374   0.542   0.349   2.068
 1825SOL    HW2 6375   0.703   0.375   2.087
 1826SOL     OW 6376   2.726   6.101   6.359
 1826SOL    HW1 6377   2.672   6.034   6.410
 1826SOL    HW2 6378   2.821   6.072   6.357
 1827SOL     OW 6379   6.034   7.027   1.710
 1827SOL    HW1 6380   6.071   0.073   1.767
 1827SOL    HW2 6381   6.087   7.021   1.625
 1828SOL     OW 6382   1.481   2.953   6.775
 1828SOL    HW1 6383   1.496   3.052   6.776
 1828SOL    HW2 6384   1.384   2.934   6.789
 1829SOL     OW 6385   5.886   5.289   2.076
 1829SOL    HW1 6386   5.905   5.322   1.984
 1829SOL    HW2 6387   5.841   5.200   2.071
 1830SOL     OW 6388   5.303   6.576   3.904
 1830SOL    HW1 6389   5.312   6.503   3.971
 1830SOL    HW2 6390   5.226   6.634   3.928
 1831SOL     OW 6391   5.478   0.842   3.174
 1831SOL    HW1 6392   5.407   0.911   3.164
 1831SOL    HW2 6393   5.436   0.755   3.201
 1832SOL     OW 6394   4.650   2.279   0.201
 1832SOL    HW1 6395   4.658   2.373   0.234
 1832SOL    HW2 6396   4.579   2.232   0.254
 1833SOL     OW 6397   5.360   2.018   5.830
 1833SOL    HW1 6398   5.294   1.980   5.766
 1833SOL    HW2 6399   5.408   1.944   5.877
 1834SOL     OW 6400   2.892   3.905   0.338
 1834SOL    HW1 6401   2.912   3.892   0.241
 1834SOL    HW2 6402   2.933   3.991   0.369
 1835SOL     OW 6403   1.659   4.471   6.921
 1835SOL    HW1 6404   1.627   4.522   6.841
 1835SOL    HW2 6405   1.593   4.483   6.996
 1836SOL     OW 6406   0.949   6.811   0.356
 1836SOL    HW1 6407   0.980   6.766   0.440
 1836SOL    HW2 6408   1.028   6.841   0.303
 1837SOL     OW 6409   0.756   2.420   4.725
 1837SOL    HW1 6410   0.661   2.390   4.734
 1837SOL    HW2 6411   0.760   2.500   4.664
 1838SOL     OW 6412   0.849   2.774   5.243
 1838SOL    HW1 6413   0.751   2.753   5.247
 1838SOL    HW2 6414   0.891   2.752   5.331
 1839SOL     OW 6415   0.812   1.895   6.443
 1839SOL    HW1 6416   0.896   1.913   6.392
 1839SOL    HW2 6417   0.754   1.834   6.391
 1840SOL     OW 6418   0.889   5.288   1.190
 1840SOL    HW1 6419   0.966   5.340   1.226
 1840SOL    HW2 6420   0.856   5.224   1.259
 1841SOL     OW 6421   1.056   2.852   3.797
 1841SOL    HW1 6422   1.069   2.876   3.894
 1841SOL    HW2 6423   1.143   2.855   3.750
 1842SOL     OW 6424   0.866   5.438   6.351
 1842SOL    HW1 6425   0.878   5.342   6.323
 1842SOL    HW2 6426   0.790   5.445   6.416
 1843SOL     OW 6427   4.508   2.048   5.030
 1843SOL    HW1 6428   4.550   2.012   4.946
 1843SOL    HW2 6429   4.489   2.145   5.019
 1844SOL     OW 6430   5.670   4.140   3.514
 1844SOL    HW1 6431   5.573   4.134   3.535
 1844SOL    HW2 6432   5.687   4.099   3.425
 1845SOL     OW 6433   4.214   6.299   0.939
 1845SOL    HW1 6434   4.170   6.340   0.859
 1845SOL    HW2 6435   4.258   6.370   0.993
 1846SOL     OW 6436   3.710   1.531   5.554
 1846SOL    HW1 6437   3.729   1.555   5.650
 1846SOL    HW2 6438   3.794   1.498   5.511
 1847SOL     OW 6439   1.481   6.603   6.712
 1847SOL    HW1 6440   1.507   6.636   6.803
 1847SOL    HW2 6441   1.409   6.534   6.721
 1848SOL     OW 6442   2.030   0.362   2.930
 1848SOL    HW1 6443   2.072   0.278   2.965
 1848SOL    HW2 6444   1.947   0.383   2.981
 1849SOL     OW 6445   2.907   0.597   6.683
 1849SOL    HW1 6446   2.960   0.532   6.628
 1849SOL    HW2 6447   2.828   0.628   6.629
 1850SOL     OW 6448   5.180   1.717   2.103
 1850SOL    HW1 6449   5.168   1.736   2.005
 1850SOL    HW2 6450   5.097   1.675   2.139
 1851SOL     OW 6451   6.245   3.897   2.733
 1851SOL    HW1 6452   6.333   3.851   2.721
 1851SOL    HW2 6453   6.171   3.837   2.702
 1852SOL     OW 6454   5.137   1.930   5.636
 1852SOL    HW1 6455   5.173   1.909   5.545
 1852SOL    HW2 6456   5.067   2.001   5.629
 1853SOL     OW 6457   1.104   4.552   0.921
 1853SOL    HW1 6458   1.202   4.537   0.932
 1853SOL    HW2 6459   1.055   4.508   0.996
 1854SOL     OW 6460   2.765   5.050   3.805
 1854SOL    HW1 6461   2.843   5.017   3.753
 1854SOL    HW2 6462   2.686   4.990   3.788
 1855SOL     OW 6463   6.370   4.357   2.186
 1855SOL    HW1 6464   6.456   4.373   2.234
 1855SOL    HW2 6465   6.362   4.260   2.163
 1856SOL     OW 6466   5.459   2.977   6.622
 1856SOL    HW1 6467   5.548   3.011   6.591
 1856SOL    HW2 6468   5.388   3.045   6.601
 1857SOL     OW 6469   5.131   1.496   3.375
 1857SOL    HW1 6470   5.104   1.584   3.414
 1857SOL    HW2 6471   5.078   1.478   3.293
 1858SOL     OW 6472   5.760   3.633   2.728
 1858SOL    HW1 6473   5.688   3.569   2.704
 1858SOL    HW2 6474   5.726   3.698   2.796
 1859SOL     OW 6475   6.001   1.546   2.930
 1859SOL    HW1 6476   5.905   1.520   2.930
 1859SOL    HW2 6477   6.048   1.502   3.006
 1860SOL     OW 6478   3.985   1.988   4.799
 1860SOL    HW1 6479   4.047   2.056   4.838
 1860SOL    HW2 6480   4.036   1.924   4.742
 1861SOL     OW 6481   5.398   5.743   2.586
 1861SOL    HW1 6482   5.324   5.690   2.627
 1861SOL    HW2 6483   5.464   5.681   2.545
 1862SOL     OW 6484   2.295   1.262   0.657
 1862SOL    HW1 6485   2.302   1.165   0.681
 1862SOL    HW2 6486   2.326   1.318   0.733
 1863SOL     OW 6487   1.905   2.305   1.808
 1863SOL    HW1 6488   1.968   2.251   1.864
 1863SOL    HW2 6489   1.833   2.344   1.866
 1864SOL     OW 6490   0.979   6.457   3.012
 1864SOL    HW1 6491   0.931   6.396   2.948
 1864SOL    HW2 6492   1.002   6.542   2.966
 1865SOL     OW 6493   5.135   2.586   6.776
 1865SOL    HW1 6494   5.147   2.509   6.839
 1865SOL    HW2 6495   5.208   2.652   6.791
 1866SOL     OW 6496   5.232   5.312   1.897
 1866SOL    HW1 6497   5.323   5.353   1.899
 1866SOL    HW2 6498   5.201   5.303   1.802
 1867SOL     OW 6499   0.570   4.693   6.449
 1867SOL    HW1 6500   0.649   4.720   6.504
 1867SOL    HW2 6501   0.511   4.773   6.434
 1868SOL     OW 6502   6.908   4.305   5.714
 1868SOL    HW1 6503   6.962   4.320   5.797
 1868SOL    HW2 6504   6.900   4.207   5.697
 1869SOL     OW 6505   6.469   1.806   4.383
 1869SOL    HW1 6506   6.418   1.735   4.433
 1869SOL    HW2 6507   6.469   1.890   4.437
 1870SOL     OW 6508   2.228   4.450   4.648
 1870SOL    HW1 6509   2.255   4.410   4.735
 1870SOL    HW2 6510   2.149   4.510   4.662
 1871SOL     OW 6511   1.459   0.446   0.832
 1871SOL    HW1 6512   1.421   0.395   0.755
 1871SOL    HW2 6513   1.388   0.504   0.872
 1872SOL     OW 6514   1.635   4.613   6.676
 1872SOL    HW1 6515   1.677   4.525   6.653
 1872SOL    HW2 6516   1.554   4.628   6.619
 1873SOL     OW 6517   4.929   0.243   7.017
 1873SOL    HW1 6518   4.861   0.209   0.055
 1873SOL    HW2 6519   5.015   0.193   0.003
 1874SOL     OW 6520   0.626   4.206   2.739
 1874SOL    HW1 6521   0.584   4.162   2.818
 1874SOL    HW2 6522   0.712   4.250   2.767
 1875SOL     OW 6523   0.900   6.392   1.842
 1875SOL    HW1 6524   0.831   6.444   1.892
 1875SOL    HW2 6525   0.973   6.364   1.904
 1876SOL     OW 6526   2.386   6.564   3.537
 1876SOL    HW1 6527   2.362   6.520   3.624
 1876SOL    HW2 6528   2.312   6.549   3.471
 1877SOL     OW 6529   0.428   6.925   3.796
 1877SOL    HW1 6530   0.528   6.927   3.785
 1877SOL    HW2 6531   0.396   7.017   3.820
 1878SOL     OW 6532   6.400   2.559   5.866
 1878SOL    HW1 6533   6.409   2.645   5.915
 1878SOL    HW2 6534   6.395   2.483   5.932
 1879SOL     OW 6535   1.395   4.554   5.901
 1879SOL    HW1 6536   1.462   4.481   5.912
 1879SOL    HW2 6537   1.309   4.516   5.866
 1880SOL     OW 6538   6.152   0.482   4.816
 1880SOL    HW1 6539   6.083   0.410   4.804
 1880SOL    HW2 6540   6.238   0.454   4.773
 1881SOL     OW 6541   6.700   2.041   0.092
 1881SOL    HW1 6542   6.615   2.065   0.044
 1881SOL    HW2 6543   6.744   2.124   0.126
 1882SOL     OW 6544   1.568   6.295   6.905
 1882SOL    HW1 6545   1.666   6.310   6.893
 1882SOL    HW2 6546   1.540   6.215   6.852
 1883SOL     OW 6547   0.543   1.706   4.206
 1883SOL    HW1 6548   0.512   1.668   4.119
 1883SOL    HW2 6549   0.593   1.791   4.189
 1884SOL     OW 6550   6.649   2.191   1.254
 1884SOL    HW1 6551   6.640   2.213   1.156
 1884SOL    HW2 6552   6.558   2.194   1.296
 1885SOL     OW 6553   2.652   1.367   4.085
 1885SOL    HW1 6554   2.725   1.323   4.138
 1885SOL    HW2 6555   2.608   1.437   4.141
 1886SOL     OW 6556   0.836   6.120   2.900
 1886SOL    HW1 6557   0.822   6.147   2.805
 1886SOL    HW2 6558   0.751   6.134   2.951
 1887SOL     OW 6559   2.517   6.107   6.116
 1887SOL    HW1 6560   2.564   6.108   6.205
 1887SOL    HW2 6561   2.585   6.109   6.043
 1888SOL     OW 6562   2.448   0.615   3.171
 1888SOL    HW1 6563   2.377   0.549   3.147
 1888SOL    HW2 6564   2.538   0.574   3.157
 1889SOL     OW 6565   0.632   3.353   3.072
 1889SOL    HW1 6566   0.620   3.415   2.994
 1889SOL    HW2 6567   0.602   3.261   3.047
 1890SOL     OW 6568   1.312   5.953   4.749
 1890SOL    HW1 6569   1.222   5.921   4.719
 1890SOL    HW2 6570   1.339   5.903   4.832
 1891SOL     OW 6571   3.582   3.521   3.267
 1891SOL    HW1 6572   3.512   3.472   3.320
 1891SOL    HW2 6573   3.648   3.455   3.231
 1892SOL     OW 6574   0.858   0.107   2.742
 1892SOL    HW1 6575   0.821   0.048   2.813
 1892SOL    HW2 6576   0.910   0.182   2.784
 1893SOL     OW 6577   3.566   3.237   4.298
 1893SOL    HW1 6578   3.503   3.304   4.259
 1893SOL    HW2 6579   3.528   3.201   4.384
 1894SOL     OW 6580   3.193   3.459   4.171
 1894SOL    HW1 6581   3.252   3.539   4.180
 1894SOL    HW2 6582   3.243   3.386   4.124
 1895SOL     OW 6583   1.522   5.970   0.371
 1895SOL    HW1 6584   1.559   6.030   0.441
 1895SOL    HW2 6585   1.520   5.876   0.405
 1896SOL     OW 6586   6.339   2.563   1.198
 1896SOL    HW1 6587   6.293   2.500   1.261
 1896SOL    HW2 6588   6.435   2.573   1.227
 1897SOL     OW 6589   1.172   4.403   4.162
 1897SOL    HW1 6590   1.246   4.361   4.215
 1897SOL    HW2 6591   1.090   4.348   4.169
 1898SOL     OW 6592   1.817   5.919   2.842
 1898SOL    HW1 6593   1.859   5.881   2.924
 1898SOL    HW2 6594   1.721   5.941   2.860
 1899SOL     OW 6595   0.229   1.172   2.288
 1899SOL    HW1 6596   0.164   1.215   2.351
 1899SOL    HW2 6597   0.319   1.168   2.330
 1900SOL     OW 6598   2.975   6.708   6.713
 1900SOL    HW1 6599   3.015   6.776   6.651
 1900SOL    HW2 6600   2.964   6.748   6.804
 1901SOL     OW 6601   2.807   3.393   2.132
 1901SOL    HW1 6602   2.723   3.340   2.123
 1901SOL    HW2 6603   2.819   3.450   2.051
 1902SOL     OW 6604   1.422   6.807   5.145
 1902SOL    HW1 6605   1.511   6.824   5.188
 1902SOL    HW2 6606   1.433   6.737   5.075
 1903SOL     OW 6607   1.135   1.654   4.420
 1903SOL    HW1 6608   1.100   1.732   4.471
 1903SOL    HW2 6609   1.139   1.677   4.323
 1904SOL     OW 6610   6.025   5.920   1.801
 1904SOL    HW1 6611   6.091   5.990   1.772
 1904SOL    HW2 6612   5.939   5.933   1.751
 1905SOL     OW 6613   0.926   1.806   4.145
 1905SOL    HW1 6614   0.996   1.735   4.132
 1905SOL    HW2 6615   0.908   1.850   4.057
 1906SOL     OW 6616   0.747   6.441   4.541
 1906SOL    HW1 6617   0.691   6.514   4.581
 1906SOL    HW2 6618   0.783   6.382   4.614
 1907SOL     OW 6619   5.987   3.039   0.820
 1907SOL    HW1 6620   5.931   3.013   0.742
 1907SOL    HW2 6621   6.018   2.957   0.868
 1908SOL     OW 6622   3.855   0.861   1.572
 1908SOL    HW1 6623   3.871   0.903   1.482
 1908SOL    HW2 6624   3.794   0.920   1.625
 1909SOL     OW 6625   6.403   5.486   4.717
 1909SOL    HW1 6626   6.371   5.569   4.762
 1909SOL    HW2 6627   6.467   5.510   4.645
 1910SOL     OW 6628   0.467   6.037   5.704
 1910SOL    HW1 6629   0.379   6.024   5.658
 1910SOL    HW2 6630   0.488   6.135   5.707
 1911SOL     OW 6631   5.772   5.988   4.510
 1911SOL    HW1 6632   5.743   6.078   4.541
 1911SOL    HW2 6633   5.811   5.995   4.418
 1912SOL     OW 6634   3.461   5.155   2.399
 1912SOL    HW1 6635   3.509   5.125   2.481
 1912SOL    HW2 6636   3.440   5.253   2.406
 1913SOL     OW 6637   3.137   4.299   6.859
 1913SOL    HW1 6638   3.134   4.337   6.766
 1913SOL    HW2 6639   3.214   4.234   6.865
 1914SOL     OW 6640   3.679   4.380   7.019
 1914SOL    HW1 6641   3.712   4.361   0.085
 1914SOL    HW2 6642   3.585   4.413   7.024
 1915SOL     OW 6643   3.511   3.087   6.990
 1915SOL    HW1 6644   3.579   3.025   0.003
 1915SOL    HW2 6645   3.557   3.166   6.950
 1916SOL     OW 6646   4.074   0.884   2.221
 1916SOL    HW1 6647   4.120   0.931   2.297
 1916SOL    HW2 6648   3.996   0.938   2.190
 1917SOL     OW 6649   1.959   4.037   1.558
 1917SOL    HW1 6650   2.035   4.075   1.612
 1917SOL    HW2 6651   1.989   4.026   1.463
 1918SOL     OW 6652   5.377   2.381   3.700
 1918SOL    HW1 6653   5.305   2.318   3.670
 1918SOL    HW2 6654   5.340   2.474   3.702
 1919SOL     OW 6655   6.278   2.405   6.376
 1919SOL    HW1 6656   6.260   2.324   6.321
 1919SOL    HW2 6657   6.316   2.477   6.319
 1920SOL     OW 6658   4.469   3.485   0.422
 1920SOL    HW1 6659   4.472   3.510   0.326
 1920SOL    HW2 6660   4.455   3.567   0.478
 1921SOL     OW 6661   2.295   2.388   0.496
 1921SOL    HW1 6662   2.196   2.377   0.504
 1921SOL    HW2 6663   2.341   2.333   0.566
 1922SOL     OW 6664   3.072   3.261   4.461
 1922SOL    HW1 6665   3.150   3.323   4.462
 1922SOL    HW2 6666   3.020   3.271   4.546
 1923SOL     OW 6667   2.989   0.890   4.044
 1923SOL    HW1 6668   3.083   0.899   4.075
 1923SOL    HW2 6669   2.979   0.929   3.953
 1924SOL     OW 6670   5.533   0.816   0.620
 1924SOL    HW1 6671   5.580   0.887   0.568
 1924SOL    HW2 6672   5.449   0.789   0.573
 1925SOL     OW 6673   0.911   4.342   0.914
 1925SOL    HW1 6674   0.820   4.364   0.949
 1925SOL    HW2 6675   0.925   4.243   0.918
 1926SOL     OW 6676   3.495   0.259   1.517
 1926SOL    HW1 6677   3.563   0.199   1.561
 1926SOL    HW2 6678   3.542   0.324   1.457
 1927SOL     OW 6679   2.001   5.696   1.145
 1927SOL    HW1 6680   1.935   5.769   1.130
 1927SOL    HW2 6681   1.993   5.628   1.072
 1928SOL     OW 6682   6.945   4.427   2.711
 1928SOL    HW1 6683   6.936   4.358   2.640
 1928SOL    HW2 6684   6.888   4.506   2.689
 1929SOL     OW 6685   3.305   6.823   3.619
 1929SOL    HW1 6686   3.329   6.726   3.627
 1929SOL    HW2 6687   3.389   6.878   3.620
 1930SOL     OW 6688   3.473   3.060   0.422
 1930SOL    HW1 6689   3.397   3.104   0.468
 1930SOL    HW2 6690   3.513   2.990   0.481
 1931SOL     OW 6691   6.495   3.235   3.647
 1931SOL    HW1 6692   6.489   3.162   3.579
 1931SOL    HW2 6693   6.516   3.196   3.737
 1932SOL     OW 6694   5.239   0.370   2.247
 1932SOL    HW1 6695   5.218   0.333   2.338
 1932SOL    HW2 6696   5.229   0.470   2.249
 1933SOL     OW 6697   1.698   1.415   1.392
 1933SOL    HW1 6698   1.649   1.485   1.443
 1933SOL    HW2 6699   1.792   1.410   1.425
 1934SOL     OW 6700   0.112   1.111   0.081
 1934SOL    HW1 6701   0.157   1.134   7.021
 1934SOL    HW2 6702   0.051   1.186   0.107
 1935SOL     OW 6703   5.660   4.992   3.796
 1935SOL    HW1 6704   5.593   5.032   3.859
 1935SOL    HW2 6705   5.674   5.054   3.719
 1936SOL     OW 6706   5.214   3.107   6.567
 1936SOL    HW1 6707   5.130   3.143   6.609
 1936SOL    HW2 6708   5.265   3.182   6.526
 1937SOL     OW 6709   6.842   4.716   0.015
 1937SOL    HW1 6710   6.828   4.806   0.058
 1937SOL    HW2 6711   6.758   4.689   6.994
 1938SOL     OW 6712   6.575   1.781   0.105
 1938SOL    HW1 6713   6.607   1.868   0.143
 1938SOL    HW2 6714   6.487   1.795   0.061
 1939SOL     OW 6715   0.331   0.342   4.196
 1939SOL    HW1 6716   0.424   0.330   4.162
 1939SOL    HW2 6717   0.280   0.400   4.132
 1940SOL     OW 6718   0.539   5.505   1.304
 1940SOL    HW1 6719   0.628   5.521   1.348
 1940SOL    HW2 6720   0.553   5.466   1.213
 1941SOL     OW 6721   6.070   1.102   4.327
 1941SOL    HW1 6722   6.049   1.065   4.417
 1941SOL    HW2 6723   6.169   1.104   4.314
 1942SOL     OW 6724   0.232   5.424   2.130
 1942SOL    HW1 6725   0.161   5.429   2.199
 1942SOL    HW2 6726   0.197   5.378   2.048
 1943SOL     OW 6727   0.771   3.111   3.992
 1943SOL    HW1 6728   0.855   3.091   4.042
 1943SOL    HW2 6729   0.774   3.067   3.902
 1944SOL     OW 6730   0.539   2.960   3.623
 1944SOL    HW1 6731   0.533   2.869   3.664
 1944SOL    HW2 6732   0.477   3.022   3.671
 1945SOL     OW 6733   5.275   1.772   2.352
 1945SOL    HW1 6734   5.267   1.784   2.253
 1945SOL    HW2 6735   5.252   1.677   2.376
 1946SOL     OW 6736   5.657   5.686   0.746
 1946SOL    HW1 6737   5.735   5.626   0.727
 1946SOL    HW2 6738   5.687   5.760   0.807
 1947SOL     OW 6739   6.201   5.462   2.677
 1947SOL    HW1 6740   6.154   5.407   2.746
 1947SOL    HW2 6741   6.195   5.416   2.588
 1948SOL     OW 6742   5.504   3.514   3.598
 1948SOL    HW1 6743   5.421   3.548   3.554
 1948SOL    HW2 6744   5.581   3.572   3.571
 1949SOL     OW 6745   3.386   4.393   6.494
 1949SOL    HW1 6746   3.309   4.422   6.438
 1949SOL    HW2 6747   3.449   4.338   6.439
 1950SOL     OW 6748   4.160   3.669   3.429
 1950SOL    HW1 6749   4.141   3.624   3.516
 1950SOL    HW2 6750   4.230   3.740   3.443
 1951SOL     OW 6751   6.591   5.730   5.878
 1951SOL    HW1 6752   6.657   5.707   5.950
 1951SOL    HW2 6753   6.595   5.661   5.806
 1952SOL     OW 6754   5.771   4.183   6.458
 1952SOL    HW1 6755   5.867   4.202   6.442
 1952SOL    HW2 6756   5.718   4.267   6.447
 1953SOL     OW 6757   0.728   0.652   0.024
 1953SOL    HW1 6758   0.723   0.584   0.097
 1953SOL    HW2 6759   0.806   0.712   0.039
 1954SOL     OW 6760   4.021   6.940   2.251
 1954SOL    HW1 6761   4.042   6.863   2.311
 1954SOL    HW2 6762   4.106   6.984   2.221
 1955SOL     OW 6763   6.436   2.330   4.137
 1955SOL    HW1 6764   6.426   2.320   4.038
 1955SOL    HW2 6765   6.479   2.248   4.175
 1956SOL     OW 6766   4.829   1.139   1.479
 1956SOL    HW1 6767   4.789   1.188   1.401
 1956SOL    HW2 6768   4.893   1.200   1.526
 1957SOL     OW 6769   6.525   2.604   4.261
 1957SOL    HW1 6770   6.463   2.532   4.230
 1957SOL    HW2 6771   6.473   2.676   4.308
 1958SOL     OW 6772   3.923   1.854   0.545
 1958SOL    HW1 6773   3.870   1.777   0.581
 1958SOL    HW2 6774   3.877   1.891   0.464
 1959SOL     OW 6775   1.528   1.598   5.587
 1959SOL    HW1 6776   1.481   1.575   5.672
 1959SOL    HW2 6777   1.464   1.592   5.510
 1960SOL     OW 6778   5.392   4.240   2.902
 1960SOL    HW1 6779   5.326   4.220   2.975
 1960SOL    HW2 6780   5.416   4.337   2.905
 1961SOL     OW 6781   0.292   4.197   4.546
 1961SOL    HW1 6782   0.221   4.167   4.482
 1961SOL    HW2 6783   0.333   4.282   4.514
 1962SOL     OW 6784   0.686   6.951   2.265
 1962SOL    HW1 6785   0.723   7.026   2.320
 1962SOL    HW2 6786   0.610   6.909   2.315
 1963SOL     OW 6787   0.785   2.517   6.933
 1963SOL    HW1 6788   0.818   2.604   6.896
 1963SOL    HW2 6789   0.717   2.534   7.005
 1964SOL     OW 6790   5.828   3.250   0.928
 1964SOL    HW1 6791   5.894   3.185   0.890
 1964SOL    HW2 6792   5.790   3.306   0.854
 1965SOL     OW 6793   5.887   4.500   4.357
 1965SOL    HW1 6794   5.911   4.469   4.450
 1965SOL    HW2 6795   5.911   4.597   4.347
 1966SOL     OW 6796   0.807   4.959   6.788
 1966SOL    HW1 6797   0.880   5.028   6.796
 1966SOL    HW2 6798   0.750   4.979   6.709
 1967SOL     OW 6799   6.846   2.739   4.781
 1967SOL    HW1 6800   6.843   2.645   4.813
 1967SOL    HW2 6801   6.807   2.800   4.851
 1968SOL     OW 6802   2.344   1.535   6.184
 1968SOL    HW1 6803   2.259   1.499   6.221
 1968SOL    HW2 6804   2.412   1.461   6.178
 1969SOL     OW 6805   1.030   5.990   1.001
 1969SOL    HW1 6806   1.091   5.925   1.046
 1969SOL    HW2 6807   1.024   6.073   1.056
 1970SOL     OW 6808   5.362   4.378   3.707
 1970SOL    HW1 6809   5.272   4.334   3.706
 1970SOL    HW2 6810   5.352   4.475   3.683
 1971SOL     OW 6811   1.760   5.129   4.425
 1971SOL    HW1 6812   1.848   5.099   4.462
 1971SOL    HW2 6813   1.749   5.094   4.332
 1972SOL     OW 6814   6.017   2.317   2.646
 1972SOL    HW1 6815   5.918   2.333   2.653
 1972SOL    HW2 6816   6.042   2.237   2.699
 1973SOL     OW 6817   3.704   2.221   0.388
 1973SOL    HW1 6818   3.642   2.200   0.465
 1973SOL    HW2 6819   3.654   2.274   0.320
 1974SOL     OW 6820   2.409   6.453   4.771
 1974SOL    HW1 6821   2.495   6.503   4.784
 1974SOL    HW2 6822   2.334   6.504   4.813
 1975SOL     OW 6823   2.059   3.034   2.268
 1975SOL    HW1 6824   2.055   3.134   2.259
 1975SOL    HW2 6825   1.987   3.003   2.330
 1976SOL     OW 6826   1.579   1.267   5.126
 1976SOL    HW1 6827   1.547   1.209   5.051
 1976SOL    HW2 6828   1.575   1.215   5.212
 1977SOL     OW 6829   1.246   3.838   6.698
 1977SOL    HW1 6830   1.158   3.817   6.655
 1977SOL    HW2 6831   1.308   3.760   6.687
 1978SOL     OW 6832   2.960   0.284   2.185
 1978SOL    HW1 6833   3.006   0.197   2.206
 1978SOL    HW2 6834   3.024   0.344   2.137
 1979SOL     OW 6835   5.401   3.882   6.385
 1979SOL    HW1 6836   5.410   3.821   6.306
 1979SOL    HW2 6837   5.334   3.845   6.448
 1980SOL     OW 6838   4.321   0.470   1.462
 1980SOL    HW1 6839   4.346   0.565   1.442
 1980SOL    HW2 6840   4.282   0.427   1.381
 1981SOL     OW 6841   4.338   2.347   1.826
 1981SOL    HW1 6842   4.366   2.437   1.858
 1981SOL    HW2 6843   4.281   2.356   1.745
 1982SOL     OW 6844   1.433   2.519   6.319
 1982SOL    HW1 6845   1.503   2.528   6.389
 1982SOL    HW2 6846   1.356   2.465   6.355
 1983SOL     OW 6847   0.374   1.652   1.862
 1983SOL    HW1 6848   0.317   1.717   1.813
 1983SOL    HW2 6849   0.346   1.649   1.958
 1984SOL     OW 6850   4.887   3.781   5.823
 1984SOL    HW1 6851   4.804   3.808   5.774
 1984SOL    HW2 6852   4.966   3.790   5.763
 1985SOL     OW 6853   6.229   4.441   4.172
 1985SOL    HW1 6854   6.173   4.516   4.207
 1985SOL    HW2 6855   6.324   4.471   4.164
 1986SOL     OW 6856   2.894   3.238   2.713
 1986SOL    HW1 6857   2.961   3.165   2.728
 1986SOL    HW2 6858   2.831   3.212   2.640
 1987SOL     OW 6859   2.210   1.244   2.254
 1987SOL    HW1 6860   2.299   1.202   2.273
 1987SOL    HW2 6861   2.224   1.338   2.225
 1988SOL     OW 6862   0.738   2.092   2.958
 1988SOL    HW1 6863   0.819   2.099   2.900
 1988SOL    HW2 6864   0.766   2.068   3.051
 1989SOL     OW 6865   3.097   5.351   4.700
 1989SOL    HW1 6866   3.082   5.323   4.795
 1989SOL    HW2 6867   3.099   5.451   4.694
 1990SOL     OW 6868   4.216   6.267   0.514
 1990SOL    HW1 6869   4.302   6.236   0.554
 1990SOL    HW2 6870   4.192   6.208   0.437
 1991SOL     OW 6871   2.643   5.850   1.894
 1991SOL    HW1 6872   2.650   5.803   1.806
 1991SOL    HW2 6873   2.574   5.806   1.951
 1992SOL     OW 6874   1.320   6.636   3.215
 1992SOL    HW1 6875   1.394   6.586   3.260
 1992SOL    HW2 6876   1.348   6.661   3.122
 1993SOL     OW 6877   1.984   1.745   2.443
 1993SOL    HW1 6878   1.919   1.672   2.422
 1993SOL    HW2 6879   2.034   1.770   2.360
 1994SOL     OW 6880   3.134   3.414   1.551
 1994SOL    HW1 6881   3.077   3.483   1.505
 1994SOL    HW2 6882   3.166   3.348   1.483
 1995SOL     OW 6883   5.995   1.147   3.913
 1995SOL    HW1 6884   5.980   1.178   4.006
 1995SOL    HW2 6885   5.923   1.183   3.853
 1996SOL     OW 6886   4.499   0.359   0.700
 1996SOL    HW1 6887   4.443   0.420   0.644
 1996SOL    HW2 6888   4.464   0.360   0.794
 1997SOL     OW 6889   3.879   1.292   3.538
 1997SOL    HW1 6890   3.809   1.295   3.609
 1997SOL    HW2 6891   3.894   1.384   3.503
 1998SOL     OW 6892   2.519   3.793   1.112
 1998SOL    HW1 6893   2.499   3.875   1.058
 1998SOL    HW2 6894   2.528   3.714   1.050
 1999SOL     OW 6895   0.788   0.065   6.538
 1999SOL    HW1 6896   0.822   0.008   6.613
 1999SOL    HW2 6897   0.843   0.048   6.456
 2000SOL     OW 6898   4.157   4.455   6.609
 2000SOL    HW1 6899   4.060   4.441   6.592
 2000SOL    HW2 6900   4.210   4.398   6.547
 2001SOL     OW 6901   1.348   2.156   0.911
 2001SOL    HW1 6902   1.328   2.062   0.882
 2001SOL    HW2 6903   1.376   2.156   1.007
 2002SOL     OW 6904   5.858   5.518   0.702
 2002SOL    HW1 6905   5.829   5.424   0.718
 2002SOL    HW2 6906   5.912   5.523   0.618
 2003SOL     OW 6907   6.164   5.776   1.209
 2003SOL    HW1 6908   6.071   5.812   1.211
 2003SOL    HW2 6909   6.222   5.837   1.154
 2004SOL     OW 6910   4.250   0.375   3.149
 2004SOL    HW1 6911   4.300   0.458   3.127
 2004SOL    HW2 6912   4.153   0.396   3.159
 2005SOL     OW 6913   1.493   6.693   6.968
 2005SOL    HW1 6914   1.569   6.695   0.006
 2005SOL    HW2 6915   1.416   6.643   7.009
 2006SOL     OW 6916   6.138   6.989   2.287
 2006SOL    HW1 6917   6.228   0.001   2.309
 2006SOL    HW2 6918   6.083   0.031   2.239
 2007SOL     OW 6919   5.589   5.328   5.809
 2007SOL    HW1 6920   5.653   5.307   5.883
 2007SOL    HW2 6921   5.631   5.394   5.746
 2008SOL     OW 6922   1.828   3.345   2.832
 2008SOL    HW1 6923   1.858   3.250   2.842
 2008SOL    HW2 6924   1.901   3.398   2.789
 2009SOL     OW 6925   6.050   6.915   3.125
 2009SOL    HW1 6926   5.999   6.898   3.210
 2009SOL    HW2 6927   6.030   6.843   3.059
 2010SOL     OW 6928   0.452   1.439   1.592
 2010SOL    HW1 6929   0.501   1.526   1.594
 2010SOL    HW2 6930   0.505   1.369   1.641
 2011SOL     OW 6931   1.089   0.134   5.140
 2011SOL    HW1 6932   1.158   0.061   5.133
 2011SOL    HW2 6933   1.130   0.214   5.183
 2012SOL     OW 6934   0.224   2.561   0.508
 2012SOL    HW1 6935   0.300   2.589   0.567
 2012SOL    HW2 6936   0.219   2.461   0.506
 2013SOL     OW 6937   0.911   3.058   2.350
 2013SOL    HW1 6938   0.962   2.989   2.402
 2013SOL    HW2 6939   0.974   3.113   2.296
 2014SOL     OW 6940   3.855   1.592   3.808
 2014SOL    HW1 6941   3.799   1.516   3.838
 2014SOL    HW2 6942   3.872   1.654   3.885
 2015SOL     OW 6943   3.855   6.032   1.660
 2015SOL    HW1 6944   3.771   5.978   1.658
 2015SOL    HW2 6945   3.928   5.983   1.612
 2016SOL     OW 6946   1.674   1.104   5.339
 2016SOL    HW1 6947   1.713   1.030   5.284
 2016SOL    HW2 6948   1.737   1.182   5.341
 2017SOL     OW 6949   2.793   6.461   4.507
 2017SOL    HW1 6950   2.768   6.521   4.582
 2017SOL    HW2 6951   2.716   6.400   4.487
 2018SOL     OW 6952   0.528   0.410   4.659
 2018SOL    HW1 6953   0.624   0.429   4.636
 2018SOL    HW2 6954   0.482   0.495   4.683
 2019SOL     OW 6955   6.644   4.573   6.909
 2019SOL    HW1 6956   6.639   4.504   6.837
 2019SOL    HW2 6957   6.552   4.594   6.942
 2020SOL     OW 6958   1.853   0.039   1.302
 2020SOL    HW1 6959   1.759   0.015   1.325
 2020SOL    HW2 6960   1.854   0.095   1.219
 2021SOL     OW 6961   0.144   5.743   4.104
 2021SOL    HW1 6962   0.199   5.659   4.103
 2021SOL    HW2 6963   0.180   5.807   4.036
 2022SOL     OW 6964   1.580   3.194   4.408
 2022SOL    HW1 6965   1.620   3.138   4.479
 2022SOL    HW2 6966   1.486   3.219   4.434
 2023SOL     OW 6967   0.261   5.393   0.016
 2023SOL    HW1 6968   0.326   5.316   0.025
 2023SOL    HW2 6969   0.204   5.398   0.098
 2024SOL     OW 6970   6.663   5.547   3.721
 2024SOL    HW1 6971   6.602   5.548   3.800
 2024SOL    HW2 6972   6.638   5.621   3.659
 2025SOL     OW 6973   2.129   7.023   4.420
 2025SOL    HW1 6974   2.216   0.019   4.464
 2025SOL    HW2 6975   2.059   7.007   4.490
 2026SOL     OW 6976   1.520   0.054   5.493
 2026SOL    HW1 6977   1.583   0.029   5.420
 2026SOL    HW2 6978   1.484   0.146   5.475
 2027SOL     OW 6979   6.590   5.782   2.885
 2027SOL    HW1 6980   6.494   5.811   2.881
 2027SOL    HW2 6981   6.618   5.747   2.795
 2028SOL     OW 6982   2.612   5.972   5.032
 2028SOL    HW1 6983   2.573   6.030   4.960
 2028SOL    HW2 6984   2.662   6.029   5.098
 2029SOL     OW 6985   6.197   1.737   6.821
 2029SOL    HW1 6986   6.237   1.769   6.906
 2029SOL    HW2 6987   6.237   1.649   6.795
 2030SOL     OW 6988   1.921   6.671   2.890
 2030SOL    HW1 6989   1.975   6.604   2.941
 2030SOL    HW2 6990   1.952   6.674   2.795
 2031SOL     OW 6991   0.310   6.757   5.679
 2031SOL    HW1 6992   0.285   6.711   5.764
 2031SOL    HW2 6993   0.278   6.703   5.601
 2032SOL     OW 6994   2.437   2.816   6.160
 2032SOL    HW1 6995   2.531   2.844   6.142
 2032SOL    HW2 6996   2.395   2.785   6.075
 2033SOL     OW 6997   2.455   0.915   1.187
 2033SOL    HW1 6998   2.384   0.865   1.138
 2033SOL    HW2 6999   2.505   0.852   1.246
 2034SOL     OW 7000   0.641   4.488   5.191
 2034SOL    HW1 7001   0.673   4.582   5.201
 2034SOL    HW2 7002   0.542   4.488   5.175
 2035SOL     OW 7003   5.886   5.309   2.607
 2035SOL    HW1 7004   5.942   5.261   2.675
 2035SOL    HW2 7005   5.822   5.370   2.654
 2036SOL     OW 7006   0.757   3.908   6.307
 2036SOL    HW1 7007   0.675   3.876   6.354
 2036SOL    HW2 7008   0.785   3.840   6.239
 2037SOL     OW 7009   0.676   2.584   6.458
 2037SOL    HW1 7010   0.615   2.546   6.527
 2037SOL    HW2 7011   0.764   2.605   6.501
 2038SOL     OW 7012   1.157   1.065   5.990
 2038SOL    HW1 7013   1.075   1.097   5.942
 2038SOL    HW2 7014   1.130   1.024   6.078
 2039SOL     OW 7015   5.525   5.828   4.334
 2039SOL    HW1 7016   5.618   5.847   4.302
 2039SOL    HW2 7017   5.514   5.729   4.347
 2040SOL     OW 7018   2.775   1.839   0.793
 2040SOL    HW1 7019   2.681   1.816   0.768
 2040SOL    HW2 7020   2.781   1.937   0.811
 2041SOL     OW 7021   2.956   6.824   6.981
 2041SOL    HW1 7022   2.882   6.820   0.022
 2041SOL    HW2 7023   2.977   6.919   6.960
 2042SOL     OW 7024   0.210   6.979   5.856
 2042SOL    HW1 7025   0.234   6.882   5.850
 2042SOL    HW2 7026   0.143   7.002   5.785
 2043SOL     OW 7027   0.446   3.963   0.144
 2043SOL    HW1 7028   0.479   3.871   0.122
 2043SOL    HW2 7029   0.367   3.985   0.086
 2044SOL     OW 7030   3.736   0.626   1.676
 2044SOL    HW1 7031   3.766   0.700   1.616
 2044SOL    HW2 7032   3.808   0.607   1.743
 2045SOL     OW 7033   1.638   5.822   3.303
 2045SOL    HW1 7034   1.565   5.802   3.367
 2045SOL    HW2 7035   1.686   5.905   3.332
 2046SOL     OW 7036   0.834   2.793   5.961
 2046SOL    HW1 7037   0.881   2.788   6.049
 2046SOL    HW2 7038   0.870   2.869   5.908
 2047SOL     OW 7039   6.791   6.957   1.686
 2047SOL    HW1 7040   6.762   0.003   1.623
 2047SOL    HW2 7041   6.738   6.874   1.668
 2048SOL     OW 7042   1.760   0.776   3.493
 2048SOL    HW1 7043   1.838   0.718   3.469
 2048SOL    HW2 7044   1.787   0.872   3.492
 2049SOL     OW 7045   4.579   1.984   5.327
 2049SOL    HW1 7046   4.652   1.932   5.371
 2049SOL    HW2 7047   4.594   1.984   5.228
 2050SOL     OW 7048   0.440   0.840   2.734
 2050SOL    HW1 7049   0.502   0.845   2.813
 2050SOL    HW2 7050   0.384   0.923   2.732
 2051SOL     OW 7051   3.058   6.910   6.544
 2051SOL    HW1 7052   3.157   6.903   6.553
 2051SOL    HW2 7053   3.034   7.001   6.510
 2052SOL     OW 7054   0.019   4.085   1.144
 2052SOL    HW1 7055   0.021   4.184   1.129
 2052SOL    HW2 7056   6.952   4.058   1.169
 2053SOL     OW 7057   5.409   4.746   2.043
 2053SOL    HW1 7058   5.410   4.777   1.948
 2053SOL    HW2 7059   5.464   4.662   2.051
 2054SOL     OW 7060   3.184   4.076   2.889
 2054SOL    HW1 7061   3.124   4.156   2.895
 2054SOL    HW2 7062   3.260   4.087   2.954
 2055SOL     OW 7063   4.025   2.764   5.959
 2055SOL    HW1 7064   4.024   2.729   6.053
 2055SOL    HW2 7065   4.083   2.845   5.955
 2056SOL     OW 7066   2.649   4.798   1.848
 2056SOL    HW1 7067   2.684   4.727   1.909
 2056SOL    HW2 7068   2.669   4.774   1.753
 2057SOL     OW 7069   5.855   3.312   3.829
 2057SOL    HW1 7070   5.867   3.410   3.839
 2057SOL    HW2 7071   5.787   3.294   3.758
 2058SOL     OW 7072   5.302   6.920   3.479
 2058SOL    HW1 7073   5.203   6.911   3.491
 2058SOL    HW2 7074   5.338   6.839   3.433
 2059SOL     OW 7075   1.921   1.861   5.596
 2059SOL    HW1 7076   1.912   1.959   5.578
 2059SOL    HW2 7077   2.015   1.832   5.580
 2060SOL     OW 7078   1.211   2.460   6.451
 2060SOL    HW1 7079   1.166   2.522   6.387
 2060SOL    HW2 7080   1.185   2.365   6.430
 2061SOL     OW 7081   1.792   1.957   4.070
 2061SOL    HW1 7082   1.829   2.035   4.019
 2061SOL    HW2 7083   1.858   1.883   4.071
 2062SOL     OW 7084   5.696   5.570   4.123
 2062SOL    HW1 7085   5.686   5.569   4.223
 2062SOL    HW2 7086   5.644   5.648   4.086
 2063SOL     OW 7087   1.322   1.376   4.139
 2063SOL    HW1 7088   1.359   1.368   4.232
 2063SOL    HW2 7089   1.385   1.430   4.083
 2064SOL     OW 7090   0.644   4.159   4.783
 2064SOL    HW1 7091   0.656   4.251   4.746
 2064SOL    HW2 7092   0.704   4.147   4.862
 2065SOL     OW 7093   3.735   3.525   5.877
 2065SOL    HW1 7094   3.832   3.504   5.888
 2065SOL    HW2 7095   3.710   3.601   5.937
 2066SOL     OW 7096   2.118   2.805   4.615
 2066SOL    HW1 7097   2.172   2.721   4.626
 2066SOL    HW2 7098   2.070   2.802   4.527
 2067SOL     OW 7099   6.585   4.707   2.370
 2067SOL    HW1 7100   6.595   4.636   2.440
 2067SOL    HW2 7101   6.587   4.797   2.414
 2068SOL     OW 7102   3.565   6.549   4.098
 2068SOL    HW1 7103   3.575   6.492   4.016
 2068SOL    HW2 7104   3.643   6.534   4.159
 2069SOL     OW 7105   6.453   1.644   3.559
 2069SOL    HW1 7106   6.492   1.561   3.521
 2069SOL    HW2 7107   6.384   1.620   3.627
 2070SOL     OW 7108   0.277   5.128   1.928
 2070SOL    HW1 7109   0.236   5.043   1.960
 2070SOL    HW2 7110   0.376   5.125   1.943
 2071SOL     OW 7111   6.882   2.489   4.256
 2071SOL    HW1 7112   6.849   2.555   4.324
 2071SOL    HW2 7113   6.981   2.479   4.264
 2072SOL     OW 7114   5.557   3.350   5.936
 2072SOL    HW1 7115   5.534   3.284   5.864
 2072SOL    HW2 7116   5.529   3.441   5.907
 2073SOL     OW 7117   3.604   5.357   7.000
 2073SOL    HW1 7118   3.597   5.265   0.010
 2073SOL    HW2 7119   3.573   5.423   0.042
 2074SOL     OW 7120   3.839   4.799   5.418
 2074SOL    HW1 7121   3.814   4.890   5.387
 2074SOL    HW2 7122   3.938   4.787   5.410
 2075SOL     OW 7123   5.500   1.936   1.147
 2075SOL    HW1 7124   5.539   1.887   1.225
 2075SOL    HW2 7125   5.408   1.968   1.169
 2076SOL     OW 7126   6.833   6.802   3.930
 2076SOL    HW1 7127   6.920   6.754   3.920
 2076SOL    HW2 7128   6.849   6.901   3.925
 2077SOL     OW 7129   0.351   4.314   1.012
 2077SOL    HW1 7130   0.322   4.397   0.964
 2077SOL    HW2 7131   0.387   4.338   1.102
 2078SOL     OW 7132   0.751   2.855   6.653
 2078SOL    HW1 7133   0.745   2.941   6.604
 2078SOL    HW2 7134   0.791   2.785   6.595
 2079SOL     OW 7135   6.200   1.750   3.049
 2079SOL    HW1 7136   6.155   1.731   2.961
 2079SOL    HW2 7137   6.153   1.699   3.121
 2080SOL     OW 7138   2.293   3.700   6.020
 2080SOL    HW1 7139   2.298   3.784   5.966
 2080SOL    HW2 7140   2.380   3.652   6.015
 2081SOL     OW 7141   0.524   6.088   2.539
 2081SOL    HW1 7142   0.542   6.174   2.492
 2081SOL    HW2 7143   0.484   6.106   2.628
 2082SOL     OW 7144   6.947   5.951   3.696
 2082SOL    HW1 7145   6.860   5.933   3.651
 2082SOL    HW2 7146   7.005   5.870   3.689
 2083SOL     OW 7147   0.897   5.430   3.619
 2083SOL    HW1 7148   0.945   5.485   3.687
 2083SOL    HW2 7149   0.856   5.490   3.550
 2084SOL     OW 7150   6.330   2.379   1.415
 2084SOL    HW1 7151   6.356   2.283   1.416
 2084SOL    HW2 7152   6.383   2.429   1.483
 2085SOL     OW 7153   6.068   5.435   6.968
 2085SOL    HW1 7154   6.124   5.353   6.957
 2085SOL    HW2 7155   5.998   5.418   0.011
 2086SOL     OW 7156   6.077   0.068   5.905
 2086SOL    HW1 7157   6.029   0.154   5.887
 2086SOL    HW2 7158   6.142   0.081   5.980
 2087SOL     OW 7159   4.867   1.384   6.969
 2087SOL    HW1 7160   4.966   1.377   6.984
 2087SOL    HW2 7161   4.851   1.415   6.875
 2088SOL     OW 7162   0.636   3.731   5.930
 2088SOL    HW1 7163   0.703   3.763   5.997
 2088SOL    HW2 7164   0.584   3.655   5.969
 2089SOL     OW 7165   2.965   4.909   5.650
 2089SOL    HW1 7166   3.003   4.944   5.735
 2089SOL    HW2 7167   3.037   4.909   5.580
 2090SOL     OW 7168   5.161   2.440   6.536
 2090SOL    HW1 7169   5.141   2.512   6.602
 2090SOL    HW2 7170   5.249   2.398   6.557
 2091SOL     OW 7171   5.345   6.740   1.047
 2091SOL    HW1 7172   5.367   6.807   1.118
 2091SOL    HW2 7173   5.268   6.684   1.077
 2092SOL     OW 7174   3.381   3.134   2.317
 2092SOL    HW1 7175   3.393   3.036   2.327
 2092SOL    HW2 7176   3.437   3.167   2.240
 2093SOL     OW 7177   4.784   6.844   0.528
 2093SOL    HW1 7178   4.829   6.766   0.571
 2093SOL    HW2 7179   4.809   6.928   0.577
 2094SOL     OW 7180   4.853   2.801   0.626
 2094SOL    HW1 7181   4.795   2.805   0.545
 2094SOL    HW2 7182   4.873   2.894   0.658
 2095SOL     OW 7183   5.007   5.290   3.209
 2095SOL    HW1 7184   4.950   5.368   3.235
 2095SOL    HW2 7185   4.995   5.272   3.111
 2096SOL     OW 7186   3.934   6.606   2.943
 2096SOL    HW1 7187   4.007   6.569   2.886
 2096SOL    HW2 7188   3.913   6.542   3.017
 2097SOL     OW 7189   1.329   5.649   5.662
 2097SOL    HW1 7190   1.321   5.623   5.566
 2097SOL    HW2 7191   1.426   5.654   5.687
 2098SOL     OW 7192   1.749   0.020   3.776
 2098SOL    HW1 7193   1.788   6.986   3.706
 2098SOL    HW2 7194   1.683   0.082   3.734
 2099SOL     OW 7195   4.491   1.978   6.823
 2099SOL    HW1 7196   4.396   1.970   6.794
 2099SOL    HW2 7197   4.505   1.926   6.907
 2100SOL     OW 7198   4.719   0.564   0.104
 2100SOL    HW1 7199   4.672   0.646   0.073
 2100SOL    HW2 7200   4.683   0.485   0.054
 2101SOL     OW 7201   1.787   0.802   2.672
 2101SOL    HW1 7202   1.797   0.820   2.769
 2101SOL    HW2 7203   1.784   0.888   2.621
 2102SOL     OW 7204   3.232   2.748   1.888
 2102SOL    HW1 7205   3.299   2.792   1.947
 2102SOL    HW2 7206   3.152   2.721   1.943
 2103SOL     OW 7207   1.840   0.182   1.069
 2103SOL    HW1 7208   1.800   0.108   1.015
 2103SOL    HW2 7209   1.778   0.260   1.070
 2104SOL     OW 7210   1.111   4.338   2.550
 2104SOL    HW1 7211   1.161   4.320   2.634
 2104SOL    HW2 7212   1.095   4.251   2.502
 2105SOL     OW 7213   5.617   6.733   5.230
 2105SOL    HW1 7214   5.707   6.745   5.270
 2105SOL    HW2 7215   5.579   6.644   5.258
 2106SOL     OW 7216   3.355   2.295   1.286
 2106SOL    HW1 7217   3.397   2.386   1.273
 2106SOL    HW2 7218   3.300   2.272   1.205
 2107SOL     OW 7219   5.282   4.265   4.811
 2107SOL    HW1 7220   5.336   4.344   4.781
 2107SOL    HW2 7221   5.191   4.269   4.770
 2108SOL     OW 7222   4.795   6.816   5.354
 2108SOL    HW1 7223   4.746   6.900   5.377
 2108SOL    HW2 7224   4.862   6.836   5.282
 2109SOL     OW 7225   2.511   5.596   1.972
 2109SOL    HW1 7226   2.492   5.551   1.885
 2109SOL    HW2 7227   2.604   5.573   2.002
 2110SOL     OW 7228   3.942   6.133   6.913
 2110SOL    HW1 7229   4.022   6.088   6.954
 2110SOL    HW2 7230   3.860   6.104   6.962
 2111SOL     OW 7231   0.326   2.793   0.119
 2111SOL    HW1 7232   0.359   2.845   0.198
 2111SOL    HW2 7233   0.233   2.760   0.137
 2112SOL     OW 7234   0.517   0.525   6.958
 2112SOL    HW1 7235   0.514   0.442   7.015
 2112SOL    HW2 7236   0.589   0.586   6.990
 2113SOL     OW 7237   6.920   1.480   4.633
 2113SOL    HW1 7238   7.001   1.518   4.588
 2113SOL    HW2 7239   6.927   1.492   4.732
 2114SOL     OW 7240   2.629   1.244   5.232
 2114SOL    HW1 7241   2.622   1.224   5.134
 2114SOL    HW2 7242   2.556   1.307   5.258
 2115SOL     OW 7243   6.637   6.773   3.734
 2115SOL    HW1 7244   6.709   6.785   3.802
 2115SOL    HW2 7245   6.603   6.679   3.736
 2116SOL     OW 7246   2.301   0.984   6.437
 2116SOL    HW1 7247   2.289   0.926   6.356
 2116SOL    HW2 7248   2.258   0.939   6.516
 2117SOL     OW 7249   5.493   3.025   2.323
 2117SOL    HW1 7250   5.499   3.051   2.419
 2117SOL    HW2 7251   5.542   2.939   2.308
 2118SOL     OW 7252   0.307   3.180   2.839
 2118SOL    HW1 7253   0.373   3.238   2.790
 2118SOL    HW2 7254   0.218   3.187   2.795
 2119SOL     OW 7255   1.638   2.915   0.489
 2119SOL    HW1 7256   1.663   2.951   0.579
 2119SOL    HW2 7257   1.602   2.989   0.432
 2120SOL     OW 7258   5.437   2.171   0.814
 2120SOL    HW1 7259   5.459   2.267   0.831
 2120SOL    HW2 7260   5.518   2.115   0.833
 2121SOL     OW 7261   3.054   6.678   1.727
 2121SOL    HW1 7262   2.978   6.621   1.757
 2121SOL    HW2 7263   3.069   6.752   1.793
 2122SOL     OW 7264   0.392   0.456   5.027
 2122SOL    HW1 7265   0.383   0.365   4.985
 2122SOL    HW2 7266   0.401   0.525   4.955
 2123SOL     OW 7267   1.082   4.671   3.034
 2123SOL    HW1 7268   1.032   4.609   3.095
 2123SOL    HW2 7269   1.045   4.763   3.042
 2124SOL     OW 7270   4.635   3.057   5.874
 2124SOL    HW1 7271   4.671   3.022   5.788
 2124SOL    HW2 7272   4.694   3.130   5.907
 2125SOL     OW 7273   1.587   5.356   5.698
 2125SOL    HW1 7274   1.556   5.262   5.679
 2125SOL    HW2 7275   1.567   5.378   5.793
 2126SOL     OW 7276   2.772   5.028   1.928
 2126SOL    HW1 7277   2.713   4.956   1.892
 2126SOL    HW2 7278   2.734   5.061   2.014
 2127SOL     OW 7279   1.427   3.510   4.253
 2127SOL    HW1 7280   1.479   3.452   4.190
 2127SOL    HW2 7281   1.457   3.604   4.245
 2128SOL     OW 7282   5.318   3.048   1.300
 2128SOL    HW1 7283   5.302   3.130   1.244
 2128SOL    HW2 7284   5.266   2.971   1.262
 2129SOL     OW 7285   5.810   4.190   3.897
 2129SOL    HW1 7286   5.731   4.245   3.869
 2129SOL    HW2 7287   5.837   4.216   3.990
 2130SOL     OW 7288   1.983   0.557   2.537
 2130SOL    HW1 7289   1.976   0.657   2.539
 2130SOL    HW2 7290   1.891   0.518   2.533
 2131SOL     OW 7291   5.696   0.810   6.592
 2131SOL    HW1 7292   5.645   0.847   6.670
 2131SOL    HW2 7293   5.695   0.710   6.596
 2132SOL     OW 7294   2.549   2.275   0.167
 2132SOL    HW1 7295   2.514   2.359   0.210
 2132SOL    HW2 7296   2.642   2.259   0.198
 2133SOL     OW 7297   4.267   2.635   1.681
 2133SOL    HW1 7298   4.356   2.677   1.701
 2133SOL    HW2 7299   4.208   2.703   1.636
 2134SOL     OW 7300   2.650   0.341   5.160
 2134SOL    HW1 7301   2.626   0.360   5.255
 2134SOL    HW2 7302   2.636   0.243   5.141
 2135SOL     OW 7303   0.971   5.891   4.485
 2135SOL    HW1 7304   0.984   5.903   4.583
 2135SOL    HW2 7305   0.918   5.968   4.449
 2136SOL     OW 7306   1.110   4.889   3.736
 2136SOL    HW1 7307   1.070   4.806   3.774
 2136SOL    HW2 7308   1.162   4.936   3.807
 2137SOL     OW 7309   0.356   0.197   4.536
 2137SOL    HW1 7310   0.427   0.235   4.596
 2137SOL    HW2 7311   0.389   0.111   4.496
 2138SOL     OW 7312   1.244   2.169   6.413
 2138SOL    HW1 7313   1.274   2.101   6.347
 2138SOL    HW2 7314   1.200   2.123   6.491
 2139SOL     OW 7315   2.987   6.044   4.576
 2139SOL    HW1 7316   3.006   5.971   4.511
 2139SOL    HW2 7317   2.968   6.129   4.526
 2140SOL     OW 7318   1.636   5.736   3.960
 2140SOL    HW1 7319   1.579   5.681   4.021
 2140SOL    HW2 7320   1.710   5.779   4.012
 2141SOL     OW 7321   6.893   1.089   6.855
 2141SOL    HW1 7322   6.857   1.060   6.944
 2141SOL    HW2 7323   6.866   1.184   6.838
 2142SOL     OW 7324   4.165   1.018   3.074
 2142SOL    HW1 7325   4.139   0.923   3.091
 2142SOL    HW2 7326   4.265   1.025   3.071
 2143SOL     OW 7327   3.493   5.932   0.589
 2143SOL    HW1 7328   3.501   5.918   0.688
 2143SOL    HW2 7329   3.403   5.970   0.567
 2144SOL     OW 7330   1.133   1.104   1.935
 2144SOL    HW1 7331   1.182   1.138   2.016
 2144SOL    HW2 7332   1.037   1.129   1.941
 2145SOL     OW 7333   2.351   6.079   3.859
 2145SOL    HW1 7334   2.269   6.052   3.909
 2145SOL    HW2 7335   2.432   6.051   3.910
 2146SOL     OW 7336   3.016   2.408   1.205
 2146SOL    HW1 7337   2.951   2.332   1.198
 2146SOL    HW2 7338   3.030   2.449   1.115
 2147SOL     OW 7339   6.998   0.286   4.648
 2147SOL    HW1 7340   6.963   0.305   4.739
 2147SOL    HW2 7341   6.950   0.344   4.582
 2148SOL     OW 7342   6.516   3.884   4.312
 2148SOL    HW1 7343   6.489   3.956   4.249
 2148SOL    HW2 7344   6.473   3.899   4.401
 2149SOL     OW 7345   2.837   1.014   2.964
 2149SOL    HW1 7346   2.814   0.921   2.992
 2149SOL    HW2 7347   2.761   1.053   2.911
 2150SOL     OW 7348   4.952   0.063   2.614
 2150SOL    HW1 7349   4.927   7.020   2.681
 2150SOL    HW2 7350   4.871   0.115   2.588
 2151SOL     OW 7351   4.314   4.732   5.784
 2151SOL    HW1 7352   4.221   4.716   5.819
 2151SOL    HW2 7353   4.367   4.782   5.853
 2152SOL     OW 7354   0.288   6.608   2.752
 2152SOL    HW1 7355   0.321   6.528   2.800
 2152SOL    HW2 7356   0.241   6.669   2.817
 2153SOL     OW 7357   4.374   1.486   3.797
 2153SOL    HW1 7358   4.400   1.511   3.890
 2153SOL    HW2 7359   4.275   1.496   3.786
 2154SOL     OW 7360   3.610   6.641   4.532
 2154SOL    HW1 7361   3.639   6.593   4.450
 2154SOL    HW2 7362   3.626   6.583   4.612
 2155SOL     OW 7363   5.869   3.381   0.425
 2155SOL    HW1 7364   5.799   3.452   0.417
 2155SOL    HW2 7365   5.845   3.304   0.366
 2156SOL     OW 7366   6.257   6.318   2.565
 2156SOL    HW1 7367   6.259   6.275   2.656
 2156SOL    HW2 7368   6.274   6.249   2.495
 2157SOL     OW 7369   5.716   1.458   3.526
 2157SOL    HW1 7370   5.809   1.474   3.492
 2157SOL    HW2 7371   5.671   1.389   3.469
 2158SOL     OW 7372   4.429   0.199   3.291
 2158SOL    HW1 7373   4.429   0.112   3.242
 2158SOL    HW2 7374   4.372   0.265   3.241
 2159SOL     OW 7375   2.348   1.036   5.402
 2159SOL    HW1 7376   2.402   1.024   5.318
 2159SOL    HW2 7377   2.301   0.951   5.424
 2160SOL     OW 7378   2.325   4.139   0.586
 2160SOL    HW1 7379   2.271   4.112   0.666
 2160SOL    HW2 7380   2.409   4.183   0.616
 2161SOL     OW 7381   4.527   2.595   3.387
 2161SOL    HW1 7382   4.509   2.529   3.460
 2161SOL    HW2 7383   4.608   2.648   3.410
 2162SOL     OW 7384   2.752   1.597   2.494
 2162SOL    HW1 7385   2.675   1.546   2.532
 2162SOL    HW2 7386   2.761   1.576   2.397
 2163SOL     OW 7387   3.323   1.997   0.840
 2163SOL    HW1 7388   3.388   2.073   0.845
 2163SOL    HW2 7389   3.370   1.911   0.859
 2164SOL     OW 7390   6.602   0.825   1.517
 2164SOL    HW1 7391   6.633   0.831   1.612
 2164SOL    HW2 7392   6.552   0.740   1.504
 2165SOL     OW 7393   2.593   0.731   2.317
 2165SOL    HW1 7394   2.503   0.740   2.357
 2165SOL    HW2 7395   2.622   0.819   2.279
 2166SOL     OW 7396   5.489   2.783   5.105
 2166SOL    HW1 7397   5.480   2.881   5.090
 2166SOL    HW2 7398   5.400   2.746   5.134
 2167SOL     OW 7399   3.480   1.742   0.924
 2167SOL    HW1 7400   3.482   1.671   0.994
 2167SOL    HW2 7401   3.422   1.712   0.848
 2168SOL     OW 7402   5.499   6.090   4.204
 2168SOL    HW1 7403   5.407   6.067   4.173
 2168SOL    HW2 7404   5.549   6.007   4.226
 2169SOL     OW 7405   5.566   1.473   5.819
 2169SOL    HW1 7406   5.534   1.555   5.773
 2169SOL    HW2 7407   5.493   1.405   5.823
 2170SOL     OW 7408   5.216   5.187   3.992
 2170SOL    HW1 7409   5.230   5.284   3.975
 2170SOL    HW2 7410   5.168   5.174   4.079
 2171SOL     OW 7411   0.171   4.039   0.324
 2171SOL    HW1 7412   0.093   4.023   0.263
 2171SOL    HW2 7413   0.171   4.134   0.355
 2172SOL     OW 7414   2.639   0.204   2.576
 2172SOL    HW1 7415   2.617   0.301   2.581
 2172SOL    HW2 7416   2.562   0.154   2.539
 2173SOL     OW 7417   4.633   2.156   4.626
 2173SOL    HW1 7418   4.586   2.241   4.649
 2173SOL    HW2 7419   4.684   2.167   4.541
 2174SOL     OW 7420   1.261   5.672   5.069
 2174SOL    HW1 7421   1.315   5.730   5.009
 2174SOL    HW2 7422   1.261   5.710   5.162
 2175SOL     OW 7423   1.820   6.859   6.291
 2175SOL    HW1 7424   1.871   6.817   6.366
 2175SOL    HW2 7425   1.876   6.860   6.209
 2176SOL     OW 7426   1.985   2.905   2.692
 2176SOL    HW1 7427   2.071   2.927   2.648
 2176SOL    HW2 7428   1.997   2.827   2.753
 2177SOL     OW 7429   1.324   1.667   1.630
 2177SOL    HW1 7430   1.310   1.733   1.705
 2177SOL    HW2 7431   1.362   1.582   1.667
 2178SOL     OW 7432   6.423   6.022   0.301
 2178SOL    HW1 7433   6.348   5.959   0.283
 2178SOL    HW2 7434   6.507   5.970   0.318
 2179SOL     OW 7435   2.169   3.806   4.022
 2179SOL    HW1 7436   2.184   3.900   4.053
 2179SOL    HW2 7437   2.180   3.744   4.100
 2180SOL     OW 7438   2.921   2.962   1.752
 2180SOL    HW1 7439   2.955   2.900   1.682
 2180SOL    HW2 7440   2.990   2.974   1.823
 2181SOL     OW 7441   3.256   6.472   1.147
 2181SOL    HW1 7442   3.302   6.448   1.233
 2181SOL    HW2 7443   3.198   6.552   1.161
 2182SOL     OW 7444   4.082   3.366   0.886
 2182SOL    HW1 7445   4.138   3.363   0.804
 2182SOL    HW2 7446   4.122   3.307   0.956
 2183SOL     OW 7447   4.098   2.885   1.091
 2183SOL    HW1 7448   4.182   2.940   1.083
 2183SOL    HW2 7449   4.024   2.943   1.124
 2184SOL     OW 7450   5.147   2.560   5.819
 2184SOL    HW1 7451   5.099   2.648   5.824
 2184SOL    HW2 7452   5.216   2.556   5.892
 2185SOL     OW 7453   6.718   6.841   2.544
 2185SOL    HW1 7454   6.637   6.848   2.602
 2185SOL    HW2 7455   6.701   6.776   2.470
 2186SOL     OW 7456   0.070   4.169   3.582
 2186SOL    HW1 7457   0.018   4.248   3.550
 2186SOL    HW2 7458   0.009   4.107   3.631
 2187SOL     OW 7459   6.303   1.137   0.360
 2187SOL    HW1 7460   6.331   1.167   0.269
 2187SOL    HW2 7461   6.349   1.051   0.382
 2188SOL     OW 7462   4.488   1.547   4.049
 2188SOL    HW1 7463   4.449   1.546   4.141
 2188SOL    HW2 7464   4.576   1.499   4.050
 2189SOL     OW 7465   3.874   6.739   0.216
 2189SOL    HW1 7466   3.785   6.754   0.258
 2189SOL    HW2 7467   3.921   6.664   0.264
 2190SOL     OW 7468   5.274   3.165   0.254
 2190SOL    HW1 7469   5.208   3.131   0.320
 2190SOL    HW2 7470   5.364   3.127   0.274
 2191SOL     OW 7471   3.669   0.874   6.580
 2191SOL    HW1 7472   3.595   0.814   6.609
 2191SOL    HW2 7473   3.646   0.914   6.491
 2192SOL     OW 7474   3.620   5.970   2.315
 2192SOL    HW1 7475   3.571   5.903   2.259
 2192SOL    HW2 7476   3.698   6.006   2.264
 2193SOL     OW 7477   6.774   6.075   4.680
 2193SOL    HW1 7478   6.793   6.163   4.636
 2193SOL    HW2 7479   6.857   6.040   4.723
 2194SOL     OW 7480   2.476   0.374   1.888
 2194SOL    HW1 7481   2.551   0.327   1.934
 2194SOL    HW2 7482   2.493   0.375   1.789
 2195SOL     OW 7483   0.287   4.859   1.996
 2195SOL    HW1 7484   0.225   4.809   2.057
 2195SOL    HW2 7485   0.287   4.816   1.906
 2196SOL     OW 7486   4.260   3.993   6.998
 2196SOL    HW1 7487   4.183   3.955   6.947
 2196SOL    HW2 7488   4.304   4.065   6.944
 2197SOL     OW 7489   4.940   3.576   6.799
 2197SOL    HW1 7490   4.903   3.659   6.757
 2197SOL    HW2 7491   5.018   3.544   6.746
 2198SOL     OW 7492   7.001   4.324   0.274
 2198SOL    HW1 7493   6.968   4.376   0.352
 2198SOL    HW2 7494   0.073   4.307   0.284
 2199SOL     OW 7495   4.549   1.236   3.375
 2199SOL    HW1 7496   4.454   1.208   3.393
 2199SOL    HW2 7497   4.575   1.308   3.440
 2200SOL     OW 7498   3.799   7.016   4.142
 2200SOL    HW1 7499   3.868   7.012   4.214
 2200SOL    HW2 7500   3.743   6.933   4.145
 2201SOL     OW 7501   4.643   4.324   4.144
 2201SOL    HW1 7502   4.714   4.259   4.171
 2201SOL    HW2 7503   4.637   4.396   4.213
 2202SOL     OW 7504   4.236   5.661   3.693
 2202SOL    HW1 7505   4.225   5.756   3.664
 2202SOL    HW2 7506   4.213   5.600   3.617
 2203SOL     OW 7507   2.586   1.834   2.668
 2203SOL    HW1 7508   2.613   1.868   2.758
 2203SOL    HW2 7509   2.658   1.856   2.602
 2204SOL     OW 7510   3.187   2.278   0.548
 2204SOL    HW1 7511   3.282   2.289   0.520
 2204SOL    HW2 7512   3.133   2.248   0.469
 2205SOL     OW 7513   3.273   1.378   2.192
 2205SOL    HW1 7514   3.252   1.350   2.285
 2205SOL    HW2 7515   3.372   1.382   2.179
 2206SOL     OW 7516   1.300   3.928   0.473
 2206SOL    HW1 7517   1.306   4.004   0.408
 2206SOL    HW2 7518   1.206   3.921   0.507
 2207SOL     OW 7519   6.955   4.668   5.097
 2207SOL    HW1 7520   7.011   4.678   5.014
 2207SOL    HW2 7521   6.898   4.586   5.088
 2208SOL     OW 7522   6.647   5.267   1.557
 2208SOL    HW1 7523   6.591   5.187   1.579
 2208SOL    HW2 7524   6.638   5.289   1.460
 2209SOL     OW 7525   0.033   6.582   2.009
 2209SOL    HW1 7526   0.115   6.626   1.972
 2209SOL    HW2 7527   6.983   6.645   2.004
 2210SOL     OW 7528   2.516   4.851   3.767
 2210SOL    HW1 7529   2.461   4.784   3.817
 2210SOL    HW2 7530   2.483   4.943   3.790
 2211SOL     OW 7531   6.574   1.289   5.428
 2211SOL    HW1 7532   6.665   1.259   5.456
 2211SOL    HW2 7533   6.572   1.389   5.422
 2212SOL     OW 7534   3.369   0.048   6.041
 2212SOL    HW1 7535   3.360   0.001   5.953
 2212SOL    HW2 7536   3.417   0.135   6.028
 2213SOL     OW 7537   4.954   0.457   3.315
 2213SOL    HW1 7538   4.869   0.406   3.302
 2213SOL    HW2 7539   4.975   0.463   3.413
 2214SOL     OW 7540   3.524   6.708   4.964
 2214SOL    HW1 7541   3.445   6.738   4.912
 2214SOL    HW2 7542   3.533   6.764   5.046
 2215SOL     OW 7543   5.817   1.960   5.389
 2215SOL    HW1 7544   5.874   2.008   5.322
 2215SOL    HW2 7545   5.838   1.862   5.387
 2216SOL     OW 7546   3.282   1.848   2.572
 2216SOL    HW1 7547   3.297   1.817   2.666
 2216SOL    HW2 7548   3.185   1.862   2.556
 2217SOL     OW 7549   2.994   6.692   1.403
 2217SOL    HW1 7550   3.068   6.690   1.335
 2217SOL    HW2 7551   3.028   6.735   1.487
 2218SOL     OW 7552   0.251   0.859   2.240
 2218SOL    HW1 7553   0.232   0.956   2.223
 2218SOL    HW2 7554   0.286   0.848   2.332
 2219SOL     OW 7555   2.793   2.220   3.125
 2219SOL    HW1 7556   2.751   2.293   3.178
 2219SOL    HW2 7557   2.766   2.227   3.029
 2220SOL     OW 7558   1.804   6.922   2.303
 2220SOL    HW1 7559   1.812   6.993   2.373
 2220SOL    HW2 7560   1.724   6.941   2.246
 2221SOL     OW 7561   0.375   0.036   5.496
 2221SOL    HW1 7562   0.366   7.004   5.576
 2221SOL    HW2 7563   0.464   0.020   5.453
 2222SOL     OW 7564   5.904   4.892   3.877
 2222SOL    HW1 7565   5.966   4.879   3.800
 2222SOL    HW2 7566   5.819   4.935   3.846
 2223SOL     OW 7567   0.043   6.725   2.300
 2223SOL    HW1 7568   0.103   6.793   2.342
 2223SOL    HW2 7569   0.043   6.736   2.201
 2224SOL     OW 7570   0.853   6.035   0.162
 2224SOL    HW1 7571   0.760   6.001   0.178
 2224SOL    HW2 7572   0.874   6.107   0.229
 2225SOL     OW 7573   0.670   4.280   0.696
 2225SOL    HW1 7574   0.609   4.203   0.677
 2225SOL    HW2 7575   0.765   4.247   0.701
 2226SOL     OW 7576   3.835   3.519   2.359
 2226SOL    HW1 7577   3.825   3.433   2.309
 2226SOL    HW2 7578   3.763   3.583   2.331
 2227SOL     OW 7579   0.713   1.713   4.596
 2227SOL    HW1 7580   0.653   1.794   4.596
 2227SOL    HW2 7581   0.661   1.634   4.628
 2228SOL     OW 7582   2.478   4.460   4.302
 2228SOL    HW1 7583   2.403   4.408   4.343
 2228SOL    HW2 7584   2.492   4.429   4.208
 2229SOL     OW 7585   6.228   6.239   3.244
 2229SOL    HW1 7586   6.228   6.263   3.341
 2229SOL    HW2 7587   6.278   6.308   3.192
 2230SOL     OW 7588   2.160   5.252   3.002
 2230SOL    HW1 7589   2.111   5.175   3.042
 2230SOL    HW2 7590   2.249   5.221   2.968
 2231SOL     OW 7591   1.847   5.913   1.112
 2231SOL    HW1 7592   1.754   5.941   1.088
 2231SOL    HW2 7593   1.884   5.976   1.181
 2232SOL     OW 7594   5.859   2.052   4.276
 2232SOL    HW1 7595   5.828   2.121   4.211
 2232SOL    HW2 7596   5.781   2.012   4.323
 2233SOL     OW 7597   3.763   1.313   0.048
 2233SOL    HW1 7598   3.758   1.213   0.054
 2233SOL    HW2 7599   3.850   1.339   0.006
 2234SOL     OW 7600   4.411   2.577   1.328
 2234SOL    HW1 7601   4.405   2.481   1.302
 2234SOL    HW2 7602   4.452   2.630   1.254
 2235SOL     OW 7603   2.189   2.109   2.604
 2235SOL    HW1 7604   2.180   2.159   2.518
 2235SOL    HW2 7605   2.208   2.173   2.678
 2236SOL     OW 7606   0.878   4.318   5.534
 2236SOL    HW1 7607   0.965   4.362   5.554
 2236SOL    HW2 7608   0.811   4.387   5.508
 2237SOL     OW 7609   6.574   2.730   4.008
 2237SOL    HW1 7610   6.659   2.783   4.006
 2237SOL    HW2 7611   6.566   2.685   4.097
 2238SOL     OW 7612   5.507   5.951   0.104
 2238SOL    HW1 7613   5.419   5.999   0.112
 2238SOL    HW2 7614   5.558   5.987   0.026
 2239SOL     OW 7615   0.287   5.640   1.026
 2239SOL    HW1 7616   0.298   5.608   1.120
 2239SOL    HW2 7617   0.364   5.698   1.000
 2240SOL     OW 7618   5.962   4.169   1.371
 2240SOL    HW1 7619   5.934   4.227   1.447
 2240SOL    HW2 7620   5.882   4.142   1.318
 2241SOL     OW 7621   1.095   0.410   4.259
 2241SOL    HW1 7622   1.103   0.474   4.335
 2241SOL    HW2 7623   0.999   0.395   4.238
 2242SOL     OW 7624   2.841   1.612   3.047
 2242SOL    HW1 7625   2.843   1.517   3.078
 2242SOL    HW2 7626   2.779   1.665   3.106
 2243SOL     OW 7627   2.078   0.271   4.904
 2243SOL    HW1 7628   2.053   0.298   4.996
 2243SOL    HW2 7629   2.166   0.223   4.906
 2244SOL     OW 7630   3.800   0.646   5.005
 2244SOL    HW1 7631   3.796   0.565   5.064
 2244SOL    HW2 7632   3.756   0.723   5.050
 2245SOL     OW 7633   0.384   2.593   2.169
 2245SOL    HW1 7634   0.296   2.638   2.184
 2245SOL    HW2 7635   0.456   2.644   2.214
 2246SOL     OW 7636   0.936   4.161   5.287
 2246SOL    HW1 7637   0.963   4.192   5.378
 2246SOL    HW2 7638   0.837   4.174   5.275
 2247SOL     OW 7639   1.928   1.489   4.544
 2247SOL    HW1 7640   2.026   1.480   4.557
 2247SOL    HW2 7641   1.883   1.502   4.632
 2248SOL     OW 7642   5.600   3.902   5.978
 2248SOL    HW1 7643   5.698   3.889   5.993
 2248SOL    HW2 7644   5.574   3.864   5.890
 2249SOL     OW 7645   5.141   5.413   5.301
 2249SOL    HW1 7646   5.161   5.404   5.399
 2249SOL    HW2 7647   5.167   5.505   5.270
 2250SOL     OW 7648   4.874   5.067   1.620
 2250SOL    HW1 7649   4.883   5.045   1.718
 2250SOL    HW2 7650   4.778   5.066   1.594
 2251SOL     OW 7651   0.298   0.923   5.187
 2251SOL    HW1 7652   0.283   0.824   5.191
 2251SOL    HW2 7653   0.291   0.954   5.093
 2252SOL     OW 7654   3.451   1.248   6.449
 2252SOL    HW1 7655   3.488   1.286   6.365
 2252SOL    HW2 7656   3.374   1.303   6.481
 2253SOL     OW 7657   0.794   4.010   0.384
 2253SOL    HW1 7658   0.696   4.006   0.403
 2253SOL    HW2 7659   0.820   4.104   0.361
 2254SOL     OW 7660   1.351   4.647   6.564
 2254SOL    HW1 7661   1.331   4.692   6.476
 2254SOL    HW2 7662   1.272   4.593   6.593
 2255SOL     OW 7663   6.542   3.696   6.280
 2255SOL    HW1 7664   6.588   3.695   6.369
 2255SOL    HW2 7665   6.505   3.605   6.260
 2256SOL     OW 7666   2.409   4.878   2.116
 2256SOL    HW1 7667   2.509   4.876   2.117
 2256SOL    HW2 7668   2.378   4.949   2.053
 2257SOL     OW 7669   1.209   4.245   5.206
 2257SOL    HW1 7670   1.133   4.185   5.230
 2257SOL    HW2 7671   1.292   4.215   5.253
 2258SOL     OW 7672   1.942   5.518   5.430
 2258SOL    HW1 7673   1.902   5.427   5.438
 2258SOL    HW2 7674   2.040   5.513   5.452
 2259SOL     OW 7675   6.059   1.830   5.963
 2259SOL    HW1 7676   6.000   1.779   5.901
 2259SOL    HW2 7677   6.051   1.791   6.055
 2260SOL     OW 7678   3.962   3.139   0.443
 2260SOL    HW1 7679   3.923   3.157   0.534
 2260SOL    HW2 7680   3.897   3.169   0.373
 2261SOL     OW 7681   2.413   6.252   5.181
 2261SOL    HW1 7682   2.338   6.198   5.217
 2261SOL    HW2 7683   2.411   6.251   5.081
 2262SOL     OW 7684   3.289   1.763   2.832
 2262SOL    HW1 7685   3.354   1.829   2.871
 2262SOL    HW2 7686   3.310   1.671   2.866
 2263SOL     OW 7687   0.914   4.717   5.792
 2263SOL    HW1 7688   0.935   4.734   5.888
 2263SOL    HW2 7689   0.889   4.621   5.780
 2264SOL     OW 7690   3.775   3.657   3.449
 2264SOL    HW1 7691   3.697   3.609   3.409
 2264SOL    HW2 7692   3.853   3.652   3.386
 2265SOL     OW 7693   1.183   6.712   4.638
 2265SOL    HW1 7694   1.135   6.732   4.553
 2265SOL    HW2 7695   1.160   6.782   4.707
 2266SOL     OW 7696   6.882   0.420   5.551
 2266SOL    HW1 7697   6.880   0.359   5.472
 2266SOL    HW2 7698   6.826   0.501   5.532
 2267SOL     OW 7699   5.703   1.737   5.146
 2267SOL    HW1 7700   5.774   1.732   5.216
 2267SOL    HW2 7701   5.739   1.784   5.065
 2268SOL     OW 7702   0.241   6.300   0.239
 2268SOL    HW1 7703   0.274   6.267   0.327
 2268SOL    HW2 7704   0.149   6.265   0.223
 2269SOL     OW 7705   0.379   6.577   3.098
 2269SOL    HW1 7706   0.430   6.558   3.182
 2269SOL    HW2 7707   0.433   6.548   3.019
 2270SOL     OW 7708   3.648   3.227   3.192
 2270SOL    HW1 7709   3.571   3.186   3.241
 2270SOL    HW2 7710   3.640   3.205   3.095
 2271SOL     OW 7711   1.554   4.430   2.681
 2271SOL    HW1 7712   1.522   4.470   2.767
 2271SOL    HW2 7713   1.649   4.459   2.664
 2272SOL     OW 7714   4.880   0.526   5.600
 2272SOL    HW1 7715   4.826   0.589   5.656
 2272SOL    HW2 7716   4.929   0.462   5.658
 2273SOL     OW 7717   0.751   1.891   2.265
 2273SOL    HW1 7718   0.658   1.872   2.232
 2273SOL    HW2 7719   0.804   1.806   2.265
 2274SOL     OW 7720   0.723   4.228   3.587
 2274SOL    HW1 7721   0.755   4.171   3.663
 2274SOL    HW2 7722   0.682   4.312   3.624
 2275SOL     OW 7723   4.612   6.691   3.172
 2275SOL    HW1 7724   4.654   6.779   3.191
 2275SOL    HW2 7725   4.676   6.634   3.120
 2276SOL     OW 7726   3.451   5.431   2.459
 2276SOL    HW1 7727   3.399   5.468   2.536
 2276SOL    HW2 7728   3.546   5.460   2.467
 2277SOL     OW 7729   3.052   3.160   2.181
 2277SOL    HW1 7730   3.129   3.223   2.175
 2277SOL    HW2 7731   2.966   3.212   2.186
 2278SOL     OW 7732   3.652   5.270   1.107
 2278SOL    HW1 7733   3.691   5.200   1.166
 2278SOL    HW2 7734   3.627   5.350   1.161
 2279SOL     OW 7735   5.876   3.698   5.734
 2279SOL    HW1 7736   5.852   3.710   5.830
 2279SOL    HW2 7737   5.972   3.670   5.727
 2280SOL     OW 7738   5.811   0.473   6.050
 2280SOL    HW1 7739   5.741   0.521   5.997
 2280SOL    HW2 7740   5.774   0.388   6.087
 2281SOL     OW 7741   2.687   0.655   0.938
 2281SOL    HW1 7742   2.741   0.668   1.021
 2281SOL    HW2 7743   2.743   0.609   0.869
 2282SOL     OW 7744   3.905   6.192   2.590
 2282SOL    HW1 7745   3.924   6.260   2.519
 2282SOL    HW2 7746   3.979   6.126   2.594
 2283SOL     OW 7747   0.831   3.225   1.435
 2283SOL    HW1 7748   0.756   3.165   1.409
 2283SOL    HW2 7749   0.863   3.199   1.526
 2284SOL     OW 7750   2.068   2.904   1.240
 2284SOL    HW1 7751   2.144   2.967   1.253
 2284SOL    HW2 7752   2.031   2.876   1.328
 2285SOL     OW 7753   1.885   2.473   6.153
 2285SOL    HW1 7754   1.967   2.517   6.117
 2285SOL    HW2 7755   1.826   2.541   6.195
 2286SOL     OW 7756   6.506   6.680   4.266
 2286SOL    HW1 7757   6.554   6.738   4.199
 2286SOL    HW2 7758   6.419   6.723   4.291
 2287SOL     OW 7759   2.435   1.444   0.807
 2287SOL    HW1 7760   2.521   1.494   0.798
 2287SOL    HW2 7761   2.414   1.431   0.904
 2288SOL     OW 7762   2.551   6.179   4.865
 2288SOL    HW1 7763   2.584   6.273   4.871
 2288SOL    HW2 7764   2.603   6.130   4.795
 2289SOL     OW 7765   3.921   0.407   6.774
 2289SOL    HW1 7766   3.977   0.420   6.693
 2289SOL    HW2 7767   3.885   0.313   6.774
 2290SOL     OW 7768   2.954   3.355   4.984
 2290SOL    HW1 7769   2.896   3.369   5.064
 2290SOL    HW2 7770   3.024   3.426   4.980
 2291SOL     OW 7771   2.435   2.119   0.438
 2291SOL    HW1 7772   2.525   2.123   0.481
 2291SOL    HW2 7773   2.441   2.157   0.345
 2292SOL     OW 7774   5.516   2.517   3.286
 2292SOL    HW1 7775   5.530   2.584   3.360
 2292SOL    HW2 7776   5.420   2.492   3.281
 2293SOL     OW 7777   0.754   0.893   0.261
 2293SOL    HW1 7778   0.673   0.943   0.290
 2293SOL    HW2 7779   0.741   0.795   0.276
 2294SOL     OW 7780   6.373   2.185   5.258
 2294SOL    HW1 7781   6.276   2.162   5.272
 2294SOL    HW2 7782   6.379   2.266   5.200
 2295SOL     OW 7783   5.910   6.020   0.647
 2295SOL    HW1 7784   5.846   6.097   0.645
 2295SOL    HW2 7785   5.905   5.975   0.736
 2296SOL     OW 7786   3.883   5.557   4.664
 2296SOL    HW1 7787   3.973   5.597   4.648
 2296SOL    HW2 7788   3.812   5.625   4.645
 2297SOL     OW 7789   6.225   2.899   6.777
 2297SOL    HW1 7790   6.250   2.812   6.819
 2297SOL    HW2 7791   6.168   2.883   6.696
 2298SOL     OW 7792   2.748   3.890   5.239
 2298SOL    HW1 7793   2.651   3.911   5.223
 2298SOL    HW2 7794   2.768   3.903   5.336
 2299SOL     OW 7795   5.898   3.499   4.609
 2299SOL    HW1 7796   5.801   3.510   4.630
 2299SOL    HW2 7797   5.927   3.407   4.634
 2300SOL     OW 7798   4.874   6.924   2.807
 2300SOL    HW1 7799   4.795   6.957   2.858
 2300SOL    HW2 7800   4.851   6.838   2.761
 2301SOL     OW 7801   3.945   3.191   5.237
 2301SOL    HW1 7802   3.974   3.278   5.197
 2301SOL    HW2 7803   4.025   3.139   5.264
 2302SOL     OW 7804   6.943   3.675   5.443
 2302SOL    HW1 7805   6.855   3.682   5.489
 2302SOL    HW2 7806   7.006   3.621   5.498
 2303SOL     OW 7807   2.854   1.714   6.158
 2303SOL    HW1 7808   2.769   1.765   6.171
 2303SOL    HW2 7809   2.911   1.721   6.240
 2304SOL     OW 7810   4.889   6.790   2.339
 2304SOL    HW1 7811   4.861   6.709   2.391
 2304SOL    HW2 7812   4.872   6.773   2.242
 2305SOL     OW 7813   3.090   6.474   5.292
 2305SOL    HW1 7814   3.083   6.424   5.206
 2305SOL    HW2 7815   3.065   6.415   5.368
 2306SOL     OW 7816   0.905   4.696   4.927
 2306SOL    HW1 7817   0.854   4.617   4.961
 2306SOL    HW2 7818   0.995   4.699   4.970
 2307SOL     OW 7819   6.141   3.632   4.574
 2307SOL    HW1 7820   6.218   3.575   4.605
 2307SOL    HW2 7821   6.055   3.589   4.600
 2308SOL     OW 7822   1.313   6.038   2.182
 2308SOL    HW1 7823   1.259   6.115   2.149
 2308SOL    HW2 7824   1.311   5.965   2.114
 2309SOL     OW 7825   1.665   0.831   4.486
 2309SOL    HW1 7826   1.666   0.797   4.579
 2309SOL    HW2 7827   1.729   0.907   4.477
 2310SOL     OW 7828   4.967   6.181   0.388
 2310SOL    HW1 7829   4.971   6.199   0.290
 2310SOL    HW2 7830   4.974   6.083   0.404
 2311SOL     OW 7831   2.604   5.791   0.790
 2311SOL    HW1 7832   2.693   5.837   0.798
 2311SOL    HW2 7833   2.537   5.838   0.848
 2312SOL     OW 7834   2.768   4.723   2.738
 2312SOL    HW1 7835   2.781   4.666   2.658
 2312SOL    HW2 7836   2.837   4.796   2.740
 2313SOL     OW 7837   4.543   5.175   1.340
 2313SOL    HW1 7838   4.571   5.097   1.284
 2313SOL    HW2 7839   4.444   5.186   1.335
 2314SOL     OW 7840   2.305   4.361   2.933
 2314SOL    HW1 7841   2.332   4.370   3.029
 2314SOL    HW2 7842   2.293   4.264   2.910
 2315SOL     OW 7843   4.251   2.056   6.302
 2315SOL    HW1 7844   4.337   2.104   6.287
 2315SOL    HW2 7845   4.269   1.967   6.345
 2316SOL     OW 7846   5.024   3.274   1.506
 2316SOL    HW1 7847   5.039   3.355   1.450
 2316SOL    HW2 7848   4.934   3.280   1.550
 2317SOL     OW 7849   0.976   5.908   4.102
 2317SOL    HW1 7850   0.897   5.935   4.047
 2317SOL    HW2 7851   0.952   5.827   4.156
 2318SOL     OW 7852   6.802   1.877   3.976
 2318SOL    HW1 7853   6.817   1.874   3.878
 2318SOL    HW2 7854   6.728   1.941   3.996
 2319SOL     OW 7855   1.026   4.820   2.034
 2319SOL    HW1 7856   0.983   4.730   2.026
 2319SOL    HW2 7857   1.019   4.852   2.129
 2320SOL     OW 7858   6.376   4.712   4.194
 2320SOL    HW1 7859   6.414   4.623   4.170
 2320SOL    HW2 7860   6.283   4.719   4.158
 2321SOL     OW 7861   3.765   4.945   4.139
 2321SOL    HW1 7862   3.851   4.932   4.189
 2321SOL    HW2 7863   3.689   4.953   4.204
 2322SOL     OW 7864   2.598   0.885   4.593
 2322SOL    HW1 7865   2.657   0.921   4.521
 2322SOL    HW2 7866   2.504   0.917   4.578
 2323SOL     OW 7867   5.238   3.434   1.926
 2323SOL    HW1 7868   5.247   3.421   1.827
 2323SOL    HW2 7869   5.271   3.526   1.950
 2324SOL     OW 7870   0.081   4.994   3.915
 2324SOL    HW1 7871   0.053   4.928   3.984
 2324SOL    HW2 7872   0.008   5.061   3.900
 2325SOL     OW 7873   6.471   2.069   0.373
 2325SOL    HW1 7874   6.437   2.055   0.280
 2325SOL    HW2 7875   6.428   2.003   0.434
 2326SOL     OW 7876   0.610   5.159   0.653
 2326SOL    HW1 7877   0.639   5.151   0.558
 2326SOL    HW2 7878   0.631   5.251   0.688
 2327SOL     OW 7879   4.836   1.263   3.221
 2327SOL    HW1 7880   4.835   1.173   3.177
 2327SOL    HW2 7881   4.857   1.252   3.319
 2328SOL     OW 7882   6.201   5.006   3.590
 2328SOL    HW1 7883   6.264   5.005   3.667
 2328SOL    HW2 7884   6.196   5.098   3.553
 2329SOL     OW 7885   1.113   6.374   3.221
 2329SOL    HW1 7886   1.064   6.420   3.147
 2329SOL    HW2 7887   1.156   6.291   3.186
 2330SOL     OW 7888   1.208   4.623   0.479
 2330SOL    HW1 7889   1.264   4.695   0.438
 2330SOL    HW2 7890   1.267   4.551   0.516
 2331SOL     OW 7891   1.579   4.943   4.765
 2331SOL    HW1 7892   1.606   5.032   4.801
 2331SOL    HW2 7893   1.525   4.894   4.833
 2332SOL     OW 7894   6.168   3.321   5.794
 2332SOL    HW1 7895   6.166   3.352   5.890
 2332SOL    HW2 7896   6.075   3.321   5.757
 2333SOL     OW 7897   2.521   4.696   4.172
 2333SOL    HW1 7898   2.531   4.637   4.252
 2333SOL    HW2 7899   2.473   4.780   4.198
 2334SOL     OW 7900   2.582   0.109   5.851
 2334SOL    HW1 7901   2.577   0.185   5.786
 2334SOL    HW2 7902   2.637   0.135   5.929
 2335SOL     OW 7903   4.689   4.640   4.161
 2335SOL    HW1 7904   4.728   4.695   4.235
 2335SOL    HW2 7905   4.762   4.612   4.099
 2336SOL     OW 7906   4.300   1.546   5.803
 2336SOL    HW1 7907   4.294   1.635   5.849
 2336SOL    HW2 7908   4.320   1.561   5.706
 2337SOL     OW 7909   5.709   0.618   4.436
 2337SOL    HW1 7910   5.736   0.522   4.442
 2337SOL    HW2 7911   5.682   0.651   4.527
 2338SOL     OW 7912   1.240   0.343   6.842
 2338SOL    HW1 7913   1.154   0.359   6.793
 2338SOL    HW2 7914   1.235   0.255   6.890
 2339SOL     OW 7915   3.958   4.727   6.714
 2339SOL    HW1 7916   3.882   4.776   6.757
 2339SOL    HW2 7917   3.997   4.783   6.640
 2340SOL     OW 7918   3.815   5.272   4.371
 2340SOL    HW1 7919   3.910   5.246   4.385
 2340SOL    HW2 7920   3.799   5.290   4.274
 2341SOL     OW 7921   0.079   4.350   6.400
 2341SOL    HW1 7922   0.087   4.416   6.325
 2341SOL    HW2 7923   0.165   4.300   6.408
 2342SOL     OW 7924   6.403   1.111   5.533
 2342SOL    HW1 7925   6.471   1.177   5.502
 2342SOL    HW2 7926   6.320   1.121   5.479
 2343SOL     OW 7927   1.379   5.927   0.094
 2343SOL    HW1 7928   1.451   5.951   0.158
 2343SOL    HW2 7929   1.345   5.835   0.114
 2344SOL     OW 7930   2.559   0.978   2.914
 2344SOL    HW1 7931   2.577   1.050   2.981
 2344SOL    HW2 7932   2.474   0.998   2.866
 2345SOL     OW 7933   1.420   2.337   2.467
 2345SOL    HW1 7934   1.323   2.311   2.463
 2345SOL    HW2 7935   1.431   2.415   2.529
 2346SOL     OW 7936   4.862   3.299   5.207
 2346SOL    HW1 7937   4.785   3.362   5.215
 2346SOL    HW2 7938   4.920   3.327   5.130
 2347SOL     OW 7939   1.353   4.386   0.534
 2347SOL    HW1 7940   1.388   4.330   0.458
 2347SOL    HW2 7941   1.311   4.326   0.602
 2348SOL     OW 7942   2.285   0.127   1.014
 2348SOL    HW1 7943   2.365   0.151   1.070
 2348SOL    HW2 7944   2.252   0.209   0.967
 2349SOL     OW 7945   5.582   3.391   6.571
 2349SOL    HW1 7946   5.643   3.359   6.643
 2349SOL    HW2 7947   5.503   3.330   6.564
 2350SOL     OW 7948   1.932   6.428   5.113
 2350SOL    HW1 7949   1.904   6.340   5.152
 2350SOL    HW2 7950   1.998   6.472   5.174
 2351SOL     OW 7951   1.609   4.945   2.651
 2351SOL    HW1 7952   1.519   4.944   2.694
 2351SOL    HW2 7953   1.666   4.873   2.690
 2352SOL     OW 7954   5.496   5.693   6.997
 2352SOL    HW1 7955   5.588   5.654   7.006
 2352SOL    HW2 7956   5.487   5.772   0.031
 2353SOL     OW 7957   2.637   2.976   6.027
 2353SOL    HW1 7958   2.718   3.034   6.032
 2353SOL    HW2 7959   2.590   2.991   5.940
 2354SOL     OW 7960   4.398   1.587   2.434
 2354SOL    HW1 7961   4.466   1.657   2.412
 2354SOL    HW2 7962   4.443   1.512   2.483
 2355SOL     OW 7963   0.583   1.242   1.799
 2355SOL    HW1 7964   0.603   1.319   1.859
 2355SOL    HW2 7965   0.664   1.217   1.747
 2356SOL     OW 7966   3.382   5.184   4.318
 2356SOL    HW1 7967   3.365   5.210   4.223
 2356SOL    HW2 7968   3.297   5.189   4.370
 2357SOL     OW 7969   1.132   5.481   1.072
 2357SOL    HW1 7970   1.208   5.546   1.068
 2357SOL    HW2 7971   1.161   5.394   1.033
 2358SOL     OW 7972   2.652   0.641   5.483
 2358SOL    HW1 7973   2.611   0.684   5.403
 2358SOL    HW2 7974   2.643   0.701   5.562
 2359SOL     OW 7975   2.857   2.148   6.184
 2359SOL    HW1 7976   2.765   2.167   6.149
 2359SOL    HW2 7977   2.919   2.130   6.107
 2360SOL     OW 7978   3.092   5.191   0.579
 2360SOL    HW1 7979   3.073   5.260   0.648
 2360SOL    HW2 7980   3.045   5.106   0.603
 2361SOL     OW 7981   3.295   4.914   1.181
 2361SOL    HW1 7982   3.303   4.905   1.082
 2361SOL    HW2 7983   3.219   4.976   1.203
 2362SOL     OW 7984   2.860   4.950   4.714
 2362SOL    HW1 7985   2.800   4.875   4.742
 2362SOL    HW2 7986   2.916   4.921   4.637
 2363SOL     OW 7987   1.974   3.900   0.884
 2363SOL    HW1 7988   1.945   3.845   0.962
 2363SOL    HW2 7989   1.898   3.959   0.855
 2364SOL     OW 7990   5.033   0.760   2.101
 2364SOL    HW1 7991   5.041   0.679   2.042
 2364SOL    HW2 7992   4.938   0.790   2.102
 2365SOL     OW 7993   5.754   4.371   2.924
 2365SOL    HW1 7994   5.774   4.417   2.837
 2365SOL    HW2 7995   5.749   4.272   2.909
 2366SOL     OW 7996   3.333   4.901   5.232
 2366SOL    HW1 7997   3.330   4.998   5.212
 2366SOL    HW2 7998   3.405   4.883   5.299
 2367SOL     OW 7999   6.155   5.444   5.429
 2367SOL    HW1 8000   6.116   5.377   5.492
 2367SOL    HW2 8001   6.155   5.534   5.472
 2368SOL     OW 8002   5.533   0.265   5.107
 2368SOL    HW1 8003   5.551   0.218   5.194
 2368SOL    HW2 8004   5.440   0.301   5.108
 2369SOL     OW 8005   4.099   1.830   4.561
 2369SOL    HW1 8006   4.129   1.745   4.516
 2369SOL    HW2 8007   4.015   1.863   4.518
 2370SOL     OW 8008   4.585   1.731   1.346
 2370SOL    HW1 8009   4.650   1.660   1.374
 2370SOL    HW2 8010   4.568   1.793   1.423
 2371SOL     OW 8011   2.035   0.106   2.132
 2371SOL    HW1 8012   1.948   0.063   2.109
 2371SOL    HW2 8013   2.110   0.047   2.104
 2372SOL     OW 8014   6.741   0.012   5.091
 2372SOL    HW1 8015   6.687   0.080   5.141
 2372SOL    HW2 8016   6.830   0.001   5.137
 2373SOL     OW 8017   6.207   4.439   5.995
 2373SOL    HW1 8018   6.301   4.441   6.029
 2373SOL    HW2 8019   6.163   4.355   6.025
 2374SOL     OW 8020   6.866   6.298   2.219
 2374SOL    HW1 8021   6.907   6.284   2.129
 2374SOL    HW2 8022   6.937   6.324   2.284
 2375SOL     OW 8023   1.670   0.170   4.132
 2375SOL    HW1 8024   1.577   0.191   4.104
 2375SOL    HW2 8025   1.729   0.249   4.116
 2376SOL     OW 8026   5.118   3.477   4.040
 2376SOL    HW1 8027   5.178   3.545   4.082
 2376SOL    HW2 8028   5.125   3.482   3.941
 2377SOL     OW 8029   3.518   4.012   5.609
 2377SOL    HW1 8030   3.549   4.070   5.684
 2377SOL    HW2 8031   3.459   3.940   5.646
 2378SOL     OW 8032   0.996   0.765   1.057
 2378SOL    HW1 8033   0.912   0.711   1.048
 2378SOL    HW2 8034   1.000   0.832   0.984
 2379SOL     OW 8035   0.781   4.815   2.494
 2379SOL    HW1 8036   0.799   4.858   2.582
 2379SOL    HW2 8037   0.858   4.756   2.469
 2380SOL     OW 8038   4.234   5.534   6.485
 2380SOL    HW1 8039   4.163   5.546   6.415
 2380SOL    HW2 8040   4.324   5.549   6.444
 2381SOL     OW 8041   2.119   3.721   3.752
 2381SOL    HW1 8042   2.150   3.744   3.844
 2381SOL    HW2 8043   2.143   3.795   3.689
 2382SOL     OW 8044   6.927   5.651   2.847
 2382SOL    HW1 8045   7.008   5.598   2.874
 2382SOL    HW2 8046   6.904   5.715   2.921
 2383SOL     OW 8047   5.199   3.927   5.934
 2383SOL    HW1 8048   5.128   3.993   5.908
 2383SOL    HW2 8049   5.209   3.926   6.033
 2384SOL     OW 8050   0.309   2.601   3.080
 2384SOL    HW1 8051   0.249   2.550   3.142
 2384SOL    HW2 8052   0.316   2.551   2.993
 2385SOL     OW 8053   0.227   1.072   0.744
 2385SOL    HW1 8054   0.197   1.150   0.689
 2385SOL    HW2 8055   0.158   0.999   0.740
 2386SOL     OW 8056   6.598   4.921   5.276
 2386SOL    HW1 8057   6.668   4.914   5.206
 2386SOL    HW2 8058   6.604   5.011   5.320
 2387SOL     OW 8059   0.066   0.672   3.782
 2387SOL    HW1 8060   0.063   0.703   3.687
 2387SOL    HW2 8061   0.158   0.638   3.803
 2388SOL     OW 8062   1.535   3.984   4.476
 2388SOL    HW1 8063   1.497   4.042   4.548
 2388SOL    HW2 8064   1.615   4.029   4.436
 2389SOL     OW 8065   3.921   6.162   3.152
 2389SOL    HW1 8066   3.919   6.229   3.079
 2389SOL    HW2 8067   3.830   6.121   3.162
 2390SOL     OW 8068   5.317   2.351   5.576
 2390SOL    HW1 8069   5.242   2.302   5.620
 2390SOL    HW2 8070   5.297   2.449   5.576
 2391SOL     OW 8071   2.696   3.649   6.583
 2391SOL    HW1 8072   2.793   3.624   6.584
 2391SOL    HW2 8073   2.686   3.742   6.546
 2392SOL     OW 8074   3.995   5.406   5.999
 2392SOL    HW1 8075   4.086   5.427   6.033
 2392SOL    HW2 8076   3.980   5.307   6.002
 2393SOL     OW 8077   3.781   4.771   0.272
 2393SOL    HW1 8078   3.813   4.724   0.190
 2393SOL    HW2 8079   3.733   4.706   0.331
 2394SOL     OW 8080   6.460   2.387   3.427
 2394SOL    HW1 8081   6.403   2.314   3.465
 2394SOL    HW2 8082   6.531   2.346   3.370
 2395SOL     OW 8083   1.431   2.723   3.717
 2395SOL    HW1 8084   1.370   2.713   3.796
 2395SOL    HW2 8085   1.522   2.689   3.741
 2396SOL     OW 8086   6.891   0.085   6.411
 2396SOL    HW1 8087   6.877   0.176   6.449
 2396SOL    HW2 8088   6.976   0.083   6.360
 2397SOL     OW 8089   2.234   4.670   6.113
 2397SOL    HW1 8090   2.294   4.713   6.046
 2397SOL    HW2 8091   2.275   4.677   6.204
 2398SOL     OW 8092   4.136   5.950   4.967
 2398SOL    HW1 8093   4.171   5.868   4.923
 2398SOL    HW2 8094   4.038   5.940   4.985
 2399SOL     OW 8095   2.954   1.443   2.382
 2399SOL    HW1 8096   2.926   1.505   2.456
 2399SOL    HW2 8097   2.929   1.482   2.294
 2400SOL     OW 8098   0.832   2.783   0.430
 2400SOL    HW1 8099   0.770   2.706   0.435
 2400SOL    HW2 8100   0.874   2.798   0.520
 2401SOL     OW 8101   1.145   6.292   0.116
 2401SOL    HW1 8102   1.134   6.220   0.047
 2401SOL    HW2 8103   1.074   6.281   0.186
 2402SOL     OW 8104   0.656   3.635   2.475
 2402SOL    HW1 8105   0.735   3.579   2.501
 2402SOL    HW2 8106   0.662   3.723   2.521
 2403SOL     OW 8107   3.000   4.267   5.274
 2403SOL    HW1 8108   2.955   4.356   5.266
 2403SOL    HW2 8109   2.946   4.198   5.226
 2404SOL     OW 8110   6.144   1.506   2.233
 2404SOL    HW1 8111   6.148   1.539   2.327
 2404SOL    HW2 8112   6.198   1.566   2.174
 2405SOL     OW 8113   1.609   3.045   0.752
 2405SOL    HW1 8114   1.614   3.006   0.844
 2405SOL    HW2 8115   1.514   3.052   0.724
 2406SOL     OW 8116   4.145   5.567   4.573
 2406SOL    HW1 8117   4.145   5.491   4.639
 2406SOL    HW2 8118   4.239   5.599   4.560
 2407SOL     OW 8119   2.191   1.490   3.884
 2407SOL    HW1 8120   2.130   1.554   3.837
 2407SOL    HW2 8121   2.276   1.538   3.908
 2408SOL     OW 8122   3.853   0.289   5.854
 2408SOL    HW1 8123   3.845   0.210   5.913
 2408SOL    HW2 8124   3.811   0.269   5.765
 2409SOL     OW 8125   0.719   3.116   6.525
 2409SOL    HW1 8126   0.631   3.111   6.572
 2409SOL    HW2 8127   0.705   3.105   6.427
 2410SOL     OW 8128   7.006   3.534   4.425
 2410SOL    HW1 8129   0.040   3.537   4.504
 2410SOL    HW2 8130   0.027   3.491   4.348
 2411SOL     OW 8131   3.243   1.544   0.164
 2411SOL    HW1 8132   3.274   1.631   0.203
 2411SOL    HW2 8133   3.202   1.489   0.237
 2412SOL     OW 8134   2.878   1.777   6.774
 2412SOL    HW1 8135   2.798   1.774   6.715
 2412SOL    HW2 8136   2.850   1.764   6.869
 2413SOL     OW 8137   6.854   3.954   6.895
 2413SOL    HW1 8138   6.823   3.864   6.865
 2413SOL    HW2 8139   6.818   4.024   6.833
 2414SOL     OW 8140   6.653   1.392   4.844
 2414SOL    HW1 8141   6.627   1.335   4.766
 2414SOL    HW2 8142   6.751   1.386   4.859
 2415SOL     OW 8143   3.246   3.878   6.380
 2415SOL    HW1 8144   3.268   3.906   6.474
 2415SOL    HW2 8145   3.147   3.878   6.369
 2416SOL     OW 8146   0.339   3.376   4.005
 2416SOL    HW1 8147   0.313   3.469   3.980
 2416SOL    HW2 8148   0.391   3.379   4.091
 2417SOL     OW 8149   3.571   2.544   1.705
 2417SOL    HW1 8150   3.476   2.543   1.737
 2417SOL    HW2 8151   3.627   2.489   1.768
 2418SOL     OW 8152   5.822   4.153   6.177
 2418SOL    HW1 8153   5.810   4.227   6.111
 2418SOL    HW2 8154   5.766   4.171   6.258
 2419SOL     OW 8155   3.762   1.064   2.851
 2419SOL    HW1 8156   3.757   1.053   2.752
 2419SOL    HW2 8157   3.826   1.137   2.874
 2420SOL     OW 8158   1.303   3.876   2.432
 2420SOL    HW1 8159   1.386   3.902   2.383
 2420SOL    HW2 8160   1.297   3.776   2.435
 2421SOL     OW 8161   2.589   6.948   2.787
 2421SOL    HW1 8162   2.570   0.020   2.792
 2421SOL    HW2 8163   2.582   6.909   2.879
 2422SOL     OW 8164   4.173   6.466   0.340
 2422SOL    HW1 8165   4.114   6.542   0.368
 2422SOL    HW2 8166   4.184   6.403   0.416
 2423SOL     OW 8167   3.482   4.914   4.565
 2423SOL    HW1 8168   3.485   5.014   4.564
 2423SOL    HW2 8169   3.388   4.885   4.583
 2424SOL     OW 8170   5.107   6.839   6.292
 2424SOL    HW1 8171   5.042   6.835   6.216
 2424SOL    HW2 8172   5.198   6.814   6.259
 2425SOL     OW 8173   4.085   5.532   5.465
 2425SOL    HW1 8174   3.999   5.482   5.477
 2425SOL    HW2 8175   4.150   5.505   5.536
 2426SOL     OW 8176   3.172   2.318   5.395
 2426SOL    HW1 8177   3.073   2.317   5.407
 2426SOL    HW2 8178   3.195   2.306   5.299
 2427SOL     OW 8179   3.924   2.031   0.775
 2427SOL    HW1 8180   3.838   2.073   0.805
 2427SOL    HW2 8181   3.909   1.982   0.689
 2428SOL     OW 8182   1.943   1.864   2.944
 2428SOL    HW1 8183   1.909   1.918   2.867
 2428SOL    HW2 8184   2.020   1.911   2.987
 2429SOL     OW 8185   5.822   6.161   1.172
 2429SOL    HW1 8186   5.894   6.105   1.130
 2429SOL    HW2 8187   5.844   6.175   1.269
 2430SOL     OW 8188   6.831   0.214   0.015
 2430SOL    HW1 8189   6.831   0.114   0.019
 2430SOL    HW2 8190   6.923   0.248   7.025
 2431SOL     OW 8191   2.067   3.281   1.798
 2431SOL    HW1 8192   2.115   3.200   1.830
 2431SOL    HW2 8193   1.996   3.306   1.863
 2432SOL     OW 8194   2.757   5.936   2.156
 2432SOL    HW1 8195   2.705   5.868   2.208
 2432SOL    HW2 8196   2.744   5.919   2.058
 2433SOL     OW 8197   0.021   4.827   4.100
 2433SOL    HW1 8198   0.024   4.732   4.132
 2433SOL    HW2 8199   7.016   4.886   4.174
 2434SOL     OW 8200   4.453   1.617   2.838
 2434SOL    HW1 8201   4.507   1.645   2.917
 2434SOL    HW2 8202   4.484   1.666   2.757
 2435SOL     OW 8203   6.107   7.008   6.682
 2435SOL    HW1 8204   6.105   0.012   6.587
 2435SOL    HW2 8205   6.195   6.966   6.702
 2436SOL     OW 8206   6.909   2.638   0.903
 2436SOL    HW1 8207   6.973   2.565   0.877
 2436SOL    HW2 8208   6.819   2.598   0.921
 2437SOL     OW 8209   0.897   4.170   1.339
 2437SOL    HW1 8210   0.832   4.244   1.320
 2437SOL    HW2 8211   0.974   4.207   1.392
 2438SOL     OW 8212   3.721   1.472   4.817
 2438SOL    HW1 8213   3.721   1.459   4.718
 2438SOL    HW2 8214   3.809   1.441   4.855
 2439SOL     OW 8215   0.125   5.945   0.511
 2439SOL    HW1 8216   0.189   5.868   0.516
 2439SOL    HW2 8217   0.175   6.031   0.525
 2440SOL     OW 8218   5.878   1.672   5.403
 2440SOL    HW1 8219   5.791   1.625   5.419
 2440SOL    HW2 8220   5.915   1.704   5.491
 2441SOL     OW 8221   6.144   0.884   0.249
 2441SOL    HW1 8222   6.211   0.818   0.215
 2441SOL    HW2 8223   6.183   0.934   0.326
 2442SOL     OW 8224   5.031   2.712   2.499
 2442SOL    HW1 8225   5.100   2.739   2.432
 2442SOL    HW2 8226   4.944   2.696   2.452
 2443SOL     OW 8227   0.135   2.744   1.282
 2443SOL    HW1 8228   0.214   2.769   1.338
 2443SOL    HW2 8229   0.147   2.781   1.190
 2444SOL     OW 8230   3.645   4.934   3.096
 2444SOL    HW1 8231   3.548   4.910   3.098
 2444SOL    HW2 8232   3.687   4.910   3.184
 2445SOL     OW 8233   0.591   1.742   1.019
 2445SOL    HW1 8234   0.633   1.708   1.103
 2445SOL    HW2 8235   0.659   1.743   0.946
 2446SOL     OW 8236   6.762   5.771   1.637
 2446SOL    HW1 8237   6.750   5.675   1.664
 2446SOL    HW2 8238   6.722   5.785   1.547
 2447SOL     OW 8239   1.652   6.807   0.731
 2447SOL    HW1 8240   1.650   6.751   0.648
 2447SOL    HW2 8241   1.670   6.748   0.810
 2448SOL     OW 8242   5.600   1.200   3.829
 2448SOL    HW1 8243   5.659   1.269   3.788
 2448SOL    HW2 8244   5.621   1.110   3.789
 2449SOL     OW 8245   2.279   4.033   1.518
 2449SOL    HW1 8246   2.243   4.123   1.496
 2449SOL    HW2 8247   2.317   4.035   1.611
 2450SOL     OW 8248   0.891   6.845   5.430
 2450SOL    HW1 8249   0.847   6.898   5.358
 2450SOL    HW2 8250   0.990   6.852   5.421
 2451SOL     OW 8251   1.826   0.036   6.706
 2451SOL    HW1 8252   1.914   0.036   6.660
 2451SOL    HW2 8253   1.836   7.023   6.798
 2452SOL     OW 8254   2.648   1.930   4.142
 2452SOL    HW1 8255   2.580   1.966   4.206
 2452SOL    HW2 8256   2.733   1.982   4.151
 2453SOL     OW 8257   1.322   1.582   6.286
 2453SOL    HW1 8258   1.414   1.544   6.286
 2453SOL    HW2 8259   1.255   1.509   6.277
 2454SOL     OW 8260   2.899   6.202   0.550
 2454SOL    HW1 8261   2.893   6.104   0.568
 2454SOL    HW2 8262   2.809   6.244   0.559
 2455SOL     OW 8263   4.316   2.452   0.216
 2455SOL    HW1 8264   4.288   2.538   0.258
 2455SOL    HW2 8265   4.352   2.390   0.286
 2456SOL     OW 8266   0.857   3.798   6.089
 2456SOL    HW1 8267   0.922   3.724   6.067
 2456SOL    HW2 8268   0.891   3.884   6.051
 2457SOL     OW 8269   4.804   1.437   5.942
 2457SOL    HW1 8270   4.863   1.451   6.021
 2457SOL    HW2 8271   4.844   1.366   5.883
 2458SOL     OW 8272   1.046   0.279   2.502
 2458SOL    HW1 8273   1.081   0.206   2.561
 2458SOL    HW2 8274   1.031   0.361   2.557
 2459SOL     OW 8275   2.351   6.772   1.484
 2459SOL    HW1 8276   2.289   6.727   1.420
 2459SOL    HW2 8277   2.433   6.716   1.495
 2460SOL     OW 8278   0.664   0.547   4.031
 2460SOL    HW1 8279   0.634   0.455   4.053
 2460SOL    HW2 8280   0.755   0.544   3.991
 2461SOL     OW 8281   3.649   1.544   3.389
 2461SOL    HW1 8282   3.589   1.473   3.354
 2461SOL    HW2 8283   3.654   1.620   3.324
 2462SOL     OW 8284   0.349   6.347   1.023
 2462SOL    HW1 8285   0.285   6.332   1.098
 2462SOL    HW2 8286   0.311   6.415   0.960
 2463SOL     OW 8287   6.704   6.829   0.909
 2463SOL    HW1 8288   6.729   6.756   0.846
 2463SOL    HW2 8289   6.652   6.791   0.986
 2464SOL     OW 8290   0.444   2.954   4.488
 2464SOL    HW1 8291   0.378   3.029   4.497
 2464SOL    HW2 8292   0.463   2.938   4.391
 2465SOL     OW 8293   6.148   1.114   6.809
 2465SOL    HW1 8294   6.110   1.081   6.896
 2465SOL    HW2 8295   6.161   1.213   6.814
 2466SOL     OW 8296   0.501   2.453   1.309
 2466SOL    HW1 8297   0.438   2.433   1.384
 2466SOL    HW2 8298   0.515   2.370   1.254
 2467SOL     OW 8299   4.681   2.712   4.901
 2467SOL    HW1 8300   4.767   2.661   4.909
 2467SOL    HW2 8301   4.683   2.791   4.961
 2468SOL     OW 8302   3.991   6.996   5.037
 2468SOL    HW1 8303   4.049   0.028   5.093
 2468SOL    HW2 8304   4.005   7.019   4.940
 2469SOL     OW 8305   3.025   2.089   5.898
 2469SOL    HW1 8306   3.125   2.087   5.901
 2469SOL    HW2 8307   2.995   2.098   5.804
 2470SOL     OW 8308   2.050   5.892   6.494
 2470SOL    HW1 8309   2.001   5.954   6.434
 2470SOL    HW2 8310   2.043   5.799   6.458
 2471SOL     OW 8311   3.284   5.778   2.726
 2471SOL    HW1 8312   3.291   5.814   2.633
 2471SOL    HW2 8313   3.223   5.836   2.780
 2472SOL     OW 8314   4.593   1.417   2.524
 2472SOL    HW1 8315   4.600   1.395   2.427
 2472SOL    HW2 8316   4.685   1.430   2.562
 2473SOL     OW 8317   0.459   4.458   4.213
 2473SOL    HW1 8318   0.390   4.414   4.156
 2473SOL    HW2 8319   0.547   4.411   4.203
 2474SOL     OW 8320   1.602   6.314   0.966
 2474SOL    HW1 8321   1.631   6.288   0.873
 2474SOL    HW2 8322   1.507   6.287   0.980
 2475SOL     OW 8323   5.294   2.441   0.565
 2475SOL    HW1 8324   5.255   2.393   0.487
 2475SOL    HW2 8325   5.393   2.425   0.568
 2476SOL     OW 8326   4.891   7.020   0.717
 2476SOL    HW1 8327   4.959   6.978   0.776
 2476SOL    HW2 8328   4.914   0.089   0.701
 2477SOL     OW 8329   3.981   0.239   3.511
 2477SOL    HW1 8330   4.081   0.233   3.513
 2477SOL    HW2 8331   3.946   0.233   3.604
 2478SOL     OW 8332   3.575   0.093   4.476
 2478SOL    HW1 8333   3.539   0.011   4.519
 2478SOL    HW2 8334   3.510   0.126   4.407
 2479SOL     OW 8335   5.097   3.228   1.134
 2479SOL    HW1 8336   5.083   3.276   1.047
 2479SOL    HW2 8337   5.176   3.268   1.181
 2480SOL     OW 8338   3.373   2.248   1.767
 2480SOL    HW1 8339   3.465   2.215   1.746
 2480SOL    HW2 8340   3.366   2.345   1.744
 2481SOL     OW 8341   3.252   0.296   1.589
 2481SOL    HW1 8342   3.347   0.284   1.560
 2481SOL    HW2 8343   3.194   0.306   1.508
 2482SOL     OW 8344   6.830   3.156   0.289
 2482SOL    HW1 8345   6.847   3.224   0.361
 2482SOL    HW2 8346   6.882   3.181   0.207
 2483SOL     OW 8347   2.844   2.174   1.094
 2483SOL    HW1 8348   2.836   2.133   1.003
 2483SOL    HW2 8349   2.760   2.158   1.146
 2484SOL     OW 8350   4.518   0.422   6.552
 2484SOL    HW1 8351   4.431   0.373   6.556
 2484SOL    HW2 8352   4.517   0.484   6.474
 2485SOL     OW 8353   0.249   1.622   6.132
 2485SOL    HW1 8354   0.245   1.534   6.085
 2485SOL    HW2 8355   0.215   1.612   6.225
 2486SOL     OW 8356   0.268   5.473   3.437
 2486SOL    HW1 8357   0.197   5.473   3.367
 2486SOL    HW2 8358   0.272   5.562   3.481
 2487SOL     OW 8359   4.464   6.134   0.133
 2487SOL    HW1 8360   4.432   6.166   0.044
 2487SOL    HW2 8361   4.558   6.103   0.126
 2488SOL     OW 8362   0.009   3.789   0.697
 2488SOL    HW1 8363   0.101   3.757   0.675
 2488SOL    HW2 8364   0.001   3.802   0.796
 2489SOL     OW 8365   6.161   4.954   4.249
 2489SOL    HW1 8366   6.116   5.019   4.309
 2489SOL    HW2 8367   6.194   5.001   4.167
 2490SOL     OW 8368   2.188   5.736   2.363
 2490SOL    HW1 8369   2.190   5.836   2.357
 2490SOL    HW2 8370   2.273   5.698   2.327
 2491SOL     OW 8371   3.820   4.583   1.577
 2491SOL    HW1 8372   3.919   4.597   1.577
 2491SOL    HW2 8373   3.795   4.525   1.654
 2492SOL     OW 8374   6.835   5.602   1.057
 2492SOL    HW1 8375   6.832   5.516   1.004
 2492SOL    HW2 8376   6.803   5.585   1.150
 2493SOL     OW 8377   5.135   6.607   0.824
 2493SOL    HW1 8378   5.180   6.572   0.742
 2493SOL    HW2 8379   5.137   6.538   0.896
 2494SOL     OW 8380   7.001   3.828   0.975
 2494SOL    HW1 8381   7.023   3.922   1.004
 2494SOL    HW2 8382   6.915   3.799   1.017
 2495SOL     OW 8383   0.598   3.289   2.087
 2495SOL    HW1 8384   0.551   3.256   2.169
 2495SOL    HW2 8385   0.660   3.218   2.053
 2496SOL     OW 8386   6.004   4.611   6.517
 2496SOL    HW1 8387   6.030   4.610   6.613
 2496SOL    HW2 8388   5.952   4.694   6.497
 2497SOL     OW 8389   0.319   0.152   2.545
 2497SOL    HW1 8390   0.292   0.219   2.615
 2497SOL    HW2 8391   0.400   0.186   2.497
 2498SOL     OW 8392   2.102   3.496   4.939
 2498SOL    HW1 8393   2.152   3.565   4.992
 2498SOL    HW2 8394   2.053   3.435   5.002
 2499SOL     OW 8395   6.884   3.668   2.567
 2499SOL    HW1 8396   6.822   3.604   2.521
 2499SOL    HW2 8397   6.840   3.757   2.577
 2500SOL     OW 8398   3.642   3.452   1.992
 2500SOL    HW1 8399   3.553   3.496   2.004
 2500SOL    HW2 8400   3.686   3.487   1.909
 2501SOL     OW 8401   6.071   5.540   6.319
 2501SOL    HW1 8402   5.979   5.538   6.357
 2501SOL    HW2 8403   6.121   5.458   6.346
 2502SOL     OW 8404   2.072   6.504   4.209
 2502SOL    HW1 8405   2.128   6.576   4.168
 2502SOL    HW2 8406   2.121   6.464   4.286
 2503SOL     OW 8407   2.526   0.164   5.522
 2503SOL    HW1 8408   2.463   0.101   5.567
 2503SOL    HW2 8409   2.620   0.131   5.534
 2504SOL     OW 8410   3.675   0.091   3.195
 2504SOL    HW1 8411   3.761   0.056   3.157
 2504SOL    HW2 8412   3.694   0.140   3.280
 2505SOL     OW 8413   6.590   4.335   4.051
 2505SOL    HW1 8414   6.558   4.258   3.996
 2505SOL    HW2 8415   6.657   4.388   3.999
 2506SOL     OW 8416   5.736   5.566   6.385
 2506SOL    HW1 8417   5.734   5.636   6.313
 2506SOL    HW2 8418   5.745   5.476   6.343
 2507SOL     OW 8419   0.449   3.403   2.742
 2507SOL    HW1 8420   0.518   3.459   2.788
 2507SOL    HW2 8421   0.411   3.455   2.665
 2508SOL     OW 8422   6.009   0.869   4.008
 2508SOL    HW1 8423   6.032   0.951   3.955
 2508SOL    HW2 8424   5.941   0.893   4.078
 2509SOL     OW 8425   0.494   3.056   5.698
 2509SOL    HW1 8426   0.562   2.987   5.673
 2509SOL    HW2 8427   0.403   3.026   5.668
 2510SOL     OW 8428   3.114   3.966   2.508
 2510SOL    HW1 8429   3.087   3.898   2.576
 2510SOL    HW2 8430   3.079   3.938   2.418
 2511SOL     OW 8431   1.813   0.406   4.233
 2511SOL    HW1 8432   1.820   0.482   4.169
 2511SOL    HW2 8433   1.844   0.436   4.324
 2512SOL     OW 8434   3.979   4.848   3.952
 2512SOL    HW1 8435   4.050   4.785   3.984
 2512SOL    HW2 8436   3.921   4.875   4.029
 2513SOL     OW 8437   1.999   5.642   6.346
 2513SOL    HW1 8438   1.919   5.702   6.338
 2513SOL    HW2 8439   1.968   5.548   6.363
 2514SOL     OW 8440   1.624   1.919   3.376
 2514SOL    HW1 8441   1.679   1.998   3.351
 2514SOL    HW2 8442   1.683   1.839   3.383
 2515SOL     OW 8443   0.564   2.210   1.199
 2515SOL    HW1 8444   0.546   2.122   1.241
 2515SOL    HW2 8445   0.580   2.198   1.101
 2516SOL     OW 8446   5.864   2.239   4.554
 2516SOL    HW1 8447   5.934   2.216   4.622
 2516SOL    HW2 8448   5.876   2.333   4.524
 2517SOL     OW 8449   0.558   1.290   3.602
 2517SOL    HW1 8450   0.558   1.340   3.515
 2517SOL    HW2 8451   0.601   1.347   3.672
 2518SOL     OW 8452   2.465   4.409   0.907
 2518SOL    HW1 8453   2.409   4.486   0.876
 2518SOL    HW2 8454   2.437   4.383   1.000
 2519SOL     OW 8455   0.916   1.382   1.089
 2519SOL    HW1 8456   0.883   1.415   1.000
 2519SOL    HW2 8457   0.998   1.327   1.076
 2520SOL     OW 8458   2.395   2.371   1.357
 2520SOL    HW1 8459   2.487   2.333   1.369
 2520SOL    HW2 8460   2.402   2.461   1.315
 2521SOL     OW 8461   5.387   0.529   4.724
 2521SOL    HW1 8462   5.466   0.468   4.728
 2521SOL    HW2 8463   5.383   0.584   4.808
 2522SOL     OW 8464   1.160   2.034   6.659
 2522SOL    HW1 8465   1.100   2.004   6.733
 2522SOL    HW2 8466   1.218   1.958   6.629
 2523SOL     OW 8467   1.207   5.221   6.485
 2523SOL    HW1 8468   1.108   5.229   6.498
 2523SOL    HW2 8469   1.233   5.125   6.482
 2524SOL     OW 8470   1.105   1.276   4.480
 2524SOL    HW1 8471   1.042   1.354   4.484
 2524SOL    HW2 8472   1.130   1.258   4.385
 2525SOL     OW 8473   6.628   2.635   5.637
 2525SOL    HW1 8474   6.691   2.621   5.561
 2525SOL    HW2 8475   6.645   2.725   5.678
 2526SOL     OW 8476   1.685   0.490   0.655
 2526SOL    HW1 8477   1.772   0.530   0.684
 2526SOL    HW2 8478   1.622   0.485   0.733
 2527SOL     OW 8479   4.038   5.102   6.324
 2527SOL    HW1 8480   4.125   5.076   6.366
 2527SOL    HW2 8481   4.049   5.189   6.276
 2528SOL     OW 8482   4.681   5.714   6.246
 2528SOL    HW1 8483   4.664   5.727   6.148
 2528SOL    HW2 8484   4.742   5.786   6.279
 2529SOL     OW 8485   0.695   6.577   5.704
 2529SOL    HW1 8486   0.654   6.666   5.720
 2529SOL    HW2 8487   0.789   6.577   5.736
 2530SOL     OW 8488   2.417   6.230   6.557
 2530SOL    HW1 8489   2.473   6.212   6.638
 2530SOL    HW2 8490   2.370   6.145   6.531
 2531SOL     OW 8491   6.898   5.494   6.463
 2531SOL    HW1 8492   6.825   5.502   6.531
 2531SOL    HW2 8493   6.976   5.550   6.491
 2532SOL     OW 8494   5.737   5.835   1.859
 2532SOL    HW1 8495   5.647   5.854   1.821
 2532SOL    HW2 8496   5.759   5.904   1.928
 2533SOL     OW 8497   4.580   1.081   3.895
 2533SOL    HW1 8498   4.667   1.075   3.846
 2533SOL    HW2 8499   4.508   1.109   3.831
 2534SOL     OW 8500   4.060   1.102   2.541
 2534SOL    HW1 8501   4.095   1.158   2.616
 2534SOL    HW2 8502   3.972   1.138   2.511
 2535SOL     OW 8503   3.603   2.888   6.181
 2535SOL    HW1 8504   3.683   2.832   6.201
 2535SOL    HW2 8505   3.522   2.830   6.172
 2536SOL     OW 8506   1.553   0.593   1.658
 2536SOL    HW1 8507   1.622   0.526   1.630
 2536SOL    HW2 8508   1.497   0.555   1.731
 2537SOL     OW 8509   3.956   0.406   5.539
 2537SOL    HW1 8510   4.017   0.344   5.589
 2537SOL    HW2 8511   3.862   0.389   5.566
 2538SOL     OW 8512   5.976   3.476   3.480
 2538SOL    HW1 8513   6.062   3.471   3.430
 2538SOL    HW2 8514   5.902   3.499   3.417
 2539SOL     OW 8515   5.261   2.658   5.184
 2539SOL    HW1 8516   5.221   2.579   5.137
 2539SOL    HW2 8517   5.217   2.742   5.151
 2540SOL     OW 8518   2.686   1.981   1.413
 2540SOL    HW1 8519   2.654   1.934   1.331
 2540SOL    HW2 8520   2.779   1.950   1.435
 2541SOL     OW 8521   3.320   6.600   3.952
 2541SOL    HW1 8522   3.252   6.534   3.983
 2541SOL    HW2 8523   3.403   6.590   4.007
 2542SOL     OW 8524   1.888   5.302   6.093
 2542SOL    HW1 8525   1.987   5.319   6.084
 2542SOL    HW2 8526   1.873   5.206   6.117
 2543SOL     OW 8527   0.521   0.700   4.459
 2543SOL    HW1 8528   0.602   0.677   4.404
 2543SOL    HW2 8529   0.450   0.632   4.444
 2544SOL     OW 8530   0.357   5.103   6.832
 2544SOL    HW1 8531   0.449   5.111   6.794
 2544SOL    HW2 8532   0.354   5.140   6.924
 2545SOL     OW 8533   2.163   5.892   3.407
 2545SOL    HW1 8534   2.167   5.992   3.404
 2545SOL    HW2 8535   2.223   5.854   3.336
 2546SOL     OW 8536   0.026   1.290   1.580
 2546SOL    HW1 8537   0.094   1.327   1.644
 2546SOL    HW2 8538   0.065   1.211   1.533
 2547SOL     OW 8539   0.906   3.582   4.965
 2547SOL    HW1 8540   0.873   3.487   4.962
 2547SOL    HW2 8541   0.929   3.606   5.060
 2548SOL     OW 8542   1.155   0.499   5.517
 2548SOL    HW1 8543   1.062   0.535   5.516
 2548SOL    HW2 8544   1.215   0.561   5.568
 2549SOL     OW 8545   6.616   3.129   2.096
 2549SOL    HW1 8546   6.661   3.067   2.159
 2549SOL    HW2 8547   6.680   3.200   2.067
 2550SOL     OW 8548   5.846   5.413   0.130
 2550SOL    HW1 8549   5.914   5.407   0.204
 2550SOL    HW2 8550   5.765   5.460   0.164
 2551SOL     OW 8551   1.075   4.965   0.615
 2551SOL    HW1 8552   1.138   4.889   0.633
 2551SOL    HW2 8553   0.985   4.929   0.593
 2552SOL     OW 8554   1.692   5.887   3.730
 2552SOL    HW1 8555   1.765   5.852   3.671
 2552SOL    HW2 8556   1.667   5.819   3.798
 2553SOL     OW 8557   4.197   3.801   6.643
 2553SOL    HW1 8558   4.259   3.774   6.716
 2553SOL    HW2 8559   4.110   3.832   6.682
 2554SOL     OW 8560   1.182   1.813   0.612
 2554SOL    HW1 8561   1.117   1.793   0.685
 2554SOL    HW2 8562   1.148   1.776   0.525
 2555SOL     OW 8563   6.402   0.227   6.369
 2555SOL    HW1 8564   6.415   0.321   6.336
 2555SOL    HW2 8565   6.304   0.207   6.375
 2556SOL     OW 8566   3.864   5.030   0.842
 2556SOL    HW1 8567   3.780   5.084   0.838
 2556SOL    HW2 8568   3.843   4.934   0.824
 2557SOL     OW 8569   1.340   4.827   6.776
 2557SOL    HW1 8570   1.255   4.877   6.792
 2557SOL    HW2 8571   1.336   4.781   6.687
 2558SOL     OW 8572   4.256   0.774   5.221
 2558SOL    HW1 8573   4.174   0.807   5.174
 2558SOL    HW2 8574   4.231   0.701   5.285
 2559SOL     OW 8575   0.500   5.157   4.996
 2559SOL    HW1 8576   0.515   5.065   4.961
 2559SOL    HW2 8577   0.451   5.211   4.927
 2560SOL     OW 8578   6.046   1.080   0.100
 2560SOL    HW1 8579   5.946   1.070   0.106
 2560SOL    HW2 8580   6.090   1.009   0.154
 2561SOL     OW 8581   2.896   5.548   4.471
 2561SOL    HW1 8582   2.933   5.545   4.379
 2561SOL    HW2 8583   2.966   5.579   4.535
 2562SOL     OW 8584   2.301   3.490   0.010
 2562SOL    HW1 8585   2.314   3.588   0.000
 2562SOL    HW2 8586   2.386   3.443   7.015
 2563SOL     OW 8587   1.886   0.672   1.766
 2563SOL    HW1 8588   1.875   0.697   1.670
 2563SOL    HW2 8589   1.868   0.574   1.777
 2564SOL     OW 8590   1.870   6.493   2.081
 2564SOL    HW1 8591   1.892   6.458   1.990
 2564SOL    HW2 8592   1.776   6.468   2.105
 2565SOL     OW 8593   0.565   0.861   1.756
 2565SOL    HW1 8594   0.507   0.886   1.678
 2565SOL    HW2 8595   0.533   0.774   1.795
 2566SOL     OW 8596   2.410   6.995   5.680
 2566SOL    HW1 8597   2.447   0.022   5.756
 2566SOL    HW2 8598   2.310   6.997   5.684
 2567SOL     OW 8599   1.347   0.742   0.582
 2567SOL    HW1 8600   1.444   0.722   0.568
 2567SOL    HW2 8601   1.298   0.732   0.495
 2568SOL     OW 8602   5.292   4.295   0.173
 2568SOL    HW1 8603   5.278   4.206   0.217
 2568SOL    HW2 8604   5.389   4.317   0.172
 2569SOL     OW 8605   2.841   0.737   2.582
 2569SOL    HW1 8606   2.925   0.698   2.542
 2569SOL    HW2 8607   2.839   0.836   2.565
 2570SOL     OW 8608   5.661   2.423   6.129
 2570SOL    HW1 8609   5.756   2.447   6.148
 2570SOL    HW2 8610   5.651   2.324   6.124
 2571SOL     OW 8611   0.437   3.962   4.499
 2571SOL    HW1 8612   0.511   3.942   4.563
 2571SOL    HW2 8613   0.411   4.058   4.507
 2572SOL     OW 8614   1.530   4.937   3.893
 2572SOL    HW1 8615   1.556   4.865   3.830
 2572SOL    HW2 8616   1.611   4.989   3.921
 2573SOL     OW 8617   1.037   7.015   1.097
 2573SOL    HW1 8618   1.126   0.008   1.137
 2573SOL    HW2 8619   1.027   0.040   1.011
 2574SOL     OW 8620   6.282   3.552   0.676
 2574SOL    HW1 8621   6.358   3.489   0.656
 2574SOL    HW2 8622   6.196   3.501   0.672
 2575SOL     OW 8623   0.691   6.523   6.064
 2575SOL    HW1 8624   0.754   6.601   6.072
 2575SOL    HW2 8625   0.744   6.438   6.061
 2576SOL     OW 8626   4.364   6.347   5.018
 2576SOL    HW1 8627   4.404   6.256   5.002
 2576SOL    HW2 8628   4.265   6.342   5.003
 2577SOL     OW 8629   1.887   4.180   2.684
 2577SOL    HW1 8630   1.882   4.095   2.737
 2577SOL    HW2 8631   1.897   4.258   2.746
 2578SOL     OW 8632   4.373   1.950   2.431
 2578SOL    HW1 8633   4.401   1.929   2.525
 2578SOL    HW2 8634   4.275   1.935   2.421
 2579SOL     OW 8635   0.730   6.626   2.896
 2579SOL    HW1 8636   0.827   6.639   2.878
 2579SOL    HW2 8637   0.679   6.706   2.863
 2580SOL     OW 8638   2.574   2.210   5.704
 2580SOL    HW1 8639   2.613   2.232   5.614
 2580SOL    HW2 8640   2.544   2.294   5.749
 2581SOL     OW 8641   3.280   0.868   5.014
 2581SOL    HW1 8642   3.259   0.794   5.078
 2581SOL    HW2 8643   3.283   0.832   4.921
 2582SOL     OW 8644   6.944   3.302   1.426
 2582SOL    HW1 8645   6.997   3.289   1.342
 2582SOL    HW2 8646   6.994   3.363   1.488
 2583SOL     OW 8647   5.953   0.438   1.115
 2583SOL    HW1 8648   5.943   0.484   1.027
 2583SOL    HW2 8649   6.040   0.390   1.118
 2584SOL     OW 8650   3.869   4.523   6.121
 2584SOL    HW1 8651   3.802   4.559   6.057
 2584SOL    HW2 8652   3.823   4.490   6.204
 2585SOL     OW 8653   3.110   5.632   6.967
 2585SOL    HW1 8654   3.185   5.581   6.923
 2585SOL    HW2 8655   3.024   5.610   6.921
 2586SOL     OW 8656   2.556   0.825   3.567
 2586SOL    HW1 8657   2.486   0.753   3.573
 2586SOL    HW2 8658   2.646   0.784   3.579
 2587SOL     OW 8659   6.094   0.602   4.297
 2587SOL    HW1 8660   6.103   0.613   4.396
 2587SOL    HW2 8661   6.004   0.635   4.268
 2588SOL     OW 8662   4.508   0.534   6.878
 2588SOL    HW1 8663   4.517   0.618   6.930
 2588SOL    HW2 8664   4.422   0.534   6.827
 2589SOL     OW 8665   2.150   6.151   0.337
 2589SOL    HW1 8666   2.108   6.102   0.413
 2589SOL    HW2 8667   2.083   6.160   0.263
 2590SOL     OW 8668   3.172   5.874   0.299
 2590SOL    HW1 8669   3.073   5.882   0.284
 2590SOL    HW2 8670   3.211   5.812   0.232
 2591SOL     OW 8671   5.274   5.357   2.872
 2591SOL    HW1 8672   5.257   5.294   2.796
 2591SOL    HW2 8673   5.343   5.319   2.932
 2592SOL     OW 8674   3.071   4.180   0.778
 2592SOL    HW1 8675   3.061   4.092   0.824
 2592SOL    HW2 8676   2.981   4.219   0.761
 2593SOL     OW 8677   3.396   4.725   0.223
 2593SOL    HW1 8678   3.460   4.656   0.258
 2593SOL    HW2 8679   3.411   4.737   0.125
 2594SOL     OW 8680   1.948   2.914   3.642
 2594SOL    HW1 8681   1.936   2.851   3.565
 2594SOL    HW2 8682   1.951   3.008   3.607
 2595SOL     OW 8683   2.372   1.564   3.152
 2595SOL    HW1 8684   2.392   1.606   3.063
 2595SOL    HW2 8685   2.278   1.586   3.178
 2596SOL     OW 8686   0.397   2.069   0.501
 2596SOL    HW1 8687   0.494   2.047   0.512
 2596SOL    HW2 8688   0.346   2.036   0.581
 2597SOL     OW 8689   6.529   6.844   0.039
 2597SOL    HW1 8690   6.561   6.769   7.008
 2597SOL    HW2 8691   6.557   6.827   0.134
 2598SOL     OW 8692   4.831   2.530   2.748
 2598SOL    HW1 8693   4.783   2.610   2.781
 2598SOL    HW2 8694   4.840   2.463   2.822
 2599SOL     OW 8695   2.702   6.035   2.751
 2599SOL    HW1 8696   2.655   6.000   2.832
 2599SOL    HW2 8697   2.658   5.998   2.669
 2600SOL     OW 8698   5.488   4.043   4.218
 2600SOL    HW1 8699   5.502   3.970   4.152
 2600SOL    HW2 8700   5.546   4.027   4.298
 2601SOL     OW 8701   6.544   1.240   4.237
 2601SOL    HW1 8702   6.603   1.160   4.247
 2601SOL    HW2 8703   6.598   1.317   4.202
 2602SOL     OW 8704   0.870   4.353   2.826
 2602SOL    HW1 8705   0.908   4.413   2.757
 2602SOL    HW2 8706   0.943   4.320   2.886
 2603SOL     OW 8707   2.138   5.877   2.833
 2603SOL    HW1 8708   2.079   5.878   2.914
 2603SOL    HW2 8709   2.083   5.856   2.752
 2604SOL     OW 8710   4.672   2.772   3.564
 2604SOL    HW1 8711   4.657   2.790   3.662
 2604SOL    HW2 8712   4.762   2.731   3.551
 2605SOL     OW 8713   1.461   3.592   1.530
 2605SOL    HW1 8714   1.382   3.549   1.486
 2605SOL    HW2 8715   1.450   3.691   1.529
 2606SOL     OW 8716   5.258   3.515   0.809
 2606SOL    HW1 8717   5.206   3.600   0.814
 2606SOL    HW2 8718   5.315   3.505   0.891
 2607SOL     OW 8719   2.642   2.967   1.693
 2607SOL    HW1 8720   2.739   2.987   1.709
 2607SOL    HW2 8721   2.592   3.053   1.684
 2608SOL     OW 8722   3.032   5.469   5.360
 2608SOL    HW1 8723   2.940   5.474   5.320
 2608SOL    HW2 8724   3.029   5.411   5.442
 2609SOL     OW 8725   0.658   2.247   1.483
 2609SOL    HW1 8726   0.601   2.266   1.403
 2609SOL    HW2 8727   0.602   2.254   1.566
 2610SOL     OW 8728   1.383   4.056   4.893
 2610SOL    HW1 8729   1.454   3.989   4.873
 2610SOL    HW2 8730   1.299   4.030   4.846
 2611SOL     OW 8731   5.426   0.329   5.861
 2611SOL    HW1 8732   5.409   0.273   5.943
 2611SOL    HW2 8733   5.472   0.414   5.888
 2612SOL     OW 8734   6.697   6.618   6.967
 2612SOL    HW1 8735   6.609   6.572   6.955
 2612SOL    HW2 8736   6.732   6.647   6.877
 2613SOL     OW 8737   1.350   6.948   6.962
 2613SOL    HW1 8738   1.399   6.987   6.884
 2613SOL    HW2 8739   1.386   6.856   6.981
 2614SOL     OW 8740   6.119   2.108   0.485
 2614SOL    HW1 8741   6.183   2.055   0.541
 2614SOL    HW2 8742   6.069   2.047   0.424
 2615SOL     OW 8743   0.568   3.432   6.947
 2615SOL    HW1 8744   0.539   3.336   6.953
 2615SOL    HW2 8745   0.618   3.456   0.004
 2616SOL     OW 8746   1.377   1.139   4.665
 2616SOL    HW1 8747   1.388   1.048   4.624
 2616SOL    HW2 8748   1.453   1.198   4.638
 2617SOL     OW 8749   5.349   0.152   1.752
 2617SOL    HW1 8750   5.330   0.174   1.848
 2617SOL    HW2 8751   5.274   0.185   1.695
 2618SOL     OW 8752   1.405   6.990   6.569
 2618SOL    HW1 8753   1.451   6.980   6.657
 2618SOL    HW2 8754   1.472   6.984   6.495
 2619SOL     OW 8755   4.944   1.215   2.852
 2619SOL    HW1 8756   4.864   1.275   2.852
 2619SOL    HW2 8757   4.978   1.205   2.758
 2620SOL     OW 8758   6.258   1.912   1.789
 2620SOL    HW1 8759   6.228   1.901   1.883
 2620SOL    HW2 8760   6.225   2.000   1.753
 2621SOL     OW 8761   2.587   6.693   1.609
 2621SOL    HW1 8762   2.653   6.765   1.633
 2621SOL    HW2 8763   2.637   6.611   1.582
 2622SOL     OW 8764   2.622   3.421   0.002
 2622SOL    HW1 8765   2.657   3.510   0.032
 2622SOL    HW2 8766   2.626   3.356   0.078
 2623SOL     OW 8767   6.925   0.457   3.866
 2623SOL    HW1 8768   6.830   0.489   3.868
 2623SOL    HW2 8769   6.986   0.536   3.859
 2624SOL     OW 8770   1.011   1.795   5.692
 2624SOL    HW1 8771   1.002   1.894   5.698
 2624SOL    HW2 8772   1.010   1.767   5.596
 2625SOL     OW 8773   2.661   5.375   5.811
 2625SOL    HW1 8774   2.690   5.283   5.782
 2625SOL    HW2 8775   2.738   5.438   5.802
 2626SOL     OW 8776   6.849   6.999   6.816
 2626SOL    HW1 8777   6.930   0.031   6.807
 2626SOL    HW2 8778   6.767   0.029   6.818
 2627SOL     OW 8779   2.089   0.947   5.994
 2627SOL    HW1 8780   2.042   0.951   6.082
 2627SOL    HW2 8781   2.117   1.039   5.966
 2628SOL     OW 8782   0.034   5.117   1.345
 2628SOL    HW1 8783   7.010   5.105   1.260
 2628SOL    HW2 8784   7.004   5.169   1.410
 2629SOL     OW 8785   3.429   3.624   2.772
 2629SOL    HW1 8786   3.415   3.614   2.674
 2629SOL    HW2 8787   3.436   3.721   2.796
 2630SOL     OW 8788   3.388   0.766   4.114
 2630SOL    HW1 8789   3.470   0.790   4.062
 2630SOL    HW2 8790   3.390   0.812   4.203
 2631SOL     OW 8791   5.029   6.331   0.084
 2631SOL    HW1 8792   5.008   6.329   7.013
 2631SOL    HW2 8793   4.985   6.410   0.127
 2632SOL     OW 8794   5.761   4.773   1.594
 2632SOL    HW1 8795   5.760   4.681   1.553
 2632SOL    HW2 8796   5.747   4.766   1.692
 2633SOL     OW 8797   0.042   3.440   5.874
 2633SOL    HW1 8798   0.042   3.386   5.790
 2633SOL    HW2 8799   0.079   3.531   5.855
 2634SOL     OW 8800   0.914   1.633   5.958
 2634SOL    HW1 8801   0.843   1.704   5.962
 2634SOL    HW2 8802   0.990   1.665   5.902
 2635SOL     OW 8803   3.876   5.384   3.057
 2635SOL    HW1 8804   3.838   5.305   3.009
 2635SOL    HW2 8805   3.912   5.450   2.990
 2636SOL     OW 8806   3.424   6.497   6.313
 2636SOL    HW1 8807   3.434   6.409   6.359
 2636SOL    HW2 8808   3.332   6.506   6.275
 2637SOL     OW 8809   0.239   0.881   3.010
 2637SOL    HW1 8810   0.166   0.854   3.072
 2637SOL    HW2 8811   0.319   0.910   3.063
 2638SOL     OW 8812   0.710   6.734   4.665
 2638SOL    HW1 8813   0.737   6.675   4.741
 2638SOL    HW2 8814   0.628   6.785   4.691
 2639SOL     OW 8815   4.808   4.744   4.405
 2639SOL    HW1 8816   4.849   4.687   4.477
 2639SOL    HW2 8817   4.747   4.811   4.446
 2640SOL     OW 8818   2.611   1.223   3.488
 2640SOL    HW1 8819   2.557   1.296   3.448
 2640SOL    HW2 8820   2.578   1.135   3.455
 2641SOL     OW 8821   4.958   2.473   0.072
 2641SOL    HW1 8822   4.951   2.540   0.145
 2641SOL    HW2 8823   5.028   2.502   0.007
 2642SOL     OW 8824   0.401   6.846   2.315
 2642SOL    HW1 8825   0.399   6.890   2.225
 2642SOL    HW2 8826   0.312   6.853   2.358
 2643SOL     OW 8827   1.665   4.990   4.189
 2643SOL    HW1 8828   1.659   5.072   4.132
 2643SOL    HW2 8829   1.577   4.974   4.233
 2644SOL     OW 8830   5.907   5.599   3.952
 2644SOL    HW1 8831   5.828   5.569   4.006
 2644SOL    HW2 8832   5.884   5.683   3.903
 2645SOL     OW 8833   5.241   5.581   2.714
 2645SOL    HW1 8834   5.265   5.509   2.779
 2645SOL    HW2 8835   5.156   5.557   2.667
 2646SOL     OW 8836   1.054   2.086   6.010
 2646SOL    HW1 8837   0.967   2.059   5.968
 2646SOL    HW2 8838   1.068   2.184   5.996
 2647SOL     OW 8839   4.098   6.430   2.757
 2647SOL    HW1 8840   4.070   6.460   2.665
 2647SOL    HW2 8841   4.179   6.372   2.749
 2648SOL     OW 8842   1.391   0.654   5.894
 2648SOL    HW1 8843   1.370   0.556   5.892
 2648SOL    HW2 8844   1.306   0.705   5.909
 2649SOL     OW 8845   5.838   1.752   3.433
 2649SOL    HW1 8846   5.886   1.676   3.388
 2649SOL    HW2 8847   5.743   1.755   3.402
 2650SOL     OW 8848   2.138   0.444   4.411
 2650SOL    HW1 8849   2.111   0.493   4.328
 2650SOL    HW2 8850   2.087   0.358   4.417
 2651SOL     OW 8851   4.231   2.206   3.624
 2651SOL    HW1 8852   4.258   2.154   3.543
 2651SOL    HW2 8853   4.137   2.182   3.649
 2652SOL     OW 8854   5.046   3.875   5.600
 2652SOL    HW1 8855   5.137   3.907   5.574
 2652SOL    HW2 8856   4.984   3.952   5.608
 2653SOL     OW 8857   2.192   6.342   6.982
 2653SOL    HW1 8858   2.178   6.243   6.981
 2653SOL    HW2 8859   2.189   6.378   6.889
 2654SOL     OW 8860   0.169   0.805   0.801
 2654SOL    HW1 8861   0.148   0.708   0.807
 2654SOL    HW2 8862   0.195   0.839   0.892
 2655SOL     OW 8863   5.507   6.497   3.034
 2655SOL    HW1 8864   5.484   6.439   2.955
 2655SOL    HW2 8865   5.493   6.593   3.009
 2656SOL     OW 8866   4.989   6.208   4.295
 2656SOL    HW1 8867   4.965   6.148   4.219
 2656SOL    HW2 8868   4.909   6.219   4.354
 2657SOL     OW 8869   1.502   3.219   6.842
 2657SOL    HW1 8870   1.569   3.232   6.915
 2657SOL    HW2 8871   1.500   3.300   6.784
 2658SOL     OW 8872   3.200   4.514   0.191
 2658SOL    HW1 8873   3.260   4.592   0.171
 2658SOL    HW2 8874   3.132   4.504   0.118
 2659SOL     OW 8875   6.978   1.877   5.280
 2659SOL    HW1 8876   6.943   1.808   5.343
 2659SOL    HW2 8877   6.963   1.847   5.186
 2660SOL     OW 8878   0.732   1.135   1.161
 2660SOL    HW1 8879   0.792   1.213   1.175
 2660SOL    HW2 8880   0.765   1.081   1.084
 2661SOL     OW 8881   1.607   1.177   1.271
 2661SOL    HW1 8882   1.651   1.254   1.318
 2661SOL    HW2 8883   1.512   1.169   1.302
 2662SOL     OW 8884   2.586   1.733   1.743
 2662SOL    HW1 8885   2.629   1.671   1.677
 2662SOL    HW2 8886   2.655   1.768   1.806
 2663SOL     OW 8887   3.938   0.589   0.876
 2663SOL    HW1 8888   3.847   0.551   0.893
 2663SOL    HW2 8889   3.929   0.675   0.825
 2664SOL     OW 8890   5.027   3.021   5.605
 2664SOL    HW1 8891   5.078   2.948   5.651
 2664SOL    HW2 8892   5.033   3.007   5.506
 2665SOL     OW 8893   1.391   3.015   3.778
 2665SOL    HW1 8894   1.430   2.926   3.756
 2665SOL    HW2 8895   1.315   3.034   3.716
 2666SOL     OW 8896   1.508   4.148   1.810
 2666SOL    HW1 8897   1.572   4.185   1.742
 2666SOL    HW2 8898   1.426   4.205   1.812
 2667SOL     OW 8899   6.248   2.659   4.679
 2667SOL    HW1 8900   6.219   2.633   4.587
 2667SOL    HW2 8901   6.321   2.727   4.673
 2668SOL     OW 8902   5.439   0.879   3.940
 2668SOL    HW1 8903   5.460   0.912   3.848
 2668SOL    HW2 8904   5.481   0.789   3.955
 2669SOL     OW 8905   2.721   0.993   1.592
 2669SOL    HW1 8906   2.679   1.075   1.553
 2669SOL    HW2 8907   2.737   1.007   1.689
 2670SOL     OW 8908   0.381   0.665   0.446
 2670SOL    HW1 8909   0.411   0.724   0.521
 2670SOL    HW2 8910   0.365   0.720   0.364
 2671SOL     OW 8911   5.358   4.633   5.984
 2671SOL    HW1 8912   5.269   4.679   5.977
 2671SOL    HW2 8913   5.393   4.614   5.892
 2672SOL     OW 8914   2.493   1.446   2.477
 2672SOL    HW1 8915   2.416   1.424   2.537
 2672SOL    HW2 8916   2.459   1.487   2.392
 2673SOL     OW 8917   3.584   6.837   2.937
 2673SOL    HW1 8918   3.627   6.850   3.027
 2673SOL    HW2 8919   3.496   6.884   2.935
 2674SOL     OW 8920   6.735   5.946   3.032
 2674SOL    HW1 8921   6.691   5.997   3.106
 2674SOL    HW2 8922   6.669   5.884   2.990
 2675SOL     OW 8923   4.493   1.134   4.731
 2675SOL    HW1 8924   4.504   1.036   4.741
 2675SOL    HW2 8925   4.574   1.181   4.765
 2676SOL     OW 8926   3.886   3.178   4.531
 2676SOL    HW1 8927   3.956   3.181   4.460
 2676SOL    HW2 8928   3.820   3.106   4.510
 2677SOL     OW 8929   1.865   5.837   0.278
 2677SOL    HW1 8930   1.896   5.862   0.370
 2677SOL    HW2 8931   1.801   5.761   0.284
 2678SOL     OW 8932   3.702   1.892   2.237
 2678SOL    HW1 8933   3.795   1.880   2.201
 2678SOL    HW2 8934   3.636   1.884   2.163
 2679SOL     OW 8935   2.149   3.833   2.400
 2679SOL    HW1 8936   2.143   3.922   2.446
 2679SOL    HW2 8937   2.108   3.763   2.458
 2680SOL     OW 8938   5.691   2.331   6.917
 2680SOL    HW1 8939   5.785   2.353   6.943
 2680SOL    HW2 8940   5.628   2.376   6.980
 2681SOL     OW 8941   2.374   2.154   3.637
 2681SOL    HW1 8942   2.467   2.119   3.624
 2681SOL    HW2 8943   2.366   2.245   3.596
 2682SOL     OW 8944   3.833   4.028   1.882
 2682SOL    HW1 8945   3.744   4.056   1.918
 2682SOL    HW2 8946   3.890   3.995   1.957
 2683SOL     OW 8947   1.801   3.811   1.593
 2683SOL    HW1 8948   1.766   3.775   1.679
 2683SOL    HW2 8949   1.841   3.901   1.607
 2684SOL     OW 8950   5.861   0.726   3.796
 2684SOL    HW1 8951   5.909   0.710   3.709
 2684SOL    HW2 8952   5.925   0.765   3.862
 2685SOL     OW 8953   1.385   0.018   5.722
 2685SOL    HW1 8954   1.449   0.025   5.646
 2685SOL    HW2 8955   1.425   6.989   5.795
 2686SOL     OW 8956   1.661   1.448   5.944
 2686SOL    HW1 8957   1.590   1.493   5.890
 2686SOL    HW2 8958   1.664   1.488   6.035
 2687SOL     OW 8959   4.287   1.920   1.494
 2687SOL    HW1 8960   4.377   1.881   1.480
 2687SOL    HW2 8961   4.231   1.904   1.413
 2688SOL     OW 8962   3.762   2.804   6.790
 2688SOL    HW1 8963   3.667   2.799   6.820
 2688SOL    HW2 8964   3.817   2.738   6.841
 2689SOL     OW 8965   0.276   3.800   2.985
 2689SOL    HW1 8966   0.279   3.747   2.901
 2689SOL    HW2 8967   0.255   3.739   3.062
 2690SOL     OW 8968   5.132   1.133   4.938
 2690SOL    HW1 8969   5.133   1.231   4.922
 2690SOL    HW2 8970   5.148   1.085   4.852
 2691SOL     OW 8971   0.058   3.478   4.715
 2691SOL    HW1 8972   6.988   3.487   4.736
 2691SOL    HW2 8973   0.080   3.382   4.700
 2692SOL     OW 8974   2.617   5.268   1.706
 2692SOL    HW1 8975   2.536   5.268   1.764
 2692SOL    HW2 8976   2.606   5.336   1.633
 2693SOL     OW 8977   0.894   5.044   2.695
 2693SOL    HW1 8978   0.806   5.093   2.700
 2693SOL    HW2 8979   0.945   5.060   2.779
 2694SOL     OW 8980   2.238   0.453   2.454
 2694SOL    HW1 8981   2.316   0.451   2.518
 2694SOL    HW2 8982   2.154   0.473   2.505
 2695SOL     OW 8983   7.009   5.280   3.519
 2695SOL    HW1 8984   6.988   5.324   3.432
 2695SOL    HW2 8985   6.924   5.254   3.564
 2696SOL     OW 8986   4.055   4.707   5.881
 2696SOL    HW1 8987   3.974   4.702   5.822
 2696SOL    HW2 8988   4.033   4.670   5.971
 2697SOL     OW 8989   3.939   2.360   0.461
 2697SOL    HW1 8990   3.868   2.291   0.451
 2697SOL    HW2 8991   3.931   2.427   0.387
 2698SOL     OW 8992   1.321   5.668   6.405
 2698SOL    HW1 8993   1.272   5.731   6.464
 2698SOL    HW2 8994   1.255   5.610   6.356
 2699SOL     OW 8995   2.769   7.021   1.977
 2699SOL    HW1 8996   2.862   7.015   2.016
 2699SOL    HW2 8997   2.733   0.086   1.994
 2700SOL     OW 8998   4.554   1.908   1.555
 2700SOL    HW1 8999   4.553   2.001   1.516
 2700SOL    HW2 9000   4.541   1.914   1.654
 2701SOL     OW 9001   5.279   3.650   5.196
 2701SOL    HW1 9002   5.347   3.591   5.240
 2701SOL    HW2 9003   5.256   3.613   5.106
 2702SOL     OW 9004   2.178   1.260   4.915
 2702SOL    HW1 9005   2.231   1.307   4.986
 2702SOL    HW2 9006   2.133   1.180   4.955
 2703SOL     OW 9007   2.118   6.058   2.440
 2703SOL    HW1 9008   2.128   6.151   2.475
 2703SOL    HW2 9009   2.022   6.030   2.449
 2704SOL     OW 9010   4.242   0.801   3.491
 2704SOL    HW1 9011   4.201   0.724   3.442
 2704SOL    HW2 9012   4.207   0.803   3.585
 2705SOL     OW 9013   1.855   0.058   5.130
 2705SOL    HW1 9014   1.783   0.027   5.192
 2705SOL    HW2 9015   1.926   7.014   5.124
 2706SOL     OW 9016   6.910   4.776   3.840
 2706SOL    HW1 9017   6.960   4.790   3.926
 2706SOL    HW2 9018   6.962   4.714   3.781
 2707SOL     OW 9019   4.966   1.507   3.153
 2707SOL    HW1 9020   4.935   1.413   3.170
 2707SOL    HW2 9021   4.889   1.570   3.164
 2708SOL     OW 9022   4.900   3.315   5.738
 2708SOL    HW1 9023   4.950   3.253   5.677
 2708SOL    HW2 9024   4.921   3.410   5.714
 2709SOL     OW 9025   5.220   1.327   5.533
 2709SOL    HW1 9026   5.182   1.399   5.475
 2709SOL    HW2 9027   5.265   1.259   5.476
 2710SOL     OW 9028   1.452   2.848   4.420
 2710SOL    HW1 9029   1.420   2.935   4.456
 2710SOL    HW2 9030   1.481   2.860   4.325
 2711SOL     OW 9031   4.720   0.676   1.701
 2711SOL    HW1 9032   4.760   0.732   1.628
 2711SOL    HW2 9033   4.635   0.717   1.733
 2712SOL     OW 9034   5.705   5.965   1.517
 2712SOL    HW1 9035   5.670   5.940   1.427
 2712SOL    HW2 9036   5.635   5.948   1.587
 2713SOL     OW 9037   3.469   5.257   5.741
 2713SOL    HW1 9038   3.476   5.270   5.642
 2713SOL    HW2 9039   3.560   5.262   5.782
 2714SOL     OW 9040   3.285   4.080   5.908
 2714SOL    HW1 9041   3.344   4.149   5.865
 2714SOL    HW2 9042   3.310   3.989   5.874
 2715SOL     OW 9043   4.754   6.135   6.752
 2715SOL    HW1 9044   4.817   6.120   6.676
 2715SOL    HW2 9045   4.668   6.173   6.717
 2716SOL     OW 9046   4.407   0.772   2.578
 2716SOL    HW1 9047   4.325   0.804   2.626
 2716SOL    HW2 9048   4.487   0.784   2.637
 2717SOL     OW 9049   1.157   2.187   2.358
 2717SOL    HW1 9050   1.060   2.210   2.355
 2717SOL    HW2 9051   1.205   2.239   2.287
 2718SOL     OW 9052   6.261   1.565   5.974
 2718SOL    HW1 9053   6.171   1.564   5.930
 2718SOL    HW2 9054   6.301   1.473   5.970
 2719SOL     OW 9055   1.005   4.837   3.427
 2719SOL    HW1 9056   0.992   4.886   3.513
 2719SOL    HW2 9057   0.974   4.742   3.438
 2720SOL     OW 9058   2.102   5.668   6.918
 2720SOL    HW1 9059   2.049   5.626   6.845
 2720SOL    HW2 9060   2.193   5.693   6.883
 2721SOL     OW 9061   2.243   6.877   2.736
 2721SOL    HW1 9062   2.253   6.820   2.818
 2721SOL    HW2 9063   2.241   6.818   2.655
 2722SOL     OW 9064   3.589   4.968   6.596
 2722SOL    HW1 9065   3.578   4.883   6.649
 2722SOL    HW2 9066   3.516   4.974   6.528
 2723SOL     OW 9067   4.203   5.652   6.712
 2723SOL    HW1 9068   4.269   5.618   6.779
 2723SOL    HW2 9069   4.215   5.604   6.626
 2724SOL     OW 9070   6.583   5.766   1.432
 2724SOL    HW1 9071   6.514   5.721   1.375
 2724SOL    HW2 9072   6.611   5.852   1.388
 2725SOL     OW 9073   6.051   4.923   3.213
 2725SOL    HW1 9074   6.130   4.978   3.188
 2725SOL    HW2 9075   6.082   4.838   3.256
 2726SOL     OW 9076   6.596   2.048   3.158
 2726SOL    HW1 9077   6.610   2.146   3.173
 2726SOL    HW2 9078   6.499   2.030   3.141
 2727SOL     OW 9079   1.742   5.331   3.465
 2727SOL    HW1 9080   1.719   5.263   3.396
 2727SOL    HW2 9081   1.748   5.421   3.422
 2728SOL     OW 9082   5.096   5.474   5.551
 2728SOL    HW1 9083   5.138   5.404   5.609
 2728SOL    HW2 9084   5.122   5.565   5.585
 2729SOL     OW 9085   6.460   0.026   0.271
 2729SOL    HW1 9086   6.514   6.976   0.304
 2729SOL    HW2 9087   6.517   0.084   0.212
 2730SOL     OW 9088   1.387   5.602   2.795
 2730SOL    HW1 9089   1.350   5.620   2.886
 2730SOL    HW2 9090   1.324   5.542   2.745
 2731SOL     OW 9091   3.988   3.944   5.119
 2731SOL    HW1 9092   4.053   3.888   5.170
 2731SOL    HW2 9093   3.919   3.885   5.077
 2732SOL     OW 9094   4.855   0.444   1.677
 2732SOL    HW1 9095   4.803   0.523   1.710
 2732SOL    HW2 9096   4.830   0.425   1.582
 2733SOL     OW 9097   0.577   6.810   0.348
 2733SOL    HW1 9098   0.610   6.738   0.286
 2733SOL    HW2 9099   0.566   6.772   0.440
 2734SOL     OW 9100   3.557   6.839   2.512
 2734SOL    HW1 9101   3.616   6.818   2.434
 2734SOL    HW2 9102   3.488   6.768   2.522
 2735SOL     OW 9103   0.831   2.140   2.570
 2735SOL    HW1 9104   0.879   2.059   2.535
 2735SOL    HW2 9105   0.891   2.191   2.631
 2736SOL     OW 9106   5.520   4.257   2.424
 2736SOL    HW1 9107   5.585   4.182   2.417
 2736SOL    HW2 9108   5.458   4.241   2.500
 2737SOL     OW 9109   2.811   0.398   5.584
 2737SOL    HW1 9110   2.768   0.375   5.497
 2737SOL    HW2 9111   2.807   0.497   5.598
 2738SOL     OW 9112   5.118   6.237   1.246
 2738SOL    HW1 9113   5.172   6.154   1.258
 2738SOL    HW2 9114   5.022   6.217   1.264
 2739SOL     OW 9115   0.136   5.650   1.597
 2739SOL    HW1 9116   0.066   5.600   1.546
 2739SOL    HW2 9117   0.189   5.706   1.534
 2740SOL     OW 9118   6.739   5.126   4.116
 2740SOL    HW1 9119   6.767   5.210   4.161
 2740SOL    HW2 9120   6.738   5.051   4.182
 2741SOL     OW 9121   1.299   6.738   6.558
 2741SOL    HW1 9122   1.372   6.707   6.620
 2741SOL    HW2 9123   1.323   6.829   6.522
 2742SOL     OW 9124   2.794   5.036   3.087
 2742SOL    HW1 9125   2.849   4.953   3.075
 2742SOL    HW2 9126   2.774   5.049   3.184
 2743SOL     OW 9127   5.321   1.724   2.962
 2743SOL    HW1 9128   5.344   1.821   2.971
 2743SOL    HW2 9129   5.371   1.685   2.885
 2744SOL     OW 9130   3.540   4.088   2.234
 2744SOL    HW1 9131   3.445   4.074   2.263
 2744SOL    HW2 9132   3.594   4.119   2.312
 2745SOL     OW 9133   0.671   5.822   0.210
 2745SOL    HW1 9134   0.684   5.798   0.306
 2745SOL    HW2 9135   0.593   5.884   0.202
 2746SOL     OW 9136   1.736   0.780   4.223
 2746SOL    HW1 9137   1.665   0.785   4.292
 2746SOL    HW2 9138   1.826   0.792   4.265
 2747SOL     OW 9139   4.252   4.836   0.176
 2747SOL    HW1 9140   4.346   4.854   0.146
 2747SOL    HW2 9141   4.247   4.841   0.276
 2748SOL     OW 9142   4.258   0.542   0.939
 2748SOL    HW1 9143   4.164   0.508   0.949
 2748SOL    HW2 9144   4.261   0.611   0.866
 2749SOL     OW 9145   3.644   1.129   0.631
 2749SOL    HW1 9146   3.555   1.084   0.638
 2749SOL    HW2 9147   3.690   1.099   0.548
 2750SOL     OW 9148   2.772   5.989   3.200
 2750SOL    HW1 9149   2.791   5.896   3.230
 2750SOL    HW2 9150   2.856   6.043   3.206
 2751SOL     OW 9151   6.029   5.122   1.170
 2751SOL    HW1 9152   5.962   5.176   1.223
 2751SOL    HW2 9153   6.001   5.120   1.074
 2752SOL     OW 9154   3.996   5.722   6.849
 2752SOL    HW1 9155   4.040   5.643   6.805
 2752SOL    HW2 9156   4.062   5.795   6.860
 2753SOL     OW 9157   5.682   5.319   5.447
 2753SOL    HW1 9158   5.706   5.224   5.468
 2753SOL    HW2 9159   5.717   5.343   5.357
 2754SOL     OW 9160   1.424   0.420   5.336
 2754SOL    HW1 9161   1.365   0.443   5.414
 2754SOL    HW2 9162   1.367   0.390   5.260
 2755SOL     OW 9163   3.207   6.961   2.331
 2755SOL    HW1 9164   3.283   6.905   2.296
 2755SOL    HW2 9165   3.214   6.969   2.430
 2756SOL     OW 9166   4.545   5.825   6.849
 2756SOL    HW1 9167   4.612   5.867   6.910
 2756SOL    HW2 9168   4.591   5.796   6.765
 2757SOL     OW 9169   0.535   5.167   0.938
 2757SOL    HW1 9170   0.619   5.149   0.887
 2757SOL    HW2 9171   0.457   5.166   0.876
 2758SOL     OW 9172   5.241   0.369   5.020
 2758SOL    HW1 9173   5.164   0.392   4.960
 2758SOL    HW2 9174   5.216   0.390   5.114
 2759SOL     OW 9175   4.913   5.298   3.937
 2759SOL    HW1 9176   4.941   5.276   4.031
 2759SOL    HW2 9177   4.813   5.304   3.932
 2760SOL     OW 9178   1.010   6.498   3.564
 2760SOL    HW1 9179   1.102   6.505   3.525
 2760SOL    HW2 9180   0.996   6.573   3.629
 2761SOL     OW 9181   2.504   4.978   4.547
 2761SOL    HW1 9182   2.526   4.885   4.577
 2761SOL    HW2 9183   2.429   5.014   4.602
 2762SOL     OW 9184   2.022   1.181   5.563
 2762SOL    HW1 9185   2.122   1.186   5.567
 2762SOL    HW2 9186   1.983   1.264   5.603
 2763SOL     OW 9187   5.454   0.688   2.316
 2763SOL    HW1 9188   5.360   0.654   2.307
 2763SOL    HW2 9189   5.452   0.779   2.358
 2764SOL     OW 9190   6.129   0.639   1.882
 2764SOL    HW1 9191   6.040   0.636   1.836
 2764SOL    HW2 9192   6.127   0.709   1.954
 2765SOL     OW 9193   5.197   1.917   3.306
 2765SOL    HW1 9194   5.268   1.917   3.235
 2765SOL    HW2 9195   5.107   1.906   3.263
 2766SOL     OW 9196   5.447   6.956   2.505
 2766SOL    HW1 9197   5.463   7.022   2.578
 2766SOL    HW2 9198   5.531   6.945   2.451
 2767SOL     OW 9199   6.383   4.173   5.878
 2767SOL    HW1 9200   6.439   4.224   5.944
 2767SOL    HW2 9201   6.430   4.089   5.852
 2768SOL     OW 9202   5.727   1.434   6.762
 2768SOL    HW1 9203   5.630   1.415   6.778
 2768SOL    HW2 9204   5.782   1.386   6.830
 2769SOL     OW 9205   0.586   4.605   1.138
 2769SOL    HW1 9206   0.598   4.694   1.095
 2769SOL    HW2 9207   0.499   4.601   1.186
 2770SOL     OW 9208   5.513   6.167   2.229
 2770SOL    HW1 9209   5.540   6.075   2.202
 2770SOL    HW2 9210   5.512   6.175   2.328
 2771SOL     OW 9211   4.870   0.753   1.257
 2771SOL    HW1 9212   4.844   0.805   1.339
 2771SOL    HW2 9213   4.956   0.789   1.221
 2772SOL     OW 9214   3.898   1.554   6.732
 2772SOL    HW1 9215   3.917   1.610   6.651
 2772SOL    HW2 9216   3.844   1.607   6.797
 2773SOL     OW 9217   3.051   5.009   0.867
 2773SOL    HW1 9218   2.977   5.013   0.935
 2773SOL    HW2 9219   3.014   4.976   0.780
 2774SOL     OW 9220   5.353   3.091   2.048
 2774SOL    HW1 9221   5.410   3.026   2.099
 2774SOL    HW2 9222   5.341   3.175   2.101
 2775SOL     OW 9223   0.190   0.112   2.854
 2775SOL    HW1 9224   0.240   0.183   2.804
 2775SOL    HW2 9225   0.110   0.084   2.802
 2776SOL     OW 9226   2.585   6.510   6.833
 2776SOL    HW1 9227   2.571   6.411   6.826
 2776SOL    HW2 9228   2.631   6.530   6.920
 2777SOL     OW 9229   1.955   2.132   3.906
 2777SOL    HW1 9230   1.946   2.227   3.938
 2777SOL    HW2 9231   2.040   2.093   3.941
 2778SOL     OW 9232   2.763   2.328   4.815
 2778SOL    HW1 9233   2.847   2.297   4.771
 2778SOL    HW2 9234   2.740   2.267   4.890
 2779SOL     OW 9235   6.404   1.229   1.351
 2779SOL    HW1 9236   6.374   1.316   1.391
 2779SOL    HW2 9237   6.493   1.204   1.388
 2780SOL     OW 9238   3.630   6.241   0.308
 2780SOL    HW1 9239   3.634   6.227   0.406
 2780SOL    HW2 9240   3.587   6.162   0.264
 2781SOL     OW 9241   4.601   3.900   6.499
 2781SOL    HW1 9242   4.512   3.887   6.456
 2781SOL    HW2 9243   4.605   3.991   6.539
 2782SOL     OW 9244   3.391   1.477   5.708
 2782SOL    HW1 9245   3.474   1.523   5.739
 2782SOL    HW2 9246   3.403   1.378   5.711
 2783SOL     OW 9247   0.417   3.893   5.749
 2783SOL    HW1 9248   0.489   3.867   5.813
 2783SOL    HW2 9249   0.403   3.992   5.753
 2784SOL     OW 9250   2.501   2.484   1.917
 2784SOL    HW1 9251   2.423   2.421   1.910
 2784SOL    HW2 9252   2.475   2.565   1.968
 2785SOL     OW 9253   6.026   1.360   1.995
 2785SOL    HW1 9254   6.061   1.291   2.059
 2785SOL    HW2 9255   5.961   1.419   2.043
 2786SOL     OW 9256   3.503   0.690   0.464
 2786SOL    HW1 9257   3.451   0.631   0.527
 2786SOL    HW2 9258   3.555   0.633   0.401
 2787SOL     OW 9259   2.136   3.789   6.498
 2787SOL    HW1 9260   2.191   3.721   6.451
 2787SOL    HW2 9261   2.039   3.771   6.484
 2788SOL     OW 9262   0.363   3.739   6.973
 2788SOL    HW1 9263   0.437   3.725   6.907
 2788SOL    HW2 9264   0.384   3.690   0.031
 2789SOL     OW 9265   0.700   2.830   4.270
 2789SOL    HW1 9266   0.644   2.886   4.208
 2789SOL    HW2 9267   0.662   2.837   4.362
 2790SOL     OW 9268   3.331   6.179   4.439
 2790SOL    HW1 9269   3.343   6.082   4.420
 2790SOL    HW2 9270   3.382   6.232   4.371
 2791SOL     OW 9271   2.004   3.876   2.860
 2791SOL    HW1 9272   2.032   3.781   2.852
 2791SOL    HW2 9273   1.983   3.896   2.956
 2792SOL     OW 9274   0.943   2.412   5.429
 2792SOL    HW1 9275   1.011   2.409   5.356
 2792SOL    HW2 9276   0.928   2.507   5.456
 2793SOL     OW 9277   4.589   0.576   3.953
 2793SOL    HW1 9278   4.526   0.506   3.987
 2793SOL    HW2 9279   4.670   0.533   3.915
 2794SOL     OW 9280   1.088   1.539   1.449
 2794SOL    HW1 9281   1.024   1.505   1.519
 2794SOL    HW2 9282   1.160   1.592   1.494
 2795SOL     OW 9283   1.202   3.777   1.278
 2795SOL    HW1 9284   1.172   3.775   1.373
 2795SOL    HW2 9285   1.287   3.829   1.271
 2796SOL     OW 9286   5.153   4.308   2.463
 2796SOL    HW1 9287   5.090   4.329   2.388
 2796SOL    HW2 9288   5.108   4.249   2.529
 2797SOL     OW 9289   4.566   4.238   5.280
 2797SOL    HW1 9290   4.589   4.310   5.215
 2797SOL    HW2 9291   4.469   4.245   5.305
 2798SOL     OW 9292   1.664   3.931   3.555
 2798SOL    HW1 9293   1.731   3.982   3.608
 2798SOL    HW2 9294   1.653   3.839   3.593
 2799SOL     OW 9295   6.864   5.876   6.163
 2799SOL    HW1 9296   6.808   5.919   6.234
 2799SOL    HW2 9297   6.819   5.793   6.131
 2800SOL     OW 9298   2.854   1.550   6.500
 2800SOL    HW1 9299   2.897   1.617   6.439
 2800SOL    HW2 9300   2.782   1.595   6.553
 2801SOL     OW 9301   4.069   5.693   2.149
 2801SOL    HW1 9302   3.981   5.738   2.137
 2801SOL    HW2 9303   4.060   5.595   2.129
 2802SOL     OW 9304   6.279   0.515   6.340
 2802SOL    HW1 9305   6.219   0.438   6.319
 2802SOL    HW2 9306   6.247   0.596   6.291
 2803SOL     OW 9307   2.170   5.867   5.602
 2803SOL    HW1 9308   2.259   5.825   5.583
 2803SOL    HW2 9309   2.113   5.861   5.521
 2804SOL     OW 9310   0.305   4.798   2.389
 2804SOL    HW1 9311   0.257   4.878   2.354
 2804SOL    HW2 9312   0.285   4.720   2.330
 2805SOL     OW 9313   5.877   4.076   6.718
 2805SOL    HW1 9314   5.785   4.108   6.695
 2805SOL    HW2 9315   5.874   4.018   6.799
 2806SOL     OW 9316   6.659   5.380   2.572
 2806SOL    HW1 9317   6.573   5.393   2.622
 2806SOL    HW2 9318   6.646   5.310   2.502
 2807SOL     OW 9319   3.667   5.102   3.956
 2807SOL    HW1 9320   3.730   5.097   3.879
 2807SOL    HW2 9321   3.699   5.043   4.030
 2808SOL     OW 9322   4.600   5.959   4.099
 2808SOL    HW1 9323   4.505   5.978   4.074
 2808SOL    HW2 9324   4.611   5.966   4.198
 2809SOL     OW 9325   5.738   2.830   0.279
 2809SOL    HW1 9326   5.771   2.758   0.217
 2809SOL    HW2 9327   5.812   2.895   0.297
 2810SOL     OW 9328   1.746   1.038   6.391
 2810SOL    HW1 9329   1.648   1.053   6.405
 2810SOL    HW2 9330   1.786   1.000   6.474
 2811SOL     OW 9331   6.934   0.867   4.020
 2811SOL    HW1 9332   6.956   0.821   3.935
 2811SOL    HW2 9333   6.871   0.811   4.074
 2812SOL     OW 9334   4.634   4.300   2.772
 2812SOL    HW1 9335   4.659   4.243   2.693
 2812SOL    HW2 9336   4.546   4.344   2.754
 2813SOL     OW 9337   6.116   1.827   6.412
 2813SOL    HW1 9338   6.169   1.897   6.460
 2813SOL    HW2 9339   6.044   1.792   6.473
 2814SOL     OW 9340   5.544   4.230   4.620
 2814SOL    HW1 9341   5.575   4.231   4.715
 2814SOL    HW2 9342   5.517   4.322   4.592
 2815SOL     OW 9343   0.328   0.999   4.462
 2815SOL    HW1 9344   0.283   1.088   4.451
 2815SOL    HW2 9345   0.265   0.935   4.507
 2816SOL     OW 9346   5.293   6.355   2.827
 2816SOL    HW1 9347   5.388   6.379   2.808
 2816SOL    HW2 9348   5.260   6.292   2.757
 2817SOL     OW 9349   1.390   1.246   1.413
 2817SOL    HW1 9350   1.380   1.346   1.409
 2817SOL    HW2 9351   1.416   1.220   1.506
 2818SOL     OW 9352   1.047   3.173   6.918
 2818SOL    HW1 9353   1.072   3.200   6.825
 2818SOL    HW2 9354   1.010   3.081   6.917
 2819SOL     OW 9355   6.600   3.377   1.009
 2819SOL    HW1 9356   6.623   3.314   0.935
 2819SOL    HW2 9357   6.520   3.343   1.059
 2820SOL     OW 9358   5.199   2.441   4.069
 2820SOL    HW1 9359   5.198   2.481   4.160
 2820SOL    HW2 9360   5.265   2.366   4.065
 2821SOL     OW 9361   1.660   3.156   3.600
 2821SOL    HW1 9362   1.615   3.136   3.687
 2821SOL    HW2 9363   1.594   3.193   3.535
 2822SOL     OW 9364   2.873   1.844   1.054
 2822SOL    HW1 9365   2.940   1.784   1.096
 2822SOL    HW2 9366   2.862   1.821   0.958
 2823SOL     OW 9367   1.744   7.025   4.306
 2823SOL    HW1 9368   1.837   7.026   4.272
 2823SOL    HW2 9369   1.691   0.073   4.265
 2824SOL     OW 9370   3.243   2.087   5.514
 2824SOL    HW1 9371   3.307   2.027   5.468
 2824SOL    HW2 9372   3.238   2.174   5.466
 2825SOL     OW 9373   6.287   6.336   1.176
 2825SOL    HW1 9374   6.196   6.309   1.145
 2825SOL    HW2 9375   6.288   6.434   1.194
 2826SOL     OW 9376   4.979   3.469   4.355
 2826SOL    HW1 9377   4.921   3.404   4.307
 2826SOL    HW2 9378   5.075   3.449   4.337
 2827SOL     OW 9379   6.746   0.349   6.552
 2827SOL    HW1 9380   6.757   0.420   6.483
 2827SOL    HW2 9381   6.649   0.337   6.573
 2828SOL     OW 9382   3.990   1.944   6.678
 2828SOL    HW1 9383   3.974   2.041   6.661
 2828SOL    HW2 9384   3.932   1.890   6.616
 2829SOL     OW 9385   3.015   0.442   6.959
 2829SOL    HW1 9386   2.923   0.436   6.921
 2829SOL    HW2 9387   3.024   0.378   0.008
 2830SOL     OW 9388   3.288   3.695   6.652
 2830SOL    HW1 9389   3.261   3.791   6.661
 2830SOL    HW2 9390   3.312   3.676   6.556
 2831SOL     OW 9391   6.952   6.417   4.107
 2831SOL    HW1 9392   6.967   6.375   4.017
 2831SOL    HW2 9393   6.873   6.478   4.101
 2832SOL     OW 9394   0.507   1.360   2.172
 2832SOL    HW1 9395   0.534   1.419   2.096
 2832SOL    HW2 9396   0.518   1.264   2.144
 2833SOL     OW 9397   6.648   3.288   2.887
 2833SOL    HW1 9398   6.592   3.288   2.804
 2833SOL    HW2 9399   6.669   3.193   2.912
 2834SOL     OW 9400   4.493   0.796   5.558
 2834SOL    HW1 9401   4.514   0.714   5.504
 2834SOL    HW2 9402   4.406   0.835   5.528
 2835SOL     OW 9403   6.687   6.198   3.463
 2835SOL    HW1 9404   6.785   6.207   3.484
 2835SOL    HW2 9405   6.647   6.289   3.454
 2836SOL     OW 9406   6.383   0.372   0.487
 2836SOL    HW1 9407   6.459   0.433   0.466
 2836SOL    HW2 9408   6.325   0.414   0.557
 2837SOL     OW 9409   6.320   3.288   3.404
 2837SOL    HW1 9410   6.253   3.244   3.464
 2837SOL    HW2 9411   6.347   3.224   3.332
 2838SOL     OW 9412   2.127   4.460   4.186
 2838SOL    HW1 9413   2.095   4.467   4.092
 2838SOL    HW2 9414   2.057   4.497   4.248
 2839SOL     OW 9415   4.512   2.926   0.806
 2839SOL    HW1 9416   4.603   2.946   0.841
 2839SOL    HW2 9417   4.489   2.989   0.732
 2840SOL     OW 9418   6.495   2.867   5.107
 2840SOL    HW1 9419   6.418   2.837   5.163
 2840SOL    HW2 9420   6.460   2.911   5.024
 2841SOL     OW 9421   0.260   6.481   0.540
 2841SOL    HW1 9422   0.256   6.493   0.640
 2841SOL    HW2 9423   0.230   6.564   0.495
 2842SOL     OW 9424   5.907   3.350   2.918
 2842SOL    HW1 9425   5.970   3.399   2.858
 2842SOL    HW2 9426   5.854   3.416   2.972
 2843SOL     OW 9427   4.156   1.222   3.886
 2843SOL    HW1 9428   4.206   1.260   3.964
 2843SOL    HW2 9429   4.117   1.297   3.832
 2844SOL     OW 9430   0.986   3.875   5.565
 2844SOL    HW1 9431   0.892   3.857   5.593
 2844SOL    HW2 9432   0.996   3.971   5.540
 2845SOL     OW 9433   6.973   4.103   6.085
 2845SOL    HW1 9434   6.944   4.196   6.060
 2845SOL    HW2 9435   0.044   4.093   6.066
 2846SOL     OW 9436   5.302   1.071   5.941
 2846SOL    HW1 9437   5.328   1.071   6.037
 2846SOL    HW2 9438   5.347   0.994   5.895
 2847SOL     OW 9439   4.391   4.619   4.209
 2847SOL    HW1 9440   4.353   4.526   4.215
 2847SOL    HW2 9441   4.488   4.614   4.185
 2848SOL     OW 9442   2.103   6.632   5.528
 2848SOL    HW1 9443   2.102   6.731   5.544
 2848SOL    HW2 9444   2.156   6.586   5.599
 2849SOL     OW 9445   1.919   2.964   1.825
 2849SOL    HW1 9446   1.905   3.021   1.744
 2849SOL    HW2 9447   1.998   2.998   1.877
 2850SOL     OW 9448   3.788   1.385   0.652
 2850SOL    HW1 9449   3.809   1.409   0.557
 2850SOL    HW2 9450   3.713   1.319   0.654
 2851SOL     OW 9451   2.584   5.295   6.315
 2851SOL    HW1 9452   2.517   5.225   6.337
 2851SOL    HW2 9453   2.625   5.275   6.226
 2852SOL     OW 9454   0.312   2.811   6.484
 2852SOL    HW1 9455   0.370   2.792   6.404
 2852SOL    HW2 9456   0.254   2.731   6.502
 2853SOL     OW 9457   3.666   2.501   1.444
 2853SOL    HW1 9458   3.613   2.484   1.527
 2853SOL    HW2 9459   3.750   2.550   1.468
 2854SOL     OW 9460   0.579   1.093   3.401
 2854SOL    HW1 9461   0.594   1.141   3.488
 2854SOL    HW2 9462   0.660   1.039   3.379
 2855SOL     OW 9463   3.523   1.522   4.985
 2855SOL    HW1 9464   3.467   1.462   5.042
 2855SOL    HW2 9465   3.586   1.468   4.931
 2856SOL     OW 9466   2.181   1.792   5.523
 2856SOL    HW1 9467   2.143   1.699   5.526
 2856SOL    HW2 9468   2.280   1.787   5.528
 2857SOL     OW 9469   3.405   3.351   3.593
 2857SOL    HW1 9470   3.485   3.401   3.628
 2857SOL    HW2 9471   3.393   3.372   3.496
 2858SOL     OW 9472   5.524   2.581   3.021
 2858SOL    HW1 9473   5.447   2.519   3.001
 2858SOL    HW2 9474   5.541   2.583   3.119
 2859SOL     OW 9475   5.263   6.170   0.202
 2859SOL    HW1 9476   5.302   6.232   0.270
 2859SOL    HW2 9477   5.192   6.219   0.150
 2860SOL     OW 9478   4.400   2.338   1.161
 2860SOL    HW1 9479   4.391   2.408   1.091
 2860SOL    HW2 9480   4.313   2.289   1.172
 2861SOL     OW 9481   4.024   5.596   6.256
 2861SOL    HW1 9482   3.928   5.613   6.275
 2861SOL    HW2 9483   4.035   5.574   6.159
 2862SOL     OW 9484   6.363   6.847   3.807
 2862SOL    HW1 9485   6.316   6.785   3.870
 2862SOL    HW2 9486   6.461   6.833   3.814
 2863SOL     OW 9487   6.755   0.989   0.059
 2863SOL    HW1 9488   6.749   1.058   0.130
 2863SOL    HW2 9489   6.670   0.936   0.057
 2864SOL     OW 9490   3.394   1.853   0.410
 2864SOL    HW1 9491   3.438   1.767   0.436
 2864SOL    HW2 9492   3.322   1.875   0.476
 2865SOL     OW 9493   4.584   5.181   5.177
 2865SOL    HW1 9494   4.546   5.266   5.141
 2865SOL    HW2 9495   4.537   5.104   5.134
 2866SOL     OW 9496   0.039   6.881   6.488
 2866SOL    HW1 9497   0.121   6.939   6.492
 2866SOL    HW2 9498   6.986   6.938   6.468
 2867SOL     OW 9499   6.786   4.634   3.534
 2867SOL    HW1 9500   6.697   4.588   3.532
 2867SOL    HW2 9501   6.772   4.733   3.532
 2868SOL     OW 9502   1.694   5.172   4.839
 2868SOL    HW1 9503   1.725   5.163   4.744
 2868SOL    HW2 9504   1.698   5.268   4.866
 2869SOL     OW 9505   6.323   1.256   2.330
 2869SOL    HW1 9506   6.376   1.315   2.391
 2869SOL    HW2 9507   6.246   1.307   2.293
 2870SOL     OW 9508   4.468   2.198   2.480
 2870SOL    HW1 9509   4.461   2.110   2.432
 2870SOL    HW2 9510   4.428   2.270   2.423
 2871SOL     OW 9511   1.398   1.545   5.830
 2871SOL    HW1 9512   1.337   1.473   5.864
 2871SOL    HW2 9513   1.348   1.631   5.826
 2872SOL     OW 9514   1.934   6.799   3.956
 2872SOL    HW1 9515   1.958   6.895   3.970
 2872SOL    HW2 9516   1.847   6.779   4.002
 2873SOL     OW 9517   6.758   5.888   1.872
 2873SOL    HW1 9518   6.839   5.943   1.894
 2873SOL    HW2 9519   6.777   5.833   1.790
 2874SOL     OW 9520   5.543   1.762   2.376
 2874SOL    HW1 9521   5.558   1.673   2.333
 2874SOL    HW2 9522   5.448   1.791   2.360
 2875SOL     OW 9523   2.706   5.066   1.284
 2875SOL    HW1 9524   2.665   5.140   1.337
 2875SOL    HW2 9525   2.716   4.985   1.342
 2876SOL     OW 9526   6.795   2.328   1.760
 2876SOL    HW1 9527   6.818   2.375   1.674
 2876SOL    HW2 9528   6.705   2.358   1.792
 2877SOL     OW 9529   2.130   3.999   5.865
 2877SOL    HW1 9530   2.210   4.027   5.812
 2877SOL    HW2 9531   2.050   3.998   5.806
 2878SOL     OW 9532   3.395   5.028   0.168
 2878SOL    HW1 9533   3.412   5.067   0.258
 2878SOL    HW2 9534   3.413   4.930   0.169
 2879SOL     OW 9535   4.531   4.380   0.075
 2879SOL    HW1 9536   4.575   4.292   0.093
 2879SOL    HW2 9537   4.440   4.380   0.116
 2880SOL     OW 9538   1.791   6.649   2.414
 2880SOL    HW1 9539   1.814   6.735   2.369
 2880SOL    HW2 9540   1.753   6.585   2.348
 2881SOL     OW 9541   0.200   0.254   6.555
 2881SOL    HW1 9542   0.108   0.285   6.581
 2881SOL    HW2 9543   0.265   0.281   6.626
 2882SOL     OW 9544   6.993   3.094   3.335
 2882SOL    HW1 9545   0.040   3.050   3.283
 2882SOL    HW2 9546   6.918   3.029   3.346
 2883SOL     OW 9547   4.323   6.055   2.314
 2883SOL    HW1 9548   4.292   5.987   2.248
 2883SOL    HW2 9549   4.379   6.124   2.267
 2884SOL     OW 9550   1.814   5.431   3.073
 2884SOL    HW1 9551   1.838   5.336   3.092
 2884SOL    HW2 9552   1.775   5.439   2.982
 2885SOL     OW 9553   1.135   2.306   4.181
 2885SOL    HW1 9554   1.168   2.331   4.273
 2885SOL    HW2 9555   1.035   2.305   4.181
 2886SOL     OW 9556   2.829   2.960   6.353
 2886SOL    HW1 9557   2.928   2.971   6.366
 2886SOL    HW2 9558   2.789   2.918   6.435
 2887SOL     OW 9559   2.700   1.553   4.920
 2887SOL    HW1 9560   2.644   1.483   4.876
 2887SOL    HW2 9561   2.797   1.529   4.910
 2888SOL     OW 9562   6.892   5.277   0.179
 2888SOL    HW1 9563   6.956   5.202   0.166
 2888SOL    HW2 9564   6.805   5.254   0.137
 2889SOL     OW 9565   0.760   0.061   0.961
 2889SOL    HW1 9566   0.766   0.011   1.047
 2889SOL    HW2 9567   0.783   0.000   0.885
 2890SOL     OW 9568   3.173   0.723   0.499
 2890SOL    HW1 9569   3.213   0.645   0.451
 2890SOL    HW2 9570   3.073   0.714   0.500
 2891SOL     OW 9571   3.007   4.861   4.953
 2891SOL    HW1 9572   2.960   4.900   4.874
 2891SOL    HW2 9573   2.980   4.765   4.963
 2892SOL     OW 9574   4.324   4.289   5.381
 2892SOL    HW1 9575   4.254   4.294   5.310
 2892SOL    HW2 9576   4.281   4.278   5.470
 2893SOL     OW 9577   3.495   1.194   5.664
 2893SOL    HW1 9578   3.563   1.162   5.730
 2893SOL    HW2 9579   3.404   1.165   5.694
 2894SOL     OW 9580   3.606   2.819   1.092
 2894SOL    HW1 9581   3.604   2.911   1.131
 2894SOL    HW2 9582   3.701   2.793   1.072
 2895SOL     OW 9583   3.109   2.932   0.403
 2895SOL    HW1 9584   3.075   2.975   0.319
 2895SOL    HW2 9585   3.166   2.853   0.379
 2896SOL     OW 9586   2.091   4.691   0.681
 2896SOL    HW1 9587   2.126   4.724   0.593
 2896SOL    HW2 9588   2.026   4.758   0.718
 2897SOL     OW 9589   1.450   7.000   3.553
 2897SOL    HW1 9590   1.445   0.029   3.470
 2897SOL    HW2 9591   1.391   6.920   3.543
 2898SOL     OW 9592   2.444   4.636   2.917
 2898SOL    HW1 9593   2.411   4.548   2.881
 2898SOL    HW2 9594   2.381   4.668   2.989
 2899SOL     OW 9595   6.083   1.131   0.865
 2899SOL    HW1 9596   6.121   1.220   0.890
 2899SOL    HW2 9597   5.996   1.117   0.912
 2900SOL     OW 9598   3.383   5.638   6.590
 2900SOL    HW1 9599   3.456   5.584   6.547
 2900SOL    HW2 9600   3.421   5.723   6.626
 2901SOL     OW 9601   2.497   0.151   1.217
 2901SOL    HW1 9602   2.500   0.137   1.316
 2901SOL    HW2 9603   2.584   0.125   1.176
 2902SOL     OW 9604   5.089   5.598   0.956
 2902SOL    HW1 9605   5.094   5.628   0.861
 2902SOL    HW2 9606   5.071   5.499   0.959
 2903SOL     OW 9607   2.732   2.317   1.847
 2903SOL    HW1 9608   2.676   2.392   1.883
 2903SOL    HW2 9609   2.826   2.325   1.883
 2904SOL     OW 9610   2.533   2.550   4.241
 2904SOL    HW1 9611   2.547   2.498   4.325
 2904SOL    HW2 9612   2.444   2.596   4.245
 2905SOL     OW 9613   1.478   2.117   2.061
 2905SOL    HW1 9614   1.430   2.205   2.064
 2905SOL    HW2 9615   1.448   2.060   2.138
 2906SOL     OW 9616   5.449   5.537   2.190
 2906SOL    HW1 9617   5.355   5.558   2.164
 2906SOL    HW2 9618   5.507   5.617   2.173
 2907SOL     OW 9619   6.156   0.683   4.555
 2907SOL    HW1 9620   6.103   0.682   4.640
 2907SOL    HW2 9621   6.166   0.777   4.523
 2908SOL     OW 9622   3.900   6.152   5.293
 2908SOL    HW1 9623   3.917   6.096   5.212
 2908SOL    HW2 9624   3.974   6.140   5.358
 2909SOL     OW 9625   1.831   5.980   5.588
 2909SOL    HW1 9626   1.865   5.888   5.608
 2909SOL    HW2 9627   1.734   5.976   5.565
 2910SOL     OW 9628   4.690   6.486   5.321
 2910SOL    HW1 9629   4.724   6.564   5.269
 2910SOL    HW2 9630   4.591   6.481   5.313
 2911SOL     OW 9631   2.403   4.391   3.756
 2911SOL    HW1 9632   2.493   4.412   3.717
 2911SOL    HW2 9633   2.340   4.467   3.737
 2912SOL     OW 9634   2.625   5.334   0.891
 2912SOL    HW1 9635   2.573   5.311   0.809
 2912SOL    HW2 9636   2.670   5.422   0.879
 2913SOL     OW 9637   1.033   3.612   2.432
 2913SOL    HW1 9638   0.983   3.674   2.371
 2913SOL    HW2 9639   0.998   3.519   2.421
 2914SOL     OW 9640   5.275   4.936   5.801
 2914SOL    HW1 9641   5.268   4.959   5.898
 2914SOL    HW2 9642   5.200   4.875   5.775
 2915SOL     OW 9643   4.403   1.465   4.308
 2915SOL    HW1 9644   4.447   1.390   4.359
 2915SOL    HW2 9645   4.356   1.525   4.373
 2916SOL     OW 9646   4.859   6.724   4.396
 2916SOL    HW1 9647   4.825   6.689   4.483
 2916SOL    HW2 9648   4.828   6.664   4.322
 2917SOL     OW 9649   4.375   0.722   1.796
 2917SOL    HW1 9650   4.341   0.700   1.887
 2917SOL    HW2 9651   4.297   0.741   1.735
 2918SOL     OW 9652   0.571   3.187   4.281
 2918SOL    HW1 9653   0.668   3.208   4.271
 2918SOL    HW2 9654   0.547   3.111   4.220
 2919SOL     OW 9655   6.246   6.268   0.582
 2919SOL    HW1 9656   6.189   6.346   0.557
 2919SOL    HW2 9657   6.339   6.282   0.546
 2920SOL     OW 9658   4.572   2.167   2.729
 2920SOL    HW1 9659   4.595   2.260   2.758
 2920SOL    HW2 9660   4.523   2.170   2.642
 2921SOL     OW 9661   0.068   0.809   1.370
 2921SOL    HW1 9662   0.011   0.752   1.311
 2921SOL    HW2 9663   0.114   0.750   1.437
 2922SOL     OW 9664   4.435   6.260   5.271
 2922SOL    HW1 9665   4.438   6.328   5.344
 2922SOL    HW2 9666   4.414   6.306   5.184
 2923SOL     OW 9667   0.004   3.973   0.079
 2923SOL    HW1 9668   6.982   3.944   7.023
 2923SOL    HW2 9669   0.097   4.000   0.055
 2924SOL     OW 9670   6.402   6.888   5.932
 2924SOL    HW1 9671   6.489   6.876   5.885
 2924SOL    HW2 9672   6.327   6.880   5.867
 2925SOL     OW 9673   5.668   3.317   1.360
 2925SOL    HW1 9674   5.722   3.242   1.400
 2925SOL    HW2 9675   5.638   3.290   1.268
 2926SOL     OW 9676   0.345   1.344   3.935
 2926SOL    HW1 9677   0.291   1.262   3.954
 2926SOL    HW2 9678   0.322   1.379   3.844
 2927SOL     OW 9679   1.000   3.277   2.543
 2927SOL    HW1 9680   0.934   3.203   2.552
 2927SOL    HW2 9681   0.984   3.327   2.458
 2928SOL     OW 9682   5.494   6.168   1.149
 2928SOL    HW1 9683   5.466   6.084   1.104
 2928SOL    HW2 9684   5.591   6.164   1.171
 2929SOL     OW 9685   0.706   0.179   6.205
 2929SOL    HW1 9686   0.670   0.183   6.298
 2929SOL    HW2 9687   0.636   0.209   6.141
 2930SOL     OW 9688   3.165   6.584   4.250
 2930SOL    HW1 9689   3.150   6.645   4.328
 2930SOL    HW2 9690   3.078   6.564   4.206
 2931SOL     OW 9691   3.736   4.677   6.433
 2931SOL    HW1 9692   3.821   4.729   6.440
 2931SOL    HW2 9693   3.697   4.663   6.524
 2932SOL     OW 9694   1.468   4.765   2.085
 2932SOL    HW1 9695   1.547   4.751   2.025
 2932SOL    HW2 9696   1.391   4.798   2.031
 2933SOL     OW 9697   4.894   2.376   3.606
 2933SOL    HW1 9698   4.807   2.337   3.575
 2933SOL    HW2 9699   4.896   2.474   3.585
 2934SOL     OW 9700   1.932   1.021   0.670
 2934SOL    HW1 9701   1.931   1.120   0.655
 2934SOL    HW2 9702   1.927   1.003   0.768
 2935SOL     OW 9703   6.830   1.664   1.496
 2935SOL    HW1 9704   6.771   1.590   1.530
 2935SOL    HW2 9705   6.785   1.709   1.419
 2936SOL     OW 9706   3.377   5.711   0.406
 2936SOL    HW1 9707   3.337   5.802   0.419
 2936SOL    HW2 9708   3.339   5.670   0.322
 2937SOL     OW 9709   2.820   4.726   0.218
 2937SOL    HW1 9710   2.774   4.700   0.303
 2937SOL    HW2 9711   2.901   4.781   0.240
 2938SOL     OW 9712   5.120   4.832   5.568
 2938SOL    HW1 9713   5.072   4.844   5.481
 2938SOL    HW2 9714   5.179   4.911   5.584
 2939SOL     OW 9715   0.409   6.640   5.965
 2939SOL    HW1 9716   0.413   6.728   6.013
 2939SOL    HW2 9717   0.500   6.596   5.968
 2940SOL     OW 9718   4.005   6.744   5.282
 2940SOL    HW1 9719   4.016   6.676   5.354
 2940SOL    HW2 9720   4.021   6.835   5.319
 2941SOL     OW 9721   3.494   1.593   5.376
 2941SOL    HW1 9722   3.576   1.588   5.433
 2941SOL    HW2 9723   3.469   1.501   5.346
 2942SOL     OW 9724   3.947   6.296   4.040
 2942SOL    HW1 9725   3.892   6.257   3.966
 2942SOL    HW2 9726   3.996   6.376   4.007
 2943SOL     OW 9727   5.213   4.548   2.623
 2943SOL    HW1 9728   5.160   4.629   2.595
 2943SOL    HW2 9729   5.219   4.484   2.547
 2944SOL     OW 9730   4.326   6.220   6.949
 2944SOL    HW1 9731   4.247   6.281   6.957
 2944SOL    HW2 9732   4.330   6.182   6.857
 2945SOL     OW 9733   3.182   4.031   3.649
 2945SOL    HW1 9734   3.192   4.057   3.745
 2945SOL    HW2 9735   3.097   4.068   3.613
 2946SOL     OW 9736   0.640   6.049   6.203
 2946SOL    HW1 9737   0.634   5.979   6.132
 2946SOL    HW2 9738   0.707   6.119   6.176
 2947SOL     OW 9739   0.122   5.199   0.366
 2947SOL    HW1 9740   0.076   5.127   0.315
 2947SOL    HW2 9741   0.137   5.278   0.306
 2948SOL     OW 9742   5.837   4.232   5.377
 2948SOL    HW1 9743   5.901   4.212   5.451
 2948SOL    HW2 9744   5.750   4.185   5.395
 2949SOL     OW 9745   1.011   6.451   0.498
 2949SOL    HW1 9746   1.049   6.375   0.552
 2949SOL    HW2 9747   1.000   6.531   0.557
 2950SOL     OW 9748   4.901   3.708   4.840
 2950SOL    HW1 9749   5.000   3.720   4.844
 2950SOL    HW2 9750   4.866   3.693   4.933
 2951SOL     OW 9751   6.081   0.605   0.941
 2951SOL    HW1 9752   6.133   0.676   0.988
 2951SOL    HW2 9753   6.068   0.630   0.846
 2952SOL     OW 9754   0.763   3.824   1.900
 2952SOL    HW1 9755   0.685   3.884   1.916
 2952SOL    HW2 9756   0.823   3.825   1.980
 2953SOL     OW 9757   5.621   1.505   2.338
 2953SOL    HW1 9758   5.628   1.464   2.247
 2953SOL    HW2 9759   5.592   1.436   2.404
 2954SOL     OW 9760   5.672   6.524   1.924
 2954SOL    HW1 9761   5.600   6.593   1.926
 2954SOL    HW2 9762   5.724   6.533   1.839
 2955SOL     OW 9763   6.462   2.623   0.353
 2955SOL    HW1 9764   6.484   2.645   0.448
 2955SOL    HW2 9765   6.455   2.524   0.342
 2956SOL     OW 9766   6.627   5.665   3.276
 2956SOL    HW1 9767   6.621   5.604   3.197
 2956SOL    HW2 9768   6.564   5.633   3.347
 2957SOL     OW 9769   1.209   5.070   1.609
 2957SOL    HW1 9770   1.167   5.086   1.698
 2957SOL    HW2 9771   1.154   5.111   1.537
 2958SOL     OW 9772   3.181   5.410   6.551
 2958SOL    HW1 9773   3.245   5.487   6.556
 2958SOL    HW2 9774   3.090   5.440   6.578
 2959SOL     OW 9775   3.960   5.610   0.085
 2959SOL    HW1 9776   4.035   5.573   0.139
 2959SOL    HW2 9777   3.996   5.667   0.012
 2960SOL     OW 9778   2.793   1.592   0.175
 2960SOL    HW1 9779   2.721   1.645   0.222
 2960SOL    HW2 9780   2.819   1.514   0.231
 2961SOL     OW 9781   6.070   1.531   4.320
 2961SOL    HW1 9782   6.065   1.494   4.228
 2961SOL    HW2 9783   6.086   1.630   4.315
 2962SOL     OW 9784   3.979   0.544   2.411
 2962SOL    HW1 9785   3.990   0.625   2.469
 2962SOL    HW2 9786   4.004   0.463   2.463
 2963SOL     OW 9787   1.916   3.761   4.960
 2963SOL    HW1 9788   1.985   3.692   4.982
 2963SOL    HW2 9789   1.850   3.767   5.035
 2964SOL     OW 9790   2.906   5.983   0.188
 2964SOL    HW1 9791   2.827   5.985   0.248
 2964SOL    HW2 9792   2.947   6.074   0.183
 2965SOL     OW 9793   0.121   2.314   6.010
 2965SOL    HW1 9794   0.023   2.296   6.001
 2965SOL    HW2 9795   0.153   2.362   5.928
 2966SOL     OW 9796   4.694   4.832   3.429
 2966SOL    HW1 9797   4.702   4.873   3.520
 2966SOL    HW2 9798   4.599   4.833   3.400
 2967SOL     OW 9799   5.766   2.549   3.765
 2967SOL    HW1 9800   5.737   2.638   3.801
 2967SOL    HW2 9801   5.751   2.547   3.666
 2968SOL     OW 9802   6.455   3.658   3.332
 2968SOL    HW1 9803   6.437   3.725   3.405
 2968SOL    HW2 9804   6.512   3.584   3.368
 2969SOL     OW 9805   3.928   1.066   4.577
 2969SOL    HW1 9806   4.019   1.081   4.539
 2969SOL    HW2 9807   3.936   1.029   4.669
 2970SOL     OW 9808   1.202   4.301   6.163
 2970SOL    HW1 9809   1.151   4.264   6.086
 2970SOL    HW2 9810   1.271   4.235   6.192
 2971SOL     OW 9811   5.301   3.480   2.670
 2971SOL    HW1 9812   5.232   3.510   2.605
 2971SOL    HW2 9813   5.258   3.426   2.742
 2972SOL     OW 9814   1.185   4.426   5.710
 2972SOL    HW1 9815   1.146   4.476   5.634
 2972SOL    HW2 9816   1.270   4.382   5.682
 2973SOL     OW 9817   6.059   6.907   4.326
 2973SOL    HW1 9818   6.081   7.004   4.327
 2973SOL    HW2 9819   6.049   6.876   4.231
 2974SOL     OW 9820   6.886   4.359   2.061
 2974SOL    HW1 9821   6.976   4.336   2.025
 2974SOL    HW2 9822   6.828   4.278   2.059
 2975SOL     OW 9823   0.316   1.453   4.238
 2975SOL    HW1 9824   0.333   1.513   4.316
 2975SOL    HW2 9825   0.260   1.502   4.170
 2976SOL     OW 9826   2.485   6.165   1.637
 2976SOL    HW1 9827   2.526   6.206   1.719
 2976SOL    HW2 9828   2.452   6.237   1.576
 2977SOL     OW 9829   3.456   6.297   4.217
 2977SOL    HW1 9830   3.478   6.391   4.191
 2977SOL    HW2 9831   3.381   6.263   4.161
 2978SOL     OW 9832   3.765   0.221   6.332
 2978SOL    HW1 9833   3.776   0.320   6.341
 2978SOL    HW2 9834   3.725   0.185   6.416
 2979SOL     OW 9835   3.548   1.299   3.196
 2979SOL    HW1 9836   3.602   1.221   3.165
 2979SOL    HW2 9837   3.591   1.384   3.164
 2980SOL     OW 9838   6.803   5.959   3.962
 2980SOL    HW1 9839   6.795   5.871   4.009
 2980SOL    HW2 9840   6.878   5.954   3.895
 2981SOL     OW 9841   1.970   1.550   5.979
 2981SOL    HW1 9842   2.000   1.467   6.026
 2981SOL    HW2 9843   1.890   1.588   6.026
 2982SOL     OW 9844   4.897   6.214   2.043
 2982SOL    HW1 9845   4.932   6.239   2.133
 2982SOL    HW2 9846   4.973   6.204   1.979
 2983SOL     OW 9847   6.422   0.223   2.961
 2983SOL    HW1 9848   6.469   0.135   2.969
 2983SOL    HW2 9849   6.439   0.260   2.870
 2984SOL     OW 9850   5.872   4.285   1.617
 2984SOL    HW1 9851   5.951   4.312   1.673
 2984SOL    HW2 9852   5.793   4.272   1.676
 2985SOL     OW 9853   6.867   2.048   3.189
 2985SOL    HW1 9854   6.879   2.082   3.282
 2985SOL    HW2 9855   6.769   2.035   3.171
 2986SOL     OW 9856   2.143   3.682   5.145
 2986SOL    HW1 9857   2.219   3.648   5.201
 2986SOL    HW2 9858   2.146   3.782   5.143
 2987SOL     OW 9859   4.905   1.589   5.006
 2987SOL    HW1 9860   4.876   1.495   5.026
 2987SOL    HW2 9861   4.830   1.652   5.027
 2988SOL     OW 9862   0.806   6.359   2.226
 2988SOL    HW1 9863   0.883   6.401   2.178
 2988SOL    HW2 9864   0.809   6.260   2.216
 2989SOL     OW 9865   6.202   5.475   0.616
 2989SOL    HW1 9866   6.149   5.535   0.557
 2989SOL    HW2 9867   6.211   5.517   0.707
 2990SOL     OW 9868   3.003   1.340   1.597
 2990SOL    HW1 9869   2.912   1.321   1.562
 2990SOL    HW2 9870   3.020   1.438   1.596
 2991SOL     OW 9871   6.045   4.630   0.152
 2991SOL    HW1 9872   6.038   4.535   0.182
 2991SOL    HW2 9873   6.067   4.633   0.055
 2992SOL     OW 9874   4.508   4.552   6.881
 2992SOL    HW1 9875   4.500   4.485   6.954
 2992SOL    HW2 9876   4.419   4.595   6.865
 2993SOL     OW 9877   1.469   4.778   0.383
 2993SOL    HW1 9878   1.513   4.689   0.365
 2993SOL    HW2 9879   1.526   4.831   0.446
 2994SOL     OW 9880   4.033   6.283   0.137
 2994SOL    HW1 9881   4.092   6.322   0.207
 2994SOL    HW2 9882   4.051   6.327   0.049
 2995SOL     OW 9883   2.562   1.030   5.800
 2995SOL    HW1 9884   2.479   0.975   5.796
 2995SOL    HW2 9885   2.553   1.108   5.737
 2996SOL     OW 9886   4.448   5.802   5.524
 2996SOL    HW1 9887   4.367   5.814   5.467
 2996SOL    HW2 9888   4.511   5.878   5.508
 2997SOL     OW 9889   4.312   5.906   0.465
 2997SOL    HW1 9890   4.298   5.994   0.418
 2997SOL    HW2 9891   4.368   5.846   0.408
 2998SOL     OW 9892   6.225   5.112   5.373
 2998SOL    HW1 9893   6.254   5.026   5.415
 2998SOL    HW2 9894   6.217   5.100   5.274
 2999SOL     OW 9895   2.584   0.605   2.067
 2999SOL    HW1 9896   2.580   0.625   2.165
 2999SOL    HW2 9897   2.518   0.532   2.046
 3000SOL     OW 9898   1.191   2.037   4.661
 3000SOL    HW1 9899   1.242   1.969   4.608
 3000SOL    HW2 9900   1.241   2.123   4.661
 3001SOL     OW 9901   5.020   6.688   5.547
 3001SOL    HW1 9902   4.974   6.713   5.462
 3001SOL    HW2 9903   5.110   6.651   5.527
 3002SOL     OW 9904   3.069   0.685   5.546
 3002SOL    HW1 9905   3.126   0.610   5.512
 3002SOL    HW2 9906   3.120   0.771   5.538
 3003SOL     OW 9907   2.234   0.255   5.971
 3003SOL    HW1 9908   2.309   0.264   6.037
 3003SOL    HW2 9909   2.203   0.160   5.969
 3004SOL     OW 9910   6.834   3.062   5.509
 3004SOL    HW1 9911   6.735   3.077   5.508
 3004SOL    HW2 9912   6.874   3.099   5.425
 3005SOL     OW 9913   4.687   2.648   1.153
 3005SOL    HW1 9914   4.770   2.639   1.099
 3005SOL    HW2 9915   4.695   2.592   1.235
 3006SOL     OW 9916   4.447   0.090   0.903
 3006SOL    HW1 9917   4.464   0.185   0.927
 3006SOL    HW2 9918   4.402   0.044   0.980
 3007SOL     OW 9919   5.992   5.372   1.804
 3007SOL    HW1 9920   6.062   5.302   1.812
 3007SOL    HW2 9921   6.016   5.451   1.861
 3008SOL     OW 9922   5.086   6.080   5.482
 3008SOL    HW1 9923   5.076   6.012   5.409
 3008SOL    HW2 9924   5.150   6.151   5.452
 3009SOL     OW 9925   1.586   0.878   2.467
 3009SOL    HW1 9926   1.556   0.881   2.562
 3009SOL    HW2 9927   1.526   0.818   2.415
 3010SOL     OW 9928   2.786   6.521   2.682
 3010SOL    HW1 9929   2.794   6.445   2.746
 3010SOL    HW2 9930   2.863   6.519   2.619
 3011SOL     OW 9931   5.789   0.507   0.024
 3011SOL    HW1 9932   5.760   0.578   0.089
 3011SOL    HW2 9933   5.815   0.425   0.074
 3012SOL     OW 9934   6.868   4.754   1.450
 3012SOL    HW1 9935   6.811   4.686   1.404
 3012SOL    HW2 9936   6.964   4.723   1.448
 3013SOL     OW 9937   6.348   3.928   1.982
 3013SOL    HW1 9938   6.254   3.917   2.013
 3013SOL    HW2 9939   6.410   3.916   2.060
 3014SOL     OW 9940   5.104   7.022   5.456
 3014SOL    HW1 9941   5.094   6.963   5.376
 3014SOL    HW2 9942   5.028   0.060   5.460
 3015SOL     OW 9943   2.736   1.054   0.160
 3015SOL    HW1 9944   2.819   1.052   0.104
 3015SOL    HW2 9945   2.658   1.021   0.106
 3016SOL     OW 9946   3.845   6.133   3.454
 3016SOL    HW1 9947   3.749   6.159   3.466
 3016SOL    HW2 9948   3.897   6.212   3.420
 3017SOL     OW 9949   0.129   5.942   1.203
 3017SOL    HW1 9950   0.081   5.877   1.145
 3017SOL    HW2 9951   0.067   6.016   1.230
 3018SOL     OW 9952   4.212   0.303   6.128
 3018SOL    HW1 9953   4.165   0.390   6.108
 3018SOL    HW2 9954   4.186   0.271   6.219
 3019SOL     OW 9955   5.210   6.788   2.076
 3019SOL    HW1 9956   5.112   6.765   2.080
 3019SOL    HW2 9957   5.220   6.883   2.046
 3020SOL     OW 9958   2.307   0.971   1.792
 3020SOL    HW1 9959   2.213   0.938   1.803
 3020SOL    HW2 9960   2.366   0.897   1.761
 3021SOL     OW 9961   4.183   0.711   5.845
 3021SOL    HW1 9962   4.118   0.782   5.871
 3021SOL    HW2 9963   4.276   0.749   5.842
 3022SOL     OW 9964   6.393   0.070   2.346
 3022SOL    HW1 9965   6.337   0.132   2.402
 3022SOL    HW2 9966   6.485   0.065   2.384
 3023SOL     OW 9967   5.937   0.243   1.567
 3023SOL    HW1 9968   5.955   0.147   1.589
 3023SOL    HW2 9969   5.942   0.257   1.468
 3024SOL     OW 9970   3.193   7.026   6.283
 3024SOL    HW1 9971   3.138   0.083   6.281
 3024SOL    HW2 9972   3.268   0.006   6.218
 3025SOL     OW 9973   1.958   2.666   2.079
 3025SOL    HW1 9974   1.972   2.697   1.985
 3025SOL    HW2 9975   2.032   2.700   2.136
 3026SOL     OW 9976   2.551   5.541   0.467
 3026SOL    HW1 9977   2.502   5.527   0.381
 3026SOL    HW2 9978   2.633   5.485   0.468
 3027SOL     OW 9979   1.715   1.562   3.859
 3027SOL    HW1 9980   1.711   1.516   3.770
 3027SOL    HW2 9981   1.783   1.518   3.917
 3028SOL     OW 9982   1.159   0.837   4.573
 3028SOL    HW1 9983   1.091   0.904   4.542
 3028SOL    HW2 9984   1.147   0.821   4.671
 3029SOL     OW 9985   5.462   5.342   6.472
 3029SOL    HW1 9986   5.489   5.437   6.483
 3029SOL    HW2 9987   5.511   5.302   6.394
 3030SOL     OW 9988   1.027   1.463   5.778
 3030SOL    HW1 9989   0.966   1.490   5.853
 3030SOL    HW2 9990   1.111   1.424   5.817
 3031SOL     OW 9991   0.428   5.351   6.439
 3031SOL    HW1 9992   0.329   5.358   6.425
 3031SOL    HW2 9993   0.471   5.325   6.352
 3032SOL     OW 9994   3.886   7.001   5.873
 3032SOL    HW1 9995   3.956   0.045   5.878
 3032SOL    HW2 9996   3.853   6.979   5.965
 3033SOL     OW 9997   5.533   4.877   5.693
 3033SOL    HW1 9998   5.455   4.907   5.747
 3033SOL    HW2 9999   5.555   4.782   5.716
 3034SOL     OW10000   2.963   6.700   4.398
 3034SOL    HW110001   2.915   6.787   4.391
 3034SOL    HW210002   2.907   6.635   4.449
 3035SOL     OW10003   6.431   0.013   6.932
 3035SOL    HW110004   6.462   6.967   6.992
 3035SOL    HW210005   6.510   0.066   6.899
 3036SOL     OW10006   0.872   5.067   5.580
 3036SOL    HW110007   0.920   5.122   5.648
 3036SOL    HW210008   0.922   4.982   5.564
 3037SOL     OW10009   6.196   6.885   5.771
 3037SOL    HW110010   6.219   6.919   5.680
 3037SOL    HW210011   6.157   6.960   5.825
 3038SOL     OW10012   6.147   6.337   5.706
 3038SOL    HW110013   6.170   6.427   5.744
 3038SOL    HW210014   6.227   6.276   5.715
 3039SOL     OW10015   6.985   4.917   0.441
 3039SOL    HW110016   0.020   4.840   0.457
 3039SOL    HW210017   6.998   4.951   0.348
 3040SOL     OW10018   2.554   1.599   6.968
 3040SOL    HW110019   2.633   1.566   7.019
 3040SOL    HW210020   2.483   1.528   6.967
 3041SOL     OW10021   1.551   2.556   6.083
 3041SOL    HW110022   1.607   2.473   6.091
 3041SOL    HW210023   1.495   2.566   6.166
 3042SOL     OW10024   5.728   6.858   1.816
 3042SOL    HW110025   5.823   6.828   1.828
 3042SOL    HW210026   5.717   6.894   1.723
 3043SOL     OW10027   6.311   4.967   6.616
 3043SOL    HW110028   6.289   4.953   6.520
 3043SOL    HW210029   6.372   5.046   6.625
 3044SOL     OW10030   2.596   3.252   5.760
 3044SOL    HW110031   2.683   3.295   5.784
 3044SOL    HW210032   2.524   3.321   5.761
 3045SOL     OW10033   4.763   1.890   4.022
 3045SOL    HW110034   4.788   1.815   4.083
 3045SOL    HW210035   4.679   1.933   4.055
 3046SOL     OW10036   1.963   2.190   6.120
 3046SOL    HW110037   1.944   2.244   6.038
 3046SOL    HW210038   2.041   2.230   6.169
 3047SOL     OW10039   0.108   4.646   1.372
 3047SOL    HW110040   0.139   4.553   1.393
 3047SOL    HW210041   0.188   4.707   1.368
 3048SOL     OW10042   2.888   2.565   1.707
 3048SOL    HW110043   2.926   2.503   1.777
 3048SOL    HW210044   2.789   2.572   1.720
 3049SOL     OW10045   1.030   0.138   1.705
 3049SOL    HW110046   0.932   0.126   1.688
 3049SOL    HW210047   1.067   0.206   1.642
 3050SOL     OW10048   1.950   0.139   3.946
 3050SOL    HW110049   1.861   0.112   3.908
 3050SOL    HW210050   1.974   0.231   3.914
 3051SOL     OW10051   2.831   4.321   5.659
 3051SOL    HW110052   2.870   4.411   5.679
 3051SOL    HW210053   2.762   4.299   5.728
 3052SOL     OW10054   4.787   6.687   2.734
 3052SOL    HW110055   4.816   6.660   2.642
 3052SOL    HW210056   4.695   6.651   2.752
 3053SOL     OW10057   4.993   6.938   1.902
 3053SOL    HW110058   5.030   0.004   1.887
 3053SOL    HW210059   5.015   6.881   1.823
 3054SOL     OW10060   2.043   4.348   5.705
 3054SOL    HW110061   2.091   4.260   5.708
 3054SOL    HW210062   2.109   4.422   5.713
 3055SOL     OW10063   5.791   6.504   3.014
 3055SOL    HW110064   5.695   6.499   2.986
 3055SOL    HW210065   5.815   6.424   3.069
 3056SOL     OW10066   5.816   0.653   1.874
 3056SOL    HW110067   5.811   0.619   1.780
 3056SOL    HW210068   5.841   0.750   1.873
 3057SOL     OW10069   6.497   6.026   2.620
 3057SOL    HW110070   6.515   6.011   2.717
 3057SOL    HW210071   6.542   6.111   2.591
 3058SOL     OW10072   6.375   5.405   1.644
 3058SOL    HW110073   6.301   5.346   1.612
 3058SOL    HW210074   6.425   5.359   1.717
 3059SOL     OW10075   1.894   3.033   5.437
 3059SOL    HW110076   1.805   3.076   5.449
 3059SOL    HW210077   1.964   3.104   5.424
 3060SOL     OW10078   0.438   6.535   0.297
 3060SOL    HW110079   0.376   6.612   0.313
 3060SOL    HW210080   0.385   6.451   0.287
 3061SOL     OW10081   0.672   0.544   5.614
 3061SOL    HW110082   0.600   0.610   5.593
 3061SOL    HW210083   0.640   0.478   5.682
 3062SOL     OW10084   3.183   5.631   6.061
 3062SOL    HW110085   3.251   5.653   5.992
 3062SOL    HW210086   3.188   5.533   6.082
 3063SOL     OW10087   2.401   5.652   0.652
 3063SOL    HW110088   2.455   5.587   0.597
 3063SOL    HW210089   2.462   5.722   0.689
 3064SOL     OW10090   0.040   4.595   3.687
 3064SOL    HW110091   0.122   4.584   3.631
 3064SOL    HW210092   6.986   4.591   3.629
 3065SOL     OW10093   2.877   0.972   1.155
 3065SOL    HW110094   2.960   1.021   1.132
 3065SOL    HW210095   2.808   0.987   1.083
 3066SOL     OW10096   5.318   5.931   0.562
 3066SOL    HW110097   5.402   5.980   0.538
 3066SOL    HW210098   5.320   5.840   0.521
 3067SOL     OW10099   4.218   6.618   3.069
 3067SOL    HW110100   4.253   6.634   2.977
 3067SOL    HW210101   4.131   6.569   3.065
 3068SOL     OW10102   5.682   4.685   0.375
 3068SOL    HW110103   5.671   4.691   0.276
 3068SOL    HW210104   5.764   4.632   0.396
 3069SOL     OW10105   0.799   5.237   4.026
 3069SOL    HW110106   0.720   5.197   4.073
 3069SOL    HW210107   0.822   5.182   3.946
 3070SOL     OW10108   3.811   1.617   4.513
 3070SOL    HW110109   3.749   1.542   4.538
 3070SOL    HW210110   3.765   1.677   4.447
 3071SOL     OW10111   5.540   0.373   3.933
 3071SOL    HW110112   5.546   0.326   4.021
 3071SOL    HW210113   5.524   0.307   3.861
 3072SOL     OW10114   0.500   0.284   1.750
 3072SOL    HW110115   0.537   0.282   1.844
 3072SOL    HW210116   0.421   0.345   1.747
 3073SOL     OW10117   1.731   2.346   4.597
 3073SOL    HW110118   1.672   2.274   4.634
 3073SOL    HW210119   1.796   2.375   4.667
 3074SOL     OW10120   4.744   3.637   6.016
 3074SOL    HW110121   4.808   3.674   5.949
 3074SOL    HW210122   4.690   3.712   6.055
 3075SOL     OW10123   6.806   6.287   0.572
 3075SOL    HW110124   6.902   6.269   0.549
 3075SOL    HW210125   6.788   6.259   0.666
 3076SOL     OW10126   0.633   0.906   4.957
 3076SOL    HW110127   0.572   0.860   5.022
 3076SOL    HW210128   0.684   0.978   5.004
 3077SOL     OW10129   5.101   4.508   3.831
 3077SOL    HW110130   5.137   4.435   3.890
 3077SOL    HW210131   5.028   4.471   3.773
 3078SOL     OW10132   1.889   2.661   0.016
 3078SOL    HW110133   1.910   2.626   6.952
 3078SOL    HW210134   1.798   2.631   0.044
 3079SOL     OW10135   5.694   2.534   6.758
 3079SOL    HW110136   5.752   2.594   6.814
 3079SOL    HW210137   5.688   2.444   6.801
 3080SOL     OW10138   6.674   6.790   1.414
 3080SOL    HW110139   6.575   6.777   1.420
 3080SOL    HW210140   6.695   6.887   1.401
 3081SOL     OW10141   0.642   4.441   6.279
 3081SOL    HW110142   0.678   4.365   6.333
 3081SOL    HW210143   0.609   4.513   6.340
 3082SOL     OW10144   2.430   6.799   2.177
 3082SOL    HW110145   2.401   6.703   2.169
 3082SOL    HW210146   2.491   6.822   2.101
 3083SOL     OW10147   3.121   0.470   2.015
 3083SOL    HW110148   3.187   0.452   1.942
 3083SOL    HW210149   3.162   0.530   2.084
 3084SOL     OW10150   4.799   6.238   3.861
 3084SOL    HW110151   4.722   6.239   3.798
 3084SOL    HW210152   4.884   6.226   3.810
 3085SOL     OW10153   1.310   5.397   2.039
 3085SOL    HW110154   1.340   5.410   1.945
 3085SOL    HW210155   1.239   5.464   2.062
 3086SOL     OW10156   6.088   1.438   4.042
 3086SOL    HW110157   6.043   1.480   3.963
 3086SOL    HW210158   6.025   1.372   4.084
 3087SOL     OW10159   5.607   3.599   1.896
 3087SOL    HW110160   5.645   3.513   1.930
 3087SOL    HW210161   5.519   3.616   1.939
 3088SOL     OW10162   2.976   3.651   6.629
 3088SOL    HW110163   3.056   3.678   6.576
 3088SOL    HW210164   3.002   3.583   6.698
 3089SOL     OW10165   3.214   2.249   1.060
 3089SOL    HW110166   3.128   2.295   1.084
 3089SOL    HW210167   3.211   2.220   0.965
 3090SOL     OW10168   6.901   2.140   0.768
 3090SOL    HW110169   6.820   2.094   0.732
 3090SOL    HW210170   6.920   2.221   0.713
 3091SOL     OW10171   2.433   6.767   0.441
 3091SOL    HW110172   2.510   6.723   0.487
 3091SOL    HW210173   2.415   6.855   0.485
 3092SOL     OW10174   3.962   5.819   0.344
 3092SOL    HW110175   3.871   5.791   0.376
 3092SOL    HW210176   3.967   5.919   0.342
 3093SOL     OW10177   4.996   6.112   3.718
 3093SOL    HW110178   5.089   6.077   3.728
 3093SOL    HW210179   4.948   6.058   3.649
 3094SOL     OW10180   2.889   5.411   5.640
 3094SOL    HW110181   2.859   5.341   5.576
 3094SOL    HW210182   2.966   5.377   5.693
 3095SOL     OW10183   1.902   5.234   5.028
 3095SOL    HW110184   1.860   5.173   4.960
 3095SOL    HW210185   1.843   5.313   5.043
 3096SOL     OW10186   0.429   0.624   5.509
 3096SOL    HW110187   0.398   0.568   5.431
 3096SOL    HW210188   0.412   0.720   5.489
 3097SOL     OW10189   1.692   1.941   0.079
 3097SOL    HW110190   1.679   2.040   0.075
 3097SOL    HW210191   1.774   1.916   0.027
 3098SOL     OW10192   4.024   2.073   0.283
 3098SOL    HW110193   3.936   2.025   0.287
 3098SOL    HW210194   4.023   2.148   0.349
 3099SOL     OW10195   1.220   5.831   5.291
 3099SOL    HW110196   1.257   5.864   5.378
 3099SOL    HW210197   1.185   5.908   5.237
 3100SOL     OW10198   5.976   6.256   6.421
 3100SOL    HW110199   6.053   6.317   6.438
 3100SOL    HW210200   6.009   6.173   6.375
 3101SOL     OW10201   4.123   0.174   1.152
 3101SOL    HW110202   4.040   0.163   1.207
 3101SOL    HW210203   4.202   0.143   1.205
 3102SOL     OW10204   0.927   5.822   0.576
 3102SOL    HW110205   0.972   5.754   0.635
 3102SOL    HW210206   0.840   5.786   0.544
 3103SOL     OW10207   4.169   3.971   1.812
 3103SOL    HW110208   4.222   4.056   1.809
 3103SOL    HW210209   4.106   3.974   1.890
 3104SOL     OW10210   6.117   5.879   3.836
 3104SOL    HW110211   6.160   5.803   3.885
 3104SOL    HW210212   6.166   5.894   3.750
 3105SOL     OW10213   5.838   5.205   3.630
 3105SOL    HW110214   5.883   5.154   3.556
 3105SOL    HW210215   5.894   5.285   3.654
 3106SOL     OW10216   6.867   3.298   4.532
 3106SOL    HW110217   6.897   3.325   4.440
 3106SOL    HW210218   6.945   3.303   4.595
 3107SOL     OW10219   2.682   6.583   3.909
 3107SOL    HW110220   2.602   6.581   3.969
 3107SOL    HW210221   2.727   6.672   3.916
 3108SOL     OW10222   3.209   0.809   3.118
 3108SOL    HW110223   3.222   0.832   3.022
 3108SOL    HW210224   3.157   0.882   3.163
 3109SOL     OW10225   4.630   5.481   3.093
 3109SOL    HW110226   4.629   5.561   3.033
 3109SOL    HW210227   4.566   5.413   3.060
 3110SOL     OW10228   1.443   3.064   1.899
 3110SOL    HW110229   1.498   3.046   1.981
 3110SOL    HW210230   1.499   3.048   1.817
 3111SOL     OW10231   6.815   4.922   2.712
 3111SOL    HW110232   6.889   4.929   2.780
 3111SOL    HW210233   6.737   4.976   2.742
 3112SOL     OW10234   2.651   3.861   6.356
 3112SOL    HW110235   2.645   3.802   6.276
 3112SOL    HW210236   2.580   3.932   6.352
 3113SOL     OW10237   4.237   6.478   4.233
 3113SOL    HW110238   4.214   6.575   4.243
 3113SOL    HW210239   4.264   6.442   4.322
 3114SOL     OW10240   5.423   5.925   1.026
 3114SOL    HW110241   5.376   5.947   0.941
 3114SOL    HW210242   5.482   5.846   1.013
 3115SOL     OW10243   2.635   3.439   1.739
 3115SOL    HW110244   2.665   3.345   1.751
 3115SOL    HW210245   2.556   3.456   1.797
 3116SOL     OW10246   0.325   1.540   6.985
 3116SOL    HW110247   0.312   1.634   6.953
 3116SOL    HW210248   0.259   1.480   6.940
 3117SOL     OW10249   3.656   3.726   5.537
 3117SOL    HW110250   3.639   3.757   5.444
 3117SOL    HW210251   3.605   3.783   5.601
 3118SOL     OW10252   5.887   5.666   6.576
 3118SOL    HW110253   5.838   5.625   6.499
 3118SOL    HW210254   5.856   5.760   6.589
 3119SOL     OW10255   2.153   4.693   6.535
 3119SOL    HW110256   2.231   4.631   6.527
 3119SOL    HW210257   2.185   4.788   6.524
 3120SOL     OW10258   2.387   5.497   6.420
 3120SOL    HW110259   2.400   5.430   6.347
 3120SOL    HW210260   2.305   5.552   6.402
 3121SOL     OW10261   0.585   6.208   3.034
 3121SOL    HW110262   0.613   6.279   3.100
 3121SOL    HW210263   0.566   6.123   3.083
 3122SOL     OW10264   2.876   5.880   0.826
 3122SOL    HW110265   2.928   5.881   0.741
 3122SOL    HW210266   2.862   5.974   0.857
 3123SOL     OW10267   3.755   6.496   4.270
 3123SOL    HW110268   3.816   6.576   4.266
 3123SOL    HW210269   3.808   6.416   4.299
 3124SOL     OW10270   3.862   0.522   5.995
 3124SOL    HW110271   3.951   0.523   6.040
 3124SOL    HW210272   3.857   0.444   5.932
 3125SOL     OW10273   6.895   1.856   5.907
 3125SOL    HW110274   6.907   1.926   5.838
 3125SOL    HW210275   6.978   1.847   5.961
 3126SOL     OW10276   3.636   6.340   0.001
 3126SOL    HW110277   3.550   6.392   7.023
 3126SOL    HW210278   3.636   6.284   0.084
 3127SOL     OW10279   1.500   1.037   3.818
 3127SOL    HW110280   1.591   1.066   3.847
 3127SOL    HW210281   1.495   1.035   3.718
 3128SOL     OW10282   1.843   1.067   1.048
 3128SOL    HW110283   1.762   1.008   1.049
 3128SOL    HW210284   1.840   1.127   0.969
 3129SOL     OW10285   1.774   2.974   3.427
 3129SOL    HW110286   1.713   3.025   3.488
 3129SOL    HW210287   1.820   3.038   3.365
 3130SOL     OW10288   1.963   5.628   3.552
 3130SOL    HW110289   1.890   5.612   3.486
 3130SOL    HW210290   1.966   5.725   3.575
 3131SOL     OW10291   0.533   3.187   4.565
 3131SOL    HW110292   0.511   3.114   4.501
 3131SOL    HW210293   0.536   3.274   4.515
 3132SOL     OW10294   5.416   5.016   5.163
 3132SOL    HW110295   5.483   4.947   5.138
 3132SOL    HW210296   5.372   4.991   5.249
 3133SOL     OW10297   2.530   2.104   3.237
 3133SOL    HW110298   2.586   2.022   3.230
 3133SOL    HW210299   2.445   2.083   3.287
 3134SOL     OW10300   5.653   2.849   1.814
 3134SOL    HW110301   5.579   2.910   1.787
 3134SOL    HW210302   5.664   2.777   1.745
 3135SOL     OW10303   2.559   1.819   3.520
 3135SOL    HW110304   2.656   1.797   3.518
 3135SOL    HW210305   2.536   1.860   3.609
 3136SOL     OW10306   6.776   6.983   4.742
 3136SOL    HW110307   6.763   0.053   4.764
 3136SOL    HW210308   6.705   6.929   4.786
 3137SOL     OW10309   0.136   1.472   4.960
 3137SOL    HW110310   0.152   1.523   5.044
 3137SOL    HW210311   0.040   1.482   4.933
 3138SOL     OW10312   5.486   1.622   4.772
 3138SOL    HW110313   5.576   1.576   4.776
 3138SOL    HW210314   5.426   1.571   4.711
 3139SOL     OW10315   4.967   5.806   4.851
 3139SOL    HW110316   4.889   5.793   4.912
 3139SOL    HW210317   4.938   5.856   4.770
 3140SOL     OW10318   5.690   5.879   6.449
 3140SOL    HW110319   5.760   5.922   6.506
 3140SOL    HW210320   5.722   5.875   6.355
 3141SOL     OW10321   0.894   5.588   1.042
 3141SOL    HW110322   0.836   5.569   1.122
 3141SOL    HW210323   0.981   5.538   1.052
 3142SOL     OW10324   3.612   6.930   0.167
 3142SOL    HW110325   3.544   6.899   0.101
 3142SOL    HW210326   3.692   6.966   0.118
 3143SOL     OW10327   0.290   1.369   1.048
 3143SOL    HW110328   0.355   1.294   1.037
 3143SOL    HW210329   0.324   1.433   1.117
 3144SOL     OW10330   1.802   3.056   6.759
 3144SOL    HW110331   1.763   2.976   6.805
 3144SOL    HW210332   1.780   3.138   6.812
 3145SOL     OW10333   2.941   5.389   3.915
 3145SOL    HW110334   2.894   5.471   3.883
 3145SOL    HW210335   2.966   5.332   3.837
 3146SOL     OW10336   2.602   6.920   3.810
 3146SOL    HW110337   2.574   7.015   3.798
 3146SOL    HW210338   2.582   6.869   3.727
 3147SOL     OW10339   4.029   4.389   0.745
 3147SOL    HW110340   4.120   4.366   0.779
 3147SOL    HW210341   3.994   4.469   0.795
 3148SOL     OW10342   3.686   5.451   5.337
 3148SOL    HW110343   3.709   5.543   5.307
 3148SOL    HW210344   3.697   5.388   5.260
 3149SOL     OW10345   2.921   6.399   6.121
 3149SOL    HW110346   2.831   6.415   6.160
 3149SOL    HW210347   2.933   6.455   6.039
 3150SOL     OW10348   0.129   0.182   4.266
 3150SOL    HW110349   0.122   0.161   4.363
 3150SOL    HW210350   0.222   0.212   4.244
 3151SOL     OW10351   4.130   6.836   1.095
 3151SOL    HW110352   4.040   6.851   1.053
 3151SOL    HW210353   4.201   6.854   1.027
 3152SOL     OW10354   1.391   4.792   6.317
 3152SOL    HW110355   1.491   4.785   6.316
 3152SOL    HW210356   1.353   4.734   6.245
 3153SOL     OW10357   7.004   4.641   3.026
 3153SOL    HW110358   6.964   4.728   2.996
 3153SOL    HW210359   6.933   4.571   3.029
 3154SOL     OW10360   5.639   2.179   6.639
 3154SOL    HW110361   5.728   2.182   6.684
 3154SOL    HW210362   5.648   2.131   6.551
 3155SOL     OW10363   4.254   6.117   0.275
 3155SOL    HW110364   4.321   6.133   0.203
 3155SOL    HW210365   4.187   6.050   0.244
 3156SOL     OW10366   3.362   3.154   3.009
 3156SOL    HW110367   3.280   3.103   3.038
 3156SOL    HW210368   3.335   3.244   2.975
 3157SOL     OW10369   1.997   3.006   5.011
 3157SOL    HW110370   2.048   2.994   4.926
 3157SOL    HW210371   2.060   2.999   5.089
 3158SOL     OW10372   4.571   6.395   1.519
 3158SOL    HW110373   4.485   6.388   1.469
 3158SOL    HW210374   4.647   6.404   1.454
 3159SOL     OW10375   5.349   4.843   0.551
 3159SOL    HW110376   5.272   4.826   0.613
 3159SOL    HW210377   5.416   4.769   0.560
 3160SOL     OW10378   5.824   4.883   0.512
 3160SOL    HW110379   5.750   4.821   0.485
 3160SOL    HW210380   5.908   4.856   0.464
 3161SOL     OW10381   1.057   1.264   3.210
 3161SOL    HW110382   1.114   1.334   3.168
 3161SOL    HW210383   1.100   1.233   3.295
 3162SOL     OW10384   0.026   6.936   6.160
 3162SOL    HW110385   0.111   6.981   6.133
 3162SOL    HW210386   6.977   6.975   6.107
 3163SOL     OW10387   2.205   4.555   5.736
 3163SOL    HW110388   2.292   4.518   5.702
 3163SOL    HW210389   2.211   4.654   5.741
 3164SOL     OW10390   6.221   5.410   6.031
 3164SOL    HW110391   6.235   5.465   5.949
 3164SOL    HW210392   6.127   5.377   6.035
 3165SOL     OW10393   0.389   2.533   1.755
 3165SOL    HW110394   0.395   2.446   1.805
 3165SOL    HW210395   0.375   2.515   1.658
 3166SOL     OW10396   4.614   2.827   6.332
 3166SOL    HW110397   4.621   2.728   6.324
 3166SOL    HW210398   4.597   2.867   6.241
 3167SOL     OW10399   0.410   4.356   1.910
 3167SOL    HW110400   0.314   4.385   1.918
 3167SOL    HW210401   0.437   4.357   1.814
 3168SOL     OW10402   6.030   2.894   1.061
 3168SOL    HW110403   6.024   2.983   1.107
 3168SOL    HW210404   6.117   2.888   1.012
 3169SOL     OW10405   2.366   2.296   5.184
 3169SOL    HW110406   2.425   2.370   5.217
 3169SOL    HW210407   2.314   2.258   5.260
 3170SOL     OW10408   4.029   0.322   5.280
 3170SOL    HW110409   3.953   0.353   5.222
 3170SOL    HW210410   4.018   0.359   5.372
 3171SOL     OW10411   6.259   6.549   3.128
 3171SOL    HW110412   6.196   6.595   3.191
 3171SOL    HW210413   6.352   6.579   3.146
 3172SOL     OW10414   5.978   0.266   5.508
 3172SOL    HW110415   5.926   0.214   5.575
 3172SOL    HW210416   5.963   0.228   5.417
 3173SOL     OW10417   2.388   1.168   1.567
 3173SOL    HW110418   2.363   1.091   1.626
 3173SOL    HW210419   2.450   1.229   1.616
 3174SOL     OW10420   2.186   2.946   6.828
 3174SOL    HW110421   2.151   3.005   6.901
 3174SOL    HW210422   2.246   2.999   6.768
 3175SOL     OW10423   0.000   6.205   0.156
 3175SOL    HW110424   0.004   6.237   0.062
 3175SOL    HW210425   6.977   6.118   0.160
 3176SOL     OW10426   1.201   5.740   6.828
 3176SOL    HW110427   1.184   5.675   6.755
 3176SOL    HW210428   1.263   5.700   6.895
 3177SOL     OW10429   1.107   0.041   4.466
 3177SOL    HW110430   1.027   7.008   4.475
 3177SOL    HW210431   1.127   0.083   4.554
 3178SOL     OW10432   2.880   3.193   6.912
 3178SOL    HW110433   2.883   3.208   7.011
 3178SOL    HW210434   2.836   3.271   6.868
 3179SOL     OW10435   1.107   2.590   4.112
 3179SOL    HW110436   1.057   2.650   4.175
 3179SOL    HW210437   1.091   2.495   4.137
 3180SOL     OW10438   5.951   1.084   6.243
 3180SOL    HW110439   5.990   1.147   6.310
 3180SOL    HW210440   5.928   0.997   6.288
 3181SOL     OW10441   0.731   1.800   2.562
 3181SOL    HW110442   0.635   1.775   2.577
 3181SOL    HW210443   0.757   1.777   2.468
 3182SOL     OW10444   1.521   4.521   5.610
 3182SOL    HW110445   1.604   4.498   5.559
 3182SOL    HW210446   1.510   4.620   5.614
 3183SOL     OW10447   4.602   2.910   1.234
 3183SOL    HW110448   4.625   2.813   1.225
 3183SOL    HW210449   4.685   2.964   1.217
 3184SOL     OW10450   0.881   2.122   3.398
 3184SOL    HW110451   0.868   2.138   3.496
 3184SOL    HW210452   0.978   2.105   3.380
 3185SOL     OW10453   0.562   6.521   7.013
 3185SOL    HW110454   0.614   6.519   6.928
 3185SOL    HW210455   0.605   6.586   0.050
 3186SOL     OW10456   3.323   0.818   1.597
 3186SOL    HW110457   3.408   0.868   1.580
 3186SOL    HW210458   3.246   0.881   1.593
 3187SOL     OW10459   2.610   4.394   0.116
 3187SOL    HW110460   2.585   4.319   0.176
 3187SOL    HW210461   2.706   4.420   0.132
 3188SOL     OW10462   4.168   0.109   3.041
 3188SOL    HW110463   4.204   0.201   3.058
 3188SOL    HW210464   4.227   0.041   3.085
 3189SOL     OW10465   6.435   6.528   2.689
 3189SOL    HW110466   6.378   6.448   2.669
 3189SOL    HW210467   6.425   6.595   2.616
 3190SOL     OW10468   0.746   6.987   1.559
 3190SOL    HW110469   0.650   6.973   1.535
 3190SOL    HW210470   0.763   0.058   1.574
 3191SOL     OW10471   3.734   1.048   0.130
 3191SOL    HW110472   3.668   1.004   0.192
 3191SOL    HW210473   3.733   1.001   0.042
 3192SOL     OW10474   5.536   2.212   3.498
 3192SOL    HW110475   5.445   2.174   3.485
 3192SOL    HW210476   5.539   2.264   3.583
 3193SOL     OW10477   4.981   4.738   1.183
 3193SOL    HW110478   4.952   4.823   1.228
 3193SOL    HW210479   4.974   4.662   1.248
 3194SOL     OW10480   2.276   5.400   5.153
 3194SOL    HW110481   2.287   5.497   5.173
 3194SOL    HW210482   2.314   5.345   5.227
 3195SOL     OW10483   0.289   4.446   3.578
 3195SOL    HW110484   0.306   4.441   3.479
 3195SOL    HW210485   0.263   4.356   3.612
 3196SOL     OW10486   0.195   6.495   6.072
 3196SOL    HW110487   0.157   6.552   6.144
 3196SOL    HW210488   0.275   6.541   6.032
 3197SOL     OW10489   0.381   4.676   4.974
 3197SOL    HW110490   0.379   4.597   5.035
 3197SOL    HW210491   0.287   4.703   4.952
 3198SOL     OW10492   5.661   6.601   0.290
 3198SOL    HW110493   5.717   6.521   0.312
 3198SOL    HW210494   5.564   6.575   0.291
 3199SOL     OW10495   3.611   1.766   3.227
 3199SOL    HW110496   3.656   1.808   3.148
 3199SOL    HW210497   3.529   1.717   3.197
 3200SOL     OW10498   6.724   2.038   0.605
 3200SOL    HW110499   6.661   2.054   0.529
 3200SOL    HW210500   6.685   1.970   0.668
 3201SOL     OW10501   4.608   4.770   3.158
 3201SOL    HW110502   4.681   4.805   3.216
 3201SOL    HW210503   4.525   4.758   3.213
 3202SOL     OW10504   1.271   5.623   1.707
 3202SOL    HW110505   1.250   5.715   1.739
 3202SOL    HW210506   1.239   5.612   1.613
 3203SOL     OW10507   4.732   7.009   0.979
 3203SOL    HW110508   4.742   7.010   0.879
 3203SOL    HW210509   4.661   0.046   1.006
 3204SOL     OW10510   6.296   6.438   1.907
 3204SOL    HW110511   6.346   6.511   1.953
 3204SOL    HW210512   6.334   6.350   1.934
 3205SOL     OW10513   0.783   3.510   4.220
 3205SOL    HW110514   0.846   3.469   4.154
 3205SOL    HW210515   0.698   3.536   4.174
 3206SOL     OW10516   1.685   6.887   0.331
 3206SOL    HW110517   1.655   6.978   0.360
 3206SOL    HW210518   1.616   6.819   0.358
 3207SOL     OW10519   1.240   1.653   2.857
 3207SOL    HW110520   1.271   1.728   2.915
 3207SOL    HW210521   1.146   1.669   2.829
 3208SOL     OW10522   6.383   0.404   4.702
 3208SOL    HW110523   6.464   0.429   4.754
 3208SOL    HW210524   6.399   0.316   4.656
 3209SOL     OW10525   1.631   0.255   3.332
 3209SOL    HW110526   1.535   0.278   3.312
 3209SOL    HW210527   1.640   0.235   3.430
 3210SOL     OW10528   0.469   5.250   2.221
 3210SOL    HW110529   0.379   5.206   2.228
 3210SOL    HW210530   0.459   5.341   2.181
 3211SOL     OW10531   0.556   4.561   3.270
 3211SOL    HW110532   0.639   4.595   3.314
 3211SOL    HW210533   0.581   4.509   3.188
 3212SOL     OW10534   4.912   2.751   5.348
 3212SOL    HW110535   4.923   2.850   5.341
 3212SOL    HW210536   4.834   2.730   5.409
 3213SOL     OW10537   5.544   6.668   1.619
 3213SOL    HW110538   5.629   6.692   1.572
 3213SOL    HW210539   5.523   6.738   1.687
 3214SOL     OW10540   4.216   4.372   6.891
 3214SOL    HW110541   4.147   4.348   6.958
 3214SOL    HW210542   4.172   4.408   6.808
 3215SOL     OW10543   6.152   1.274   0.584
 3215SOL    HW110544   6.188   1.200   0.527
 3215SOL    HW210545   6.143   1.242   0.678
 3216SOL     OW10546   5.404   6.389   4.880
 3216SOL    HW110547   5.367   6.368   4.789
 3216SOL    HW210548   5.370   6.323   4.946
 3217SOL     OW10549   6.516   4.238   0.202
 3217SOL    HW110550   6.540   4.271   0.111
 3217SOL    HW210551   6.577   4.163   0.228
 3218SOL     OW10552   3.840   1.824   1.996
 3218SOL    HW110553   3.768   1.763   1.963
 3218SOL    HW210554   3.807   1.918   1.993
 3219SOL     OW10555   0.151   0.365   3.496
 3219SOL    HW110556   0.195   0.384   3.409
 3219SOL    HW210557   0.169   0.270   3.523
 3220SOL     OW10558   6.447   3.427   6.272
 3220SOL    HW110559   6.352   3.413   6.301
 3220SOL    HW210560   6.507   3.371   6.328
 3221SOL     OW10561   3.717   1.002   1.797
 3221SOL    HW110562   3.675   1.026   1.885
 3221SOL    HW210563   3.650   0.958   1.738
 3222SOL     OW10564   6.399   4.203   1.610
 3222SOL    HW110565   6.347   4.121   1.588
 3222SOL    HW210566   6.417   4.206   1.708
 3223SOL     OW10567   2.445   4.406   4.026
 3223SOL    HW110568   2.443   4.382   3.929
 3223SOL    HW210569   2.352   4.422   4.059
 3224SOL     OW10570   3.214   6.179   1.216
 3224SOL    HW110571   3.217   6.277   1.199
 3224SOL    HW210572   3.271   6.157   1.296
 3225SOL     OW10573   2.246   2.893   0.767
 3225SOL    HW110574   2.203   2.869   0.680
 3225SOL    HW210575   2.317   2.826   0.788
 3226SOL     OW10576   6.535   0.728   3.678
 3226SOL    HW110577   6.538   0.827   3.694
 3226SOL    HW210578   6.443   0.702   3.651
 3227SOL     OW10579   1.883   2.140   5.555
 3227SOL    HW110580   1.955   2.150   5.487
 3227SOL    HW210581   1.850   2.231   5.583
 3228SOL     OW10582   5.034   3.522   5.079
 3228SOL    HW110583   4.945   3.563   5.098
 3228SOL    HW210584   5.079   3.573   5.006
 3229SOL     OW10585   4.582   1.647   5.276
 3229SOL    HW110586   4.606   1.694   5.191
 3229SOL    HW210587   4.499   1.593   5.262
 3230SOL     OW10588   1.288   0.060   3.773
 3230SOL    HW110589   1.295   0.160   3.769
 3230SOL    HW210590   1.372   0.020   3.736
 3231SOL     OW10591   4.647   4.595   0.687
 3231SOL    HW110592   4.720   4.528   0.682
 3231SOL    HW210593   4.568   4.556   0.734
 3232SOL     OW10594   1.257   3.844   2.983
 3232SOL    HW110595   1.211   3.875   2.900
 3232SOL    HW210596   1.320   3.915   3.014
 3233SOL     OW10597   1.898   4.210   1.150
 3233SOL    HW110598   1.989   4.211   1.191
 3233SOL    HW210599   1.906   4.230   1.052
 3234SOL     OW10600   6.814   1.985   4.804
 3234SOL    HW110601   6.909   2.012   4.784
 3234SOL    HW210602   6.759   2.067   4.821
 3235SOL     OW10603   5.868   0.728   2.412
 3235SOL    HW110604   5.912   0.811   2.446
 3235SOL    HW210605   5.780   0.715   2.458
 3236SOL     OW10606   0.360   2.373   1.514
 3236SOL    HW110607   0.285   2.395   1.451
 3236SOL    HW210608   0.333   2.294   1.570
 3237SOL     OW10609   3.025   6.236   5.102
 3237SOL    HW110610   3.039   6.164   5.033
 3237SOL    HW210611   3.046   6.199   5.193
 3238SOL     OW10612   6.753   6.370   6.624
 3238SOL    HW110613   6.682   6.309   6.660
 3238SOL    HW210614   6.842   6.325   6.634
 3239SOL     OW10615   1.240   6.106   5.204
 3239SOL    HW110616   1.301   6.147   5.136
 3239SOL    HW210617   1.272   6.129   5.296
 3240SOL     OW10618   0.539   2.228   4.580
 3240SOL    HW110619   0.569   2.137   4.610
 3240SOL    HW210620   0.518   2.284   4.660
 3241SOL     OW10621   4.197   6.757   5.077
 3241SOL    HW110622   4.121   6.723   5.134
 3241SOL    HW210623   4.184   6.726   4.983
 3242SOL     OW10624   3.351   0.427   0.519
 3242SOL    HW110625   3.281   0.382   0.575
 3242SOL    HW210626   3.313   0.447   0.429
 3243SOL     OW10627   3.836   5.206   1.601
 3243SOL    HW110628   3.862   5.251   1.686
 3243SOL    HW210629   3.802   5.114   1.621
 3244SOL     OW10630   0.977   6.808   5.880
 3244SOL    HW110631   0.967   6.857   5.793
 3244SOL    HW210632   0.895   6.821   5.935
 3245SOL     OW10633   3.297   2.090   5.786
 3245SOL    HW110634   3.346   2.177   5.778
 3245SOL    HW210635   3.244   2.074   5.703
 3246SOL     OW10636   5.126   6.263   3.040
 3246SOL    HW110637   5.183   6.302   2.968
 3246SOL    HW210638   5.127   6.163   3.032
 3247SOL     OW10639   6.327   3.307   5.571
 3247SOL    HW110640   6.282   3.304   5.660
 3247SOL    HW210641   6.405   3.369   5.574
 3248SOL     OW10642   4.882   4.191   2.910
 3248SOL    HW110643   4.787   4.217   2.896
 3248SOL    HW210644   4.888   4.122   2.982
 3249SOL     OW10645   3.447   4.820   5.575
 3249SOL    HW110646   3.497   4.771   5.503
 3249SOL    HW210647   3.411   4.754   5.641
 3250SOL     OW10648   4.549   4.934   1.209
 3250SOL    HW110649   4.623   4.879   1.247
 3250SOL    HW210650   4.465   4.879   1.207
 3251SOL     OW10651   3.383   0.668   3.689
 3251SOL    HW110652   3.473   0.659   3.732
 3251SOL    HW210653   3.394   0.687   3.592
 3252SOL     OW10654   3.975   2.171   3.367
 3252SOL    HW110655   3.991   2.158   3.465
 3252SOL    HW210656   3.881   2.144   3.345
 3253SOL     OW10657   5.030   4.371   1.219
 3253SOL    HW110658   5.020   4.439   1.292
 3253SOL    HW210659   4.943   4.357   1.173
 3254SOL     OW10660   6.658   4.409   2.584
 3254SOL    HW110661   6.686   4.331   2.640
 3254SOL    HW210662   6.677   4.494   2.633
 3255SOL     OW10663   3.728   5.221   0.568
 3255SOL    HW110664   3.765   5.310   0.594
 3255SOL    HW210665   3.685   5.178   0.648
 3256SOL     OW10666   6.443   6.886   5.372
 3256SOL    HW110667   6.409   6.927   5.287
 3256SOL    HW210668   6.531   6.842   5.355
 3257SOL     OW10669   2.660   1.033   0.992
 3257SOL    HW110670   2.670   0.992   0.902
 3257SOL    HW210671   2.587   0.987   1.042
 3258SOL     OW10672   5.330   6.617   1.451
 3258SOL    HW110673   5.272   6.542   1.482
 3258SOL    HW210674   5.401   6.634   1.519
 3259SOL     OW10675   5.297   5.623   3.359
 3259SOL    HW110676   5.219   5.679   3.385
 3259SOL    HW210677   5.266   5.546   3.303
 3260SOL     OW10678   2.327   1.551   1.416
 3260SOL    HW110679   2.342   1.616   1.341
 3260SOL    HW210680   2.238   1.507   1.403
 3261SOL     OW10681   4.826   6.588   4.171
 3261SOL    HW110682   4.917   6.548   4.178
 3261SOL    HW210683   4.760   6.518   4.145
 3262SOL     OW10684   4.195   1.777   3.917
 3262SOL    HW110685   4.210   1.697   3.860
 3262SOL    HW210686   4.274   1.839   3.910
 3263SOL     OW10687   3.131   4.838   3.275
 3263SOL    HW110688   3.036   4.829   3.246
 3263SOL    HW210689   3.136   4.830   3.375
 3264SOL     OW10690   5.549   5.202   6.254
 3264SOL    HW110691   5.528   5.179   6.159
 3264SOL    HW210692   5.553   5.119   6.308
 3265SOL     OW10693   5.552   0.103   5.720
 3265SOL    HW110694   5.499   0.019   5.712
 3265SOL    HW210695   5.499   0.170   5.772
 3266SOL     OW10696   1.247   2.830   6.809
 3266SOL    HW110697   1.272   2.814   6.905
 3266SOL    HW210698   1.261   2.747   6.756
 3267SOL     OW10699   5.354   3.668   1.972
 3267SOL    HW110700   5.301   3.717   1.902
 3267SOL    HW210701   5.332   3.705   2.062
 3268SOL     OW10702   1.932   5.618   6.682
 3268SOL    HW110703   1.980   5.595   6.597
 3268SOL    HW210704   1.842   5.657   6.661
 3269SOL     OW10705   4.308   3.659   0.793
 3269SOL    HW110706   4.301   3.744   0.847
 3269SOL    HW210707   4.270   3.583   0.846
 3270SOL     OW10708   6.953   5.235   3.836
 3270SOL    HW110709   7.027   5.283   3.788
 3270SOL    HW210710   6.887   5.201   3.770
 3271SOL     OW10711   4.802   6.827   1.330
 3271SOL    HW110712   4.815   6.730   1.351
 3271SOL    HW210713   4.711   6.857   1.359
 3272SOL     OW10714   4.696   5.815   6.607
 3272SOL    HW110715   4.706   5.903   6.559
 3272SOL    HW210716   4.779   5.796   6.659
 3273SOL     OW10717   0.768   0.436   2.992
 3273SOL    HW110718   0.860   0.414   2.959
 3273SOL    HW210719   0.709   0.454   2.913
 3274SOL     OW10720   2.738   1.272   0.317
 3274SOL    HW110721   2.755   1.178   0.285
 3274SOL    HW210722   2.647   1.301   0.289
 3275SOL     OW10723   4.515   0.773   7.002
 3275SOL    HW110724   4.437   0.828   6.972
 3275SOL    HW210725   4.587   0.834   0.008
 3276SOL     OW10726   1.419   6.273   0.095
 3276SOL    HW110727   1.455   6.287   0.003
 3276SOL    HW210728   1.319   6.283   0.093
 3277SOL     OW10729   0.518   6.102   6.895
 3277SOL    HW110730   0.431   6.148   6.880
 3277SOL    HW210731   0.559   6.077   6.806
 3278SOL     OW10732   1.267   0.431   0.092
 3278SOL    HW110733   1.278   0.379   0.008
 3278SOL    HW210734   1.321   0.515   0.087
 3279SOL     OW10735   2.105   7.021   1.385
 3279SOL    HW110736   2.130   6.926   1.366
 3279SOL    HW210737   2.009   0.009   1.361
 3280SOL     OW10738   2.898   6.157   3.692
 3280SOL    HW110739   2.821   6.147   3.628
 3280SOL    HW210740   2.897   6.080   3.756
 3281SOL     OW10741   1.468   6.279   0.545
 3281SOL    HW110742   1.401   6.350   0.567
 3281SOL    HW210743   1.511   6.300   0.457
 3282SOL     OW10744   2.349   5.095   2.929
 3282SOL    HW110745   2.448   5.088   2.922
 3282SOL    HW210746   2.307   5.012   2.891
 3283SOL     OW10747   2.017   0.443   3.219
 3283SOL    HW110748   2.036   0.419   3.315
 3283SOL    HW210749   1.944   0.384   3.184
 3284SOL     OW10750   1.812   5.261   5.561
 3284SOL    HW110751   1.775   5.189   5.503
 3284SOL    HW210752   1.737   5.303   5.613
 3285SOL     OW10753   0.365   2.748   4.180
 3285SOL    HW110754   0.369   2.847   4.171
 3285SOL    HW210755   0.270   2.720   4.198
 3286SOL     OW10756   4.868   4.535   6.195
 3286SOL    HW110757   4.911   4.624   6.176
 3286SOL    HW210758   4.795   4.520   6.129
 3287SOL     OW10759   0.064   2.923   1.751
 3287SOL    HW110760   0.119   2.966   1.680
 3287SOL    HW210761   7.003   2.894   1.713
 3288SOL     OW10762   0.792   0.043   0.333
 3288SOL    HW110763   0.794   6.976   0.369
 3288SOL    HW210764   0.710   0.090   0.367
 3289SOL     OW10765   1.540   6.866   3.887
 3289SOL    HW110766   1.502   6.824   3.804
 3289SOL    HW210767   1.608   6.935   3.860
 3290SOL     OW10768   0.283   5.171   3.885
 3290SOL    HW110769   0.271   5.248   3.822
 3290SOL    HW210770   0.201   5.114   3.884
 3291SOL     OW10771   1.489   1.459   1.729
 3291SOL    HW110772   1.581   1.498   1.719
 3291SOL    HW210773   1.491   1.363   1.701
 3292SOL     OW10774   0.601   6.051   4.551
 3292SOL    HW110775   0.654   6.109   4.490
 3292SOL    HW210776   0.645   6.047   4.641
 3293SOL     OW10777   5.655   0.348   3.121
 3293SOL    HW110778   5.648   0.383   3.215
 3293SOL    HW210779   5.741   0.377   3.081
 3294SOL     OW10780   6.726   0.017   0.717
 3294SOL    HW110781   6.648   7.011   0.769
 3294SOL    HW210782   6.800   0.042   0.779
 3295SOL     OW10783   2.254   2.934   5.909
 3295SOL    HW110784   2.317   2.993   5.858
 3295SOL    HW210785   2.161   2.949   5.875
 3296SOL     OW10786   1.389   6.618   2.275
 3296SOL    HW110787   1.436   6.606   2.362
 3296SOL    HW210788   1.318   6.688   2.285
 3297SOL     OW10789   3.380   1.069   5.321
 3297SOL    HW110790   3.419   1.137   5.384
 3297SOL    HW210791   3.412   1.088   5.228
 3298SOL     OW10792   0.657   4.430   2.988
 3298SOL    HW110793   0.722   4.392   2.922
 3298SOL    HW210794   0.571   4.379   2.983
 3299SOL     OW10795   1.127   1.204   4.181
 3299SOL    HW110796   1.199   1.270   4.157
 3299SOL    HW210797   1.167   1.113   4.188
 3300SOL     OW10798   0.466   6.853   4.691
 3300SOL    HW110799   0.461   6.889   4.598
 3300SOL    HW210800   0.494   6.925   4.754
 3301SOL     OW10801   6.490   4.062   2.905
 3301SOL    HW110802   6.520   4.087   2.997
 3301SOL    HW210803   6.484   3.962   2.897
 3302SOL     OW10804   0.824   5.967   5.316
 3302SOL    HW110805   0.875   6.030   5.257
 3302SOL    HW210806   0.753   5.921   5.263
 3303SOL     OW10807   3.147   3.755   4.478
 3303SOL    HW110808   3.229   3.812   4.483
 3303SOL    HW210809   3.100   3.755   4.566
 3304SOL     OW10810   1.510   1.117   3.573
 3304SOL    HW110811   1.466   1.075   3.494
 3304SOL    HW210812   1.504   1.217   3.566
 3305SOL     OW10813   1.133   2.667   0.558
 3305SOL    HW110814   1.143   2.580   0.511
 3305SOL    HW210815   1.210   2.727   0.534
 3306SOL     OW10816   1.608   2.558   1.760
 3306SOL    HW110817   1.637   2.593   1.849
 3306SOL    HW210818   1.549   2.478   1.774
 3307SOL     OW10819   0.984   0.214   6.777
 3307SOL    HW110820   1.036   0.152   6.718
 3307SOL    HW210821   0.967   0.171   6.865
 3308SOL     OW10822   4.659   6.135   1.120
 3308SOL    HW110823   4.613   6.222   1.106
 3308SOL    HW210824   4.605   6.077   1.182
 3309SOL     OW10825   1.354   4.610   1.791
 3309SOL    HW110826   1.426   4.621   1.721
 3309SOL    HW210827   1.341   4.697   1.838
 3310SOL     OW10828   2.082   6.566   2.224
 3310SOL    HW110829   2.058   6.661   2.245
 3310SOL    HW210830   2.005   6.522   2.178
 3311SOL     OW10831   4.083   5.630   0.705
 3311SOL    HW110832   4.121   5.556   0.760
 3311SOL    HW210833   4.072   5.599   0.610
 3312SOL     OW10834   1.146   2.549   5.791
 3312SOL    HW110835   1.185   2.502   5.870
 3312SOL    HW210836   1.156   2.648   5.803
 3313SOL     OW10837   5.522   6.614   4.805
 3313SOL    HW110838   5.446   6.641   4.746
 3313SOL    HW210839   5.494   6.536   4.862
 3314SOL     OW10840   0.500   4.181   6.853
 3314SOL    HW110841   0.593   4.190   6.818
 3314SOL    HW210842   0.448   4.263   6.830
 3315SOL     OW10843   5.891   2.994   3.101
 3315SOL    HW110844   5.802   2.951   3.112
 3315SOL    HW210845   5.879   3.086   3.063
 3316SOL     OW10846   4.060   0.676   6.689
 3316SOL    HW110847   4.137   0.690   6.627
 3316SOL    HW210848   3.977   0.660   6.637
 3317SOL     OW10849   4.574   2.646   1.533
 3317SOL    HW110850   4.666   2.624   1.501
 3317SOL    HW210851   4.506   2.601   1.474
 3318SOL     OW10852   2.762   5.201   6.124
 3318SOL    HW110853   2.801   5.293   6.131
 3318SOL    HW210854   2.835   5.133   6.138
 3319SOL     OW10855   0.523   6.174   6.419
 3319SOL    HW110856   0.568   6.114   6.353
 3319SOL    HW210857   0.495   6.258   6.373
 3320SOL     OW10858   0.685   0.503   1.009
 3320SOL    HW110859   0.636   0.499   0.922
 3320SOL    HW210860   0.747   0.424   1.015
 3321SOL     OW10861   3.766   3.626   4.321
 3321SOL    HW110862   3.780   3.697   4.390
 3321SOL    HW210863   3.817   3.544   4.347
 3322SOL     OW10864   4.568   2.533   2.565
 3322SOL    HW110865   4.590   2.540   2.662
 3322SOL    HW210866   4.507   2.455   2.550
 3323SOL     OW10867   1.790   4.655   0.704
 3323SOL    HW110868   1.834   4.744   0.717
 3323SOL    HW210869   1.855   4.590   0.665
 3324SOL     OW10870   6.397   3.344   1.194
 3324SOL    HW110871   6.306   3.366   1.228
 3324SOL    HW210872   6.438   3.272   1.250
 3325SOL     OW10873   1.151   4.543   5.278
 3325SOL    HW110874   1.155   4.446   5.253
 3325SOL    HW210875   1.143   4.599   5.196
 3326SOL     OW10876   5.473   0.217   2.244
 3326SOL    HW110877   5.391   0.275   2.240
 3326SOL    HW210878   5.452   0.133   2.294
 3327SOL     OW10879   4.598   5.996   1.714
 3327SOL    HW110880   4.650   6.082   1.720
 3327SOL    HW210881   4.629   5.945   1.634
 3328SOL     OW10882   6.424   6.442   4.244
 3328SOL    HW110883   6.472   6.529   4.258
 3328SOL    HW210884   6.392   6.407   4.332
 3329SOL     OW10885   5.343   0.680   5.996
 3329SOL    HW110886   5.252   0.694   6.034
 3329SOL    HW210887   5.350   0.730   5.909
 3330SOL     OW10888   6.181   0.092   3.237
 3330SOL    HW110889   6.278   0.066   3.243
 3330SOL    HW210890   6.133   0.028   3.177
 3331SOL     OW10891   1.248   3.839   2.085
 3331SOL    HW110892   1.272   3.926   2.126
 3331SOL    HW210893   1.170   3.799   2.133
 3332SOL     OW10894   4.006   5.104   0.528
 3332SOL    HW110895   4.071   5.140   0.594
 3332SOL    HW210896   3.925   5.163   0.524
 3333SOL     OW10897   2.137   4.190   0.770
 3333SOL    HW110898   2.077   4.183   0.691
 3333SOL    HW210899   2.130   4.281   0.810
 3334SOL     OW10900   1.905   2.326   2.850
 3334SOL    HW110901   1.864   2.242   2.814
 3334SOL    HW210902   1.887   2.402   2.788
 3335SOL     OW10903   4.156   4.257   5.949
 3335SOL    HW110904   4.105   4.243   6.034
 3335SOL    HW210905   4.141   4.180   5.888
 3336SOL     OW10906   3.913   5.858   6.477
 3336SOL    HW110907   3.975   5.878   6.401
 3336SOL    HW210908   3.916   5.760   6.497
 3337SOL     OW10909   2.917   3.424   4.208
 3337SOL    HW110910   3.013   3.443   4.188
 3337SOL    HW210911   2.909   3.388   4.301
 3338SOL     OW10912   2.621   3.255   1.497
 3338SOL    HW110913   2.686   3.278   1.570
 3338SOL    HW210914   2.538   3.309   1.507
 3339SOL     OW10915   0.961   6.673   6.181
 3339SOL    HW110916   0.954   6.573   6.178
 3339SOL    HW210917   1.050   6.700   6.215
 3340SOL     OW10918   4.773   1.104   6.381
 3340SOL    HW110919   4.826   1.021   6.396
 3340SOL    HW210920   4.687   1.097   6.432
 3341SOL     OW10921   1.479   4.488   1.259
 3341SOL    HW110922   1.405   4.428   1.226
 3341SOL    HW210923   1.440   4.573   1.295
 3342SOL     OW10924   5.982   0.037   2.063
 3342SOL    HW110925   5.914   0.010   2.131
 3342SOL    HW210926   5.940   0.099   1.996
 3343SOL     OW10927   3.036   5.347   0.795
 3343SOL    HW110928   3.018   5.274   0.861
 3343SOL    HW210929   3.068   5.429   0.843
 3344SOL     OW10930   1.220   3.459   1.487
 3344SOL    HW110931   1.181   3.399   1.418
 3344SOL    HW210932   1.163   3.457   1.569
 3345SOL     OW10933   4.993   5.328   0.932
 3345SOL    HW110934   4.993   5.234   0.967
 3345SOL    HW210935   4.909   5.374   0.960
 3346SOL     OW10936   1.484   0.872   6.879
 3346SOL    HW110937   1.580   0.844   6.875
 3346SOL    HW210938   1.440   0.854   6.791
 3347SOL     OW10939   0.791   4.090   5.618
 3347SOL    HW110940   0.730   4.041   5.556
 3347SOL    HW210941   0.805   4.183   5.584
 3348SOL     OW10942   3.405   3.935   6.149
 3348SOL    HW110943   3.351   3.908   6.229
 3348SOL    HW210944   3.347   3.986   6.085
 3349SOL     OW10945   1.645   5.608   1.669
 3349SOL    HW110946   1.726   5.565   1.628
 3349SOL    HW210947   1.647   5.597   1.768
 3350SOL     OW10948   2.938   5.468   4.987
 3350SOL    HW110949   2.905   5.454   5.080
 3350SOL    HW210950   3.026   5.424   4.975
 3351SOL     OW10951   5.720   6.893   1.304
 3351SOL    HW110952   5.693   6.884   1.208
 3351SOL    HW210953   5.718   6.990   1.330
 3352SOL     OW10954   5.496   1.259   0.067
 3352SOL    HW110955   5.478   1.210   0.152
 3352SOL    HW210956   5.445   1.345   0.066
 3353SOL     OW10957   4.079   0.640   6.360
 3353SOL    HW110958   4.164   0.685   6.389
 3353SOL    HW210959   4.006   0.708   6.356
 3354SOL     OW10960   2.303   2.560   0.288
 3354SOL    HW110961   2.286   2.490   0.357
 3354SOL    HW210962   2.239   2.636   0.300
 3355SOL     OW10963   1.355   1.550   4.872
 3355SOL    HW110964   1.297   1.475   4.842
 3355SOL    HW210965   1.431   1.561   4.808
 3356SOL     OW10966   3.144   0.940   5.540
 3356SOL    HW110967   3.219   0.958   5.604
 3356SOL    HW210968   3.060   0.981   5.575
 3357SOL     OW10969   2.964   3.888   3.837
 3357SOL    HW110970   2.870   3.878   3.871
 3357SOL    HW210971   3.026   3.905   3.913
 3358SOL     OW10972   0.336   2.139   1.640
 3358SOL    HW110973   0.241   2.108   1.642
 3358SOL    HW210974   0.396   2.061   1.622
 3359SOL     OW10975   1.052   0.143   4.210
 3359SOL    HW110976   1.070   0.089   4.293
 3359SOL    HW210977   1.056   0.240   4.232
 3360SOL     OW10978   1.406   5.411   5.329
 3360SOL    HW110979   1.431   5.504   5.357
 3360SOL    HW210980   1.315   5.389   5.366
 3361SOL     OW10981   0.457   6.980   4.429
 3361SOL    HW110982   0.365   6.949   4.407
 3361SOL    HW210983   0.515   6.972   4.348
 3362SOL     OW10984   3.081   0.701   4.663
 3362SOL    HW110985   3.027   0.767   4.715
 3362SOL    HW210986   3.176   0.704   4.695
 3363SOL     OW10987   4.224   3.394   0.667
 3363SOL    HW110988   4.212   3.300   0.636
 3363SOL    HW210989   4.322   3.415   0.669
 3364SOL     OW10990   1.544   3.297   1.580
 3364SOL    HW110991   1.483   3.372   1.554
 3364SOL    HW210992   1.639   3.329   1.579
 3365SOL     OW10993   1.042   2.908   2.921
 3365SOL    HW110994   1.093   2.960   2.990
 3365SOL    HW210995   1.037   2.812   2.950
 3366SOL     OW10996   5.904   3.558   4.333
 3366SOL    HW110997   5.892   3.557   4.432
 3366SOL    HW210998   6.002   3.552   4.312
 3367SOL     OW10999   2.961   3.624   4.013
 3367SOL    HW111000   2.927   3.613   3.920
 3367SOL    HW211001   2.907   3.569   4.076
 3368SOL     OW11002   2.006   0.696   3.484
 3368SOL    HW111003   2.044   0.788   3.469
 3368SOL    HW211004   2.062   0.628   3.438
 3369SOL     OW11005   5.345   2.694   1.276
 3369SOL    HW111006   5.419   2.643   1.231
 3369SOL    HW211007   5.299   2.752   1.209
 3370SOL     OW11008   0.551   5.641   3.121
 3370SOL    HW111009   0.477   5.576   3.136
 3370SOL    HW211010   0.560   5.700   3.202
 3371SOL     OW11011   2.395   2.883   1.414
 3371SOL    HW111012   2.395   2.958   1.348
 3371SOL    HW211013   2.429   2.800   1.371
 3372SOL     OW11014   5.307   2.775   2.951
 3372SOL    HW111015   5.228   2.714   2.952
 3372SOL    HW211016   5.390   2.724   2.974
 3373SOL     OW11017   0.489   4.443   0.557
 3373SOL    HW111018   0.547   4.364   0.580
 3373SOL    HW211019   0.544   4.526   0.555
 3374SOL     OW11020   1.245   5.654   4.269
 3374SOL    HW111021   1.249   5.679   4.365
 3374SOL    HW211022   1.324   5.692   4.220
 3375SOL     OW11023   6.843   6.497   5.764
 3375SOL    HW111024   6.831   6.423   5.831
 3375SOL    HW211025   6.754   6.530   5.734
 3376SOL     OW11026   3.627   3.857   4.895
 3376SOL    HW111027   3.713   3.818   4.928
 3376SOL    HW211028   3.623   3.954   4.918
 3377SOL     OW11029   0.219   5.479   4.038
 3377SOL    HW111030   0.237   5.390   4.079
 3377SOL    HW211031   0.294   5.503   3.976
 3378SOL     OW11032   1.217   5.505   0.364
 3378SOL    HW111033   1.153   5.522   0.289
 3378SOL    HW211034   1.181   5.546   0.448
 3379SOL     OW11035   5.732   4.582   4.039
 3379SOL    HW111036   5.746   4.677   4.067
 3379SOL    HW211037   5.738   4.523   4.120
 3380SOL     OW11038   1.779   4.978   1.809
 3380SOL    HW111039   1.860   5.037   1.807
 3380SOL    HW211040   1.721   5.005   1.887
 3381SOL     OW11041   2.970   3.906   6.739
 3381SOL    HW111042   2.945   3.827   6.684
 3381SOL    HW211043   2.888   3.942   6.784
 3382SOL     OW11044   0.432   3.966   6.720
 3382SOL    HW111045   0.454   4.056   6.759
 3382SOL    HW211046   0.500   3.899   6.750
 3383SOL     OW11047   3.262   6.034   0.523
 3383SOL    HW111048   3.207   6.009   0.444
 3383SOL    HW211049   3.262   6.134   0.533
 3384SOL     OW11050   3.042   2.864   6.722
 3384SOL    HW111051   3.016   2.771   6.748
 3384SOL    HW211052   3.130   2.863   6.675
 3385SOL     OW11053   5.701   2.847   4.479
 3385SOL    HW111054   5.707   2.770   4.543
 3385SOL    HW211055   5.637   2.824   4.406
 3386SOL     OW11056   0.103   5.085   5.579
 3386SOL    HW111057   0.028   5.116   5.520
 3386SOL    HW211058   0.074   5.007   5.634
 3387SOL     OW11059   5.908   0.168   3.078
 3387SOL    HW111060   5.998   0.165   3.036
 3387SOL    HW211061   5.912   0.123   3.167
 3388SOL     OW11062   0.915   3.750   0.401
 3388SOL    HW111063   0.866   3.837   0.394
 3388SOL    HW211064   0.858   3.683   0.449
 3389SOL     OW11065   6.297   5.089   6.033
 3389SOL    HW111066   6.299   5.015   5.965
 3389SOL    HW211067   6.205   5.127   6.037
 3390SOL     OW11068   2.971   5.440   1.182
 3390SOL    HW111069   2.964   5.530   1.140
 3390SOL    HW211070   2.927   5.372   1.123
 3391SOL     OW11071   5.359   4.068   5.739
 3391SOL    HW111072   5.331   3.997   5.804
 3391SOL    HW211073   5.362   4.157   5.786
 3392SOL     OW11074   5.089   6.032   5.751
 3392SOL    HW111075   5.078   6.059   5.655
 3392SOL    HW211076   5.186   6.018   5.771
 3393SOL     OW11077   3.622   0.484   0.850
 3393SOL    HW111078   3.627   0.419   0.927
 3393SOL    HW211079   3.650   0.438   0.766
 3394SOL     OW11080   2.676   6.414   1.541
 3394SOL    HW111081   2.736   6.394   1.619
 3394SOL    HW211082   2.711   6.370   1.459
 3395SOL     OW11083   1.896   6.040   3.276
 3395SOL    HW111084   1.951   5.987   3.339
 3395SOL    HW211085   1.813   6.073   3.322
 3396SOL     OW11086   4.516   0.849   4.268
 3396SOL    HW111087   4.438   0.887   4.218
 3396SOL    HW211088   4.584   0.815   4.203
 3397SOL     OW11089   2.192   6.313   1.359
 3397SOL    HW111090   2.226   6.287   1.269
 3397SOL    HW211091   2.262   6.365   1.407
 3398SOL     OW11092   6.514   0.843   0.116
 3398SOL    HW111093   6.453   0.890   0.053
 3398SOL    HW211094   6.482   0.857   0.210
 3399SOL     OW11095   7.023   5.945   2.095
 3399SOL    HW111096   6.967   5.957   2.177
 3399SOL    HW211097   0.021   5.849   2.085
 3400SOL     OW11098   3.592   3.087   5.779
 3400SOL    HW111099   3.562   3.046   5.693
 3400SOL    HW211100   3.637   3.017   5.835
 3401SOL     OW11101   6.628   3.116   4.065
 3401SOL    HW111102   6.676   3.203   4.075
 3401SOL    HW211103   6.674   3.045   4.119
 3402SOL     OW11104   5.375   3.622   6.890
 3402SOL    HW111105   5.382   3.522   6.888
 3402SOL    HW211106   5.294   3.648   6.943
 3403SOL     OW11107   5.613   6.882   4.285
 3403SOL    HW111108   5.673   6.937   4.227
 3403SOL    HW211109   5.518   6.893   4.255
 3404SOL     OW11110   5.767   4.646   3.251
 3404SOL    HW111111   5.760   4.697   3.336
 3404SOL    HW211112   5.765   4.548   3.271
 3405SOL     OW11113   3.992   6.491   1.566
 3405SOL    HW111114   4.007   6.516   1.662
 3405SOL    HW211115   3.933   6.410   1.562
 3406SOL     OW11116   4.275   4.820   1.168
 3406SOL    HW111117   4.220   4.736   1.168
 3406SOL    HW211118   4.221   4.896   1.131
 3407SOL     OW11119   1.440   2.457   0.488
 3407SOL    HW111120   1.357   2.446   0.433
 3407SOL    HW211121   1.432   2.401   0.571
 3408SOL     OW11122   3.741   6.990   3.835
 3408SOL    HW111123   3.687   6.908   3.817
 3408SOL    HW211124   3.713   0.002   3.923
 3409SOL     OW11125   4.499   2.035   6.526
 3409SOL    HW111126   4.445   2.116   6.504
 3409SOL    HW211127   4.526   2.038   6.622
 3410SOL     OW11128   6.738   0.489   2.653
 3410SOL    HW111129   6.661   0.524   2.599
 3410SOL    HW211130   6.765   0.558   2.720
 3411SOL     OW11131   5.746   3.476   6.380
 3411SOL    HW111132   5.808   3.398   6.365
 3411SOL    HW211133   5.675   3.449   6.446
 3412SOL     OW11134   5.268   3.225   3.706
 3412SOL    HW111135   5.186   3.258   3.755
 3412SOL    HW211136   5.262   3.253   3.610
 3413SOL     OW11137   1.020   2.479   1.397
 3413SOL    HW111138   0.984   2.561   1.353
 3413SOL    HW211139   0.946   2.433   1.447
 3414SOL     OW11140   3.920   2.993   1.904
 3414SOL    HW111141   4.007   3.042   1.906
 3414SOL    HW211142   3.855   3.043   1.847
 3415SOL     OW11143   2.501   0.790   6.580
 3415SOL    HW111144   2.470   0.882   6.603
 3415SOL    HW211145   2.444   0.723   6.627
 3416SOL     OW11146   5.250   6.694   5.768
 3416SOL    HW111147   5.317   6.657   5.832
 3416SOL    HW211148   5.164   6.644   5.778
 3417SOL     OW11149   5.988   0.948   2.502
 3417SOL    HW111150   5.952   1.038   2.476
 3417SOL    HW211151   6.088   0.950   2.496
 3418SOL     OW11152   4.154   5.454   0.911
 3418SOL    HW111153   4.089   5.392   0.956
 3418SOL    HW211154   4.212   5.496   0.980
 3419SOL     OW11155   3.151   4.637   5.292
 3419SOL    HW111156   3.066   4.595   5.261
 3419SOL    HW211157   3.171   4.718   5.236
 3420SOL     OW11158   4.092   1.449   1.524
 3420SOL    HW111159   4.179   1.400   1.530
 3420SOL    HW211160   4.056   1.465   1.617
 3421SOL     OW11161   0.582   1.234   4.417
 3421SOL    HW111162   0.647   1.173   4.462
 3421SOL    HW211163   0.573   1.208   4.321
 3422SOL     OW11164   3.127   5.536   1.545
 3422SOL    HW111165   3.157   5.522   1.450
 3422SOL    HW211166   3.038   5.492   1.558
 3423SOL     OW11167   1.840   4.643   6.383
 3423SOL    HW111168   1.769   4.573   6.377
 3423SOL    HW211169   1.929   4.599   6.398
 3424SOL     OW11170   5.564   6.392   2.799
 3424SOL    HW111171   5.573   6.457   2.724
 3424SOL    HW211172   5.647   6.338   2.807
 3425SOL     OW11173   5.655   2.747   6.417
 3425SOL    HW111174   5.588   2.777   6.350
 3425SOL    HW211175   5.612   2.683   6.481
 3426SOL     OW11176   6.711   5.482   6.687
 3426SOL    HW111177   6.704   5.507   6.783
 3426SOL    HW211178   6.622   5.491   6.643
 3427SOL     OW11179   1.833   1.441   6.805
 3427SOL    HW111180   1.860   1.532   6.776
 3427SOL    HW211181   1.797   1.390   6.727
 3428SOL     OW11182   4.486   0.335   4.059
 3428SOL    HW111183   4.496   0.268   3.986
 3428SOL    HW211184   4.406   0.311   4.115
 3429SOL     OW11185   4.468   5.950   0.685
 3429SOL    HW111186   4.435   5.956   0.591
 3429SOL    HW211187   4.442   6.033   0.735
 3430SOL     OW11188   2.267   4.371   6.891
 3430SOL    HW111189   2.294   4.275   6.902
 3430SOL    HW211190   2.335   4.430   6.934
 3431SOL     OW11191   1.329   4.485   2.448
 3431SOL    HW111192   1.246   4.447   2.488
 3431SOL    HW211193   1.308   4.523   2.357
 3432SOL     OW11194   0.216   5.098   6.561
 3432SOL    HW111195   0.197   5.182   6.511
 3432SOL    HW211196   0.248   5.121   6.653
 3433SOL     OW11197   0.711   1.087   0.630
 3433SOL    HW111198   0.656   1.080   0.546
 3433SOL    HW211199   0.802   1.048   0.613
 3434SOL     OW11200   4.294   2.343   2.313
 3434SOL    HW111201   4.236   2.326   2.233
 3434SOL    HW211202   4.238   2.341   2.396
 3435SOL     OW11203   2.757   2.906   1.177
 3435SOL    HW111204   2.836   2.846   1.176
 3435SOL    HW211205   2.735   2.932   1.271
 3436SOL     OW11206   4.468   5.534   5.440
 3436SOL    HW111207   4.559   5.504   5.411
 3436SOL    HW211208   4.473   5.630   5.470
 3437SOL     OW11209   1.558   6.387   0.307
 3437SOL    HW111210   1.496   6.387   0.229
 3437SOL    HW211211   1.647   6.422   0.280
 3438SOL     OW11212   2.433   4.625   0.132
 3438SOL    HW111213   2.431   4.643   0.034
 3438SOL    HW211214   2.481   4.540   0.150
 3439SOL     OW11215   2.763   6.102   1.064
 3439SOL    HW111216   2.858   6.077   1.046
 3439SOL    HW211217   2.746   6.196   1.033
 3440SOL     OW11218   4.077   4.133   5.718
 3440SOL    HW111219   4.095   4.037   5.738
 3440SOL    HW211220   3.981   4.145   5.693
 3441SOL     OW11221   7.019   5.054   5.097
 3441SOL    HW111222   7.004   5.092   5.189
 3441SOL    HW211223   0.018   5.127   5.034
 3442SOL     OW11224   0.766   2.156   0.272
 3442SOL    HW111225   0.863   2.152   0.246
 3442SOL    HW211226   0.710   2.143   0.190
 3443SOL     OW11227   6.792   5.614   2.280
 3443SOL    HW111228   6.884   5.584   2.257
 3443SOL    HW211229   6.779   5.611   2.379
 3444SOL     OW11230   0.976   3.987   6.564
 3444SOL    HW111231   1.016   3.910   6.513
 3444SOL    HW211232   1.049   4.050   6.592
 3445SOL     OW11233   6.229   5.405   4.399
 3445SOL    HW111234   6.134   5.381   4.380
 3445SOL    HW211235   6.275   5.329   4.444
 3446SOL     OW11236   4.949   1.842   0.185
 3446SOL    HW111237   4.988   1.840   0.277
 3446SOL    HW211238   4.868   1.901   0.184
 3447SOL     OW11239   5.537   1.712   5.639
 3447SOL    HW111240   5.574   1.647   5.572
 3447SOL    HW211241   5.547   1.805   5.603
 3448SOL     OW11242   0.818   5.437   5.159
 3448SOL    HW111243   0.905   5.473   5.126
 3448SOL    HW211244   0.835   5.379   5.239
 3449SOL     OW11245   1.863   3.778   4.695
 3449SOL    HW111246   1.890   3.778   4.792
 3449SOL    HW211247   1.801   3.701   4.678
 3450SOL     OW11248   2.298   6.891   2.401
 3450SOL    HW111249   2.331   6.826   2.470
 3450SOL    HW211250   2.321   6.858   2.310
 3451SOL     OW11251   2.071   1.741   0.760
 3451SOL    HW111252   2.013   1.817   0.790
 3451SOL    HW211253   2.162   1.775   0.738
 3452SOL     OW11254   4.784   1.142   5.483
 3452SOL    HW111255   4.776   1.106   5.390
 3452SOL    HW211256   4.767   1.068   5.549
 3453SOL     OW11257   4.574   6.028   5.312
 3453SOL    HW111258   4.654   6.009   5.254
 3453SOL    HW211259   4.534   6.115   5.285
 3454SOL     OW11260   0.828   3.018   3.703
 3454SOL    HW111261   0.903   2.954   3.715
 3454SOL    HW211262   0.744   2.968   3.683
 3455SOL     OW11263   1.464   4.332   6.581
 3455SOL    HW111264   1.537   4.400   6.592
 3455SOL    HW211265   1.376   4.379   6.571
 3456SOL     OW11266   4.103   5.340   2.365
 3456SOL    HW111267   4.197   5.366   2.389
 3456SOL    HW211268   4.101   5.312   2.269
 3457SOL     OW11269   4.027   3.920   6.869
 3457SOL    HW111270   3.976   4.006   6.863
 3457SOL    HW211271   4.004   3.873   6.954
 3458SOL     OW11272   4.404   1.869   1.061
 3458SOL    HW111273   4.324   1.906   1.014
 3458SOL    HW211274   4.375   1.820   1.143
 3459SOL     OW11275   6.558   7.023   2.976
 3459SOL    HW111276   6.648   0.038   2.969
 3459SOL    HW211277   6.530   6.989   2.886
 3460SOL     OW11278   4.462   1.322   5.245
 3460SOL    HW111279   4.547   1.315   5.192
 3460SOL    HW211280   4.475   1.278   5.333
 3461SOL     OW11281   4.318   4.623   3.720
 3461SOL    HW111282   4.326   4.720   3.697
 3461SOL    HW211283   4.290   4.614   3.816
 3462SOL     OW11284   1.194   4.441   6.630
 3462SOL    HW111285   1.116   4.388   6.596
 3462SOL    HW211286   1.174   4.472   6.723
 3463SOL     OW11287   5.837   4.379   0.004
 3463SOL    HW111288   5.860   4.472   0.033
 3463SOL    HW211289   5.906   4.347   6.966
 3464SOL     OW11290   6.745   4.998   3.828
 3464SOL    HW111291   6.744   5.049   3.914
 3464SOL    HW211292   6.784   4.907   3.843
 3465SOL     OW11293   0.743   2.617   1.401
 3465SOL    HW111294   0.743   2.621   1.500
 3465SOL    HW211295   0.661   2.569   1.370
 3466SOL     OW11296   6.008   3.559   3.153
 3466SOL    HW111297   6.072   3.570   3.229
 3466SOL    HW211298   6.055   3.513   3.077
 3467SOL     OW11299   1.577   1.997   5.391
 3467SOL    HW111300   1.589   2.092   5.420
 3467SOL    HW211301   1.574   1.937   5.472
 3468SOL     OW11302   4.893   5.367   1.826
 3468SOL    HW111303   4.952   5.323   1.759
 3468SOL    HW211304   4.930   5.352   1.918
 3469SOL     OW11305   5.132   3.881   0.024
 3469SOL    HW111306   5.162   3.935   6.972
 3469SOL    HW211307   5.156   3.929   0.108
 3470SOL     OW11308   6.491   5.493   0.059
 3470SOL    HW111309   6.486   5.419   0.126
 3470SOL    HW211310   6.455   5.577   0.099
 3471SOL     OW11311   4.883   6.470   4.611
 3471SOL    HW111312   4.791   6.489   4.646
 3471SOL    HW211313   4.944   6.452   4.688
 3472SOL     OW11314   3.851   0.071   4.473
 3472SOL    HW111315   3.755   0.073   4.503
 3472SOL    HW211316   3.885   7.004   4.474
 3473SOL     OW11317   4.660   6.389   4.070
 3473SOL    HW111318   4.563   6.367   4.079
 3473SOL    HW211319   4.700   6.337   3.995
 3474SOL     OW11320   4.651   4.646   0.163
 3474SOL    HW111321   4.618   4.552   0.151
 3474SOL    HW211322   4.721   4.665   0.095
 3475SOL     OW11323   1.170   5.383   5.741
 3475SOL    HW111324   1.209   5.473   5.723
 3475SOL    HW211325   1.073   5.393   5.764
 3476SOL     OW11326   3.653   2.034   3.334
 3476SOL    HW111327   3.640   1.942   3.296
 3476SOL    HW211328   3.592   2.098   3.289
 3477SOL     OW11329   4.356   5.598   2.032
 3477SOL    HW111330   4.376   5.563   2.124
 3477SOL    HW211331   4.432   5.656   2.002
 3478SOL     OW11332   3.587   4.532   0.319
 3478SOL    HW111333   3.540   4.463   0.374
 3478SOL    HW211334   3.674   4.494   0.286
 3479SOL     OW11335   1.927   0.775   0.294
 3479SOL    HW111336   1.881   0.776   0.205
 3479SOL    HW211337   1.970   0.864   0.309
 3480SOL     OW11338   1.481   6.665   4.452
 3480SOL    HW111339   1.549   6.591   4.445
 3480SOL    HW211340   1.528   6.752   4.464
 3481SOL     OW11341   2.313   5.153   0.319
 3481SOL    HW111342   2.241   5.181   0.255
 3481SOL    HW211343   2.397   5.134   0.268
 3482SOL     OW11344   0.420   2.264   1.877
 3482SOL    HW111345   0.460   2.187   1.926
 3482SOL    HW211346   0.379   2.231   1.792
 3483SOL     OW11347   3.794   1.198   1.171
 3483SOL    HW111348   3.826   1.292   1.184
 3483SOL    HW211349   3.767   1.185   1.076
 3484SOL     OW11350   3.649   4.082   3.144
 3484SOL    HW111351   3.655   4.117   3.238
 3484SOL    HW211352   3.640   3.983   3.146
 3485SOL     OW11353   5.942   2.396   4.098
 3485SOL    HW111354   5.996   2.460   4.043
 3485SOL    HW211355   5.991   2.374   4.182
 3486SOL     OW11356   6.442   1.094   3.206
 3486SOL    HW111357   6.409   1.039   3.284
 3486SOL    HW211358   6.367   1.108   3.141
 3487SOL     OW11359   1.279   0.604   0.960
 3487SOL    HW111360   1.300   0.664   1.036
 3487SOL    HW211361   1.249   0.658   0.881
 3488SOL     OW11362   6.391   3.720   4.946
 3488SOL    HW111363   6.487   3.750   4.948
 3488SOL    HW211364   6.387   3.621   4.956
 3489SOL     OW11365   3.036   5.313   6.918
 3489SOL    HW111366   3.135   5.307   6.919
 3489SOL    HW211367   3.008   5.394   6.865
 3490SOL     OW11368   4.851   3.816   0.141
 3490SOL    HW111369   4.924   3.871   0.101
 3490SOL    HW211370   4.784   3.793   0.071
 3491SOL     OW11371   5.743   2.598   4.681
 3491SOL    HW111372   5.821   2.651   4.716
 3491SOL    HW211373   5.767   2.559   4.592
 3492SOL     OW11374   6.833   4.392   6.712
 3492SOL    HW111375   6.834   4.317   6.645
 3492SOL    HW211376   6.919   4.392   6.763
 3493SOL     OW11377   6.304   4.658   0.960
 3493SOL    HW111378   6.226   4.719   0.978
 3493SOL    HW211379   6.300   4.626   0.866
 3494SOL     OW11380   3.540   6.670   1.230
 3494SOL    HW111381   3.541   6.757   1.279
 3494SOL    HW211382   3.445   6.644   1.212
 3495SOL     OW11383   6.286   4.928   6.344
 3495SOL    HW111384   6.275   4.833   6.316
 3495SOL    HW211385   6.371   4.964   6.307
 3496SOL     OW11386   0.447   6.094   1.069
 3496SOL    HW111387   0.403   6.182   1.086
 3496SOL    HW211388   0.416   6.028   1.138
 3497SOL     OW11389   2.805   0.116   5.039
 3497SOL    HW111390   2.773   0.028   5.076
 3497SOL    HW211391   2.761   0.133   4.951
 3498SOL     OW11392   0.861   1.770   0.333
 3498SOL    HW111393   0.910   1.856   0.322
 3498SOL    HW211394   0.919   1.704   0.381
 3499SOL     OW11395   6.454   4.117   3.500
 3499SOL    HW111396   6.385   4.046   3.517
 3499SOL    HW211397   6.439   4.193   3.562
 3500SOL     OW11398   6.435   3.058   1.018
 3500SOL    HW111399   6.430   3.030   1.114
 3500SOL    HW211400   6.529   3.044   0.985
 3501SOL     OW11401   0.172   5.119   3.409
 3501SOL    HW111402   0.125   5.201   3.443
 3501SOL    HW211403   0.218   5.141   3.323
 3502SOL     OW11404   1.235   6.318   0.882
 3502SOL    HW111405   1.136   6.328   0.876
 3502SOL    HW211406   1.263   6.236   0.832
 3503SOL     OW11407   3.311   0.097   3.468
 3503SOL    HW111408   3.247   0.032   3.428
 3503SOL    HW211409   3.396   0.050   3.491
 3504SOL     OW11410   2.173   3.126   2.802
 3504SOL    HW111411   2.165   3.180   2.886
 3504SOL    HW211412   2.128   3.175   2.728
 3505SOL     OW11413   4.429   6.312   4.690
 3505SOL    HW111414   4.519   6.273   4.704
 3505SOL    HW211415   4.386   6.329   4.779
 3506SOL     OW11416   6.912   4.007   2.773
 3506SOL    HW111417   6.970   4.008   2.855
 3506SOL    HW211418   6.967   4.032   2.694
 3507SOL     OW11419   6.870   0.205   5.725
 3507SOL    HW111420   6.956   0.157   5.707
 3507SOL    HW211421   6.853   0.272   5.653
 3508SOL     OW11422   6.772   4.466   0.122
 3508SOL    HW111423   6.852   4.408   0.110
 3508SOL    HW211424   6.734   4.490   0.033
 3509SOL     OW11425   5.047   6.882   6.751
 3509SOL    HW111426   5.071   6.951   6.683
 3509SOL    HW211427   4.958   6.904   6.791
 3510SOL     OW11428   2.034   1.201   2.714
 3510SOL    HW111429   2.033   1.236   2.621
 3510SOL    HW211430   2.039   1.277   2.779
 3511SOL     OW11431   1.041   0.740   3.914
 3511SOL    HW111432   1.028   0.799   3.834
 3511SOL    HW211433   1.033   0.793   3.997
 3512SOL     OW11434   3.630   3.392   1.670
 3512SOL    HW111435   3.726   3.396   1.699
 3512SOL    HW211436   3.588   3.482   1.680
 3513SOL     OW11437   6.576   4.395   1.088
 3513SOL    HW111438   6.477   4.402   1.103
 3513SOL    HW211439   6.617   4.486   1.094
 3514SOL     OW11440   3.347   5.894   3.187
 3514SOL    HW111441   3.339   5.812   3.130
 3514SOL    HW211442   3.373   5.972   3.130
 3515SOL     OW11443   3.622   5.605   3.561
 3515SOL    HW111444   3.622   5.705   3.564
 3515SOL    HW211445   3.561   5.574   3.489
 3516SOL     OW11446   1.460   1.149   0.442
 3516SOL    HW111447   1.442   1.240   0.404
 3516SOL    HW211448   1.406   1.081   0.393
 3517SOL     OW11449   0.209   0.702   7.021
 3517SOL    HW111450   0.144   0.737   6.955
 3517SOL    HW211451   0.285   0.657   6.973
 3518SOL     OW11452   4.106   3.647   6.154
 3518SOL    HW111453   4.132   3.611   6.244
 3518SOL    HW211454   4.067   3.574   6.099
 3519SOL     OW11455   3.653   0.525   0.273
 3519SOL    HW111456   3.731   0.479   0.315
 3519SOL    HW211457   3.624   0.474   0.192
 3520SOL     OW11458   3.931   4.945   1.567
 3520SOL    HW111459   4.014   4.913   1.520
 3520SOL    HW211460   3.956   4.998   1.647
 3521SOL     OW11461   6.935   2.031   5.707
 3521SOL    HW111462   7.012   2.032   5.644
 3521SOL    HW211463   6.856   2.076   5.665
 3522SOL     OW11464   2.117   0.633   0.937
 3522SOL    HW111465   2.179   0.707   0.963
 3522SOL    HW211466   2.043   0.626   1.004
 3523SOL     OW11467   2.407   4.471   5.104
 3523SOL    HW111468   2.375   4.484   5.198
 3523SOL    HW211469   2.381   4.549   5.048
 3524SOL     OW11470   2.984   1.674   3.411
 3524SOL    HW111471   2.901   1.639   3.456
 3524SOL    HW211472   3.044   1.598   3.389
 3525SOL     OW11473   1.414   3.190   3.333
 3525SOL    HW111474   1.447   3.098   3.308
 3525SOL    HW211475   1.387   3.239   3.250
 3526SOL     OW11476   3.326   6.217   3.414
 3526SOL    HW111477   3.299   6.230   3.318
 3526SOL    HW211478   3.253   6.167   3.461
 3527SOL     OW11479   6.549   4.035   6.792
 3527SOL    HW111480   6.531   3.955   6.850
 3527SOL    HW211481   6.544   4.008   6.696
 3528SOL     OW11482   1.109   0.165   4.741
 3528SOL    HW111483   1.148   0.254   4.715
 3528SOL    HW211484   1.022   0.180   4.787
 3529SOL     OW11485   3.513   5.495   0.500
 3529SOL    HW111486   3.472   5.572   0.450
 3529SOL    HW211487   3.472   5.410   0.468
 3530SOL     OW11488   2.058   5.619   3.145
 3530SOL    HW111489   1.978   5.570   3.109
 3530SOL    HW211490   2.122   5.553   3.185
 3531SOL     OW11491   5.109   4.707   6.860
 3531SOL    HW111492   5.178   4.637   6.841
 3531SOL    HW211493   5.153   4.795   6.877
 3532SOL     OW11494   2.304   6.426   0.323
 3532SOL    HW111495   2.263   6.491   0.386
 3532SOL    HW211496   2.254   6.339   0.328
 3533SOL     OW11497   1.377   1.001   3.383
 3533SOL    HW111498   1.341   0.924   3.331
 3533SOL    HW211499   1.303   1.066   3.401
 3534SOL     OW11500   5.239   0.076   4.234
 3534SOL    HW111501   5.186   0.017   4.294
 3534SOL    HW211502   5.286   0.021   4.165
 3535SOL     OW11503   4.637   5.414   0.251
 3535SOL    HW111504   4.558   5.447   0.198
 3535SOL    HW211505   4.620   5.319   0.279
 3536SOL     OW11506   1.984   3.652   2.541
 3536SOL    HW111507   1.962   3.586   2.468
 3536SOL    HW211508   1.901   3.701   2.567
 3537SOL     OW11509   3.225   4.883   2.051
 3537SOL    HW111510   3.129   4.870   2.027
 3537SOL    HW211511   3.261   4.801   2.094
 3538SOL     OW11512   3.569   0.396   3.252
 3538SOL    HW111513   3.499   0.399   3.324
 3538SOL    HW211514   3.646   0.342   3.284
 3539SOL     OW11515   4.889   5.136   5.048
 3539SOL    HW111516   4.961   5.067   5.051
 3539SOL    HW211517   4.856   5.146   4.954
 3540SOL     OW11518   4.368   4.286   6.423
 3540SOL    HW111519   4.443   4.321   6.479
 3540SOL    HW211520   4.387   4.305   6.327
 3541SOL     OW11521   0.265   2.626   2.517
 3541SOL    HW111522   0.331   2.558   2.483
 3541SOL    HW211523   0.186   2.629   2.456
 3542SOL     OW11524   5.400   1.516   0.062
 3542SOL    HW111525   5.335   1.517   7.012
 3542SOL    HW211526   5.458   1.598   0.057
 3543SOL     OW11527   0.209   2.987   4.207
 3543SOL    HW111528   0.235   3.053   4.136
 3543SOL    HW211529   0.186   2.900   4.164
 3544SOL     OW11530   3.052   4.388   6.056
 3544SOL    HW111531   2.978   4.325   6.031
 3544SOL    HW211532   3.064   4.455   5.983
 3545SOL     OW11533   2.750   6.875   0.922
 3545SOL    HW111534   2.785   6.959   0.965
 3545SOL    HW211535   2.788   6.796   0.969
 3546SOL     OW11536   6.885   4.655   0.855
 3546SOL    HW111537   6.913   4.563   0.882
 3546SOL    HW211538   6.787   4.657   0.837
 3547SOL     OW11539   1.261   3.880   4.571
 3547SOL    HW111540   1.239   3.931   4.488
 3547SOL    HW211541   1.354   3.844   4.564
 3548SOL     OW11542   6.472   0.465   5.834
 3548SOL    HW111543   6.536   0.388   5.847
 3548SOL    HW211544   6.511   0.530   5.770
 3549SOL     OW11545   2.143   6.885   6.458
 3549SOL    HW111546   2.165   6.798   6.414
 3549SOL    HW211547   2.158   6.876   6.557
 3550SOL     OW11548   6.142   2.136   5.538
 3550SOL    HW111549   6.083   2.184   5.473
 3550SOL    HW211550   6.085   2.091   5.607
 3551SOL     OW11551   6.254   0.943   4.834
 3551SOL    HW111552   6.320   1.005   4.877
 3551SOL    HW211553   6.289   0.850   4.838
 3552SOL     OW11554   6.682   0.912   3.253
 3552SOL    HW111555   6.630   0.995   3.273
 3552SOL    HW211556   6.757   0.904   3.319
 3553SOL     OW11557   5.336   6.032   6.086
 3553SOL    HW111558   5.410   6.099   6.088
 3553SOL    HW211559   5.249   6.078   6.107
 3554SOL     OW11560   5.395   4.078   6.158
 3554SOL    HW111561   5.441   4.048   6.075
 3554SOL    HW211562   5.388   4.001   6.222
 3555SOL     OW11563   2.713   1.022   5.410
 3555SOL    HW111564   2.726   0.936   5.360
 3555SOL    HW211565   2.654   1.082   5.356
 3556SOL     OW11566   5.729   1.854   0.618
 3556SOL    HW111567   5.631   1.839   0.613
 3556SOL    HW211568   5.747   1.950   0.644
 3557SOL     OW11569   4.714   6.798   1.694
 3557SOL    HW111570   4.797   6.776   1.746
 3557SOL    HW211571   4.641   6.734   1.718
 3558SOL     OW11572   4.043   5.624   2.420
 3558SOL    HW111573   4.047   5.525   2.412
 3558SOL    HW211574   4.071   5.666   2.334
 3559SOL     OW11575   4.252   6.244   6.133
 3559SOL    HW111576   4.327   6.239   6.067
 3559SOL    HW211577   4.175   6.189   6.101
 3560SOL     OW11578   2.160   5.952   4.538
 3560SOL    HW111579   2.134   5.981   4.630
 3560SOL    HW211580   2.257   5.930   4.537
 3561SOL     OW11581   3.786   2.907   5.947
 3561SOL    HW111582   3.716   2.902   6.018
 3561SOL    HW211583   3.857   2.840   5.965
 3562SOL     OW11584   3.100   1.197   0.147
 3562SOL    HW111585   3.164   1.150   0.207
 3562SOL    HW211586   3.062   1.131   0.082
 3563SOL     OW11587   0.039   2.149   0.001
 3563SOL    HW111588   0.023   2.114   6.935
 3563SOL    HW211589   0.006   2.082   0.068
 3564SOL     OW11590   6.073   3.527   2.798
 3564SOL    HW111591   6.036   3.597   2.737
 3564SOL    HW211592   6.132   3.570   2.866
 3565SOL     OW11593   5.343   7.008   4.636
 3565SOL    HW111594   5.397   7.022   4.719
 3565SOL    HW211595   5.388   6.941   4.577
 3566SOL     OW11596   0.823   1.203   5.074
 3566SOL    HW111597   0.768   1.259   5.135
 3566SOL    HW211598   0.781   1.200   4.984
 3567SOL     OW11599   0.421   4.485   6.525
 3567SOL    HW111600   0.357   4.492   6.602
 3567SOL    HW211601   0.459   4.576   6.505
 3568SOL     OW11602   3.425   4.065   5.332
 3568SOL    HW111603   3.343   4.120   5.319
 3568SOL    HW211604   3.439   4.049   5.430
 3569SOL     OW11605   1.321   0.809   3.137
 3569SOL    HW111606   1.391   0.804   3.066
 3569SOL    HW211607   1.351   0.757   3.217
 3570SOL     OW11608   0.035   2.064   4.667
 3570SOL    HW111609   7.014   2.064   4.579
 3570SOL    HW211610   0.074   2.155   4.683
 3571SOL     OW11611   6.731   5.397   5.005
 3571SOL    HW111612   6.766   5.449   5.083
 3571SOL    HW211613   6.632   5.405   5.002
 3572SOL     OW11614   5.897   0.128   5.268
 3572SOL    HW111615   5.935   0.051   5.320
 3572SOL    HW211616   5.803   0.105   5.240
 3573SOL     OW11617   0.692   2.508   2.076
 3573SOL    HW111618   0.671   2.414   2.101
 3573SOL    HW211619   0.614   2.567   2.097
 3574SOL     OW11620   6.952   3.683   0.002
 3574SOL    HW111621   6.871   3.665   6.973
 3574SOL    HW211622   6.924   3.709   0.094
 3575SOL     OW11623   6.256   0.280   2.494
 3575SOL    HW111624   6.214   0.328   2.416
 3575SOL    HW211625   6.184   0.239   2.551
 3576SOL     OW11626   1.013   0.968   0.869
 3576SOL    HW111627   0.915   0.986   0.875
 3576SOL    HW211628   1.063   1.053   0.885
 3577SOL     OW11629   2.479   5.026   0.138
 3577SOL    HW111630   2.537   4.954   0.100
 3577SOL    HW211631   2.466   5.098   0.071
 3578SOL     OW11632   3.408   4.609   1.620
 3578SOL    HW111633   3.478   4.612   1.692
 3578SOL    HW211634   3.341   4.682   1.635
 3579SOL     OW11635   1.750   3.157   5.979
 3579SOL    HW111636   1.714   3.205   6.058
 3579SOL    HW211637   1.849   3.148   5.986
 3580SOL     OW11638   5.908   2.155   1.511
 3580SOL    HW111639   5.852   2.159   1.593
 3580SOL    HW211640   5.849   2.151   1.430
 3581SOL     OW11641   0.107   1.023   2.777
 3581SOL    HW111642   0.125   0.938   2.826
 3581SOL    HW211643   0.190   1.051   2.728
 3582SOL     OW11644   0.523   0.163   5.900
 3582SOL    HW111645   0.427   0.190   5.911
 3582SOL    HW211646   0.531   0.064   5.910
 3583SOL     OW11647   1.252   6.346   1.367
 3583SOL    HW111648   1.307   6.429   1.361
 3583SOL    HW211649   1.266   6.303   1.456
 3584SOL     OW11650   5.336   0.328   4.465
 3584SOL    HW111651   5.304   0.416   4.502
 3584SOL    HW211652   5.324   0.257   4.535
 3585SOL     OW11653   2.575   4.544   3.653
 3585SOL    HW111654   2.667   4.583   3.651
 3585SOL    HW211655   2.512   4.612   3.690
 3586SOL     OW11656   1.038   0.929   6.569
 3586SOL    HW111657   1.107   0.865   6.534
 3586SOL    HW211658   1.079   0.986   6.640
 3587SOL     OW11659   3.771   6.865   6.067
 3587SOL    HW111660   3.689   6.846   6.121
 3587SOL    HW211661   3.784   6.792   6.000
 3588SOL     OW11662   2.586   2.503   5.475
 3588SOL    HW111663   2.658   2.540   5.418
 3588SOL    HW211664   2.572   2.406   5.453
 3589SOL     OW11665   3.348   6.372   4.812
 3589SOL    HW111666   3.363   6.340   4.905
 3589SOL    HW211667   3.301   6.301   4.759
 3590SOL     OW11668   1.092   5.205   0.103
 3590SOL    HW111669   1.183   5.220   0.140
 3590SOL    HW211670   1.048   5.293   0.085
 3591SOL     OW11671   5.225   1.077   5.293
 3591SOL    HW111672   5.325   1.081   5.289
 3591SOL    HW211673   5.187   1.140   5.225
 3592SOL     OW11674   5.459   1.832   1.818
 3592SOL    HW111675   5.522   1.803   1.890
 3592SOL    HW211676   5.380   1.877   1.858
 3593SOL     OW11677   1.227   5.694   4.523
 3593SOL    HW111678   1.181   5.611   4.555
 3593SOL    HW211679   1.179   5.774   4.558
 3594SOL     OW11680   4.038   1.377   4.229
 3594SOL    HW111681   3.983   1.435   4.168
 3594SOL    HW211682   4.128   1.362   4.188
 3595SOL     OW11683   2.443   6.447   6.387
 3595SOL    HW111684   2.368   6.443   6.321
 3595SOL    HW211685   2.430   6.377   6.457
 3596SOL     OW11686   6.927   3.713   3.325
 3596SOL    HW111687   7.011   3.684   3.280
 3596SOL    HW211688   6.925   3.676   3.418
 3597SOL     OW11689   4.334   6.989   4.204
 3597SOL    HW111690   4.312   6.978   4.107
 3597SOL    HW211691   4.428   7.019   4.214
 3598SOL     OW11692   2.124   0.527   0.122
 3598SOL    HW111693   2.158   0.438   0.091
 3598SOL    HW211694   2.073   0.516   0.207
 3599SOL     OW11695   0.354   1.779   4.731
 3599SOL    HW111696   0.367   1.877   4.746
 3599SOL    HW211697   0.257   1.755   4.742
 3600SOL     OW11698   6.401   6.841   1.418
 3600SOL    HW111699   6.450   6.922   1.449
 3600SOL    HW211700   6.305   6.848   1.445
 3601SOL     OW11701   6.804   3.335   6.116
 3601SOL    HW111702   6.800   3.435   6.122
 3601SOL    HW211703   6.828   3.297   6.206
 3602SOL     OW11704   3.180   2.433   1.487
 3602SOL    HW111705   3.083   2.439   1.463
 3602SOL    HW211706   3.228   2.379   1.419
 3603SOL     OW11707   4.066   5.160   4.491
 3603SOL    HW111708   4.103   5.067   4.480
 3603SOL    HW211709   4.020   5.167   4.580
 3604SOL     OW11710   6.162   4.190   3.210
 3604SOL    HW111711   6.078   4.244   3.209
 3604SOL    HW211712   6.239   4.248   3.182
 3605SOL     OW11713   5.903   1.746   6.588
 3605SOL    HW111714   5.834   1.683   6.552
 3605SOL    HW211715   5.929   1.718   6.680
 3606SOL     OW11716   1.899   4.382   2.891
 3606SOL    HW111717   1.898   4.448   2.816
 3606SOL    HW211718   1.952   4.418   2.967
 3607SOL     OW11719   4.448   0.038   5.561
 3607SOL    HW111720   4.429   0.102   5.635
 3607SOL    HW211721   4.362   0.004   5.523
 3608SOL     OW11722   0.538   2.793   3.279
 3608SOL    HW111723   0.454   2.761   3.323
 3608SOL    HW211724   0.548   2.891   3.296
 3609SOL     OW11725   6.933   0.878   3.448
 3609SOL    HW111726   6.942   0.945   3.522
 3609SOL    HW211727   6.996   0.802   3.464
 3610SOL     OW11728   1.739   4.998   5.583
 3610SOL    HW111729   1.650   5.016   5.626
 3610SOL    HW211730   1.805   5.066   5.616
 3611SOL     OW11731   5.018   5.163   5.308
 3611SOL    HW111732   5.081   5.235   5.280
 3611SOL    HW211733   4.938   5.163   5.248
 3612SOL     OW11734   1.831   6.087   0.695
 3612SOL    HW111735   1.881   6.165   0.731
 3612SOL    HW211736   1.799   6.108   0.602
 3613SOL     OW11737   5.199   5.291   6.118
 3613SOL    HW111738   5.236   5.198   6.109
 3613SOL    HW211739   5.259   5.355   6.071
 3614SOL     OW11740   3.377   2.935   4.347
 3614SOL    HW111741   3.323   2.872   4.402
 3614SOL    HW211742   3.394   3.019   4.398
 3615SOL     OW11743   5.061   6.944   5.773
 3615SOL    HW111744   5.109   6.863   5.809
 3615SOL    HW211745   5.029   6.925   5.680
 3616SOL     OW11746   6.309   1.279   4.422
 3616SOL    HW111747   6.218   1.275   4.380
 3616SOL    HW211748   6.374   1.228   4.366
 3617SOL     OW11749   0.070   0.764   0.523
 3617SOL    HW111750   0.154   0.783   0.575
 3617SOL    HW211751   0.094   0.747   0.427
 3618SOL     OW11752   3.336   6.128   6.219
 3618SOL    HW111753   3.391   6.172   6.290
 3618SOL    HW211754   3.242   6.163   6.223
 3619SOL     OW11755   5.352   3.958   3.788
 3619SOL    HW111756   5.301   3.986   3.707
 3619SOL    HW211757   5.338   3.860   3.804
 3620SOL     OW11758   6.166   1.645   5.002
 3620SOL    HW111759   6.085   1.605   5.046
 3620SOL    HW211760   6.235   1.574   4.989
 3621SOL     OW11761   0.995   2.954   5.499
 3621SOL    HW111762   0.984   3.009   5.416
 3621SOL    HW211763   1.055   3.003   5.563
 3622SOL     OW11764   0.639   3.960   0.902
 3622SOL    HW111765   0.726   4.007   0.918
 3622SOL    HW211766   0.603   3.926   0.989
 3623SOL     OW11767   6.354   4.838   4.706
 3623SOL    HW111768   6.449   4.866   4.722
 3623SOL    HW211769   6.348   4.790   4.619
 3624SOL     OW11770   2.214   0.511   1.482
 3624SOL    HW111771   2.157   0.591   1.463
 3624SOL    HW211772   2.295   0.513   1.424
 3625SOL     OW11773   1.085   2.801   4.492
 3625SOL    HW111774   1.094   2.734   4.566
 3625SOL    HW211775   1.171   2.853   4.484
 3626SOL     OW11776   2.409   3.822   5.594
 3626SOL    HW111777   2.436   3.844   5.687
 3626SOL    HW211778   2.401   3.907   5.541
 3627SOL     OW11779   3.358   3.189   4.098
 3627SOL    HW111780   3.398   3.104   4.134
 3627SOL    HW211781   3.394   3.207   4.006
 3628SOL     OW11782   2.573   6.029   4.272
 3628SOL    HW111783   2.488   6.078   4.253
 3628SOL    HW211784   2.553   5.951   4.332
 3629SOL     OW11785   5.636   3.307   4.710
 3629SOL    HW111786   5.647   3.406   4.706
 3629SOL    HW211787   5.554   3.280   4.660
 3630SOL     OW11788   5.902   1.302   5.188
 3630SOL    HW111789   5.989   1.343   5.216
 3630SOL    HW211790   5.839   1.374   5.159
 3631SOL     OW11791   2.031   0.899   4.081
 3631SOL    HW111792   2.126   0.888   4.109
 3631SOL    HW211793   2.023   0.979   4.021
 3632SOL     OW11794   4.964   6.770   6.057
 3632SOL    HW111795   4.982   6.733   5.966
 3632SOL    HW211796   4.972   6.870   6.054
 3633SOL     OW11797   0.903   2.672   5.501
 3633SOL    HW111798   0.865   2.650   5.590
 3633SOL    HW211799   0.935   2.767   5.501
 3634SOL     OW11800   3.202   5.095   6.085
 3634SOL    HW111801   3.174   5.024   6.149
 3634SOL    HW211802   3.239   5.053   6.002
 3635SOL     OW11803   2.341   1.537   4.662
 3635SOL    HW111804   2.302   1.522   4.753
 3635SOL    HW211805   2.366   1.633   4.651
 3636SOL     OW11806   1.380   6.208   1.082
 3636SOL    HW111807   1.370   6.263   1.165
 3636SOL    HW211808   1.305   6.231   1.019
 3637SOL     OW11809   4.987   1.078   1.944
 3637SOL    HW111810   4.998   1.049   2.039
 3637SOL    HW211811   5.057   1.033   1.888
 3638SOL     OW11812   6.580   4.915   3.393
 3638SOL    HW111813   6.655   4.921   3.459
 3638SOL    HW211814   6.549   5.007   3.368
 3639SOL     OW11815   2.703   6.561   0.054
 3639SOL    HW111816   2.773   6.629   0.074
 3639SOL    HW211817   2.643   6.551   0.134
 3640SOL     OW11818   2.421   6.994   1.717
 3640SOL    HW111819   2.503   6.982   1.661
 3640SOL    HW211820   2.346   6.940   1.678
 3641SOL     OW11821   1.794   0.689   4.743
 3641SOL    HW111822   1.853   0.621   4.787
 3641SOL    HW211823   1.704   0.688   4.785
 3642SOL     OW11824   6.169   6.749   2.387
 3642SOL    HW111825   6.182   6.676   2.319
 3642SOL    HW211826   6.140   6.833   2.341
 3643SOL     OW11827   4.084   6.153   4.490
 3643SOL    HW111828   4.100   6.054   4.488
 3643SOL    HW211829   4.081   6.184   4.585
 3644SOL     OW11830   6.393   6.955   1.715
 3644SOL    HW111831   6.462   6.897   1.757
 3644SOL    HW211832   6.320   6.974   1.781
 3645SOL     OW11833   4.199   5.829   3.438
 3645SOL    HW111834   4.161   5.922   3.440
 3645SOL    HW211835   4.252   5.817   3.354
 3646SOL     OW11836   0.374   5.350   4.840
 3646SOL    HW111837   0.371   5.340   4.741
 3646SOL    HW211838   0.447   5.414   4.865
 3647SOL     OW11839   3.020   3.109   1.146
 3647SOL    HW111840   2.929   3.151   1.143
 3647SOL    HW211841   3.011   3.013   1.173
 3648SOL     OW11842   2.995   0.011   3.020
 3648SOL    HW111843   2.913   6.995   3.058
 3648SOL    HW211844   2.997   7.024   2.921
 3649SOL     OW11845   3.472   3.184   2.040
 3649SOL    HW111846   3.559   3.233   2.029
 3649SOL    HW211847   3.397   3.249   2.042
 3650SOL     OW11848   5.729   6.632   1.025
 3650SOL    HW111849   5.643   6.599   0.985
 3650SOL    HW211850   5.743   6.728   1.000
 3651SOL     OW11851   1.849   6.030   2.436
 3651SOL    HW111852   1.864   6.101   2.367
 3651SOL    HW211853   1.775   6.058   2.497
 3652SOL     OW11854   4.735   5.793   2.293
 3652SOL    HW111855   4.693   5.867   2.346
 3652SOL    HW211856   4.759   5.827   2.202
 3653SOL     OW11857   6.374   3.032   4.245
 3653SOL    HW111858   6.462   3.036   4.196
 3653SOL    HW211859   6.302   3.064   4.184
 3654SOL     OW11860   2.072   0.362   2.032
 3654SOL    HW111861   2.056   0.293   2.102
 3654SOL    HW211862   2.120   0.320   1.955
 3655SOL     OW11863   6.765   1.397   3.804
 3655SOL    HW111864   6.727   1.405   3.896
 3655SOL    HW211865   6.759   1.486   3.758
 3656SOL     OW11866   2.469   1.778   3.005
 3656SOL    HW111867   2.569   1.774   2.998
 3656SOL    HW211868   2.438   1.871   2.987
 3657SOL     OW11869   4.999   5.185   2.077
 3657SOL    HW111870   5.022   5.158   2.170
 3657SOL    HW211871   5.082   5.188   2.022
 3658SOL     OW11872   2.382   4.818   5.960
 3658SOL    HW111873   2.439   4.898   5.976
 3658SOL    HW211874   2.335   4.827   5.872
 3659SOL     OW11875   1.078   4.114   6.902
 3659SOL    HW111876   1.072   4.018   6.930
 3659SOL    HW211877   1.139   4.121   6.823
 3660SOL     OW11878   4.420   4.140   0.710
 3660SOL    HW111879   4.485   4.198   0.661
 3660SOL    HW211880   4.347   4.112   0.648
 3661SOL     OW11881   5.705   1.512   1.459
 3661SOL    HW111882   5.747   1.468   1.379
 3661SOL    HW211883   5.615   1.471   1.476
 3662SOL     OW11884   1.496   6.184   4.738
 3662SOL    HW111885   1.448   6.097   4.732
 3662SOL    HW211886   1.566   6.188   4.666
 3663SOL     OW11887   1.430   3.133   5.967
 3663SOL    HW111888   1.494   3.164   6.038
 3663SOL    HW211889   1.482   3.105   5.886
 3664SOL     OW11890   3.653   0.106   2.035
 3664SOL    HW111891   3.731   0.162   2.009
 3664SOL    HW211892   3.568   0.155   2.013
 3665SOL     OW11893   2.150   1.239   5.264
 3665SOL    HW111894   2.210   1.298   5.210
 3665SOL    HW211895   2.205   1.185   5.328
 3666SOL     OW11896   1.383   4.649   3.687
 3666SOL    HW111897   1.466   4.689   3.726
 3666SOL    HW211898   1.334   4.599   3.759
 3667SOL     OW11899   0.591   1.448   7.001
 3667SOL    HW111900   0.492   1.466   7.007
 3667SOL    HW211901   0.640   1.515   0.030
 3668SOL     OW11902   2.340   6.547   2.144
 3668SOL    HW111903   2.247   6.542   2.181
 3668SOL    HW211904   2.346   6.489   2.063
 3669SOL     OW11905   5.469   1.607   4.083
 3669SOL    HW111906   5.428   1.538   4.024
 3669SOL    HW211907   5.401   1.676   4.108
 3670SOL     OW11908   2.610   5.632   6.389
 3670SOL    HW111909   2.642   5.633   6.294
 3670SOL    HW211910   2.527   5.578   6.395
 3671SOL     OW11911   2.150   0.445   3.477
 3671SOL    HW111912   2.139   0.489   3.566
 3671SOL    HW211913   2.244   0.415   3.466
 3672SOL     OW11914   6.256   6.833   0.724
 3672SOL    HW111915   6.157   6.847   0.726
 3672SOL    HW211916   6.288   6.839   0.630
 3673SOL     OW11917   4.534   6.811   6.349
 3673SOL    HW111918   4.480   6.807   6.432
 3673SOL    HW211919   4.473   6.811   6.269
 3674SOL     OW11920   0.900   6.298   0.268
 3674SOL    HW111921   0.926   6.337   0.356
 3674SOL    HW211922   0.820   6.346   0.232
 3675SOL     OW11923   2.303   2.419   4.423
 3675SOL    HW111924   2.291   2.331   4.377
 3675SOL    HW211925   2.399   2.430   4.450
 3676SOL     OW11926   1.409   4.772   2.502
 3676SOL    HW111927   1.497   4.803   2.466
 3676SOL    HW211928   1.394   4.676   2.478
 3677SOL     OW11929   5.867   0.367   3.815
 3677SOL    HW111930   5.854   0.429   3.892
 3677SOL    HW211931   5.810   0.286   3.827
 3678SOL     OW11932   1.348   2.154   4.098
 3678SOL    HW111933   1.254   2.176   4.121
 3678SOL    HW211934   1.351   2.108   4.009
 3679SOL     OW11935   0.038   0.715   2.095
 3679SOL    HW111936   0.112   0.750   2.152
 3679SOL    HW211937   0.072   0.698   2.003
 3680SOL     OW11938   6.107   4.280   4.755
 3680SOL    HW111939   6.085   4.314   4.846
 3680SOL    HW211940   6.029   4.230   4.718
 3681SOL     OW11941   5.127   6.566   4.218
 3681SOL    HW111942   5.201   6.499   4.209
 3681SOL    HW211943   5.110   6.585   4.315
 3682SOL     OW11944   0.633   2.393   6.724
 3682SOL    HW111945   0.534   2.396   6.708
 3682SOL    HW211946   0.653   2.431   6.814
 3683SOL     OW11947   5.151   5.846   2.770
 3683SOL    HW111948   5.215   5.876   2.700
 3683SOL    HW211949   5.182   5.761   2.811
 3684SOL     OW11950   2.092   3.476   1.027
 3684SOL    HW111951   2.085   3.381   1.060
 3684SOL    HW211952   2.056   3.481   0.934
 3685SOL     OW11953   5.636   6.436   5.991
 3685SOL    HW111954   5.670   6.484   5.910
 3685SOL    HW211955   5.700   6.448   6.067
 3686SOL     OW11956   0.074   4.138   0.764
 3686SOL    HW111957   0.139   4.087   0.821
 3686SOL    HW211958   0.121   4.217   0.724
 3687SOL     OW11959   3.950   1.433   0.419
 3687SOL    HW111960   3.979   1.436   0.323
 3687SOL    HW211961   3.996   1.506   0.469
 3688SOL     OW11962   6.950   3.439   0.318
 3688SOL    HW111963   6.966   3.403   0.226
 3688SOL    HW211964   6.918   3.533   0.312
 3689SOL     OW11965   2.177   6.708   3.313
 3689SOL    HW111966   2.131   6.653   3.382
 3689SOL    HW211967   2.185   6.655   3.228
 3690SOL     OW11968   4.882   5.408   5.150
 3690SOL    HW111969   4.973   5.401   5.190
 3690SOL    HW211970   4.865   5.328   5.092
 3691SOL     OW11971   3.211   2.984   5.972
 3691SOL    HW111972   3.243   2.889   5.961
 3691SOL    HW211973   3.199   3.025   5.881
 3692SOL     OW11974   0.258   0.237   5.913
 3692SOL    HW111975   0.211   0.149   5.906
 3692SOL    HW211976   0.190   0.310   5.924
 3693SOL     OW11977   1.798   1.049   3.500
 3693SOL    HW111978   1.809   1.133   3.447
 3693SOL    HW211979   1.728   1.063   3.570
 3694SOL     OW11980   2.105   5.296   3.345
 3694SOL    HW111981   2.152   5.368   3.293
 3694SOL    HW211982   2.029   5.260   3.291
 3695SOL     OW11983   1.652   2.205   0.586
 3695SOL    HW111984   1.740   2.238   0.554
 3695SOL    HW211985   1.656   2.106   0.598
 3696SOL     OW11986   2.933   6.551   5.883
 3696SOL    HW111987   3.000   6.481   5.856
 3696SOL    HW211988   2.922   6.617   5.809
 3697SOL     OW11989   4.995   0.914   3.782
 3697SOL    HW111990   5.003   0.838   3.846
 3697SOL    HW211991   5.062   0.904   3.708
 3698SOL     OW11992   3.410   0.087   6.483
 3698SOL    HW111993   3.410   7.016   6.506
 3698SOL    HW211994   3.336   0.106   6.419
 3699SOL     OW11995   0.506   5.528   1.960
 3699SOL    HW111996   0.574   5.486   1.900
 3699SOL    HW211997   0.415   5.518   1.921
 3700SOL     OW11998   6.288   0.645   3.584
 3700SOL    HW111999   6.297   0.668   3.487
 3700SOL    HW212000   6.260   0.550   3.593
 3701SOL     OW12001   5.215   0.554   3.827
 3701SOL    HW112002   5.304   0.566   3.782
 3701SOL    HW212003   5.182   0.461   3.810
 3702SOL     OW12004   5.281   0.928   6.591
 3702SOL    HW112005   5.324   1.018   6.587
 3702SOL    HW212006   5.312   0.873   6.513
 3703SOL     OW12007   3.584   4.866   1.258
 3703SOL    HW112008   3.560   4.788   1.315
 3703SOL    HW212009   3.515   4.879   1.187
 3704SOL     OW12010   3.025   6.332   1.558
 3704SOL    HW112011   2.974   6.406   1.602
 3704SOL    HW212012   2.975   6.299   1.479
 3705SOL     OW12013   6.722   1.022   4.310
 3705SOL    HW112014   6.706   0.927   4.339
 3705SOL    HW212015   6.819   1.043   4.317
 3706SOL     OW12016   3.152   2.128   3.119
 3706SOL    HW112017   3.122   2.044   3.072
 3706SOL    HW212018   3.095   2.143   3.199
 3707SOL     OW12019   4.135   2.486   5.573
 3707SOL    HW112020   4.222   2.438   5.563
 3707SOL    HW212021   4.098   2.470   5.665
 3708SOL     OW12022   6.443   0.522   0.058
 3708SOL    HW112023   6.406   0.441   0.014
 3708SOL    HW212024   6.510   0.565   7.024
 3709SOL     OW12025   6.493   0.287   6.637
 3709SOL    HW112026   6.456   0.247   6.553
 3709SOL    HW212027   6.417   0.312   6.698
 3710SOL     OW12028   0.457   4.631   6.860
 3710SOL    HW112029   0.409   4.543   6.858
 3710SOL    HW212030   0.391   4.706   6.861
 3711SOL     OW12031   6.653   5.240   2.315
 3711SOL    HW112032   6.608   5.315   2.267
 3711SOL    HW212033   6.634   5.154   2.269
 3712SOL     OW12034   1.755   0.482   6.641
 3712SOL    HW112035   1.710   0.489   6.730
 3712SOL    HW212036   1.752   0.570   6.595
 3713SOL     OW12037   3.790   5.307   5.795
 3713SOL    HW112038   3.824   5.230   5.848
 3713SOL    HW212039   3.809   5.392   5.845
 3714SOL     OW12040   4.696   1.770   5.023
 3714SOL    HW112041   4.775   1.825   5.052
 3714SOL    HW212042   4.662   1.805   4.935
 3715SOL     OW12043   5.134   3.812   3.620
 3715SOL    HW112044   5.207   3.829   3.554
 3715SOL    HW212045   5.168   3.749   3.691
 3716SOL     OW12046   1.030   1.309   3.866
 3716SOL    HW112047   0.999   1.276   3.955
 3716SOL    HW212048   1.011   1.407   3.859
 3717SOL     OW12049   5.900   0.782   6.899
 3717SOL    HW112050   5.827   0.844   6.869
 3717SOL    HW212051   5.859   0.699   6.937
 3718SOL     OW12052   0.536   5.659   6.733
 3718SOL    HW112053   0.470   5.627   6.802
 3718SOL    HW212054   0.579   5.743   6.765
 3719SOL     OW12055   3.323   4.915   0.539
 3719SOL    HW112056   3.249   4.870   0.490
 3719SOL    HW212057   3.381   4.964   0.475
 3720SOL     OW12058   0.097   1.042   5.993
 3720SOL    HW112059   0.068   1.017   6.085
 3720SOL    HW212060   0.164   0.976   5.960
 3721SOL     OW12061   4.962   3.174   0.240
 3721SOL    HW112062   4.968   3.184   0.141
 3721SOL    HW212063   5.023   3.102   0.271
 3722SOL     OW12064   5.549   5.780   1.359
 3722SOL    HW112065   5.470   5.744   1.310
 3722SOL    HW212066   5.628   5.720   1.344
 3723SOL     OW12067   4.827   1.085   0.277
 3723SOL    HW112068   4.775   1.116   0.356
 3723SOL    HW212069   4.784   1.004   0.237
 3724SOL     OW12070   0.701   4.256   5.995
 3724SOL    HW112071   0.641   4.302   5.929
 3724SOL    HW212072   0.644   4.211   6.064
 3725SOL     OW12073   6.025   6.004   1.049
 3725SOL    HW112074   6.052   6.081   0.991
 3725SOL    HW212075   6.106   5.969   1.097
 3726SOL     OW12076   6.059   2.666   1.363
 3726SOL    HW112077   6.021   2.584   1.404
 3726SOL    HW212078   6.093   2.645   1.271
 3727SOL     OW12079   2.420   2.843   5.350
 3727SOL    HW112080   2.434   2.929   5.302
 3727SOL    HW212081   2.508   2.803   5.375
 3728SOL     OW12082   0.604   3.693   6.835
 3728SOL    HW112083   0.613   3.607   6.885
 3728SOL    HW212084   0.672   3.759   6.869
 3729SOL     OW12085   0.532   2.994   4.089
 3729SOL    HW112086   0.612   3.032   4.042
 3729SOL    HW212087   0.466   2.962   4.022
 3730SOL     OW12088   1.986   0.607   1.197
 3730SOL    HW112089   1.998   0.625   1.294
 3730SOL    HW212090   1.991   0.508   1.181
 3731SOL     OW12091   2.647   5.524   6.826
 3731SOL    HW112092   2.576   5.479   6.772
 3731SOL    HW212093   2.633   5.623   6.823
 3732SOL     OW12094   2.186   3.663   4.237
 3732SOL    HW112095   2.210   3.595   4.305
 3732SOL    HW212096   2.215   3.754   4.268
 3733SOL     OW12097   3.540   3.832   0.948
 3733SOL    HW112098   3.582   3.845   1.038
 3733SOL    HW212099   3.576   3.899   0.883
 3734SOL     OW12100   4.550   0.511   3.120
 3734SOL    HW112101   4.515   0.570   3.193
 3734SOL    HW212102   4.608   0.440   3.158
 3735SOL     OW12103   3.549   1.989   2.048
 3735SOL    HW112104   3.484   1.974   1.974
 3735SOL    HW212105   3.597   2.075   2.033
 3736SOL     OW12106   4.838   1.063   6.121
 3736SOL    HW112107   4.808   0.968   6.125
 3736SOL    HW212108   4.781   1.119   6.181
 3737SOL     OW12109   3.627   6.759   3.777
 3737SOL    HW112110   3.672   6.696   3.841
 3737SOL    HW212111   3.580   6.707   3.706
 3738SOL     OW12112   6.991   0.431   4.203
 3738SOL    HW112113   6.893   0.414   4.211
 3738SOL    HW212114   0.014   0.346   4.224
 3739SOL     OW12115   0.645   3.044   1.303
 3739SOL    HW112116   0.599   2.965   1.264
 3739SOL    HW212117   0.619   3.053   1.400
 3740SOL     OW12118   5.550   6.948   0.087
 3740SOL    HW112119   5.486   6.909   0.020
 3740SOL    HW212120   5.579   0.012   0.056
 3741SOL     OW12121   3.571   1.982   6.894
 3741SOL    HW112122   3.528   2.002   6.982
 3741SOL    HW212123   3.669   1.968   6.908
 3742SOL     OW12124   3.561   3.378   6.030
 3742SOL    HW112125   3.630   3.404   5.963
 3742SOL    HW212126   3.563   3.279   6.043
 3743SOL     OW12127   0.801   5.764   6.350
 3743SOL    HW112128   0.832   5.767   6.445
 3743SOL    HW212129   0.853   5.830   6.295
 3744SOL     OW12130   6.526   5.144   3.123
 3744SOL    HW112131   6.608   5.096   3.093
 3744SOL    HW212132   6.497   5.209   3.053
 3745SOL     OW12133   5.111   5.249   1.659
 3745SOL    HW112134   5.176   5.290   1.596
 3745SOL    HW212135   5.059   5.177   1.612
 3746SOL     OW12136   4.384   1.529   1.379
 3746SOL    HW112137   4.456   1.595   1.399
 3746SOL    HW212138   4.354   1.487   1.465
 3747SOL     OW12139   2.933   0.280   0.563
 3747SOL    HW112140   2.959   0.370   0.528
 3747SOL    HW212141   3.015   0.232   0.595
 3748SOL     OW12142   5.703   0.345   1.666
 3748SOL    HW112143   5.644   0.359   1.587
 3748SOL    HW212144   5.785   0.295   1.639
 3749SOL     OW12145   1.249   0.664   4.086
 3749SOL    HW112146   1.211   0.592   4.145
 3749SOL    HW212147   1.191   0.675   4.006
 3750SOL     OW12148   0.142   3.938   6.628
 3750SOL    HW112149   0.141   3.878   6.708
 3750SOL    HW212150   0.221   3.999   6.632
 3751SOL     OW12151   1.727   5.231   1.625
 3751SOL    HW112152   1.687   5.218   1.535
 3751SOL    HW212153   1.687   5.166   1.690
 3752SOL     OW12154   4.996   5.997   6.618
 3752SOL    HW112155   5.025   6.090   6.594
 3752SOL    HW212156   5.069   5.952   6.669
 3753SOL     OW12157   0.716   0.420   3.447
 3753SOL    HW112158   0.624   0.436   3.411
 3753SOL    HW212159   0.719   0.447   3.543
 3754SOL     OW12160   3.017   1.650   1.145
 3754SOL    HW112161   3.006   1.554   1.116
 3754SOL    HW212162   3.113   1.667   1.166
 3755SOL     OW12163   2.209   5.937   4.278
 3755SOL    HW112164   2.216   5.841   4.250
 3755SOL    HW212165   2.173   5.941   4.372
 3756SOL     OW12166   1.530   6.687   0.450
 3756SOL    HW112167   1.487   6.598   0.435
 3756SOL    HW212168   1.464   6.748   0.494
 3757SOL     OW12169   0.305   4.555   0.353
 3757SOL    HW112170   0.389   4.528   0.401
 3757SOL    HW212171   0.328   4.594   0.264
 3758SOL     OW12172   1.167   6.486   4.016
 3758SOL    HW112173   1.161   6.387   4.009
 3758SOL    HW212174   1.258   6.516   3.989
 3759SOL     OW12175   4.681   0.587   3.634
 3759SOL    HW112176   4.758   0.596   3.696
 3759SOL    HW212177   4.667   0.673   3.585
 3760SOL     OW12178   0.826   0.750   2.884
 3760SOL    HW112179   0.816   0.730   2.786
 3760SOL    HW212180   0.909   0.706   2.918
 3761SOL     OW12181   4.796   1.502   5.320
 3761SOL    HW112182   4.791   1.466   5.413
 3761SOL    HW212183   4.723   1.569   5.306
 3762SOL     OW12184   0.874   2.303   4.154
 3762SOL    HW112185   0.852   2.219   4.103
 3762SOL    HW212186   0.796   2.327   4.212
 3763SOL     OW12187   0.542   6.019   6.636
 3763SOL    HW112188   0.532   6.095   6.573
 3763SOL    HW212189   0.476   5.947   6.613
 3764SOL     OW12190   3.056   1.028   2.769
 3764SOL    HW112191   2.973   1.042   2.823
 3764SOL    HW212192   3.113   1.110   2.774
 3765SOL     OW12193   5.437   3.225   2.598
 3765SOL    HW112194   5.381   3.296   2.641
 3765SOL    HW212195   5.388   3.189   2.518
 3766SOL     OW12196   1.778   2.764   2.259
 3766SOL    HW112197   1.842   2.737   2.187
 3766SOL    HW212198   1.749   2.683   2.311
 3767SOL     OW12199   1.821   6.015   5.925
 3767SOL    HW112200   1.792   6.096   5.977
 3767SOL    HW212201   1.893   6.040   5.861
 3768SOL     OW12202   1.647   6.687   2.905
 3768SOL    HW112203   1.743   6.715   2.906
 3768SOL    HW212204   1.629   6.632   2.824
 3769SOL     OW12205   5.275   5.161   4.910
 3769SOL    HW112206   5.355   5.206   4.950
 3769SOL    HW212207   5.200   5.227   4.900
 3770SOL     OW12208   2.828   6.938   1.312
 3770SOL    HW112209   2.730   6.926   1.328
 3770SOL    HW212210   2.873   6.849   1.314
 3771SOL     OW12211   6.802   6.157   5.846
 3771SOL    HW112212   6.889   6.150   5.894
 3771SOL    HW212213   6.769   6.251   5.849
 3772SOL     OW12214   2.436   5.950   2.094
 3772SOL    HW112215   2.499   6.020   2.058
 3772SOL    HW212216   2.421   5.966   2.191
 3773SOL     OW12217   4.717   4.663   6.711
 3773SOL    HW112218   4.668   4.607   6.779
 3773SOL    HW212219   4.677   4.648   6.621
 3774SOL     OW12220   6.705   4.647   1.143
 3774SOL    HW112221   6.802   4.665   1.127
 3774SOL    HW212222   6.651   4.693   1.073
 3775SOL     OW12223   5.647   5.652   4.611
 3775SOL    HW112224   5.718   5.583   4.625
 3775SOL    HW212225   5.685   5.731   4.562
 3776SOL     OW12226   3.950   2.552   6.452
 3776SOL    HW112227   4.043   2.525   6.427
 3776SOL    HW212228   3.952   2.635   6.508
 3777SOL     OW12229   2.818   5.174   4.050
 3777SOL    HW112230   2.805   5.110   3.975
 3777SOL    HW212231   2.871   5.253   4.017
 3778SOL     OW12232   3.123   4.972   6.644
 3778SOL    HW112233   3.155   5.051   6.592
 3778SOL    HW212234   3.105   4.999   6.738
 3779SOL     OW12235   0.006   4.816   6.249
 3779SOL    HW112236   0.016   4.822   6.349
 3779SOL    HW212237   0.031   4.725   6.218
 3780SOL     OW12238   6.340   3.162   1.975
 3780SOL    HW112239   6.269   3.190   2.039
 3780SOL    HW212240   6.429   3.190   2.011
 3781SOL     OW12241   1.715   6.679   6.012
 3781SOL    HW112242   1.770   6.756   5.980
 3781SOL    HW212243   1.751   6.594   5.974
 3782SOL     OW12244   3.719   5.578   0.244
 3782SOL    HW112245   3.734   5.602   0.340
 3782SOL    HW212246   3.806   5.584   0.194
 3783SOL     OW12247   4.280   4.798   5.422
 3783SOL    HW112248   4.318   4.851   5.498
 3783SOL    HW212249   4.193   4.838   5.393
 3784SOL     OW12250   6.044   3.229   4.942
 3784SOL    HW112251   6.001   3.196   5.026
 3784SOL    HW212252   5.974   3.242   4.872
 3785SOL     OW12253   1.133   3.128   2.747
 3785SOL    HW112254   1.055   3.187   2.728
 3785SOL    HW212255   1.105   3.052   2.806
 3786SOL     OW12256   2.034   2.850   5.649
 3786SOL    HW112257   2.023   2.950   5.649
 3786SOL    HW212258   2.083   2.823   5.566
 3787SOL     OW12259   5.194   5.934   4.421
 3787SOL    HW112260   5.259   5.867   4.384
 3787SOL    HW212261   5.111   5.936   4.365
 3788SOL     OW12262   5.794   3.323   6.058
 3788SOL    HW112263   5.703   3.300   6.022
 3788SOL    HW212264   5.861   3.256   6.026
 3789SOL     OW12265   2.165   3.564   1.305
 3789SOL    HW112266   2.103   3.534   1.378
 3789SOL    HW212267   2.135   3.524   1.218
 3790SOL     OW12268   1.456   6.791   1.470
 3790SOL    HW112269   1.380   6.727   1.474
 3790SOL    HW212270   1.500   6.796   1.560
 3791SOL     OW12271   4.635   0.525   4.359
 3791SOL    HW112272   4.714   0.586   4.362
 3791SOL    HW212273   4.555   0.575   4.329
 3792SOL     OW12274   6.064   6.704   3.823
 3792SOL    HW112275   6.150   6.722   3.872
 3792SOL    HW212276   5.999   6.660   3.884
 3793SOL     OW12277   4.694   3.696   6.993
 3793SOL    HW112278   4.599   3.716   6.968
 3793SOL    HW212279   4.752   3.707   6.912
 3794SOL     OW12280   1.027   4.905   6.563
 3794SOL    HW112281   1.032   4.833   6.633
 3794SOL    HW212282   1.120   4.937   6.542
 3795SOL     OW12283   3.270   6.325   0.730
 3795SOL    HW112284   3.303   6.263   0.801
 3795SOL    HW212285   3.344   6.342   0.665
 3796SOL     OW12286   5.376   0.653   6.867
 3796SOL    HW112287   5.350   0.734   6.920
 3796SOL    HW212288   5.417   0.585   6.928
 3797SOL     OW12289   0.331   3.023   1.378
 3797SOL    HW112290   0.346   2.927   1.399
 3797SOL    HW212291   0.414   3.075   1.400
 3798SOL     OW12292   0.895   5.097   3.816
 3798SOL    HW112293   0.955   5.022   3.789
 3798SOL    HW212294   0.816   5.100   3.755
 3799SOL     OW12295   6.753   1.564   2.696
 3799SOL    HW112296   6.728   1.557   2.793
 3799SOL    HW212297   6.670   1.569   2.640
 3800SOL     OW12298   5.421   2.839   2.659
 3800SOL    HW112299   5.509   2.882   2.679
 3800SOL    HW212300   5.355   2.910   2.633
 3801SOL     OW12301   6.418   1.273   1.082
 3801SOL    HW112302   6.513   1.263   1.053
 3801SOL    HW212303   6.410   1.251   1.179
 3802SOL     OW12304   6.361   3.500   2.550
 3802SOL    HW112305   6.380   3.405   2.576
 3802SOL    HW212306   6.302   3.502   2.470
 3803SOL     OW12307   4.284   3.681   5.489
 3803SOL    HW112308   4.314   3.767   5.531
 3803SOL    HW212309   4.230   3.629   5.555
 3804SOL     OW12310   3.506   6.186   3.674
 3804SOL    HW112311   3.577   6.136   3.722
 3804SOL    HW212312   3.537   6.209   3.582
 3805SOL     OW12313   2.369   2.128   6.819
 3805SOL    HW112314   2.303   2.082   6.760
 3805SOL    HW212315   2.457   2.135   6.771
 3806SOL     OW12316   1.795   4.373   2.082
 3806SOL    HW112317   1.771   4.278   2.063
 3806SOL    HW212318   1.850   4.410   2.006
 3807SOL     OW12319   0.409   4.202   4.080
 3807SOL    HW112320   0.356   4.200   3.995
 3807SOL    HW212321   0.504   4.225   4.060
 3808SOL     OW12322   2.593   6.869   5.958
 3808SOL    HW112323   2.627   6.799   5.896
 3808SOL    HW212324   2.601   6.959   5.915
 3809SOL     OW12325   5.150   1.330   2.170
 3809SOL    HW112326   5.122   1.387   2.093
 3809SOL    HW212327   5.244   1.299   2.157
 3810SOL     OW12328   5.285   2.436   3.009
 3810SOL    HW112329   5.202   2.489   3.028
 3810SOL    HW212330   5.303   2.437   2.911
 3811SOL     OW12331   0.170   6.040   5.627
 3811SOL    HW112332   0.214   5.958   5.591
 3811SOL    HW212333   0.097   6.014   5.690
 3812SOL     OW12334   3.743   5.681   0.493
 3812SOL    HW112335   3.738   5.754   0.561
 3812SOL    HW212336   3.669   5.616   0.509
 3813SOL     OW12337   6.011   3.553   6.878
 3813SOL    HW112338   5.932   3.571   6.819
 3813SOL    HW212339   6.006   3.611   6.959
 3814SOL     OW12340   0.256   0.189   4.798
 3814SOL    HW112341   0.160   0.217   4.795
 3814SOL    HW212342   0.302   0.220   4.715
 3815SOL     OW12343   4.963   2.385   5.711
 3815SOL    HW112344   5.047   2.430   5.742
 3815SOL    HW212345   4.887   2.411   5.770
 3816SOL     OW12346   6.580   6.699   1.118
 3816SOL    HW112347   6.614   6.689   1.211
 3816SOL    HW212348   6.582   6.610   1.072
 3817SOL     OW12349   3.868   3.708   1.901
 3817SOL    HW112350   3.832   3.784   1.848
 3817SOL    HW212351   3.945   3.739   1.957
 3818SOL     OW12352   4.572   5.860   1.958
 3818SOL    HW112353   4.611   5.937   2.009
 3818SOL    HW212354   4.554   5.888   1.864
 3819SOL     OW12355   6.226   3.295   2.831
 3819SOL    HW112356   6.234   3.309   2.930
 3819SOL    HW212357   6.207   3.382   2.786
 3820SOL     OW12358   3.240   6.535   5.999
 3820SOL    HW112359   3.202   6.562   6.087
 3820SOL    HW212360   3.171   6.487   5.946
 3821SOL     OW12361   2.038   6.837   0.684
 3821SOL    HW112362   2.029   6.891   0.601
 3821SOL    HW212363   2.041   6.898   0.764
 3822SOL     OW12364   5.600   6.886   2.040
 3822SOL    HW112365   5.652   6.857   1.960
 3822SOL    HW212366   5.589   6.810   2.103
 3823SOL     OW12367   5.207   5.679   5.191
 3823SOL    HW112368   5.300   5.685   5.156
 3823SOL    HW212369   5.143   5.666   5.115
 3824SOL     OW12370   2.046   2.502   0.826
 3824SOL    HW112371   2.010   2.419   0.868
 3824SOL    HW212372   1.969   2.560   0.797
 3825SOL     OW12373   0.587   5.066   5.562
 3825SOL    HW112374   0.566   5.041   5.467
 3825SOL    HW212375   0.684   5.090   5.569
 3826SOL     OW12376   5.024   3.944   3.397
 3826SOL    HW112377   5.005   3.846   3.392
 3826SOL    HW212378   4.964   3.987   3.464
 3827SOL     OW12379   0.507   1.245   6.645
 3827SOL    HW112380   0.599   1.255   6.606
 3827SOL    HW212381   0.480   1.330   6.691
 3828SOL     OW12382   3.277   3.259   5.055
 3828SOL    HW112383   3.231   3.334   5.102
 3828SOL    HW212384   3.211   3.187   5.034
 3829SOL     OW12385   0.535   3.162   1.538
 3829SOL    HW112386   0.527   3.261   1.552
 3829SOL    HW212387   0.520   3.115   1.626
 3830SOL     OW12388   5.286   0.028   3.709
 3830SOL    HW112389   5.306   6.992   3.633
 3830SOL    HW212390   5.188   0.026   3.728
 3831SOL     OW12391   5.186   2.445   3.296
 3831SOL    HW112392   5.237   2.359   3.290
 3831SOL    HW212393   5.088   2.427   3.287
 3832SOL     OW12394   6.236   1.267   3.757
 3832SOL    HW112395   6.317   1.276   3.815
 3832SOL    HW212396   6.162   1.225   3.809
 3833SOL     OW12397   1.492   2.972   5.390
 3833SOL    HW112398   1.506   2.901   5.459
 3833SOL    HW212399   1.484   2.929   5.300
 3834SOL     OW12400   5.468   4.667   0.958
 3834SOL    HW112401   5.482   4.739   1.026
 3834SOL    HW212402   5.554   4.648   0.911
 3835SOL     OW12403   4.503   5.452   5.090
 3835SOL    HW112404   4.450   5.491   5.165
 3835SOL    HW212405   4.542   5.526   5.034
 3836SOL     OW12406   7.008   6.716   4.593
 3836SOL    HW112407   0.010   6.637   4.540
 3836SOL    HW212408   6.990   6.793   4.531
 3837SOL     OW12409   4.791   4.413   5.932
 3837SOL    HW112410   4.866   4.367   5.980
 3837SOL    HW212411   4.818   4.429   5.837
 3838SOL     OW12412   6.772   0.732   4.206
 3838SOL    HW112413   6.761   0.764   4.300
 3838SOL    HW212414   6.700   0.666   4.184
 3839SOL     OW12415   4.770   1.041   3.708
 3839SOL    HW112416   4.857   1.014   3.749
 3839SOL    HW212417   4.725   0.961   3.668
 3840SOL     OW12418   3.874   1.715   6.505
 3840SOL    HW112419   3.785   1.756   6.485
 3840SOL    HW212420   3.929   1.714   6.422
 3841SOL     OW12421   5.896   3.824   3.149
 3841SOL    HW112422   5.944   3.831   3.236
 3841SOL    HW212423   5.925   3.741   3.101
 3842SOL     OW12424   1.894   4.106   5.582
 3842SOL    HW112425   1.940   4.194   5.574
 3842SOL    HW212426   1.905   4.055   5.497
 3843SOL     OW12427   5.918   2.673   6.349
 3843SOL    HW112428   5.926   2.588   6.400
 3843SOL    HW212429   5.821   2.695   6.335
 3844SOL     OW12430   6.661   0.161   1.034
 3844SOL    HW112431   6.612   0.076   1.050
 3844SOL    HW212432   6.642   0.226   1.107
 3845SOL     OW12433   2.114   5.575   0.259
 3845SOL    HW112434   2.141   5.659   0.213
 3845SOL    HW212435   2.025   5.544   0.225
 3846SOL     OW12436   7.018   3.221   3.074
 3846SOL    HW112437   0.077   3.170   3.063
 3846SOL    HW212438   0.012   3.318   3.086
 3847SOL     OW12439   0.457   1.625   6.516
 3847SOL    HW112440   0.522   1.611   6.590
 3847SOL    HW212441   0.462   1.549   6.452
 3848SOL     OW12442   6.452   4.855   1.909
 3848SOL    HW112443   6.365   4.852   1.859
 3848SOL    HW212444   6.437   4.830   2.004
 3849SOL     OW12445   0.873   4.054   5.896
 3849SOL    HW112446   0.798   4.091   5.950
 3849SOL    HW212447   0.846   4.049   5.800
 3850SOL     OW12448   2.883   2.653   1.252
 3850SOL    HW112449   2.906   2.556   1.252
 3850SOL    HW212450   2.792   2.666   1.290
 3851SOL     OW12451   0.439   5.832   2.943
 3851SOL    HW112452   0.454   5.800   2.850
 3851SOL    HW212453   0.459   5.758   3.007
 3852SOL     OW12454   2.081   0.472   4.717
 3852SOL    HW112455   2.079   0.385   4.767
 3852SOL    HW212456   2.154   0.469   4.649
 3853SOL     OW12457   2.753   0.789   3.075
 3853SOL    HW112458   2.770   0.691   3.086
 3853SOL    HW212459   2.665   0.802   3.027
 3854SOL     OW12460   0.488   1.866   2.191
 3854SOL    HW112461   0.422   1.800   2.156
 3854SOL    HW212462   0.456   1.902   2.278
 3855SOL     OW12463   3.353   6.859   6.561
 3855SOL    HW112464   3.376   6.804   6.481
 3855SOL    HW212465   3.415   6.836   6.636
 3856SOL     OW12466   6.886   2.370   6.380
 3856SOL    HW112467   6.909   2.361   6.477
 3856SOL    HW212468   6.857   2.464   6.362
 3857SOL     OW12469   2.449   0.726   6.079
 3857SOL    HW112470   2.453   0.816   6.124
 3857SOL    HW212471   2.355   0.691   6.084
 3858SOL     OW12472   3.825   0.838   4.482
 3858SOL    HW112473   3.831   0.934   4.511
 3858SOL    HW212474   3.916   0.795   4.490
 3859SOL     OW12475   6.513   0.055   2.096
 3859SOL    HW112476   6.562   0.136   2.067
 3859SOL    HW212477   6.476   0.069   2.188
 3860SOL     OW12478   1.333   6.983   4.310
 3860SOL    HW112479   1.411   6.958   4.368
 3860SOL    HW212480   1.254   7.004   4.368
 3861SOL     OW12481   3.007   5.695   1.956
 3861SOL    HW112482   3.069   5.619   1.938
 3861SOL    HW212483   3.003   5.755   1.875
 3862SOL     OW12484   1.445   0.633   4.353
 3862SOL    HW112485   1.540   0.665   4.356
 3862SOL    HW212486   1.441   0.547   4.302
 3863SOL     OW12487   3.742   0.802   0.571
 3863SOL    HW112488   3.671   0.742   0.536
 3863SOL    HW212489   3.791   0.845   0.495
 3864SOL     OW12490   1.195   0.390   4.599
 3864SOL    HW112491   1.164   0.462   4.537
 3864SOL    HW212492   1.289   0.409   4.627
 3865SOL     OW12493   5.213   1.417   0.840
 3865SOL    HW112494   5.224   1.407   0.741
 3865SOL    HW212495   5.135   1.477   0.859
 3866SOL     OW12496   3.136   0.887   6.743
 3866SOL    HW112497   3.215   0.946   6.760
 3866SOL    HW212498   3.161   0.792   6.762
 3867SOL     OW12499   7.016   3.209   2.768
 3867SOL    HW112500   6.975   3.156   2.841
 3867SOL    HW212501   6.972   3.299   2.762
 3868SOL     OW12502   4.076   0.517   0.013
 3868SOL    HW112503   4.096   0.610   7.009
 3868SOL    HW212504   4.005   0.477   6.982
 3869SOL     OW12505   4.357   1.000   4.096
 3869SOL    HW112506   4.442   1.016   4.046
 3869SOL    HW212507   4.326   0.907   4.080
 3870SOL     OW12508   0.101   1.120   5.599
 3870SOL    HW112509   0.022   1.157   5.647
 3870SOL    HW212510   0.181   1.179   5.616
 3871SOL     OW12511   2.783   5.848   4.253
 3871SOL    HW112512   2.872   5.862   4.210
 3871SOL    HW212513   2.727   5.929   4.240
 3872SOL     OW12514   2.824   3.404   5.230
 3872SOL    HW112515   2.909   3.356   5.250
 3872SOL    HW212516   2.845   3.498   5.202
 3873SOL     OW12517   4.516   1.939   0.080
 3873SOL    HW112518   4.572   2.013   0.117
 3873SOL    HW212519   4.439   1.922   0.141
 3874SOL     OW12520   2.376   1.328   1.193
 3874SOL    HW112521   2.304   1.260   1.207
 3874SOL    HW212522   2.460   1.298   1.238
 3875SOL     OW12523   0.715   2.174   6.383
 3875SOL    HW112524   0.737   2.076   6.375
 3875SOL    HW212525   0.742   2.206   6.474
 3876SOL     OW12526   3.078   5.397   2.375
 3876SOL    HW112527   3.076   5.306   2.334
 3876SOL    HW212528   2.991   5.443   2.360
 3877SOL     OW12529   0.240   1.398   5.938
 3877SOL    HW112530   0.274   1.305   5.953
 3877SOL    HW212531   0.158   1.395   5.881
 3878SOL     OW12532   4.738   1.323   5.107
 3878SOL    HW112533   4.757   1.387   5.181
 3878SOL    HW212534   4.733   1.230   5.143
 3879SOL     OW12535   5.034   5.918   0.484
 3879SOL    HW112536   4.999   5.925   0.577
 3879SOL    HW212537   5.053   5.822   0.463
 3880SOL     OW12538   4.898   4.643   3.989
 3880SOL    HW112539   4.979   4.618   3.938
 3880SOL    HW212540   4.915   4.726   4.041
 3881SOL     OW12541   0.907   3.350   0.259
 3881SOL    HW112542   0.876   3.412   0.330
 3881SOL    HW212543   0.895   3.255   0.289
 3882SOL     OW12544   0.255   1.954   5.574
 3882SOL    HW112545   0.232   1.997   5.487
 3882SOL    HW212546   0.178   1.897   5.605
 3883SOL     OW12547   4.264   6.079   3.733
 3883SOL    HW112548   4.344   6.031   3.699
 3883SOL    HW212549   4.201   6.098   3.658
 3884SOL     OW12550   0.397   3.590   2.550
 3884SOL    HW112551   0.491   3.594   2.515
 3884SOL    HW212552   0.335   3.635   2.486
 3885SOL     OW12553   4.294   5.885   2.105
 3885SOL    HW112554   4.288   5.786   2.117
 3885SOL    HW212555   4.389   5.912   2.089
 3886SOL     OW12556   2.684   5.610   6.119
 3886SOL    HW112557   2.632   5.658   6.048
 3886SOL    HW212558   2.781   5.611   6.095
 3887SOL     OW12559   1.541   5.966   1.763
 3887SOL    HW112560   1.612   6.036   1.767
 3887SOL    HW212561   1.574   5.890   1.706
 3888SOL     OW12562   5.481   4.739   3.941
 3888SOL    HW112563   5.390   4.706   3.970
 3888SOL    HW212564   5.551   4.691   3.993
 3889SOL     OW12565   5.618   4.297   0.385
 3889SOL    HW112566   5.563   4.304   0.468
 3889SOL    HW212567   5.578   4.354   0.313
 3890SOL     OW12568   5.513   3.524   3.882
 3890SOL    HW112569   5.503   3.517   3.782
 3890SOL    HW212570   5.605   3.496   3.908
 3891SOL     OW12571   4.727   5.174   3.513
 3891SOL    HW112572   4.741   5.152   3.416
 3891SOL    HW212573   4.769   5.103   3.569
 3892SOL     OW12574   6.644   1.986   1.526
 3892SOL    HW112575   6.727   1.974   1.471
 3892SOL    HW212576   6.659   1.948   1.617
 3893SOL     OW12577   4.151   3.611   2.792
 3893SOL    HW112578   4.102   3.552   2.729
 3893SOL    HW212579   4.241   3.634   2.754
 3894SOL     OW12580   4.515   0.629   5.797
 3894SOL    HW112581   4.498   0.713   5.744
 3894SOL    HW212582   4.504   0.550   5.737
 3895SOL     OW12583   0.180   0.520   4.044
 3895SOL    HW112584   0.175   0.472   3.956
 3895SOL    HW212585   0.092   0.513   4.090
 3896SOL     OW12586   1.983   1.615   6.319
 3896SOL    HW112587   2.041   1.691   6.351
 3896SOL    HW212588   1.915   1.651   6.255
 3897SOL     OW12589   3.832   5.533   1.101
 3897SOL    HW112590   3.910   5.587   1.069
 3897SOL    HW212591   3.825   5.541   1.200
 3898SOL     OW12592   3.528   3.185   1.515
 3898SOL    HW112593   3.556   3.278   1.538
 3898SOL    HW212594   3.478   3.145   1.592
 3899SOL     OW12595   3.747   0.079   5.198
 3899SOL    HW112596   3.813   0.011   5.169
 3899SOL    HW212597   3.683   0.098   5.123
 3900SOL     OW12598   4.630   4.384   3.079
 3900SOL    HW112599   4.639   4.375   2.980
 3900SOL    HW212600   4.678   4.465   3.111
 3901SOL     OW12601   2.807   1.141   6.645
 3901SOL    HW112602   2.848   1.051   6.628
 3901SOL    HW212603   2.880   1.209   6.659
 3902SOL     OW12604   5.127   2.833   2.755
 3902SOL    HW112605   5.099   2.791   2.668
 3902SOL    HW212606   5.225   2.817   2.768
 3903SOL     OW12607   2.859   4.192   6.008
 3903SOL    HW112608   2.788   4.244   5.961
 3903SOL    HW212609   2.893   4.120   5.947
 3904SOL     OW12610   1.969   0.359   0.693
 3904SOL    HW112611   1.939   0.449   0.726
 3904SOL    HW212612   2.053   0.333   0.741
 3905SOL     OW12613   0.063   6.398   5.097
 3905SOL    HW112614   7.001   6.410   5.142
 3905SOL    HW212615   0.049   6.359   5.006
 3906SOL     OW12616   0.052   6.426   4.808
 3906SOL    HW112617   0.097   6.417   4.719
 3906SOL    HW212618   0.020   6.520   4.819
 3907SOL     OW12619   5.794   2.148   3.565
 3907SOL    HW112620   5.865   2.095   3.519
 3907SOL    HW212621   5.705   2.127   3.524
 3908SOL     OW12622   2.856   4.197   6.276
 3908SOL    HW112623   2.866   4.174   6.180
 3908SOL    HW212624   2.759   4.213   6.297
 3909SOL     OW12625   5.859   5.919   3.469
 3909SOL    HW112626   5.936   5.863   3.439
 3909SOL    HW212627   5.810   5.953   3.388
 3910SOL     OW12628   3.673   3.177   2.921
 3910SOL    HW112629   3.670   3.269   2.882
 3910SOL    HW212630   3.769   3.148   2.929
 3911SOL     OW12631   6.419   2.530   5.373
 3911SOL    HW112632   6.330   2.548   5.332
 3911SOL    HW212633   6.491   2.569   5.315
 3912SOL     OW12634   5.141   3.084   6.227
 3912SOL    HW112635   5.118   3.144   6.304
 3912SOL    HW212636   5.068   3.015   6.216
 3913SOL     OW12637   1.394   6.548   1.283
 3913SOL    HW112638   1.332   6.572   1.208
 3913SOL    HW212639   1.480   6.599   1.273
 3914SOL     OW12640   3.130   5.770   5.636
 3914SOL    HW112641   3.139   5.775   5.735
 3914SOL    HW212642   3.203   5.713   5.598
 3915SOL     OW12643   0.046   6.136   1.526
 3915SOL    HW112644   0.135   6.154   1.567
 3915SOL    HW212645   0.009   6.051   1.563
 3916SOL     OW12646   1.061   0.204   3.149
 3916SOL    HW112647   1.067   0.190   3.050
 3916SOL    HW212648   0.977   0.254   3.171
 3917SOL     OW12649   2.354   0.504   6.765
 3917SOL    HW112650   2.293   0.426   6.751
 3917SOL    HW212651   2.435   0.493   6.708
 3918SOL     OW12652   5.407   3.354   6.851
 3918SOL    HW112653   5.504   3.337   6.833
 3918SOL    HW212654   5.386   3.330   6.945
 3919SOL     OW12655   3.115   6.794   0.740
 3919SOL    HW112656   3.167   6.817   0.657
 3919SOL    HW212657   3.157   6.715   0.785
 3920SOL     OW12658   2.137   1.395   6.910
 3920SOL    HW112659   2.066   1.434   6.969
 3920SOL    HW212660   2.143   1.449   6.826
 3921SOL     OW12661   0.660   3.672   1.574
 3921SOL    HW112662   0.583   3.713   1.622
 3921SOL    HW212663   0.735   3.738   1.567
 3922SOL     OW12664   1.491   5.126   1.224
 3922SOL    HW112665   1.488   5.068   1.143
 3922SOL    HW212666   1.573   5.183   1.221
 3923SOL     OW12667   6.441   0.502   1.097
 3923SOL    HW112668   6.346   0.473   1.111
 3923SOL    HW212669   6.482   0.446   1.025
 3924SOL     OW12670   6.369   5.216   4.742
 3924SOL    HW112671   6.386   5.313   4.755
 3924SOL    HW212672   6.410   5.164   4.817
 3925SOL     OW12673   1.343   4.905   1.880
 3925SOL    HW112674   1.249   4.942   1.886
 3925SOL    HW212675   1.407   4.981   1.865
 3926SOL     OW12676   3.578   5.383   2.810
 3926SOL    HW112677   3.623   5.471   2.827
 3926SOL    HW212678   3.616   5.314   2.871
 3927SOL     OW12679   0.878   3.333   6.437
 3927SOL    HW112680   0.844   3.423   6.464
 3927SOL    HW212681   0.802   3.267   6.439
 3928SOL     OW12682   6.202   5.949   6.570
 3928SOL    HW112683   6.221   5.899   6.485
 3928SOL    HW212684   6.248   6.037   6.567
 3929SOL     OW12685   0.718   1.489   4.345
 3929SOL    HW112686   0.666   1.406   4.364
 3929SOL    HW212687   0.684   1.532   4.262
 3930SOL     OW12688   3.216   1.865   3.846
 3930SOL    HW112689   3.312   1.838   3.851
 3930SOL    HW212690   3.189   1.875   3.750
 3931SOL     OW12691   4.948   0.323   2.382
 3931SOL    HW112692   4.956   0.269   2.298
 3931SOL    HW212693   5.026   0.302   2.442
 3932SOL     OW12694   1.545   1.938   4.168
 3932SOL    HW112695   1.643   1.937   4.152
 3932SOL    HW212696   1.514   2.033   4.179
 3933SOL     OW12697   1.466   0.036   6.117
 3933SOL    HW112698   1.384   0.074   6.075
 3933SOL    HW212699   1.534   0.108   6.129
 3934SOL     OW12700   5.565   6.401   0.022
 3934SOL    HW112701   5.552   6.410   6.949
 3934SOL    HW212702   5.631   6.470   0.053
 3935SOL     OW12703   5.001   6.724   1.744
 3935SOL    HW112704   5.079   6.755   1.690
 3935SOL    HW212705   5.024   6.636   1.788
 3936SOL     OW12706   0.635   4.353   2.464
 3936SOL    HW112707   0.644   4.322   2.558
 3936SOL    HW212708   0.639   4.275   2.402
 3937SOL     OW12709   0.395   1.993   2.438
 3937SOL    HW112710   0.469   2.020   2.499
 3937SOL    HW212711   0.325   2.064   2.437
 3938SOL     OW12712   0.184   2.431   3.251
 3938SOL    HW112713   0.104   2.418   3.310
 3938SOL    HW212714   0.177   2.372   3.171
 3939SOL     OW12715   2.078   2.110   1.956
 3939SOL    HW112716   2.160   2.160   1.927
 3939SOL    HW212717   2.071   2.024   1.906
 3940SOL     OW12718   4.438   3.805   1.312
 3940SOL    HW112719   4.391   3.800   1.223
 3940SOL    HW212720   4.472   3.898   1.326
 3941SOL     OW12721   4.970   3.196   6.651
 3941SOL    HW112722   4.903   3.142   6.701
 3941SOL    HW212723   4.925   3.244   6.575
 3942SOL     OW12724   0.025   0.430   0.314
 3942SOL    HW112725   0.065   0.520   0.295
 3942SOL    HW212726   6.959   0.442   0.351
 3943SOL     OW12727   6.753   2.911   5.011
 3943SOL    HW112728   6.661   2.905   5.048
 3943SOL    HW212729   6.782   3.007   5.010
 3944SOL     OW12730   5.696   1.460   5.128
 3944SOL    HW112731   5.610   1.413   5.149
 3944SOL    HW212732   5.682   1.559   5.130
 3945SOL     OW12733   6.702   0.722   0.772
 3945SOL    HW112734   6.687   0.817   0.798
 3945SOL    HW212735   6.760   0.718   0.690
 3946SOL     OW12736   3.865   5.173   3.443
 3946SOL    HW112737   3.844   5.262   3.402
 3946SOL    HW212738   3.961   5.171   3.471
 3947SOL     OW12739   6.589   4.143   6.275
 3947SOL    HW112740   6.542   4.068   6.227
 3947SOL    HW212741   6.680   4.112   6.302
 3948SOL     OW12742   6.116   3.772   0.617
 3948SOL    HW112743   6.083   3.828   0.692
 3948SOL    HW212744   6.205   3.733   0.641
 3949SOL     OW12745   5.678   5.974   3.249
 3949SOL    HW112746   5.675   5.946   3.153
 3949SOL    HW212747   5.586   5.978   3.286
 3950SOL     OW12748   1.803   6.135   0.426
 3950SOL    HW112749   1.722   6.094   0.382
 3950SOL    HW212750   1.853   6.190   0.359
 3951SOL     OW12751   6.013   6.503   1.896
 3951SOL    HW112752   6.113   6.501   1.903
 3951SOL    HW212753   5.983   6.595   1.871
 3952SOL     OW12754   5.833   2.097   7.020
 3952SOL    HW112755   5.753   2.088   6.961
 3952SOL    HW212756   5.808   2.147   0.077
 3953SOL     OW12757   3.834   3.990   2.940
 3953SOL    HW112758   3.869   3.906   2.982
 3953SOL    HW212759   3.775   4.038   3.005
 3954SOL     OW12760   3.964   5.137   5.977
 3954SOL    HW112761   4.063   5.121   5.977
 3954SOL    HW212762   3.917   5.055   6.008
 3955SOL     OW12763   3.860   1.090   4.874
 3955SOL    HW112764   3.855   1.174   4.820
 3955SOL    HW212765   3.828   1.108   4.967
 3956SOL     OW12766   2.433   1.530   1.827
 3956SOL    HW112767   2.485   1.597   1.775
 3956SOL    HW212768   2.365   1.576   1.883
 3957SOL     OW12769   3.642   0.923   4.294
 3957SOL    HW112770   3.715   0.869   4.335
 3957SOL    HW212771   3.674   0.965   4.209
 3958SOL     OW12772   5.739   6.851   5.689
 3958SOL    HW112773   5.684   6.933   5.705
 3958SOL    HW212774   5.742   6.832   5.591
 3959SOL     OW12775   4.955   5.156   0.001
 3959SOL    HW112776   4.932   5.238   0.053
 3959SOL    HW212777   5.049   5.130   0.021
 3960SOL     OW12778   6.300   1.769   4.760
 3960SOL    HW112779   6.265   1.739   4.849
 3960SOL    HW212780   6.384   1.719   4.738
 3961SOL     OW12781   5.643   6.095   3.895
 3961SOL    HW112782   5.662   6.056   3.986
 3961SOL    HW212783   5.575   6.038   3.849
 3962SOL     OW12784   6.851   5.648   5.094
 3962SOL    HW112785   6.829   5.627   5.190
 3962SOL    HW212786   6.950   5.638   5.080
 3963SOL     OW12787   4.543   6.894   1.962
 3963SOL    HW112788   4.561   6.806   2.005
 3963SOL    HW212789   4.451   6.895   1.923
 3964SOL     OW12790   5.283   2.886   3.301
 3964SOL    HW112791   5.287   2.921   3.207
 3964SOL    HW212792   5.353   2.932   3.356
 3965SOL     OW12793   4.801   4.053   4.204
 3965SOL    HW112794   4.755   3.993   4.269
 3965SOL    HW212795   4.852   4.123   4.254
 3966SOL     OW12796   2.316   0.032   6.316
 3966SOL    HW112797   2.251   7.005   6.369
 3966SOL    HW212798   2.407   0.023   6.356
 3967SOL     OW12799   1.981   4.279   3.814
 3967SOL    HW112800   2.007   4.374   3.827
 3967SOL    HW212801   1.969   4.235   3.904
 3968SOL     OW12802   3.565   0.076   0.630
 3968SOL    HW112803   3.502   0.052   0.704
 3968SOL    HW212804   3.550   0.015   0.553
 3969SOL     OW12805   0.681   4.912   3.209
 3969SOL    HW112806   0.706   5.001   3.248
 3969SOL    HW212807   0.631   4.859   3.277
 3970SOL     OW12808   5.106   6.127   1.904
 3970SOL    HW112809   5.204   6.132   1.923
 3970SOL    HW212810   5.086   6.041   1.857
 3971SOL     OW12811   1.853   6.375   3.658
 3971SOL    HW112812   1.935   6.324   3.686
 3971SOL    HW212813   1.779   6.311   3.637
 3972SOL     OW12814   1.252   3.528   6.620
 3972SOL    HW112815   1.208   3.543   6.708
 3972SOL    HW212816   1.206   3.453   6.572
 3973SOL     OW12817   1.899   4.891   0.748
 3973SOL    HW112818   1.920   4.919   0.842
 3973SOL    HW212819   1.858   4.968   0.699
 3974SOL     OW12820   2.288   1.494   5.625
 3974SOL    HW112821   2.197   1.518   5.590
 3974SOL    HW212822   2.289   1.506   5.725
 3975SOL     OW12823   6.355   3.160   6.408
 3975SOL    HW112824   6.341   3.064   6.383
 3975SOL    HW212825   6.453   3.181   6.407
 3976SOL     OW12826   1.955   4.481   2.630
 3976SOL    HW112827   1.932   4.504   2.535
 3976SOL    HW212828   2.005   4.557   2.671
 3977SOL     OW12829   0.645   2.883   0.046
 3977SOL    HW112830   0.624   2.909   0.141
 3977SOL    HW212831   0.600   2.797   0.024
 3978SOL     OW12832   6.018   4.560   3.561
 3978SOL    HW112833   5.928   4.518   3.570
 3978SOL    HW212834   6.079   4.499   3.511
 3979SOL     OW12835   4.251   6.476   6.003
 3979SOL    HW112836   4.183   6.548   6.009
 3979SOL    HW212837   4.231   6.406   6.072
 3980SOL     OW12838   5.241   5.272   5.733
 3980SOL    HW112839   5.319   5.296   5.790
 3980SOL    HW212840   5.247   5.176   5.706
 3981SOL     OW12841   4.497   5.815   0.262
 3981SOL    HW112842   4.534   5.747   0.199
 3981SOL    HW212843   4.569   5.880   0.287
 3982SOL     OW12844   3.060   6.001   3.227
 3982SOL    HW112845   3.130   5.930   3.214
 3982SOL    HW212846   3.070   6.041   3.317
 3983SOL     OW12847   3.373   5.546   4.477
 3983SOL    HW112848   3.305   5.549   4.403
 3983SOL    HW212849   3.409   5.638   4.492
 3984SOL     OW12850   6.480   2.655   3.527
 3984SOL    HW112851   6.507   2.663   3.623
 3984SOL    HW212852   6.465   2.559   3.504
 3985SOL     OW12853   4.285   5.073   6.439
 3985SOL    HW112854   4.371   5.023   6.447
 3985SOL    HW212855   4.252   5.099   6.530
 3986SOL     OW12856   5.441   0.630   2.783
 3986SOL    HW112857   5.341   0.627   2.789
 3986SOL    HW212858   5.477   0.678   2.863
 3987SOL     OW12859   3.788   5.668   4.930
 3987SOL    HW112860   3.744   5.758   4.933
 3987SOL    HW212861   3.819   5.649   4.837
 3988SOL     OW12862   3.588   5.588   0.947
 3988SOL    HW112863   3.627   5.510   0.996
 3988SOL    HW212864   3.638   5.671   0.970
 3989SOL     OW12865   5.717   2.739   0.799
 3989SOL    HW112866   5.621   2.758   0.822
 3989SOL    HW212867   5.756   2.677   0.867
 3990SOL     OW12868   6.617   1.659   2.445
 3990SOL    HW112869   6.699   1.617   2.407
 3990SOL    HW212870   6.545   1.659   2.376
 3991SOL     OW12871   5.899   0.447   3.012
 3991SOL    HW112872   5.939   0.459   2.921
 3991SOL    HW212873   5.921   0.355   3.045
 3992SOL     OW12874   3.495   2.187   0.851
 3992SOL    HW112875   3.439   2.215   0.929
 3992SOL    HW212876   3.512   2.265   0.792
 3993SOL     OW12877   0.986   2.823   2.146
 3993SOL    HW112878   0.946   2.873   2.223
 3993SOL    HW212879   1.069   2.870   2.115
 3994SOL     OW12880   2.192   6.353   4.434
 3994SOL    HW112881   2.146   6.408   4.504
 3994SOL    HW212882   2.284   6.331   4.465
 3995SOL     OW12883   1.642   1.577   4.672
 3995SOL    HW112884   1.708   1.630   4.725
 3995SOL    HW212885   1.568   1.637   4.640
 3996SOL     OW12886   6.883   6.269   4.489
 3996SOL    HW112887   6.953   6.241   4.423
 3996SOL    HW212888   6.919   6.344   4.545
 3997SOL     OW12889   4.086   0.733   4.380
 3997SOL    HW112890   4.110   0.644   4.342
 3997SOL    HW212891   4.135   0.746   4.466
 3998SOL     OW12892   4.705   2.179   3.069
 3998SOL    HW112893   4.683   2.203   3.163
 3998SOL    HW212894   4.640   2.112   3.035
 3999SOL     OW12895   4.996   1.842   4.412
 3999SOL    HW112896   4.995   1.882   4.504
 3999SOL    HW212897   5.054   1.761   4.412
 4000SOL     OW12898   4.063   6.671   3.965
 4000SOL    HW112899   4.056   6.762   3.925
 4000SOL    HW212900   4.153   6.632   3.944
 4001SOL     OW12901   1.166   1.672   4.160
 4001SOL    HW112902   1.232   1.727   4.109
 4001SOL    HW212903   1.160   1.581   4.118
 4002SOL     OW12904   2.390   4.528   1.749
 4002SOL    HW112905   2.360   4.596   1.816
 4002SOL    HW212906   2.489   4.521   1.750
 4003SOL     OW12907   3.846   2.046   5.073
 4003SOL    HW112908   3.757   2.076   5.038
 4003SOL    HW212909   3.918   2.103   5.035
 4004SOL     OW12910   6.309   1.982   5.776
 4004SOL    HW112911   6.223   2.018   5.813
 4004SOL    HW212912   6.307   1.882   5.777
 4005SOL     OW12913   5.866   4.716   5.350
 4005SOL    HW112914   5.947   4.685   5.301
 4005SOL    HW212915   5.804   4.762   5.287
 4006SOL     OW12916   3.752   5.867   2.534
 4006SOL    HW112917   3.733   5.917   2.449
 4006SOL    HW212918   3.815   5.792   2.515
 4007SOL     OW12919   0.116   1.330   6.234
 4007SOL    HW112920   0.212   1.347   6.255
 4007SOL    HW212921   0.071   1.287   6.312
 4008SOL     OW12922   2.978   1.843   5.042
 4008SOL    HW112923   2.981   1.812   5.137
 4008SOL    HW212924   2.961   1.941   5.040
 4009SOL     OW12925   3.372   3.496   3.025
 4009SOL    HW112926   3.421   3.436   3.088
 4009SOL    HW212927   3.438   3.539   2.962
 4010SOL     OW12928   1.325   3.059   6.993
 4010SOL    HW112929   1.302   3.126   0.038
 4010SOL    HW212930   1.383   3.102   6.924
 4011SOL     OW12931   0.913   2.766   0.716
 4011SOL    HW112932   1.000   2.765   0.667
 4011SOL    HW212933   0.930   2.743   0.812
 4012SOL     OW12934   5.569   3.255   3.679
 4012SOL    HW112935   5.474   3.245   3.707
 4012SOL    HW212936   5.580   3.340   3.628
 4013SOL     OW12937   4.922   2.382   3.190
 4013SOL    HW112938   4.938   2.290   3.225
 4013SOL    HW212939   4.928   2.382   3.090
 4014SOL     OW12940   5.803   6.070   2.009
 4014SOL    HW112941   5.789   6.153   2.061
 4014SOL    HW212942   5.788   6.088   1.912
 4015SOL     OW12943   4.549   3.578   0.179
 4015SOL    HW112944   4.473   3.638   0.153
 4015SOL    HW212945   4.625   3.592   0.115
 4016SOL     OW12946   3.426   6.027   4.942
 4016SOL    HW112947   3.473   6.115   4.942
 4016SOL    HW212948   3.424   5.991   5.035
 4017SOL     OW12949   6.143   6.715   6.779
 4017SOL    HW112950   6.077   6.739   6.708
 4017SOL    HW212951   6.233   6.753   6.755
 4018SOL     OW12952   1.711   0.266   7.015
 4018SOL    HW112953   1.803   0.228   7.021
 4018SOL    HW212954   1.645   0.200   0.025
 4019SOL     OW12955   4.867   5.497   3.286
 4019SOL    HW112956   4.776   5.502   3.244
 4019SOL    HW212957   4.871   5.560   3.364
 4020SOL     OW12958   5.183   1.918   4.953
 4020SOL    HW112959   5.163   1.851   5.024
 4020SOL    HW212960   5.265   1.891   4.903
 4021SOL     OW12961   4.621   4.129   6.649
 4021SOL    HW112962   4.613   4.224   6.621
 4021SOL    HW212963   4.660   4.125   6.741
 4022SOL     OW12964   4.947   0.409   1.019
 4022SOL    HW112965   5.026   0.439   0.965
 4022SOL    HW212966   4.871   0.473   1.005
 4023SOL     OW12967   6.367   0.243   5.618
 4023SOL    HW112968   6.453   0.254   5.667
 4023SOL    HW212969   6.304   0.316   5.643
 4024SOL     OW12970   4.450   4.577   4.835
 4024SOL    HW112971   4.421   4.600   4.742
 4024SOL    HW212972   4.377   4.600   4.899
 4025SOL     OW12973   1.008   3.839   3.884
 4025SOL    HW112974   1.104   3.839   3.855
 4025SOL    HW212975   0.988   3.755   3.935
 4026SOL     OW12976   5.293   0.098   5.030
 4026SOL    HW112977   5.292   0.197   5.015
 4026SOL    HW212978   5.204   0.060   5.006
 4027SOL     OW12979   3.195   5.295   2.597
 4027SOL    HW112980   3.253   5.367   2.635
 4027SOL    HW212981   3.144   5.331   2.519
 4028SOL     OW12982   2.282   6.087   3.597
 4028SOL    HW112983   2.332   6.022   3.539
 4028SOL    HW212984   2.313   6.077   3.692
 4029SOL     OW12985   1.873   4.031   3.688
 4029SOL    HW112986   1.896   4.126   3.710
 4029SOL    HW212987   1.943   3.994   3.627
 4030SOL     OW12988   1.525   1.763   6.010
 4030SOL    HW112989   1.520   1.746   5.911
 4030SOL    HW212990   1.432   1.772   6.047
 4031SOL     OW12991   6.200   5.686   4.498
 4031SOL    HW112992   6.169   5.733   4.415
 4031SOL    HW212993   6.244   5.600   4.473
 4032SOL     OW12994   3.587   0.104   4.987
 4032SOL    HW112995   3.653   0.159   4.935
 4032SOL    HW212996   3.509   0.082   4.929
 4033SOL     OW12997   3.652   3.755   6.011
 4033SOL    HW112998   3.691   3.773   6.101
 4033SOL    HW212999   3.556   3.781   6.011
 4034SOL     OW13000   5.773   2.962   5.095
 4034SOL    HW113001   5.809   3.048   5.130
 4034SOL    HW213002   5.673   2.969   5.087
 4035SOL     OW13003   0.448   5.763   1.763
 4035SOL    HW113004   0.396   5.677   1.767
 4035SOL    HW213005   0.457   5.801   1.855
 4036SOL     OW13006   6.711   6.196   2.591
 4036SOL    HW113007   6.779   6.139   2.639
 4036SOL    HW213008   6.738   6.207   2.496
 4037SOL     OW13009   0.247   3.783   5.291
 4037SOL    HW113010   0.253   3.824   5.200
 4037SOL    HW213011   0.318   3.821   5.350
 4038SOL     OW13012   5.804   5.141   3.014
 4038SOL    HW113013   5.892   5.179   2.984
 4038SOL    HW213014   5.813   5.043   3.028
 4039SOL     OW13015   2.619   5.940   1.235
 4039SOL    HW113016   2.562   5.871   1.191
 4039SOL    HW213017   2.673   5.988   1.165
 4040SOL     OW13018   3.180   6.748   0.094
 4040SOL    HW113019   3.105   6.782   0.037
 4040SOL    HW213020   3.144   6.696   0.171
 4041SOL     OW13021   0.886   5.944   3.114
 4041SOL    HW113022   0.788   5.936   3.135
 4041SOL    HW213023   0.937   5.966   3.197
 4042SOL     OW13024   5.961   6.164   2.570
 4042SOL    HW113025   6.057   6.184   2.587
 4042SOL    HW213026   5.922   6.234   2.510
 4043SOL     OW13027   6.157   4.025   1.243
 4043SOL    HW113028   6.115   3.939   1.217
 4043SOL    HW213029   6.096   4.074   1.306
 4044SOL     OW13030   5.975   4.985   2.336
 4044SOL    HW113031   5.991   4.938   2.249
 4044SOL    HW213032   5.919   4.928   2.395
 4045SOL     OW13033   2.567   4.606   5.988
 4045SOL    HW113034   2.625   4.678   6.025
 4045SOL    HW213035   2.485   4.646   5.947
 4046SOL     OW13036   0.107   3.424   0.757
 4046SOL    HW113037   0.091   3.426   0.856
 4046SOL    HW213038   0.076   3.510   0.716
 4047SOL     OW13039   3.074   3.750   2.686
 4047SOL    HW113040   2.975   3.746   2.697
 4047SOL    HW213041   3.118   3.754   2.775
 4048SOL     OW13042   4.481   2.665   0.772
 4048SOL    HW113043   4.486   2.763   0.750
 4048SOL    HW213044   4.569   2.635   0.808
 4049SOL     OW13045   6.628   0.555   6.898
 4049SOL    HW113046   6.715   0.588   6.936
 4049SOL    HW213047   6.609   0.604   6.813
 4050SOL     OW13048   3.172   0.409   2.473
 4050SOL    HW113049   3.247   0.402   2.407
 4050SOL    HW213050   3.200   0.469   2.548
 4051SOL     OW13051   1.681   3.670   1.079
 4051SOL    HW113052   1.602   3.634   1.128
 4051SOL    HW213053   1.656   3.756   1.034
 4052SOL     OW13054   1.408   0.230   1.304
 4052SOL    HW113055   1.401   0.229   1.403
 4052SOL    HW213056   1.333   0.284   1.266
 4053SOL     OW13057   2.746   5.024   3.337
 4053SOL    HW113058   2.759   4.929   3.362
 4053SOL    HW213059   2.668   5.061   3.387
 4054SOL     OW13060   5.212   1.560   6.916
 4054SOL    HW113061   5.156   1.637   6.947
 4054SOL    HW213062   5.205   1.552   6.817
 4055SOL     OW13063   4.603   3.302   0.124
 4055SOL    HW113064   4.701   3.319   0.114
 4055SOL    HW213065   4.570   3.346   0.208
 4056SOL     OW13066   4.399   2.930   0.330
 4056SOL    HW113067   4.424   2.907   0.236
 4056SOL    HW213068   4.339   3.010   0.331
 4057SOL     OW13069   6.225   2.936   0.474
 4057SOL    HW113070   6.269   2.976   0.393
 4057SOL    HW213071   6.295   2.892   0.531
 4058SOL     OW13072   0.602   1.817   3.824
 4058SOL    HW113073   0.548   1.779   3.750
 4058SOL    HW213074   0.555   1.896   3.864
 4059SOL     OW13075   6.838   2.105   5.351
 4059SOL    HW113076   6.892   2.189   5.351
 4059SOL    HW213077   6.896   2.027   5.327
 4060SOL     OW13078   3.483   6.167   5.950
 4060SOL    HW113079   3.487   6.129   6.043
 4060SOL    HW213080   3.553   6.237   5.940
 4061SOL     OW13081   2.233   3.169   1.501
 4061SOL    HW113082   2.266   3.140   1.411
 4061SOL    HW213083   2.158   3.111   1.530
 4062SOL     OW13084   2.980   6.694   2.822
 4062SOL    HW113085   2.896   6.646   2.847
 4062SOL    HW213086   3.042   6.695   2.901
 4063SOL     OW13087   2.871   5.599   6.522
 4063SOL    HW113088   2.780   5.597   6.481
 4063SOL    HW213089   2.932   5.655   6.465
 4064SOL     OW13090   6.579   0.112   4.198
 4064SOL    HW113091   6.615   0.191   4.148
 4064SOL    HW213092   6.606   0.119   4.294
 4065SOL     OW13093   0.891   4.454   5.843
 4065SOL    HW113094   0.816   4.392   5.864
 4065SOL    HW213095   0.965   4.404   5.798
 4066SOL     OW13096   4.731   5.398   1.152
 4066SOL    HW113097   4.738   5.355   1.242
 4066SOL    HW213098   4.645   5.448   1.145
 4067SOL     OW13099   5.559   0.700   1.304
 4067SOL    HW113100   5.630   0.768   1.320
 4067SOL    HW213101   5.596   0.625   1.249
 4068SOL     OW13102   5.439   1.205   4.759
 4068SOL    HW113103   5.401   1.144   4.689
 4068SOL    HW213104   5.522   1.248   4.725
 4069SOL     OW13105   6.398   6.226   0.959
 4069SOL    HW113106   6.313   6.247   0.910
 4069SOL    HW213107   6.400   6.277   1.045
 4070SOL     OW13108   6.471   3.507   2.937
 4070SOL    HW113109   6.539   3.440   2.968
 4070SOL    HW213110   6.479   3.519   2.838
 4071SOL     OW13111   2.522   0.583   4.274
 4071SOL    HW113112   2.609   0.537   4.294
 4071SOL    HW213113   2.474   0.603   4.360
 4072SOL     OW13114   0.695   0.041   4.233
 4072SOL    HW113115   0.725   6.972   4.234
 4072SOL    HW213116   0.749   0.093   4.300
 4073SOL     OW13117   2.364   5.103   2.460
 4073SOL    HW113118   2.273   5.068   2.438
 4073SOL    HW213119   2.430   5.028   2.456
 4074SOL     OW13120   0.113   3.138   0.755
 4074SOL    HW113121   0.078   3.226   0.787
 4074SOL    HW213122   0.171   3.151   0.675
 4075SOL     OW13123   5.599   6.927   3.872
 4075SOL    HW113124   5.618   6.934   3.774
 4075SOL    HW213125   5.641   7.005   3.920
 4076SOL     OW13126   1.798   2.711   3.030
 4076SOL    HW113127   1.870   2.752   2.974
 4076SOL    HW213128   1.839   2.674   3.114
 4077SOL     OW13129   3.997   1.056   0.833
 4077SOL    HW113130   4.013   1.050   0.931
 4077SOL    HW213131   3.916   1.112   0.815
 4078SOL     OW13132   4.641   4.658   2.899
 4078SOL    HW113133   4.586   4.668   2.982
 4078SOL    HW213134   4.738   4.659   2.922
 4079SOL     OW13135   5.042   0.711   3.953
 4079SOL    HW113136   5.123   0.676   3.906
 4079SOL    HW213137   5.068   0.748   4.042
 4080SOL     OW13138   3.067   4.007   4.060
 4080SOL    HW113139   3.004   4.085   4.071
 4080SOL    HW213140   3.068   3.953   4.144
 4081SOL     OW13141   2.388   1.405   0.015
 4081SOL    HW113142   2.404   1.310   0.039
 4081SOL    HW213143   2.295   1.415   7.006
 4082SOL     OW13144   1.124   1.392   6.236
 4082SOL    HW113145   1.061   1.314   6.239
 4082SOL    HW213146   1.073   1.477   6.248
 4083SOL     OW13147   6.208   5.061   2.188
 4083SOL    HW113148   6.211   4.973   2.140
 4083SOL    HW213149   6.157   5.051   2.274
 4084SOL     OW13150   4.560   6.636   2.053
 4084SOL    HW113151   4.551   6.582   2.136
 4084SOL    HW213152   4.492   6.605   1.986
 4085SOL     OW13153   2.408   4.512   2.529
 4085SOL    HW113154   2.317   4.497   2.490
 4085SOL    HW213155   2.467   4.555   2.460
 4086SOL     OW13156   5.760   5.230   4.814
 4086SOL    HW113157   5.699   5.259   4.888
 4086SOL    HW213158   5.846   5.198   4.852
 4087SOL     OW13159   2.106   0.829   2.479
 4087SOL    HW113160   2.025   0.850   2.423
 4087SOL    HW213161   2.090   0.859   2.573
 4088SOL     OW13162   0.202   1.519   5.668
 4088SOL    HW113163   0.279   1.538   5.729
 4088SOL    HW213164   0.226   1.445   5.605
 4089SOL     OW13165   1.398   0.443   2.719
 4089SOL    HW113166   1.350   0.502   2.654
 4089SOL    HW213167   1.483   0.487   2.748
 4090SOL     OW13168   2.963   2.641   5.536
 4090SOL    HW113169   2.909   2.715   5.576
 4090SOL    HW213170   2.925   2.617   5.447
 4091SOL     OW13171   3.496   5.749   2.217
 4091SOL    HW113172   3.485   5.710   2.126
 4091SOL    HW213173   3.451   5.689   2.284
 4092SOL     OW13174   5.285   1.819   6.186
 4092SOL    HW113175   5.374   1.837   6.229
 4092SOL    HW213176   5.292   1.835   6.088
 4093SOL     OW13177   5.465   4.028   2.177
 4093SOL    HW113178   5.491   4.058   2.269
 4093SOL    HW213179   5.370   4.055   2.159
 4094SOL     OW13180   6.812   6.977   0.064
 4094SOL    HW113181   6.857   6.955   7.004
 4094SOL    HW213182   6.731   6.918   0.075
 4095SOL     OW13183   1.738   5.084   1.051
 4095SOL    HW113184   1.653   5.037   1.028
 4095SOL    HW213185   1.807   5.017   1.079
 4096SOL     OW13186   0.507   0.285   6.415
 4096SOL    HW113187   0.491   0.208   6.475
 4096SOL    HW213188   0.424   0.305   6.362
 4097SOL     OW13189   1.211   3.877   5.365
 4097SOL    HW113190   1.292   3.936   5.370
 4097SOL    HW213191   1.154   3.893   5.446
 4098SOL     OW13192   1.544   5.809   2.013
 4098SOL    HW113193   1.565   5.853   2.101
 4098SOL    HW213194   1.572   5.870   1.939
 4099SOL     OW13195   0.017   3.254   5.640
 4099SOL    HW113196   0.026   3.164   5.684
 4099SOL    HW213197   7.011   3.242   5.546
 4100SOL     OW13198   2.271   0.418   3.098
 4100SOL    HW113199   2.173   0.439   3.100
 4100SOL    HW213200   2.296   0.368   3.181
 4101SOL     OW13201   6.255   6.232   6.063
 4101SOL    HW113202   6.253   6.263   5.968
 4101SOL    HW213203   6.270   6.310   6.124
 4102SOL     OW13204   1.958   5.341   0.478
 4102SOL    HW113205   1.987   5.434   0.501
 4102SOL    HW213206   1.969   5.282   0.558
 4103SOL     OW13207   2.271   5.045   3.205
 4103SOL    HW113208   2.297   5.077   3.114
 4103SOL    HW213209   2.308   5.106   3.275
 4104SOL     OW13210   1.575   5.978   5.532
 4104SOL    HW113211   1.481   5.973   5.498
 4104SOL    HW213212   1.575   5.975   5.632
 4105SOL     OW13213   3.592   6.812   1.804
 4105SOL    HW113214   3.512   6.871   1.814
 4105SOL    HW213215   3.669   6.865   1.768
 4106SOL     OW13216   1.437   0.063   3.026
 4106SOL    HW113217   1.422   0.131   3.099
 4106SOL    HW213218   1.528   0.077   2.986
 4107SOL     OW13219   1.868   1.923   1.094
 4107SOL    HW113220   1.855   1.911   0.996
 4107SOL    HW213221   1.792   1.880   1.143
 4108SOL     OW13222   0.368   6.657   5.280
 4108SOL    HW113223   0.328   6.592   5.215
 4108SOL    HW213224   0.347   6.627   5.373
 4109SOL     OW13225   4.991   6.797   4.873
 4109SOL    HW113226   4.987   6.848   4.788
 4109SOL    HW213227   5.082   6.809   4.914
 4110SOL     OW13228   3.958   3.005   0.806
 4110SOL    HW113229   3.929   2.986   0.900
 4110SOL    HW213230   4.056   3.022   0.803
 4111SOL     OW13231   5.734   4.813   3.505
 4111SOL    HW113232   5.658   4.804   3.569
 4111SOL    HW213233   5.820   4.814   3.556
 4112SOL     OW13234   4.467   5.737   5.115
 4112SOL    HW113235   4.385   5.741   5.172
 4112SOL    HW213236   4.547   5.762   5.170
 4113SOL     OW13237   4.714   5.443   5.365
 4113SOL    HW113238   4.744   5.438   5.269
 4113SOL    HW213239   4.789   5.478   5.421
 4114SOL     OW13240   6.885   1.158   2.816
 4114SOL    HW113241   6.973   1.114   2.798
 4114SOL    HW213242   6.871   1.163   2.915
 4115SOL     OW13243   3.875   6.260   4.317
 4115SOL    HW113244   3.954   6.244   4.376
 4115SOL    HW213245   3.902   6.251   4.221
 4116SOL     OW13246   6.498   3.571   3.887
 4116SOL    HW113247   6.443   3.510   3.945
 4116SOL    HW213248   6.562   3.517   3.832
 4117SOL     OW13249   0.152   1.863   2.697
 4117SOL    HW113250   0.228   1.903   2.748
 4117SOL    HW213251   0.181   1.840   2.605
 4118SOL     OW13252   1.285   0.300   1.829
 4118SOL    HW113253   1.231   0.226   1.869
 4118SOL    HW213254   1.316   0.273   1.738
 4119SOL     OW13255   0.020   0.768   5.397
 4119SOL    HW113256   0.087   0.726   5.335
 4119SOL    HW213257   0.068   0.808   5.475
 4120SOL     OW13258   1.620   0.791   6.063
 4120SOL    HW113259   1.538   0.767   6.010
 4120SOL    HW213260   1.677   0.853   6.009
 4121SOL     OW13261   6.621   1.093   1.435
 4121SOL    HW113262   6.598   0.998   1.454
 4121SOL    HW213263   6.667   1.132   1.515
 4122SOL     OW13264   0.592   4.802   3.810
 4122SOL    HW113265   0.545   4.754   3.736
 4122SOL    HW213266   0.539   4.883   3.835
 4123SOL     OW13267   5.783   4.520   1.478
 4123SOL    HW113268   5.813   4.446   1.537
 4123SOL    HW213269   5.801   4.495   1.382
 4124SOL     OW13270   6.182   6.997   0.030
 4124SOL    HW113271   6.210   7.026   0.122
 4124SOL    HW213272   6.263   6.986   6.999
 4125SOL     OW13273   6.934   2.375   6.652
 4125SOL    HW113274   6.843   2.335   6.659
 4125SOL    HW213275   6.941   2.453   6.714
 4126SOL     OW13276   1.573   4.249   4.178
 4126SOL    HW113277   1.490   4.242   4.232
 4126SOL    HW213278   1.555   4.216   4.085
 4127SOL     OW13279   4.828   2.429   3.929
 4127SOL    HW113280   4.882   2.354   3.891
 4127SOL    HW213281   4.736   2.427   3.891
 4128SOL     OW13282   6.496   2.049   6.436
 4128SOL    HW113283   6.577   1.989   6.438
 4128SOL    HW213284   6.519   2.135   6.391
 4129SOL     OW13285   3.485   0.672   1.759
 4129SOL    HW113286   3.436   0.730   1.695
 4129SOL    HW213287   3.576   0.652   1.723
 4130SOL     OW13288   4.975   2.612   0.295
 4130SOL    HW113289   5.050   2.647   0.351
 4130SOL    HW213290   4.919   2.549   0.349
 4131SOL     OW13291   4.927   5.886   3.556
 4131SOL    HW113292   4.955   5.850   3.645
 4131SOL    HW213293   4.999   5.868   3.489
 4132SOL     OW13294   6.494   4.042   3.208
 4132SOL    HW113295   6.568   3.990   3.251
 4132SOL    HW213296   6.500   4.138   3.237
 4133SOL     OW13297   5.320   6.352   3.545
 4133SOL    HW113298   5.272   6.415   3.485
 4133SOL    HW213299   5.418   6.373   3.544
 4134SOL     OW13300   1.073   3.308   1.246
 4134SOL    HW113301   1.102   3.343   1.157
 4134SOL    HW213302   0.973   3.305   1.250
 4135SOL     OW13303   6.179   1.565   1.183
 4135SOL    HW113304   6.123   1.483   1.174
 4135SOL    HW213305   6.182   1.593   1.279
 4136SOL     OW13306   0.697   5.149   0.324
 4136SOL    HW113307   0.684   5.154   0.225
 4136SOL    HW213308   0.789   5.115   0.345
 4137SOL     OW13309   0.124   2.626   5.887
 4137SOL    HW113310   0.040   2.680   5.875
 4137SOL    HW213311   0.197   2.685   5.922
 4138SOL     OW13312   5.353   6.770   6.172
 4138SOL    HW113313   5.449   6.787   6.196
 4138SOL    HW213314   5.348   6.692   6.110
 4139SOL     OW13315   1.572   4.347   2.341
 4139SOL    HW113316   1.635   4.301   2.403
 4139SOL    HW213317   1.495   4.384   2.393
 4140SOL     OW13318   2.295   0.037   6.980
 4140SOL    HW113319   2.367   6.995   6.994
 4140SOL    HW213320   2.207   0.001   7.011
 4141SOL     OW13321   4.961   0.398   5.819
 4141SOL    HW113322   4.923   0.348   5.897
 4141SOL    HW213323   5.007   0.481   5.852
 4142SOL     OW13324   0.251   6.796   1.648
 4142SOL    HW113325   0.287   6.722   1.591
 4142SOL    HW213326   0.154   6.810   1.628
 4143SOL     OW13327   6.552   3.578   6.689
 4143SOL    HW113328   6.634   3.526   6.662
 4143SOL    HW213329   6.479   3.514   6.713
 4144SOL     OW13330   4.445   0.457   1.737
 4144SOL    HW113331   4.402   0.500   1.657
 4144SOL    HW213332   4.441   0.520   1.814
 4145SOL     OW13333   5.420   0.624   0.940
 4145SOL    HW113334   5.371   0.599   1.024
 4145SOL    HW213335   5.498   0.563   0.927
 4146SOL     OW13336   4.137   6.855   2.623
 4146SOL    HW113337   4.139   6.952   2.645
 4146SOL    HW213338   4.083   6.840   2.540
 4147SOL     OW13339   4.567   4.378   6.582
 4147SOL    HW113340   4.536   4.453   6.641
 4147SOL    HW213341   4.644   4.409   6.526
 4148SOL     OW13342   3.009   1.249   5.963
 4148SOL    HW113343   2.939   1.234   6.033
 4148SOL    HW213344   3.096   1.271   6.007
 4149SOL     OW13345   1.736   3.189   0.003
 4149SOL    HW113346   1.774   3.250   0.072
 4149SOL    HW213347   1.748   3.094   0.032
 4150SOL     OW13348   6.207   1.392   0.951
 4150SOL    HW113349   6.209   1.492   0.964
 4150SOL    HW213350   6.258   1.348   1.025
 4151SOL     OW13351   3.007   5.757   4.955
 4151SOL    HW113352   2.959   5.675   4.986
 4151SOL    HW213353   3.084   5.775   5.017
 4152SOL     OW13354   2.846   4.253   1.332
 4152SOL    HW113355   2.907   4.177   1.354
 4152SOL    HW213356   2.751   4.222   1.340
 4153SOL     OW13357   6.782   6.028   1.146
 4153SOL    HW113358   6.719   6.034   1.223
 4153SOL    HW213359   6.863   6.083   1.165
 4154SOL     OW13360   0.378   6.298   4.612
 4154SOL    HW113361   0.461   6.299   4.668
 4154SOL    HW213362   0.402   6.277   4.517
 4155SOL     OW13363   5.847   1.263   1.741
 4155SOL    HW113364   5.790   1.195   1.786
 4155SOL    HW213365   5.907   1.307   1.808
 4156SOL     OW13366   0.700   4.800   5.628
 4156SOL    HW113367   0.759   4.769   5.703
 4156SOL    HW213368   0.689   4.899   5.632
 4157SOL     OW13369   5.329   6.302   0.929
 4157SOL    HW113370   5.237   6.334   0.953
 4157SOL    HW213371   5.375   6.269   1.012
 4158SOL     OW13372   6.432   2.337   0.428
 4158SOL    HW113373   6.431   2.361   0.525
 4158SOL    HW213374   6.463   2.243   0.417
 4159SOL     OW13375   3.168   0.239   4.719
 4159SOL    HW113376   3.134   0.201   4.632
 4159SOL    HW213377   3.245   0.300   4.700
 4160SOL     OW13378   1.825   0.030   5.468
 4160SOL    HW113379   1.857   0.124   5.457
 4160SOL    HW213380   1.887   6.994   5.421
 4161SOL     OW13381   3.167   2.984   3.934
 4161SOL    HW113382   3.116   3.018   4.012
 4161SOL    HW213383   3.249   2.937   3.966
 4162SOL     OW13384   5.335   5.997   1.514
 4162SOL    HW113385   5.356   6.093   1.496
 4162SOL    HW213386   5.365   5.942   1.436
 4163SOL     OW13387   3.548   5.506   1.305
 4163SOL    HW113388   3.486   5.468   1.236
 4163SOL    HW213389   3.536   5.456   1.391
 4164SOL     OW13390   5.518   1.750   6.805
 4164SOL    HW113391   5.607   1.790   6.827
 4164SOL    HW213392   5.446   1.814   6.835
 4165SOL     OW13393   3.727   1.879   3.886
 4165SOL    HW113394   3.755   1.911   3.795
 4165SOL    HW213395   3.803   1.893   3.950
 4166SOL     OW13396   6.013   2.301   2.322
 4166SOL    HW113397   6.051   2.327   2.411
 4166SOL    HW213398   5.933   2.358   2.302
 4167SOL     OW13399   4.091   6.188   4.784
 4167SOL    HW113400   4.095   6.272   4.837
 4167SOL    HW213401   4.140   6.116   4.832
 4168SOL     OW13402   5.061   3.790   6.364
 4168SOL    HW113403   4.999   3.859   6.326
 4168SOL    HW213404   5.089   3.728   6.291
 4169SOL     OW13405   5.191   3.810   6.598
 4169SOL    HW113406   5.233   3.721   6.618
 4169SOL    HW213407   5.128   3.799   6.521
 4170SOL     OW13408   1.387   3.555   5.070
 4170SOL    HW113409   1.468   3.529   5.018
 4170SOL    HW213410   1.305   3.537   5.015
 4171SOL     OW13411   0.537   0.991   6.309
 4171SOL    HW113412   0.561   0.958   6.218
 4171SOL    HW213413   0.536   0.913   6.373
 4172SOL     OW13414   2.768   2.795   6.556
 4172SOL    HW113415   2.735   2.701   6.563
 4172SOL    HW213416   2.853   2.804   6.609
 4173SOL     OW13417   5.400   0.973   4.919
 4173SOL    HW113418   5.405   1.009   5.013
 4173SOL    HW213419   5.389   1.049   4.855
 4174SOL     OW13420   3.209   6.834   3.888
 4174SOL    HW113421   3.238   6.741   3.914
 4174SOL    HW213422   3.243   6.855   3.797
 4175SOL     OW13423   1.022   4.692   6.749
 4175SOL    HW113424   0.950   4.724   6.810
 4175SOL    HW213425   1.093   4.645   6.802
 4176SOL     OW13426   4.538   0.464   5.047
 4176SOL    HW113427   4.494   0.378   5.072
 4176SOL    HW213428   4.468   0.533   5.027
 4177SOL     OW13429   4.125   5.484   3.439
 4177SOL    HW113430   4.207   5.426   3.435
 4177SOL    HW213431   4.051   5.434   3.484
 4178SOL     OW13432   3.907   6.336   1.211
 4178SOL    HW113433   3.814   6.368   1.231
 4178SOL    HW213434   3.956   6.406   1.160
 4179SOL     OW13435   4.361   2.297   6.508
 4179SOL    HW113436   4.335   2.265   6.599
 4179SOL    HW213437   4.389   2.392   6.513
 4180SOL     OW13438   3.576   4.177   6.861
 4180SOL    HW113439   3.621   4.208   6.944
 4180SOL    HW213440   3.637   4.115   6.811
 4181SOL     OW13441   5.596   6.297   5.601
 4181SOL    HW113442   5.646   6.337   5.678
 4181SOL    HW213443   5.505   6.270   5.631
 4182SOL     OW13444   0.109   5.665   5.426
 4182SOL    HW113445   0.183   5.663   5.494
 4182SOL    HW213446   0.147   5.685   5.336
 4183SOL     OW13447   5.188   2.315   0.353
 4183SOL    HW113448   5.207   2.232   0.299
 4183SOL    HW213449   5.089   2.321   0.371
 4184SOL     OW13450   2.941   5.416   3.301
 4184SOL    HW113451   2.926   5.377   3.210
 4184SOL    HW213452   3.015   5.483   3.297
 4185SOL     OW13453   4.690   4.190   3.280
 4185SOL    HW113454   4.730   4.127   3.213
 4185SOL    HW213455   4.672   4.278   3.236
 4186SOL     OW13456   1.824   5.060   6.962
 4186SOL    HW113457   1.906   5.011   6.994
 4186SOL    HW213458   1.764   4.995   6.915
 4187SOL     OW13459   2.589   4.203   6.321
 4187SOL    HW113460   2.526   4.212   6.399
 4187SOL    HW213461   2.562   4.266   6.248
 4188SOL     OW13462   5.234   0.608   6.632
 4188SOL    HW113463   5.267   0.605   6.537
 4188SOL    HW213464   5.311   0.629   6.693
 4189SOL     OW13465   4.995   5.260   2.889
 4189SOL    HW113466   4.905   5.293   2.862
 4189SOL    HW213467   5.065   5.300   2.829
 4190SOL     OW13468   6.579   6.738   2.231
 4190SOL    HW113469   6.670   6.703   2.253
 4190SOL    HW213470   6.588   6.817   2.169
 4191SOL     OW13471   4.476   2.560   6.515
 4191SOL    HW113472   4.450   2.644   6.467
 4191SOL    HW213473   4.501   2.581   6.609
 4192SOL     OW13474   1.928   3.812   6.192
 4192SOL    HW113475   1.960   3.725   6.155
 4192SOL    HW213476   1.883   3.797   6.280
 4193SOL     OW13477   6.568   0.341   0.873
 4193SOL    HW113478   6.472   0.318   0.854
 4193SOL    HW213479   6.611   0.265   0.922
 4194SOL     OW13480   5.686   0.542   6.553
 4194SOL    HW113481   5.597   0.498   6.553
 4194SOL    HW213482   5.719   0.552   6.459
 4195SOL     OW13483   2.347   6.501   0.946
 4195SOL    HW113484   2.401   6.537   1.023
 4195SOL    HW213485   2.303   6.577   0.898
 4196SOL     OW13486   0.132   2.706   3.642
 4196SOL    HW113487   0.190   2.663   3.573
 4196SOL    HW213488   0.098   2.636   3.704
 4197SOL     OW13489   3.818   0.691   0.062
 4197SOL    HW113490   3.768   0.655   0.141
 4197SOL    HW213491   3.913   0.709   0.086
 4198SOL     OW13492   6.976   2.528   1.984
 4198SOL    HW113493   0.001   2.552   1.902
 4198SOL    HW213494   7.022   2.455   2.033
 4199SOL     OW13495   0.834   3.889   6.868
 4199SOL    HW113496   0.817   3.904   6.771
 4199SOL    HW213497   0.928   3.859   6.882
 4200SOL     OW13498   5.252   1.958   3.582
 4200SOL    HW113499   5.239   1.957   3.483
 4200SOL    HW213500   5.195   2.029   3.622
 4201SOL     OW13501   5.581   0.151   4.425
 4201SOL    HW113502   5.613   0.098   4.504
 4201SOL    HW213503   5.507   0.212   4.455
 4202SOL     OW13504   4.420   4.008   1.630
 4202SOL    HW113505   4.418   4.068   1.710
 4202SOL    HW213506   4.329   3.968   1.616
 4203SOL     OW13507   6.183   4.012   5.354
 4203SOL    HW113508   6.108   4.024   5.419
 4203SOL    HW213509   6.159   4.056   5.268
 4204SOL     OW13510   1.875   4.109   6.432
 4204SOL    HW113511   1.931   4.026   6.431
 4204SOL    HW213512   1.932   4.188   6.457
 4205SOL     OW13513   5.364   6.038   5.809
 4205SOL    HW113514   5.340   6.022   5.905
 4205SOL    HW213515   5.464   6.040   5.800
 4206SOL     OW13516   2.730   2.172   4.433
 4206SOL    HW113517   2.760   2.082   4.464
 4206SOL    HW213518   2.770   2.192   4.343
 4207SOL     OW13519   1.777   2.714   1.615
 4207SOL    HW113520   1.816   2.756   1.696
 4207SOL    HW213521   1.710   2.645   1.642
 4208SOL     OW13522   2.814   2.262   3.555
 4208SOL    HW113523   2.903   2.228   3.584
 4208SOL    HW213524   2.780   2.327   3.623
 4209SOL     OW13525   6.466   5.503   2.728
 4209SOL    HW113526   6.482   5.592   2.685
 4209SOL    HW213527   6.374   5.471   2.707
 4210SOL     OW13528   3.139   4.525   5.544
 4210SOL    HW113529   3.160   4.571   5.458
 4210SOL    HW213530   3.051   4.557   5.579
 4211SOL     OW13531   4.421   2.707   5.536
 4211SOL    HW113532   4.406   2.647   5.457
 4211SOL    HW213533   4.374   2.669   5.616
 4212SOL     OW13534   0.944   2.654   3.014
 4212SOL    HW113535   1.002   2.647   3.095
 4212SOL    HW213536   0.848   2.646   3.042
 4213SOL     OW13537   3.786   0.707   3.616
 4213SOL    HW113538   3.729   0.726   3.536
 4213SOL    HW213539   3.729   0.668   3.688
 4214SOL     OW13540   6.792   6.198   3.805
 4214SOL    HW113541   6.798   6.135   3.882
 4214SOL    HW213542   6.746   6.153   3.729
 4215SOL     OW13543   6.258   0.257   5.288
 4215SOL    HW113544   6.214   0.184   5.237
 4215SOL    HW213545   6.243   0.242   5.386
 4216SOL     OW13546   2.797   5.525   2.273
 4216SOL    HW113547   2.822   5.525   2.176
 4216SOL    HW213548   2.750   5.611   2.295
 4217SOL     OW13549   1.084   0.684   2.978
 4217SOL    HW113550   1.140   0.606   2.950
 4217SOL    HW213551   1.141   0.753   3.022
 4218SOL     OW13552   3.293   1.028   1.884
 4218SOL    HW113553   3.248   0.992   1.966
 4218SOL    HW213554   3.227   1.079   1.830
 4219SOL     OW13555   3.188   5.228   3.102
 4219SOL    HW113556   3.145   5.204   3.015
 4219SOL    HW213557   3.131   5.196   3.177
 4220SOL     OW13558   6.025   2.366   1.389
 4220SOL    HW113559   6.123   2.386   1.389
 4220SOL    HW213560   6.007   2.288   1.450
 4221SOL     OW13561   0.672   6.479   0.432
 4221SOL    HW113562   0.701   6.383   0.438
 4221SOL    HW213563   0.587   6.485   0.380
 4222SOL     OW13564   4.961   3.484   4.653
 4222SOL    HW113565   4.891   3.551   4.678
 4222SOL    HW213566   4.950   3.459   4.556
 4223SOL     OW13567   3.367   4.094   2.673
 4223SOL    HW113568   3.291   4.084   2.738
 4223SOL    HW213569   3.333   4.134   2.588
 4224SOL     OW13570   4.875   4.469   4.857
 4224SOL    HW113571   4.876   4.410   4.938
 4224SOL    HW213572   4.905   4.561   4.882
 4225SOL     OW13573   0.680   1.721   6.282
 4225SOL    HW113574   0.678   1.634   6.233
 4225SOL    HW213575   0.587   1.756   6.291
 4226SOL     OW13576   6.047   4.713   4.587
 4226SOL    HW113577   6.141   4.706   4.554
 4226SOL    HW213578   6.036   4.798   4.639
 4227SOL     OW13579   5.309   5.285   1.137
 4227SOL    HW113580   5.227   5.266   1.192
 4227SOL    HW213581   5.320   5.384   1.128
 4228SOL     OW13582   1.672   4.399   3.467
 4228SOL    HW113583   1.748   4.367   3.523
 4228SOL    HW213584   1.656   4.335   3.391
 4229SOL     OW13585   6.450   6.152   5.534
 4229SOL    HW113586   6.416   6.194   5.450
 4229SOL    HW213587   6.503   6.070   5.512
 4230SOL     OW13588   0.265   1.002   1.895
 4230SOL    HW113589   0.197   1.073   1.911
 4230SOL    HW213590   0.320   1.027   1.815
 4231SOL     OW13591   0.572   0.505   6.610
 4231SOL    HW113592   0.523   0.445   6.547
 4231SOL    HW213593   0.656   0.462   6.640
 4232SOL     OW13594   1.640   4.685   3.788
 4232SOL    HW113595   1.732   4.722   3.773
 4232SOL    HW213596   1.639   4.630   3.872
 4233SOL     OW13597   4.483   5.006   2.123
 4233SOL    HW113598   4.443   5.090   2.088
 4233SOL    HW213599   4.523   5.023   2.213
 4234SOL     OW13600   3.546   5.511   6.024
 4234SOL    HW113601   3.458   5.492   5.981
 4234SOL    HW213602   3.583   5.597   5.988
 4235SOL     OW13603   7.007   6.296   6.610
 4235SOL    HW113604   0.079   6.282   6.616
 4235SOL    HW213605   6.981   6.308   6.514
 4236SOL     OW13606   0.623   5.202   2.991
 4236SOL    HW113607   0.607   5.157   3.079
 4236SOL    HW213608   0.721   5.203   2.970
 4237SOL     OW13609   6.675   4.534   3.888
 4237SOL    HW113610   6.595   4.587   3.860
 4237SOL    HW213611   6.756   4.594   3.888
 4238SOL     OW13612   3.078   5.899   2.845
 4238SOL    HW113613   3.015   5.821   2.847
 4238SOL    HW213614   3.031   5.979   2.807
 4239SOL     OW13615   3.898   1.225   3.297
 4239SOL    HW113616   3.845   1.144   3.272
 4239SOL    HW213617   3.890   1.241   3.395
 4240SOL     OW13618   5.739   6.886   2.500
 4240SOL    HW113619   5.742   6.902   2.599
 4240SOL    HW213620   5.806   6.816   2.476
 4241SOL     OW13621   6.407   4.705   0.370
 4241SOL    HW113622   6.361   4.617   0.359
 4241SOL    HW213623   6.506   4.690   0.380
 4242SOL     OW13624   3.449   2.130   3.166
 4242SOL    HW113625   3.356   2.161   3.149
 4242SOL    HW213626   3.512   2.173   3.101
 4243SOL     OW13627   3.661   2.143   2.939
 4243SOL    HW113628   3.749   2.158   2.985
 4243SOL    HW213629   3.673   2.148   2.840
 4244SOL     OW13630   3.081   3.114   4.913
 4244SOL    HW113631   3.023   3.195   4.908
 4244SOL    HW213632   3.103   3.084   4.820
 4245SOL     OW13633   6.594   0.629   6.374
 4245SOL    HW113634   6.591   0.609   6.276
 4245SOL    HW213635   6.513   0.681   6.400
 4246SOL     OW13636   0.135   4.569   6.186
 4246SOL    HW113637   0.229   4.583   6.154
 4246SOL    HW213638   0.088   4.504   6.126
 4247SOL     OW13639   0.101   5.581   5.063
 4247SOL    HW113640   0.116   5.603   4.966
 4247SOL    HW213641   0.127   5.659   5.119
 4248SOL     OW13642   2.338   3.365   6.426
 4248SOL    HW113643   2.425   3.369   6.476
 4248SOL    HW213644   2.282   3.291   6.464
 4249SOL     OW13645   5.519   3.490   6.199
 4249SOL    HW113646   5.500   3.416   6.135
 4249SOL    HW213647   5.609   3.477   6.240
 4250SOL     OW13648   6.861   4.045   3.954
 4250SOL    HW113649   6.918   4.073   4.031
 4250SOL    HW213650   6.815   3.959   3.976
 4251SOL     OW13651   5.830   4.859   6.339
 4251SOL    HW113652   5.757   4.920   6.369
 4251SOL    HW213653   5.907   4.864   6.403
 4252SOL     OW13654   6.522   5.072   4.919
 4252SOL    HW113655   6.577   5.151   4.944
 4252SOL    HW213656   6.575   5.012   4.859
 4253SOL     OW13657   3.399   6.197   3.127
 4253SOL    HW113658   3.446   6.109   3.122
 4253SOL    HW213659   3.348   6.212   3.043
 4254SOL     OW13660   2.911   3.510   1.883
 4254SOL    HW113661   2.825   3.545   1.845
 4254SOL    HW213662   2.974   3.587   1.899
 4255SOL     OW13663   0.625   2.205   4.298
 4255SOL    HW113664   0.559   2.273   4.265
 4255SOL    HW213665   0.626   2.206   4.398
 4256SOL     OW13666   2.034   1.212   2.025
 4256SOL    HW113667   1.961   1.250   2.082
 4256SOL    HW213668   2.106   1.174   2.084
 4257SOL     OW13669   4.135   2.162   5.395
 4257SOL    HW113670   4.225   2.179   5.436
 4257SOL    HW213671   4.134   2.071   5.354
 4258SOL     OW13672   5.229   6.202   2.578
 4258SOL    HW113673   5.171   6.126   2.605
 4258SOL    HW213674   5.226   6.212   2.478
 4259SOL     OW13675   2.385   3.434   1.439
 4259SOL    HW113676   2.441   3.426   1.357
 4259SOL    HW213677   2.313   3.501   1.424
 4260SOL     OW13678   3.717   5.772   4.620
 4260SOL    HW113679   3.680   5.856   4.661
 4260SOL    HW213680   3.692   5.768   4.523
 4261SOL     OW13681   0.879   1.294   2.857
 4261SOL    HW113682   0.866   1.196   2.870
 4261SOL    HW213683   0.950   1.327   2.920
 4262SOL     OW13684   0.760   6.254   6.034
 4262SOL    HW113685   0.831   6.294   6.091
 4262SOL    HW213686   0.795   6.171   5.991
 4263SOL     OW13687   4.237   5.172   6.683
 4263SOL    HW113688   4.183   5.174   6.766
 4263SOL    HW213689   4.251   5.265   6.650
 4264SOL     OW13690   0.764   0.249   1.614
 4264SOL    HW113691   0.673   0.278   1.646
 4264SOL    HW213692   0.792   0.304   1.536
 4265SOL     OW13693   1.675   1.583   0.586
 4265SOL    HW113694   1.635   1.569   0.495
 4265SOL    HW213695   1.765   1.540   0.591
 4266SOL     OW13696   3.612   4.660   0.904
 4266SOL    HW113697   3.609   4.704   0.813
 4266SOL    HW213698   3.533   4.689   0.957
 4267SOL     OW13699   1.427   4.256   5.588
 4267SOL    HW113700   1.511   4.209   5.613
 4267SOL    HW213701   1.444   4.354   5.579
 4268SOL     OW13702   1.692   0.982   1.728
 4268SOL    HW113703   1.754   0.976   1.650
 4268SOL    HW213704   1.745   0.983   1.813
 4269SOL     OW13705   2.698   3.973   0.847
 4269SOL    HW113706   2.603   4.005   0.851
 4269SOL    HW213707   2.701   3.886   0.799
 4270SOL     OW13708   3.765   2.780   6.526
 4270SOL    HW113709   3.785   2.860   6.469
 4270SOL    HW213710   3.767   2.807   6.623
 4271SOL     OW13711   1.575   1.193   1.000
 4271SOL    HW113712   1.650   1.251   0.968
 4271SOL    HW213713   1.583   1.181   1.099
 4272SOL     OW13714   0.096   3.975   4.110
 4272SOL    HW113715   0.047   3.888   4.119
 4272SOL    HW213716   0.169   3.964   4.043
 4273SOL     OW13717   5.965   6.912   4.078
 4273SOL    HW113718   6.035   6.953   4.019
 4273SOL    HW213719   5.936   6.825   4.039
 4274SOL     OW13720   2.304   0.203   3.783
 4274SOL    HW113721   2.265   0.201   3.875
 4274SOL    HW213722   2.404   0.202   3.790
 4275SOL     OW13723   0.677   0.248   5.451
 4275SOL    HW113724   0.769   0.209   5.447
 4275SOL    HW213725   0.681   0.340   5.489
 4276SOL     OW13726   1.886   4.483   2.320
 4276SOL    HW113727   1.842   4.435   2.244
 4276SOL    HW213728   1.881   4.581   2.305
 4277SOL     OW13729   0.571   5.540   5.879
 4277SOL    HW113730   0.579   5.448   5.840
 4277SOL    HW213731   0.659   5.586   5.873
 4278SOL     OW13732   1.528   6.292   6.235
 4278SOL    HW113733   1.522   6.392   6.224
 4278SOL    HW213734   1.545   6.270   6.331
 4279SOL     OW13735   2.873   5.917   3.830
 4279SOL    HW113736   2.926   5.894   3.912
 4279SOL    HW213737   2.782   5.876   3.837
 4280SOL     OW13738   4.911   2.665   3.517
 4280SOL    HW113739   4.993   2.669   3.459
 4280SOL    HW213740   4.930   2.710   3.604
 4281SOL     OW13741   2.127   4.265   5.138
 4281SOL    HW113742   2.067   4.186   5.129
 4281SOL    HW213743   2.222   4.235   5.134
 4282SOL     OW13744   0.447   2.899   0.858
 4282SOL    HW113745   0.399   2.985   0.877
 4282SOL    HW213746   0.512   2.880   0.931
 4283SOL     OW13747   2.347   0.965   4.525
 4283SOL    HW113748   2.322   1.049   4.477
 4283SOL    HW213749   2.268   0.903   4.526
 4284SOL     OW13750   0.045   1.820   3.123
 4284SOL    HW113751   0.016   1.756   3.051
 4284SOL    HW213752   7.013   1.902   3.119
 4285SOL     OW13753   1.057   5.829   4.736
 4285SOL    HW113754   0.977   5.771   4.725
 4285SOL    HW213755   1.074   5.844   4.834
 4286SOL     OW13756   4.463   5.527   6.330
 4286SOL    HW113757   4.502   5.435   6.324
 4286SOL    HW213758   4.537   5.594   6.330
 4287SOL     OW13759   4.040   5.935   5.527
 4287SOL    HW113760   4.083   5.910   5.440
 4287SOL    HW213761   4.012   5.852   5.575
 4288SOL     OW13762   1.113   5.790   3.390
 4288SOL    HW113763   1.188   5.732   3.358
 4288SOL    HW213764   1.122   5.881   3.348
 4289SOL     OW13765   0.014   3.764   0.263
 4289SOL    HW113766   0.103   3.774   0.308
 4289SOL    HW213767   7.022   3.845   0.207
 4290SOL     OW13768   2.272   1.782   3.460
 4290SOL    HW113769   2.371   1.780   3.446
 4290SOL    HW213770   2.251   1.844   3.535
 4291SOL     OW13771   7.011   4.356   1.189
 4291SOL    HW113772   6.917   4.344   1.222
 4291SOL    HW213773   7.017   4.441   1.137
 4292SOL     OW13774   5.706   5.512   5.647
 4292SOL    HW113775   5.721   5.436   5.584
 4292SOL    HW213776   5.793   5.547   5.680
 4293SOL     OW13777   0.168   2.023   6.571
 4293SOL    HW113778   0.111   1.953   6.612
 4293SOL    HW213779   0.263   1.991   6.566
 4294SOL     OW13780   4.921   1.524   6.201
 4294SOL    HW113781   4.827   1.529   6.234
 4294SOL    HW213782   4.963   1.615   6.208
 4295SOL     OW13783   3.558   5.942   5.757
 4295SOL    HW113784   3.649   5.981   5.741
 4295SOL    HW213785   3.488   6.005   5.725
 4296SOL     OW13786   2.580   1.325   2.781
 4296SOL    HW113787   2.624   1.384   2.713
 4296SOL    HW213788   2.481   1.334   2.773
 4297SOL     OW13789   5.416   0.309   0.410
 4297SOL    HW113790   5.462   0.243   0.470
 4297SOL    HW213791   5.483   0.374   0.376
 4298SOL     OW13792   2.025   5.125   1.833
 4298SOL    HW113793   2.035   5.101   1.736
 4298SOL    HW213794   2.000   5.221   1.841
 4299SOL     OW13795   1.128   4.927   5.314
 4299SOL    HW113796   1.226   4.909   5.328
 4299SOL    HW213797   1.074   4.874   5.380
 4300SOL     OW13798   6.022   6.603   5.273
 4300SOL    HW113799   6.099   6.569   5.327
 4300SOL    HW213800   6.037   6.584   5.176
 4301SOL     OW13801   3.158   0.979   0.606
 4301SOL    HW113802   3.145   0.894   0.555
 4301SOL    HW213803   3.089   0.985   0.678
 4302SOL     OW13804   0.972   0.029   6.346
 4302SOL    HW113805   0.954   0.077   6.260
 4302SOL    HW213806   1.059   0.060   6.385
 4303SOL     OW13807   6.772   4.340   1.296
 4303SOL    HW113808   6.732   4.273   1.358
 4303SOL    HW213809   6.700   4.384   1.243
 4304SOL     OW13810   3.269   3.345   5.445
 4304SOL    HW113811   3.326   3.264   5.461
 4304SOL    HW213812   3.324   3.428   5.459
 4305SOL     OW13813   6.676   1.078   5.083
 4305SOL    HW113814   6.688   1.156   5.143
 4305SOL    HW213815   6.748   1.077   5.014
 4306SOL     OW13816   6.084   5.663   5.594
 4306SOL    HW113817   6.021   5.665   5.672
 4306SOL    HW213818   6.123   5.754   5.580
 4307SOL     OW13819   5.311   3.373   0.083
 4307SOL    HW113820   5.253   3.454   0.088
 4307SOL    HW213821   5.265   3.296   0.127
 4308SOL     OW13822   3.547   6.723   5.300
 4308SOL    HW113823   3.490   6.791   5.254
 4308SOL    HW213824   3.497   6.637   5.307
 4309SOL     OW13825   1.750   0.711   1.487
 4309SOL    HW113826   1.729   0.805   1.458
 4309SOL    HW213827   1.670   0.671   1.531
 4310SOL     OW13828   1.633   0.583   2.773
 4310SOL    HW113829   1.582   0.622   2.849
 4310SOL    HW213830   1.682   0.655   2.724
 4311SOL     OW13831   1.177   5.469   4.683
 4311SOL    HW113832   1.231   5.385   4.684
 4311SOL    HW213833   1.086   5.451   4.722
 4312SOL     OW13834   1.307   5.999   1.351
 4312SOL    HW113835   1.355   5.942   1.284
 4312SOL    HW213836   1.236   6.052   1.304
 4313SOL     OW13837   5.198   1.000   1.405
 4313SOL    HW113838   5.157   0.981   1.316
 4313SOL    HW213839   5.286   0.953   1.412
 4314SOL     OW13840   5.890   3.399   1.525
 4314SOL    HW113841   5.804   3.365   1.486
 4314SOL    HW213842   5.914   3.345   1.605
 4315SOL     OW13843   2.296   1.405   2.678
 4315SOL    HW113844   2.242   1.386   2.760
 4315SOL    HW213845   2.311   1.504   2.670
 4316SOL     OW13846   0.911   1.007   2.381
 4316SOL    HW113847   0.837   0.954   2.339
 4316SOL    HW213848   0.873   1.069   2.450
 4317SOL     OW13849   4.006   0.472   3.158
 4317SOL    HW113850   3.965   0.487   3.068
 4317SOL    HW213851   3.964   0.534   3.224
 4318SOL     OW13852   6.429   2.328   5.031
 4318SOL    HW113853   6.341   2.320   4.982
 4318SOL    HW213854   6.456   2.424   5.036
 4319SOL     OW13855   2.983   2.792   6.159
 4319SOL    HW113856   2.897   2.817   6.203
 4319SOL    HW213857   3.060   2.815   6.218
 4320SOL     OW13858   0.181   5.741   3.446
 4320SOL    HW113859   0.162   5.720   3.542
 4320SOL    HW213860   0.096   5.747   3.395
 4321SOL     OW13861   0.820   0.770   4.559
 4321SOL    HW113862   0.799   0.727   4.472
 4321SOL    HW213863   0.857   0.862   4.543
 4322SOL     OW13864   5.938   1.443   1.060
 4322SOL    HW113865   5.847   1.462   1.097
 4322SOL    HW213866   5.971   1.356   1.096
 4323SOL     OW13867   0.313   1.838   3.969
 4323SOL    HW113868   0.374   1.759   3.979
 4323SOL    HW213869   0.226   1.817   4.014
 4324SOL     OW13870   5.583   2.625   5.827
 4324SOL    HW113871   5.537   2.623   5.916
 4324SOL    HW213872   5.522   2.665   5.759
 4325SOL     OW13873   1.546   2.222   6.330
 4325SOL    HW113874   1.514   2.132   6.303
 4325SOL    HW213875   1.468   2.280   6.352
 4326SOL     OW13876   6.542   2.585   5.057
 4326SOL    HW113877   6.529   2.684   5.064
 4326SOL    HW213878   6.633   2.566   5.017
 4327SOL     OW13879   5.053   0.970   2.881
 4327SOL    HW113880   5.032   1.067   2.869
 4327SOL    HW213881   5.126   0.943   2.817
 4328SOL     OW13882   5.908   5.152   0.453
 4328SOL    HW113883   5.920   5.075   0.390
 4328SOL    HW213884   5.811   5.163   0.475
 4329SOL     OW13885   5.187   1.960   0.130
 4329SOL    HW113886   5.231   1.899   0.063
 4329SOL    HW213887   5.116   1.911   0.179
 4330SOL     OW13888   1.229   0.795   6.466
 4330SOL    HW113889   1.323   0.794   6.500
 4330SOL    HW213890   1.226   0.837   6.375
 4331SOL     OW13891   5.430   2.190   6.834
 4331SOL    HW113892   5.476   2.176   6.746
 4331SOL    HW213893   5.492   2.163   6.908
 4332SOL     OW13894   5.494   3.111   1.810
 4332SOL    HW113895   5.424   3.104   1.882
 4332SOL    HW213896   5.449   3.131   1.723
 4333SOL     OW13897   6.279   1.563   5.420
 4333SOL    HW113898   6.377   1.565   5.441
 4333SOL    HW213899   6.244   1.656   5.413
 4334SOL     OW13900   4.576   0.248   1.842
 4334SOL    HW113901   4.659   0.209   1.802
 4334SOL    HW213902   4.550   0.330   1.792
 4335SOL     OW13903   3.562   4.500   5.549
 4335SOL    HW113904   3.512   4.573   5.596
 4335SOL    HW213905   3.661   4.514   5.561
 4336SOL     OW13906   0.955   6.560   5.774
 4336SOL    HW113907   0.990   6.634   5.831
 4336SOL    HW213908   0.996   6.473   5.803
 4337SOL     OW13909   0.320   5.735   0.488
 4337SOL    HW113910   0.367   5.721   0.575
 4337SOL    HW213911   0.367   5.684   0.416
 4338SOL     OW13912   5.264   6.092   3.413
 4338SOL    HW113913   5.262   6.168   3.347
 4338SOL    HW213914   5.252   6.128   3.505
 4339SOL     OW13915   6.525   1.246   6.803
 4339SOL    HW113916   6.503   1.153   6.830
 4339SOL    HW213917   6.454   1.280   6.740
 4340SOL     OW13918   4.361   3.391   1.679
 4340SOL    HW113919   4.376   3.296   1.704
 4340SOL    HW213920   4.328   3.396   1.584
 4341SOL     OW13921   0.779   3.484   0.485
 4341SOL    HW113922   0.783   3.386   0.500
 4341SOL    HW213923   0.689   3.519   0.513
 4342SOL     OW13924   0.464   2.147   3.341
 4342SOL    HW113925   0.367   2.129   3.326
 4342SOL    HW213926   0.485   2.240   3.310
 4343SOL     OW13927   2.636   1.907   1.169
 4343SOL    HW113928   2.549   1.883   1.125
 4343SOL    HW213929   2.711   1.889   1.105
 4344SOL     OW13930   1.837   3.783   2.156
 4344SOL    HW113931   1.809   3.845   2.229
 4344SOL    HW213932   1.933   3.759   2.167
 4345SOL     OW13933   2.582   1.728   6.154
 4345SOL    HW113934   2.633   1.720   6.069
 4345SOL    HW213935   2.508   1.661   6.156
 4346SOL     OW13936   6.833   3.598   1.150
 4346SOL    HW113937   6.794   3.678   1.197
 4346SOL    HW213938   6.759   3.537   1.123
 4347SOL     OW13939   5.051   5.965   2.217
 4347SOL    HW113940   5.069   5.898   2.289
 4347SOL    HW213941   4.989   5.925   2.149
 4348SOL     OW13942   1.351   3.951   0.077
 4348SOL    HW113943   1.271   3.918   0.028
 4348SOL    HW213944   1.431   3.944   0.017
 4349SOL     OW13945   6.753   0.881   1.774
 4349SOL    HW113946   6.818   0.879   1.698
 4349SOL    HW213947   6.801   0.905   1.859
 4350SOL     OW13948   4.531   0.319   2.906
 4350SOL    HW113949   4.440   0.339   2.870
 4350SOL    HW213950   4.556   0.387   2.974
 4351SOL     OW13951   3.067   0.079   6.983
 4351SOL    HW113952   3.062   0.052   0.052
 4351SOL    HW213953   3.161   0.101   6.958
 4352SOL     OW13954   6.726   1.885   2.562
 4352SOL    HW113955   6.682   1.968   2.529
 4352SOL    HW213956   6.690   1.806   2.512
 4353SOL     OW13957   2.708   5.787   1.640
 4353SOL    HW113958   2.768   5.744   1.572
 4353SOL    HW213959   2.625   5.820   1.595
 4354SOL     OW13960   2.755   0.699   1.225
 4354SOL    HW113961   2.716   0.728   1.313
 4354SOL    HW213962   2.811   0.773   1.188
 4355SOL     OW13963   4.741   0.164   0.186
 4355SOL    HW113964   4.719   0.067   0.198
 4355SOL    HW213965   4.664   0.211   0.143
 4356SOL     OW13966   3.799   4.069   0.293
 4356SOL    HW113967   3.821   4.012   0.214
 4356SOL    HW213968   3.883   4.111   0.328
 4357SOL     OW13969   5.878   0.852   0.259
 4357SOL    HW113970   5.838   0.918   0.195
 4357SOL    HW213971   5.978   0.852   0.249
 4358SOL     OW13972   6.185   0.820   1.092
 4358SOL    HW113973   6.106   0.876   1.115
 4358SOL    HW213974   6.239   0.802   1.174
 4359SOL     OW13975   5.795   3.812   4.193
 4359SOL    HW113976   5.882   3.859   4.174
 4359SOL    HW213977   5.812   3.734   4.253
 4360SOL     OW13978   2.309   3.604   0.922
 4360SOL    HW113979   2.299   3.699   0.893
 4360SOL    HW213980   2.225   3.574   0.966
 4361SOL     OW13981   5.966   2.079   2.183
 4361SOL    HW113982   5.964   2.136   2.265
 4361SOL    HW213983   5.875   2.073   2.144
 4362SOL     OW13984   5.096   3.948   2.897
 4362SOL    HW113985   5.146   3.934   2.811
 4362SOL    HW213986   5.142   4.020   2.950
 4363SOL     OW13987   5.116   0.496   6.255
 4363SOL    HW113988   5.206   0.523   6.288
 4363SOL    HW213989   5.126   0.438   6.174
 4364SOL     OW13990   3.790   3.782   4.556
 4364SOL    HW113991   3.761   3.711   4.620
 4364SOL    HW213992   3.770   3.872   4.595
 4365SOL     OW13993   4.275   1.848   0.538
 4365SOL    HW113994   4.220   1.931   0.545
 4365SOL    HW213995   4.267   1.795   0.622
 4366SOL     OW13996   5.476   5.152   0.334
 4366SOL    HW113997   5.432   5.238   0.308
 4366SOL    HW213998   5.420   5.075   0.305
 4367SOL     OW13999   6.920   0.184   0.866
 4367SOL    HW114000   6.865   0.265   0.842
 4367SOL    HW214001   6.903   0.159   0.961
 4368SOL     OW14002   4.652   4.749   2.193
 4368SOL    HW114003   4.589   4.827   2.200
 4368SOL    HW214004   4.618   4.685   2.124
 4369SOL     OW14005   3.050   5.028   1.449
 4369SOL    HW114006   3.118   5.075   1.506
 4369SOL    HW214007   2.962   5.025   1.498
 4370SOL     OW14008   5.225   4.449   2.074
 4370SOL    HW114009   5.187   4.356   2.070
 4370SOL    HW214010   5.310   4.453   2.021
 4371SOL     OW14011   1.007   1.911   2.562
 4371SOL    HW114012   0.996   1.877   2.469
 4371SOL    HW214013   0.960   1.850   2.626
 4372SOL     OW14014   4.966   0.140   3.493
 4372SOL    HW114015   4.977   0.041   3.488
 4372SOL    HW214016   5.056   0.184   3.496
 4373SOL     OW14017   6.417   1.629   6.193
 4373SOL    HW114018   6.503   1.593   6.157
 4373SOL    HW214019   6.346   1.625   6.122
 4374SOL     OW14020   3.428   1.335   0.891
 4374SOL    HW114021   3.388   1.405   0.950
 4374SOL    HW214022   3.364   1.312   0.818
 4375SOL     OW14023   3.567   5.818   4.330
 4375SOL    HW114024   3.646   5.759   4.313
 4375SOL    HW214025   3.540   5.862   4.245
 4376SOL     OW14026   0.235   1.912   4.326
 4376SOL    HW114027   0.264   1.818   4.311
 4376SOL    HW214028   0.313   1.973   4.317
 4377SOL     OW14029   6.538   5.221   6.057
 4377SOL    HW114030   6.449   5.177   6.051
 4377SOL    HW214031   6.608   5.160   6.019
 4378SOL     OW14032   3.464   1.816   3.763
 4378SOL    HW114033   3.480   1.810   3.664
 4378SOL    HW214034   3.550   1.799   3.812
 4379SOL     OW14035   3.516   2.213   6.093
 4379SOL    HW114036   3.583   2.233   6.165
 4379SOL    HW214037   3.438   2.165   6.133
 4380SOL     OW14038   0.174   2.103   3.352
 4380SOL    HW114039   0.124   2.139   3.273
 4380SOL    HW214040   0.110   2.089   3.428
 4381SOL     OW14041   1.368   5.629   7.005
 4381SOL    HW114042   1.410   5.544   6.972
 4381SOL    HW214043   1.377   5.634   0.077
 4382SOL     OW14044   0.805   5.219   4.620
 4382SOL    HW114045   0.800   5.214   4.520
 4382SOL    HW214046   0.895   5.188   4.651
 4383SOL     OW14047   6.942   4.052   0.561
 4383SOL    HW114048   6.994   4.056   0.646
 4383SOL    HW214049   6.974   3.975   0.506
 4384SOL     OW14050   5.016   6.886   3.524
 4384SOL    HW114051   4.950   6.818   3.493
 4384SOL    HW214052   5.008   6.897   3.623
 4385SOL     OW14053   4.777   1.395   5.572
 4385SOL    HW114054   4.779   1.300   5.541
 4385SOL    HW214055   4.778   1.397   5.672
 4386SOL     OW14056   1.799   3.384   4.479
 4386SOL    HW114057   1.874   3.405   4.417
 4386SOL    HW214058   1.751   3.302   4.447
 4387SOL     OW14059   5.648   1.993   0.932
 4387SOL    HW114060   5.737   1.948   0.925
 4387SOL    HW214061   5.604   1.967   1.017
 4388SOL     OW14062   5.139   3.611   0.021
 4388SOL    HW114063   5.098   3.591   6.958
 4388SOL    HW214064   5.122   3.707   0.045
 4389SOL     OW14065   1.865   1.380   0.139
 4389SOL    HW114066   1.895   1.323   0.062
 4389SOL    HW214067   1.773   1.415   0.122
 4390SOL     OW14068   0.073   1.977   0.886
 4390SOL    HW114069   0.047   1.895   0.937
 4390SOL    HW214070   7.018   2.029   0.861
 4391SOL     OW14071   0.797   5.898   0.894
 4391SOL    HW114072   0.885   5.920   0.936
 4391SOL    HW214073   0.765   5.976   0.840
 4392SOL     OW14074   1.087   2.879   6.170
 4392SOL    HW114075   1.033   2.963   6.173
 4392SOL    HW214076   1.183   2.901   6.156
 4393SOL     OW14077   6.034   0.384   1.953
 4393SOL    HW114078   6.015   0.482   1.949
 4393SOL    HW214079   5.951   0.333   1.932
 4394SOL     OW14080   0.412   0.506   2.444
 4394SOL    HW114081   0.374   0.416   2.421
 4394SOL    HW214082   0.509   0.496   2.467
 4395SOL     OW14083   1.485   4.367   2.094
 4395SOL    HW114084   1.537   4.396   2.013
 4395SOL    HW214085   1.545   4.371   2.174
 4396SOL     OW14086   3.347   0.837   2.566
 4396SOL    HW114087   3.379   0.925   2.599
 4396SOL    HW214088   3.425   0.781   2.537
 4397SOL     OW14089   3.288   1.345   5.003
 4397SOL    HW114090   3.290   1.392   4.915
 4397SOL    HW214091   3.199   1.360   5.046
 4398SOL     OW14092   2.271   3.529   5.472
 4398SOL    HW114093   2.319   3.607   5.432
 4398SOL    HW214094   2.275   3.451   5.409
 4399SOL     OW14095   2.761   6.900   1.696
 4399SOL    HW114096   2.799   6.988   1.666
 4399SOL    HW214097   2.772   6.891   1.795
 4400SOL     OW14098   1.843   6.180   5.166
 4400SOL    HW114099   1.759   6.197   5.218
 4400SOL    HW214100   1.829   6.102   5.104
 4401SOL     OW14101   2.580   0.037   6.390
 4401SOL    HW114102   2.625   6.993   6.334
 4401SOL    HW214103   2.637   0.058   6.469
 4402SOL     OW14104   1.920   0.873   2.947
 4402SOL    HW114105   1.937   0.960   2.995
 4402SOL    HW214106   1.936   0.797   3.010
 4403SOL     OW14107   0.175   5.694   2.452
 4403SOL    HW114108   0.155   5.778   2.503
 4403SOL    HW214109   0.262   5.657   2.482
 4404SOL     OW14110   0.741   6.819   6.151
 4404SOL    HW114111   0.697   6.844   6.238
 4404SOL    HW214112   0.822   6.764   6.170
 4405SOL     OW14113   1.704   5.255   2.338
 4405SOL    HW114114   1.760   5.232   2.417
 4405SOL    HW214115   1.607   5.251   2.364
 4406SOL     OW14116   6.445   4.437   1.890
 4406SOL    HW114117   6.359   4.443   1.941
 4406SOL    HW214118   6.488   4.348   1.908
 4407SOL     OW14119   6.112   6.858   1.132
 4407SOL    HW114120   6.131   6.956   1.121
 4407SOL    HW214121   6.128   6.831   1.227
 4408SOL     OW14122   4.548   1.193   0.902
 4408SOL    HW114123   4.638   1.149   0.908
 4408SOL    HW214124   4.549   1.259   0.827
 4409SOL     OW14125   2.514   0.446   4.014
 4409SOL    HW114126   2.531   0.499   4.097
 4409SOL    HW214127   2.416   0.429   4.004
 4410SOL     OW14128   0.421   0.424   1.059
 4410SOL    HW114129   0.514   0.456   1.041
 4410SOL    HW214130   0.422   0.326   1.079
 4411SOL     OW14131   4.494   4.592   5.383
 4411SOL    HW114132   4.573   4.540   5.352
 4411SOL    HW214133   4.504   4.612   5.481
 4412SOL     OW14134   4.393   6.248   2.116
 4412SOL    HW114135   4.463   6.318   2.102
 4412SOL    HW214136   4.308   6.291   2.146
 4413SOL     OW14137   4.463   5.502   3.760
 4413SOL    HW114138   4.387   5.567   3.752
 4413SOL    HW214139   4.520   5.506   3.679
 4414SOL     OW14140   5.303   3.928   1.381
 4414SOL    HW114141   5.287   3.833   1.354
 4414SOL    HW214142   5.231   3.986   1.343
 4415SOL     OW14143   1.538   3.892   0.953
 4415SOL    HW114144   1.444   3.890   0.989
 4415SOL    HW214145   1.585   3.973   0.987
 4416SOL     OW14146   4.872   3.027   4.548
 4416SOL    HW114147   4.812   2.949   4.559
 4416SOL    HW214148   4.867   3.060   4.453
 4417SOL     OW14149   0.123   4.429   1.912
 4417SOL    HW114150   0.077   4.372   1.844
 4417SOL    HW214151   0.103   4.526   1.894
 4418SOL     OW14152   6.109   0.918   5.773
 4418SOL    HW114153   6.075   0.830   5.739
 4418SOL    HW214154   6.207   0.926   5.752
 4419SOL     OW14155   6.605   6.205   6.761
 4419SOL    HW114156   6.684   6.172   6.811
 4419SOL    HW214157   6.524   6.202   6.819
 4420SOL     OW14158   3.953   1.649   1.167
 4420SOL    HW114159   3.893   1.727   1.144
 4420SOL    HW214160   4.012   1.629   1.089
 4421SOL     OW14161   2.044   2.701   0.289
 4421SOL    HW114162   2.037   2.723   0.192
 4421SOL    HW214163   1.953   2.705   0.331
 4422SOL     OW14164   0.465   3.124   5.967
 4422SOL    HW114165   0.462   3.094   5.871
 4422SOL    HW214166   0.406   3.203   5.979
 4423SOL     OW14167   5.929   4.448   4.610
 4423SOL    HW114168   5.955   4.361   4.652
 4423SOL    HW214169   6.008   4.509   4.608
 4424SOL     OW14170   4.607   5.989   2.430
 4424SOL    HW114171   4.683   6.052   2.418
 4424SOL    HW214172   4.528   6.038   2.467
 4425SOL     OW14173   0.834   6.391   1.311
 4425SOL    HW114174   0.814   6.294   1.305
 4425SOL    HW214175   0.751   6.444   1.290
 4426SOL     OW14176   0.344   0.488   4.427
 4426SOL    HW114177   0.366   0.416   4.493
 4426SOL    HW214178   0.367   0.456   4.335
 4427SOL     OW14179   2.641   5.743   2.332
 4427SOL    HW114180   2.607   5.798   2.408
 4427SOL    HW214181   2.566   5.689   2.295
 4428SOL     OW14182   6.447   5.583   3.462
 4428SOL    HW114183   6.448   5.673   3.505
 4428SOL    HW214184   6.355   5.565   3.426
 4429SOL     OW14185   2.839   6.407   3.137
 4429SOL    HW114186   2.868   6.452   3.221
 4429SOL    HW214187   2.902   6.333   3.114
 4430SOL     OW14188   6.291   3.204   5.049
 4430SOL    HW114189   6.256   3.215   5.142
 4430SOL    HW214190   6.222   3.236   4.983
 4431SOL     OW14191   4.600   6.538   4.636
 4431SOL    HW114192   4.552   6.553   4.723
 4431SOL    HW214193   4.547   6.475   4.579
 4432SOL     OW14194   1.337   3.343   6.240
 4432SOL    HW114195   1.427   3.302   6.225
 4432SOL    HW214196   1.266   3.283   6.203
 4433SOL     OW14197   0.777   0.646   4.325
 4433SOL    HW114198   0.809   0.552   4.325
 4433SOL    HW214199   0.834   0.701   4.263
 4434SOL     OW14200   6.961   1.084   2.227
 4434SOL    HW114201   0.030   1.075   2.201
 4434SOL    HW214202   6.937   1.012   2.293
 4435SOL     OW14203   2.536   4.299   0.669
 4435SOL    HW114204   2.495   4.376   0.619
 4435SOL    HW214205   2.503   4.300   0.763
 4436SOL     OW14206   4.826   2.148   1.702
 4436SOL    HW114207   4.761   2.190   1.639
 4436SOL    HW214208   4.804   2.175   1.795
 4437SOL     OW14209   6.339   4.525   0.047
 4437SOL    HW114210   6.343   4.522   6.973
 4437SOL    HW214211   6.285   4.448   0.080
 4438SOL     OW14212   4.286   1.303   4.764
 4438SOL    HW114213   4.296   1.390   4.812
 4438SOL    HW214214   4.372   1.252   4.769
 4439SOL     OW14215   2.355   5.710   2.829
 4439SOL    HW114216   2.429   5.755   2.880
 4439SOL    HW214217   2.272   5.764   2.835
 4440SOL     OW14218   1.785   5.123   5.297
 4440SOL    HW114219   1.796   5.095   5.202
 4440SOL    HW214220   1.874   5.147   5.336
 4441SOL     OW14221   6.870   1.775   1.221
 4441SOL    HW114222   6.916   1.743   1.138
 4441SOL    HW214223   6.792   1.833   1.196
 4442SOL     OW14224   2.144   4.825   1.269
 4442SOL    HW114225   2.199   4.753   1.227
 4442SOL    HW214226   2.203   4.893   1.311
 4443SOL     OW14227   0.671   5.826   6.025
 4443SOL    HW114228   0.770   5.824   6.007
 4443SOL    HW214229   0.646   5.747   6.081
 4444SOL     OW14230   5.606   5.493   0.245
 4444SOL    HW114231   5.552   5.474   0.327
 4444SOL    HW214232   5.642   5.586   0.251
 4445SOL     OW14233   2.289   4.167   0.112
 4445SOL    HW114234   2.232   4.119   0.179
 4445SOL    HW214235   2.377   4.190   0.154
 4446SOL     OW14236   4.711   1.905   2.052
 4446SOL    HW114237   4.795   1.897   1.999
 4446SOL    HW214238   4.700   1.999   2.084
 4447SOL     OW14239   4.615   5.620   4.877
 4447SOL    HW114240   4.584   5.714   4.870
 4447SOL    HW214241   4.698   5.616   4.934
 4448SOL     OW14242   3.348   6.570   2.957
 4448SOL    HW114243   3.353   6.653   3.012
 4448SOL    HW214244   3.440   6.543   2.929
 4449SOL     OW14245   4.206   1.405   5.434
 4449SOL    HW114246   4.238   1.475   5.498
 4449SOL    HW214247   4.283   1.346   5.409
 4450SOL     OW14248   1.933   6.189   0.184
 4450SOL    HW114249   1.849   6.158   0.138
 4450SOL    HW214250   1.953   6.283   0.157
 4451SOL     OW14251   4.470   5.529   3.323
 4451SOL    HW114252   4.536   5.524   3.248
 4451SOL    HW214253   4.378   5.541   3.286
 4452SOL     OW14254   5.012   4.922   3.585
 4452SOL    HW114255   5.043   5.000   3.639
 4452SOL    HW214256   4.930   4.883   3.627
 4453SOL     OW14257   0.462   4.854   0.984
 4453SOL    HW114258   0.476   4.934   1.043
 4453SOL    HW214259   0.492   4.876   0.891
 4454SOL     OW14260   0.657   2.024   0.492
 4454SOL    HW114261   0.692   2.062   0.578
 4454SOL    HW214262   0.715   2.053   0.417
 4455SOL     OW14263   1.355   0.327   4.243
 4455SOL    HW114264   1.260   0.353   4.232
 4455SOL    HW214265   1.376   0.250   4.182
 4456SOL     OW14266   1.688   6.174   4.525
 4456SOL    HW114267   1.782   6.157   4.552
 4456SOL    HW214268   1.678   6.159   4.426
 4457SOL     OW14269   1.396   1.277   4.397
 4457SOL    HW114270   1.373   1.191   4.443
 4457SOL    HW214271   1.371   1.354   4.456
 4458SOL     OW14272   1.518   3.085   6.436
 4458SOL    HW114273   1.430   3.054   6.471
 4458SOL    HW214274   1.562   3.010   6.386
 4459SOL     OW14275   0.633   3.789   3.646
 4459SOL    HW114276   0.615   3.723   3.719
 4459SOL    HW214277   0.599   3.879   3.673
 4460SOL     OW14278   6.917   2.741   5.168
 4460SOL    HW114279   7.016   2.749   5.159
 4460SOL    HW214280   6.873   2.808   5.107
 4461SOL     OW14281   1.921   0.622   0.719
 4461SOL    HW114282   1.860   0.666   0.785
 4461SOL    HW214283   2.016   0.647   0.740
 4462SOL     OW14284   6.505   4.139   1.876
 4462SOL    HW114285   6.434   4.075   1.905
 4462SOL    HW214286   6.590   4.118   1.924
 4463SOL     OW14287   5.715   1.729   0.150
 4463SOL    HW114288   5.655   1.778   0.213
 4463SOL    HW214289   5.793   1.787   0.126
 4464SOL     OW14290   0.497   3.636   1.323
 4464SOL    HW114291   0.561   3.650   1.398
 4464SOL    HW214292   0.405   3.661   1.354
 4465SOL     OW14293   4.340   5.206   1.988
 4465SOL    HW114294   4.427   5.254   1.988
 4465SOL    HW214295   4.324   5.165   1.898
 4466SOL     OW14296   0.643   3.241   2.603
 4466SOL    HW114297   0.682   3.210   2.689
 4466SOL    HW214298   0.569   3.307   2.621
 4467SOL     OW14299   5.244   4.655   1.698
 4467SOL    HW114300   5.264   4.630   1.604
 4467SOL    HW214301   5.306   4.727   1.729
 4468SOL     OW14302   1.993   3.139   1.046
 4468SOL    HW114303   2.010   3.154   0.948
 4468SOL    HW214304   1.998   3.042   1.067
 4469SOL     OW14305   1.973   6.088   1.288
 4469SOL    HW114306   2.069   6.064   1.276
 4469SOL    HW214307   1.965   6.163   1.353
 4470SOL     OW14308   0.957   6.843   2.230
 4470SOL    HW114309   0.882   6.891   2.275
 4470SOL    HW214310   0.990   6.898   2.152
 4471SOL     OW14311   0.971   0.487   0.048
 4471SOL    HW114312   1.067   0.465   0.062
 4471SOL    HW214313   0.953   0.500   6.977
 4472SOL     OW14314   1.479   2.761   1.097
 4472SOL    HW114315   1.536   2.759   1.179
 4472SOL    HW214316   1.455   2.668   1.069
 4473SOL     OW14317   0.421   2.634   5.022
 4473SOL    HW114318   0.501   2.629   4.961
 4473SOL    HW214319   0.400   2.730   5.042
 4474SOL     OW14320   2.487   6.229   0.866
 4474SOL    HW114321   2.434   6.300   0.913
 4474SOL    HW214322   2.477   6.142   0.916
 4475SOL     OW14323   0.821   3.647   0.044
 4475SOL    HW114324   0.890   3.581   0.015
 4475SOL    HW214325   0.863   3.737   0.056
 4476SOL     OW14326   5.396   0.727   3.522
 4476SOL    HW114327   5.446   0.657   3.572
 4476SOL    HW214328   5.374   0.692   3.431
 4477SOL     OW14329   7.012   1.080   4.329
 4477SOL    HW114330   0.070   1.124   4.358
 4477SOL    HW214331   0.003   0.985   4.304
 4478SOL     OW14332   1.829   0.882   2.347
 4478SOL    HW114333   1.826   0.839   2.257
 4478SOL    HW214334   1.740   0.873   2.392
 4479SOL     OW14335   2.295   2.769   6.481
 4479SOL    HW114336   2.321   2.864   6.498
 4479SOL    HW214337   2.209   2.749   6.528
 4480SOL     OW14338   0.178   6.993   3.357
 4480SOL    HW114339   0.222   7.011   3.445
 4480SOL    HW214340   0.098   0.025   3.348
 4481SOL     OW14341   2.088   4.032   6.153
 4481SOL    HW114342   2.018   3.963   6.171
 4481SOL    HW214343   2.104   4.039   6.054
 4482SOL     OW14344   2.745   0.158   1.075
 4482SOL    HW114345   2.699   0.242   1.103
 4482SOL    HW214346   2.830   0.180   1.028
 4483SOL     OW14347   0.938   3.590   0.875
 4483SOL    HW114348   0.907   3.681   0.848
 4483SOL    HW214349   0.978   3.594   0.967
 4484SOL     OW14350   3.545   0.932   0.327
 4484SOL    HW114351   3.542   0.844   0.375
 4484SOL    HW214352   3.453   0.971   0.323
 4485SOL     OW14353   0.127   3.155   5.109
 4485SOL    HW114354   0.121   3.254   5.123
 4485SOL    HW214355   0.207   3.119   5.156
 4486SOL     OW14356   4.781   4.555   3.463
 4486SOL    HW114357   4.698   4.505   3.487
 4486SOL    HW214358   4.758   4.637   3.411
 4487SOL     OW14359   0.325   3.072   6.494
 4487SOL    HW114360   0.376   3.122   6.564
 4487SOL    HW214361   0.338   2.974   6.507
 4488SOL     OW14362   6.390   4.763   3.527
 4488SOL    HW114363   6.460   4.814   3.478
 4488SOL    HW214364   6.300   4.791   3.495
 4489SOL     OW14365   3.655   6.116   6.796
 4489SOL    HW114366   3.729   6.179   6.820
 4489SOL    HW214367   3.668   6.029   6.844
 4490SOL     OW14368   5.638   1.761   2.023
 4490SOL    HW114369   5.690   1.822   2.082
 4490SOL    HW214370   5.568   1.714   2.077
 4491SOL     OW14371   0.566   3.801   2.878
 4491SOL    HW114372   0.470   3.789   2.904
 4491SOL    HW214373   0.605   3.878   2.929
 4492SOL     OW14374   5.853   1.361   2.662
 4492SOL    HW114375   5.840   1.435   2.596
 4492SOL    HW214376   5.832   1.394   2.754
 4493SOL     OW14377   5.313   1.558   5.961
 4493SOL    HW114378   5.340   1.472   5.918
 4493SOL    HW214379   5.225   1.588   5.923
 4494SOL     OW14380   1.662   1.229   2.686
 4494SOL    HW114381   1.666   1.327   2.704
 4494SOL    HW214382   1.728   1.204   2.615
 4495SOL     OW14383   4.425   6.140   0.884
 4495SOL    HW114384   4.352   6.196   0.920
 4495SOL    HW214385   4.513   6.175   0.915
 4496SOL     OW14386   2.321   5.895   6.195
 4496SOL    HW114387   2.390   5.961   6.165
 4496SOL    HW214388   2.230   5.930   6.175
 4497SOL     OW14389   4.140   0.228   5.651
 4497SOL    HW114390   4.190   0.163   5.594
 4497SOL    HW214391   4.100   0.180   5.729
 4498SOL     OW14392   1.464   4.909   4.336
 4498SOL    HW114393   1.464   4.910   4.436
 4498SOL    HW214394   1.379   4.866   4.303
 4499SOL     OW14395   5.881   1.444   2.237
 4499SOL    HW114396   5.978   1.462   2.224
 4499SOL    HW214397   5.840   1.518   2.290
 4500SOL     OW14398   3.408   6.855   7.014
 4500SOL    HW114399   3.325   6.811   0.025
 4500SOL    HW214400   3.448   6.795   6.945
 4501SOL     OW14401   6.480   6.956   2.706
 4501SOL    HW114402   6.382   6.955   2.684
 4501SOL    HW214403   6.503   6.872   2.756
 4502SOL     OW14404   1.661   4.128   6.570
 4502SOL    HW114405   1.605   4.210   6.578
 4502SOL    HW214406   1.750   4.152   6.532
 4503SOL     OW14407   3.722   1.585   2.544
 4503SOL    HW114408   3.667   1.667   2.557
 4503SOL    HW214409   3.756   1.582   2.450
 4504SOL     OW14410   1.368   2.046   3.843
 4504SOL    HW114411   1.319   2.073   3.760
 4504SOL    HW214412   1.464   2.030   3.820
 4505SOL     OW14413   6.426   3.053   3.218
 4505SOL    HW114414   6.327   3.060   3.231
 4505SOL    HW214415   6.463   3.144   3.199
 4506SOL     OW14416   4.032   4.257   0.102
 4506SOL    HW114417   3.976   4.297   0.174
 4506SOL    HW214418   4.097   4.193   0.141
 4507SOL     OW14419   6.072   2.623   2.672
 4507SOL    HW114420   6.041   2.528   2.668
 4507SOL    HW214421   6.023   2.671   2.745
 4508SOL     OW14422   6.268   5.193   0.683
 4508SOL    HW114423   6.302   5.161   0.595
 4508SOL    HW214424   6.221   5.280   0.672
 4509SOL     OW14425   5.035   2.185   2.205
 4509SOL    HW114426   4.979   2.253   2.251
 4509SOL    HW214427   5.032   2.099   2.256
 4510SOL     OW14428   4.804   1.445   4.255
 4510SOL    HW114429   4.746   1.399   4.189
 4510SOL    HW214430   4.824   1.383   4.331
 4511SOL     OW14431   0.087   4.599   6.983
 4511SOL    HW114432   0.147   4.674   7.011
 4511SOL    HW214433   0.001   4.606   0.006
 4512SOL     OW14434   2.875   3.345   5.914
 4512SOL    HW114435   2.973   3.358   5.903
 4512SOL    HW214436   2.856   3.297   6.000
 4513SOL     OW14437   0.149   0.436   1.108
 4513SOL    HW114438   0.248   0.432   1.116
 4513SOL    HW214439   0.124   0.468   1.017
 4514SOL     OW14440   4.645   4.681   6.463
 4514SOL    HW114441   4.592   4.763   6.484
 4514SOL    HW214442   4.597   4.627   6.394
 4515SOL     OW14443   4.566   0.012   5.991
 4515SOL    HW114444   4.504   6.963   5.972
 4515SOL    HW214445   4.518   0.083   6.044
 4516SOL     OW14446   3.675   2.220   5.304
 4516SOL    HW114447   3.599   2.225   5.240
 4516SOL    HW214448   3.683   2.126   5.339
 4517SOL     OW14449   3.626   0.350   4.630
 4517SOL    HW114450   3.591   0.287   4.560
 4517SOL    HW214451   3.695   0.410   4.588
 4518SOL     OW14452   6.672   0.284   0.641
 4518SOL    HW114453   6.631   0.323   0.723
 4518SOL    HW214454   6.677   0.185   0.650
 4519SOL     OW14455   5.105   0.079   6.400
 4519SOL    HW114456   5.122   7.008   6.385
 4519SOL    HW214457   5.017   0.104   6.359
 4520SOL     OW14458   4.412   4.962   5.597
 4520SOL    HW114459   4.349   5.023   5.644
 4520SOL    HW214460   4.500   5.008   5.584
 4521SOL     OW14461   4.884   2.585   4.401
 4521SOL    HW114462   4.857   2.505   4.348
 4521SOL    HW214463   4.984   2.588   4.408
 4522SOL     OW14464   5.778   3.479   3.246
 4522SOL    HW114465   5.730   3.528   3.319
 4522SOL    HW214466   5.858   3.532   3.218
 4523SOL     OW14467   0.051   3.144   6.572
 4523SOL    HW114468   0.136   3.099   6.544
 4523SOL    HW214469   0.051   3.238   6.539
 4524SOL     OW14470   2.025   3.937   1.906
 4524SOL    HW114471   2.081   4.019   1.910
 4524SOL    HW214472   2.027   3.892   1.996
 4525SOL     OW14473   3.654   1.933   5.873
 4525SOL    HW114474   3.719   1.922   5.949
 4525SOL    HW214475   3.686   1.878   5.795
 4526SOL     OW14476   1.977   0.544   5.391
 4526SOL    HW114477   1.948   0.621   5.447
 4526SOL    HW214478   2.020   0.578   5.307
 4527SOL     OW14479   0.682   2.339   2.479
 4527SOL    HW114480   0.733   2.264   2.522
 4527SOL    HW214481   0.625   2.302   2.406
 4528SOL     OW14482   5.319   1.451   4.646
 4528SOL    HW114483   5.389   1.387   4.677
 4528SOL    HW214484   5.238   1.400   4.617
 4529SOL     OW14485   2.078   1.688   3.733
 4529SOL    HW114486   2.009   1.722   3.669
 4529SOL    HW214487   2.164   1.736   3.717
 4530SOL     OW14488   4.300   4.494   6.190
 4530SOL    HW114489   4.232   4.427   6.218
 4530SOL    HW214490   4.291   4.512   6.092
 4531SOL     OW14491   2.030   0.284   5.187
 4531SOL    HW114492   1.959   0.226   5.148
 4531SOL    HW214493   1.998   0.322   5.274
 4532SOL     OW14494   5.687   1.318   2.023
 4532SOL    HW114495   5.669   1.273   2.110
 4532SOL    HW214496   5.697   1.249   1.951
 4533SOL     OW14497   2.776   6.585   1.274
 4533SOL    HW114498   2.773   6.485   1.284
 4533SOL    HW214499   2.838   6.623   1.342
 4534SOL     OW14500   5.801   0.949   4.186
 4534SOL    HW114501   5.710   0.969   4.150
 4534SOL    HW214502   5.813   0.994   4.274
 4535SOL     OW14503   1.479   1.101   0.014
 4535SOL    HW114504   1.493   1.010   7.000
 4535SOL    HW214505   1.531   1.107   0.100
 4536SOL     OW14506   3.772   0.894   5.599
 4536SOL    HW114507   3.736   0.824   5.538
 4536SOL    HW214508   3.869   0.910   5.579
 4537SOL     OW14509   3.038   3.290   3.304
 4537SOL    HW114510   3.050   3.348   3.384
 4537SOL    HW214511   2.961   3.324   3.249
 4538SOL     OW14512   1.127   2.423   0.073
 4538SOL    HW114513   1.143   2.426   0.171
 4538SOL    HW214514   1.123   2.516   0.037
 4539SOL     OW14515   1.203   5.041   4.436
 4539SOL    HW114516   1.112   5.075   4.458
 4539SOL    HW214517   1.266   5.118   4.425
 4540SOL     OW14518   1.865   1.936   0.827
 4540SOL    HW114519   1.925   2.015   0.836
 4540SOL    HW214520   1.790   1.958   0.765
 4541SOL     OW14521   3.889   3.084   6.993
 4541SOL    HW114522   3.967   3.096   6.932
 4541SOL    HW214523   3.911   3.119   0.057
 4542SOL     OW14524   0.090   1.249   0.599
 4542SOL    HW114525   0.021   1.305   0.553
 4542SOL    HW214526   0.181   1.284   0.577
 4543SOL     OW14527   4.567   1.458   1.122
 4543SOL    HW114528   4.513   1.512   1.187
 4543SOL    HW214529   4.523   1.461   1.032
 4544SOL     OW14530   4.817   6.194   0.859
 4544SOL    HW114531   4.910   6.161   0.872
 4544SOL    HW214532   4.763   6.174   0.941
 4545SOL     OW14533   2.703   2.807   5.424
 4545SOL    HW114534   2.725   2.828   5.519
 4545SOL    HW214535   2.729   2.884   5.366
 4546SOL     OW14536   4.786   6.900   6.252
 4546SOL    HW114537   4.802   6.843   6.171
 4546SOL    HW214538   4.698   6.875   6.293
 4547SOL     OW14539   6.920   1.079   0.312
 4547SOL    HW114540   6.933   1.176   0.290
 4547SOL    HW214541   6.988   1.025   0.262
 4548SOL     OW14542   3.045   1.223   2.079
 4548SOL    HW114543   3.111   1.296   2.094
 4548SOL    HW214544   3.084   1.136   2.108
 4549SOL     OW14545   6.223   4.402   3.430
 4549SOL    HW114546   6.294   4.346   3.473
 4549SOL    HW214547   6.207   4.369   3.337
 4550SOL     OW14548   2.410   5.452   6.697
 4550SOL    HW114549   2.331   5.392   6.709
 4550SOL    HW214550   2.421   5.474   6.600
 4551SOL     OW14551   3.452   2.912   6.436
 4551SOL    HW114552   3.449   2.850   6.357
 4551SOL    HW214553   3.538   2.962   6.436
 4552SOL     OW14554   4.817   0.941   6.783
 4552SOL    HW114555   4.869   1.026   6.779
 4552SOL    HW214556   4.878   0.864   6.762
 4553SOL     OW14557   0.355   6.780   0.015
 4553SOL    HW114558   0.260   6.785   7.011
 4553SOL    HW214559   0.387   6.686   0.008
 4554SOL     OW14560   5.589   6.314   3.250
 4554SOL    HW114561   5.610   6.226   3.208
 4554SOL    HW214562   5.528   6.366   3.191
 4555SOL     OW14563   0.827   0.113   2.425
 4555SOL    HW114564   0.896   0.185   2.434
 4555SOL    HW214565   0.833   0.050   2.502
 4556SOL     OW14566   5.133   4.715   4.305
 4556SOL    HW114567   5.190   4.779   4.356
 4556SOL    HW214568   5.068   4.766   4.250
 4557SOL     OW14569   6.931   5.410   4.830
 4557SOL    HW114570   6.846   5.401   4.880
 4557SOL    HW214571   7.002   5.355   4.873
 4558SOL     OW14572   0.799   4.231   4.523
 4558SOL    HW114573   0.889   4.262   4.553
 4558SOL    HW214574   0.728   4.289   4.565
 4559SOL     OW14575   0.084   2.749   4.170
 4559SOL    HW114576   0.001   2.759   4.225
 4559SOL    HW214577   0.064   2.691   4.091
 4560SOL     OW14578   6.341   4.364   3.093
 4560SOL    HW114579   6.306   4.326   3.007
 4560SOL    HW214580   6.314   4.460   3.100
 4561SOL     OW14581   4.783   2.888   4.086
 4561SOL    HW114582   4.822   2.798   4.107
 4561SOL    HW214583   4.820   2.956   4.149
 4562SOL     OW14584   4.685   1.205   0.542
 4562SOL    HW114585   4.595   1.217   0.586
 4562SOL    HW214586   4.752   1.263   0.587
 4563SOL     OW14587   1.213   4.098   1.696
 4563SOL    HW114588   1.239   4.193   1.677
 4563SOL    HW214589   1.282   4.037   1.657
 4564SOL     OW14590   2.022   4.209   2.372
 4564SOL    HW114591   1.975   4.296   2.361
 4564SOL    HW214592   2.039   4.193   2.469
 4565SOL     OW14593   2.346   0.393   5.733
 4565SOL    HW114594   2.446   0.392   5.742
 4565SOL    HW214595   2.304   0.361   5.818
 4566SOL     OW14596   6.949   4.982   3.185
 4566SOL    HW114597   6.859   4.969   3.144
 4566SOL    HW214598   6.973   4.900   3.237
 4567SOL     OW14599   0.354   0.196   0.216
 4567SOL    HW114600   0.389   0.257   0.287
 4567SOL    HW214601   0.375   0.101   0.240
 4568SOL     OW14602   0.852   4.094   3.831
 4568SOL    HW114603   0.881   4.002   3.804
 4568SOL    HW214604   0.925   4.137   3.884
 4569SOL     OW14605   1.020   2.870   3.332
 4569SOL    HW114606   0.950   2.917   3.278
 4569SOL    HW214607   0.977   2.821   3.407
 4570SOL     OW14608   5.299   5.830   1.287
 4570SOL    HW114609   5.202   5.847   1.307
 4570SOL    HW214610   5.320   5.861   1.195
 4571SOL     OW14611   1.873   3.341   5.706
 4571SOL    HW114612   1.803   3.406   5.736
 4571SOL    HW214613   1.862   3.325   5.607
 4572SOL     OW14614   4.397   3.086   1.691
 4572SOL    HW114615   4.442   3.106   1.604
 4572SOL    HW214616   4.464   3.049   1.756
 4573SOL     OW14617   2.295   4.620   0.815
 4573SOL    HW114618   2.209   4.643   0.768
 4573SOL    HW214619   2.286   4.638   0.912
 4574SOL     OW14620   5.382   0.577   1.633
 4574SOL    HW114621   5.301   0.555   1.686
 4574SOL    HW214622   5.397   0.508   1.563
 4575SOL     OW14623   6.981   1.209   5.132
 4575SOL    HW114624   6.938   1.249   5.213
 4575SOL    HW214625   0.052   1.199   5.148
 4576SOL     OW14626   3.363   3.512   0.033
 4576SOL    HW114627   3.324   3.423   0.011
 4576SOL    HW214628   3.290   3.580   0.039
 4577SOL     OW14629   0.822   1.626   1.755
 4577SOL    HW114630   0.816   1.646   1.852
 4577SOL    HW214631   0.858   1.533   1.743
 4578SOL     OW14632   1.659   1.147   3.115
 4578SOL    HW114633   1.575   1.179   3.158
 4578SOL    HW214634   1.709   1.225   3.078
 4579SOL     OW14635   4.636   0.962   3.325
 4579SOL    HW114636   4.714   0.958   3.263
 4579SOL    HW214637   4.606   1.057   3.334
 4580SOL     OW14638   0.679   0.616   1.896
 4580SOL    HW114639   0.759   0.604   1.838
 4580SOL    HW214640   0.598   0.583   1.847
 4581SOL     OW14641   3.133   0.324   1.321
 4581SOL    HW114642   3.068   0.397   1.300
 4581SOL    HW214643   3.083   0.239   1.338
 4582SOL     OW14644   6.144   0.446   3.792
 4582SOL    HW114645   6.172   0.532   3.833
 4582SOL    HW214646   6.046   0.433   3.805
 4583SOL     OW14647   1.713   6.737   0.083
 4583SOL    HW114648   1.771   6.656   0.080
 4583SOL    HW214649   1.729   6.786   0.169
 4584SOL     OW14650   0.505   1.185   4.147
 4584SOL    HW114651   0.454   1.268   4.171
 4584SOL    HW214652   0.441   1.116   4.113
 4585SOL     OW14653   1.138   3.073   3.145
 4585SOL    HW114654   1.055   3.071   3.201
 4585SOL    HW214655   1.218   3.059   3.204
 4586SOL     OW14656   6.740   4.933   5.673
 4586SOL    HW114657   6.754   4.998   5.748
 4586SOL    HW214658   6.678   4.861   5.703
 4587SOL     OW14659   4.607   3.482   6.317
 4587SOL    HW114660   4.608   3.384   6.294
 4587SOL    HW214661   4.549   3.531   6.252
 4588SOL     OW14662   2.910   4.270   6.548
 4588SOL    HW114663   2.879   4.245   6.456
 4588SOL    HW214664   2.831   4.288   6.606
 4589SOL     OW14665   5.529   5.798   2.080
 4589SOL    HW114666   5.523   5.847   2.167
 4589SOL    HW214667   5.623   5.767   2.065
 4590SOL     OW14668   2.425   5.283   1.906
 4590SOL    HW114669   2.371   5.367   1.900
 4590SOL    HW214670   2.469   5.278   1.996
 4591SOL     OW14671   2.203   0.883   4.846
 4591SOL    HW114672   2.219   0.922   4.756
 4591SOL    HW214673   2.130   0.935   4.892
 4592SOL     OW14674   3.089   2.172   3.626
 4592SOL    HW114675   3.098   2.093   3.565
 4592SOL    HW214676   3.177   2.192   3.668
 4593SOL     OW14677   1.531   5.814   4.652
 4593SOL    HW114678   1.464   5.884   4.676
 4593SOL    HW214679   1.515   5.731   4.705
 4594SOL     OW14680   1.506   6.192   4.027
 4594SOL    HW114681   1.460   6.281   4.021
 4594SOL    HW214682   1.547   6.169   3.938
 4595SOL     OW14683   5.912   2.179   6.664
 4595SOL    HW114684   5.987   2.239   6.634
 4595SOL    HW214685   5.951   2.095   6.702
 4596SOL     OW14686   1.055   1.684   2.103
 4596SOL    HW114687   1.126   1.620   2.134
 4596SOL    HW214688   1.093   1.776   2.101
 4597SOL     OW14689   2.154   6.032   0.939
 4597SOL    HW114690   2.068   5.982   0.928
 4597SOL    HW214691   2.140   6.128   0.912
 4598SOL     OW14692   0.547   2.645   0.006
 4598SOL    HW114693   0.489   2.604   6.962
 4598SOL    HW214694   0.489   2.681   0.079
 4599SOL     OW14695   3.254   6.288   2.919
 4599SOL    HW114696   3.294   6.379   2.933
 4599SOL    HW214697   3.232   6.276   2.822
 4600SOL     OW14698   0.920   6.409   6.217
 4600SOL    HW114699   1.019   6.397   6.217
 4600SOL    HW214700   0.883   6.380   6.305
 4601SOL     OW14701   1.434   1.041   5.482
 4601SOL    HW114702   1.501   1.067   5.413
 4601SOL    HW214703   1.475   0.976   5.546
 4602SOL     OW14704   4.176   1.011   6.596
 4602SOL    HW114705   4.231   1.032   6.677
 4602SOL    HW214706   4.147   1.097   6.553
 4603SOL     OW14707   3.878   6.891   0.963
 4603SOL    HW114708   3.804   6.831   0.993
 4603SOL    HW214709   3.839   6.971   0.918
 4604SOL     OW14710   0.569   6.526   3.313
 4604SOL    HW114711   0.654   6.562   3.274
 4604SOL    HW214712   0.572   6.426   3.313
 4605SOL     OW14713   4.345   1.218   1.856
 4605SOL    HW114714   4.400   1.146   1.900
 4605SOL    HW214715   4.316   1.186   1.766
 4606SOL     OW14716   6.930   6.908   4.395
 4606SOL    HW114717   6.982   6.988   4.425
 4606SOL    HW214718   6.839   6.910   4.437
 4607SOL     OW14719   3.275   1.766   1.254
 4607SOL    HW114720   3.223   1.847   1.224
 4607SOL    HW214721   3.352   1.795   1.310
 4608SOL     OW14722   0.252   2.556   5.349
 4608SOL    HW114723   0.223   2.536   5.442
 4608SOL    HW214724   0.254   2.471   5.296
 4609SOL     OW14725   5.797   5.307   6.264
 4609SOL    HW114726   5.710   5.258   6.255
 4609SOL    HW214727   5.868   5.244   6.292
 4610SOL     OW14728   5.132   4.944   6.555
 4610SOL    HW114729   5.147   5.039   6.527
 4610SOL    HW214730   5.128   4.939   6.655
 4611SOL     OW14731   0.108   1.003   6.670
 4611SOL    HW114732   0.044   1.079   6.659
 4611SOL    HW214733   0.062   0.927   6.717
 4612SOL     OW14734   2.851   1.364   3.141
 4612SOL    HW114735   2.795   1.303   3.085
 4612SOL    HW214736   2.854   1.330   3.235
 4613SOL     OW14737   1.526   5.073   3.006
 4613SOL    HW114738   1.491   5.027   2.924
 4613SOL    HW214739   1.507   5.171   3.000
 4614SOL     OW14740   0.449   4.258   2.965
 4614SOL    HW114741   0.376   4.236   3.029
 4614SOL    HW214742   0.409   4.279   2.876
 4615SOL     OW14743   1.053   4.347   0.033
 4615SOL    HW114744   1.073   4.263   7.010
 4615SOL    HW214745   1.135   4.378   0.082
 4616SOL     OW14746   1.247   4.103   6.691
 4616SOL    HW114747   1.309   4.143   6.623
 4616SOL    HW214748   1.258   4.004   6.692
 4617SOL     OW14749   0.216   4.156   3.899
 4617SOL    HW114750   0.256   4.066   3.881
 4617SOL    HW214751   0.119   4.145   3.921
 4618SOL     OW14752   2.289   4.172   5.660
 4618SOL    HW114753   2.360   4.230   5.700
 4618SOL    HW214754   2.322   4.134   5.574
 4619SOL     OW14755   4.388   5.611   6.894
 4619SOL    HW114756   4.444   5.691   6.874
 4619SOL    HW214757   4.358   5.614   6.989
 4620SOL     OW14758   1.319   4.699   1.357
 4620SOL    HW114759   1.253   4.699   1.281
 4620SOL    HW214760   1.269   4.701   1.443
 4621SOL     OW14761   2.963   0.118   2.502
 4621SOL    HW114762   2.872   0.150   2.474
 4621SOL    HW214763   2.969   0.019   2.487
 4622SOL     OW14764   5.625   0.015   0.567
 4622SOL    HW114765   5.635   6.989   0.482
 4622SOL    HW214766   5.627   6.979   0.645
 4623SOL     OW14767   3.070   4.869   2.963
 4623SOL    HW114768   2.998   4.799   2.966
 4623SOL    HW214769   3.096   4.893   3.057
 4624SOL     OW14770   5.144   1.837   1.002
 4624SOL    HW114771   5.228   1.785   0.987
 4624SOL    HW214772   5.159   1.905   1.074
 4625SOL     OW14773   1.440   6.679   1.982
 4625SOL    HW114774   1.351   6.720   1.961
 4625SOL    HW214775   1.442   6.652   2.079
 4626SOL     OW14776   4.086   3.368   1.937
 4626SOL    HW114777   4.105   3.278   1.898
 4626SOL    HW214778   4.115   3.439   1.873
 4627SOL     OW14779   6.003   6.346   5.046
 4627SOL    HW114780   6.037   6.436   5.069
 4627SOL    HW214781   5.993   6.338   4.946
 4628SOL     OW14782   6.770   4.649   2.662
 4628SOL    HW114783   6.693   4.706   2.691
 4628SOL    HW214784   6.834   4.703   2.607
 4629SOL     OW14785   1.456   5.468   1.023
 4629SOL    HW114786   1.372   5.454   0.971
 4629SOL    HW214787   1.438   5.451   1.120
 4630SOL     OW14788   1.890   3.795   1.329
 4630SOL    HW114789   1.809   3.830   1.281
 4630SOL    HW214790   1.885   3.821   1.426
 4631SOL     OW14791   6.322   1.338   2.887
 4631SOL    HW114792   6.244   1.276   2.895
 4631SOL    HW214793   6.398   1.292   2.842
 4632SOL     OW14794   2.996   4.915   3.733
 4632SOL    HW114795   3.044   4.893   3.817
 4632SOL    HW214796   3.062   4.935   3.661
 4633SOL     OW14797   5.558   3.065   3.917
 4633SOL    HW114798   5.502   3.125   3.974
 4633SOL    HW214799   5.592   3.116   3.838
 4634SOL     OW14800   3.845   2.945   4.805
 4634SOL    HW114801   3.854   3.044   4.795
 4634SOL    HW214802   3.936   2.904   4.818
 4635SOL     OW14803   4.050   6.605   2.143
 4635SOL    HW114804   4.005   6.664   2.077
 4635SOL    HW214805   4.100   6.660   2.210
 4636SOL     OW14806   1.539   5.512   6.537
 4636SOL    HW114807   1.506   5.432   6.588
 4636SOL    HW214808   1.462   5.554   6.488
 4637SOL     OW14809   2.139   2.235   3.313
 4637SOL    HW114810   2.190   2.314   3.348
 4637SOL    HW214811   2.102   2.256   3.223
 4638SOL     OW14812   3.670   4.864   0.490
 4638SOL    HW114813   3.625   4.948   0.520
 4638SOL    HW214814   3.724   4.883   0.409
 4639SOL     OW14815   4.172   2.246   2.019
 4639SOL    HW114816   4.074   2.246   1.999
 4639SOL    HW214817   4.222   2.288   1.943
 4640SOL     OW14818   6.715   3.071   0.957
 4640SOL    HW114819   6.755   3.152   0.914
 4640SOL    HW214820   6.776   2.993   0.944
 4641SOL     OW14821   0.907   6.004   4.965
 4641SOL    HW114822   0.957   5.922   4.992
 4641SOL    HW214823   0.911   6.072   5.039
 4642SOL     OW14824   6.086   1.357   5.825
 4642SOL    HW114825   6.126   1.355   5.734
 4642SOL    HW214826   6.096   1.267   5.868
 4643SOL     OW14827   0.469   1.758   0.122
 4643SOL    HW114828   0.414   1.803   0.193
 4643SOL    HW214829   0.445   1.794   0.033
 4644SOL     OW14830   1.396   1.520   1.415
 4644SOL    HW114831   1.383   1.584   1.491
 4644SOL    HW214832   1.385   1.568   1.328
 4645SOL     OW14833   5.978   2.590   5.079
 4645SOL    HW114834   6.035   2.655   5.030
 4645SOL    HW214835   5.882   2.610   5.060
 4646SOL     OW14836   1.370   3.991   2.753
 4646SOL    HW114837   1.339   4.074   2.706
 4646SOL    HW214838   1.393   4.014   2.848
 4647SOL     OW14839   2.066   6.315   2.574
 4647SOL    HW114840   2.035   6.404   2.540
 4647SOL    HW214841   1.993   6.273   2.627
 4648SOL     OW14842   2.663   1.244   4.601
 4648SOL    HW114843   2.749   1.276   4.639
 4648SOL    HW214844   2.681   1.172   4.534
 4649SOL     OW14845   5.148   2.443   0.783
 4649SOL    HW114846   5.094   2.527   0.777
 4649SOL    HW214847   5.201   2.432   0.699
 4650SOL     OW14848   3.843   5.460   0.627
 4650SOL    HW114849   3.917   5.485   0.689
 4650SOL    HW214850   3.834   5.531   0.557
 4651SOL     OW14851   1.101   3.858   6.957
 4651SOL    HW114852   1.142   3.786   6.902
 4651SOL    HW214853   1.072   3.821   0.018
 4652SOL     OW14854   6.788   0.203   5.374
 4652SOL    HW114855   6.820   0.180   5.282
 4652SOL    HW214856   6.789   0.121   5.431
 4653SOL     OW14857   0.038   6.204   0.591
 4653SOL    HW114858   0.056   6.109   0.617
 4653SOL    HW214859   0.125   6.251   0.577
 4654SOL     OW14860   0.586   0.996   5.228
 4654SOL    HW114861   0.599   1.037   5.318
 4654SOL    HW214862   0.551   0.902   5.239
 4655SOL     OW14863   5.092   4.390   2.975
 4655SOL    HW114864   5.004   4.343   2.963
 4655SOL    HW214865   5.076   4.489   2.979
 4656SOL     OW14866   6.006   0.649   1.307
 4656SOL    HW114867   5.972   0.739   1.279
 4656SOL    HW214868   5.988   0.582   1.236
 4657SOL     OW14869   3.957   1.456   2.607
 4657SOL    HW114870   3.863   1.489   2.597
 4657SOL    HW214871   4.018   1.516   2.555
 4658SOL     OW14872   0.956   1.899   6.890
 4658SOL    HW114873   0.923   1.990   6.914
 4658SOL    HW214874   1.018   1.866   6.961
 4659SOL     OW14875   2.390   4.483   0.454
 4659SOL    HW114876   2.433   4.538   0.384
 4659SOL    HW214877   2.290   4.485   0.442
 4660SOL     OW14878   0.313   4.808   4.553
 4660SOL    HW114879   0.302   4.893   4.605
 4660SOL    HW214880   0.347   4.829   4.462
 4661SOL     OW14881   1.201   1.330   5.960
 4661SOL    HW114882   1.205   1.358   6.056
 4661SOL    HW214883   1.199   1.231   5.954
 4662SOL     OW14884   2.917   0.673   5.778
 4662SOL    HW114885   2.965   0.677   5.691
 4662SOL    HW214886   2.895   0.767   5.807
 4663SOL     OW14887   0.657   0.681   1.230
 4663SOL    HW114888   0.741   0.672   1.283
 4663SOL    HW214889   0.646   0.600   1.171
 4664SOL     OW14890   5.949   5.970   5.375
 4664SOL    HW114891   5.937   5.973   5.474
 4664SOL    HW214892   6.015   5.898   5.352
 4665SOL     OW14893   6.842   0.884   2.386
 4665SOL    HW114894   6.851   0.792   2.348
 4665SOL    HW214895   6.758   0.889   2.441
 4666SOL     OW14896   1.616   2.622   5.835
 4666SOL    HW114897   1.589   2.595   5.927
 4666SOL    HW214898   1.695   2.683   5.840
 4667SOL     OW14899   6.045   2.953   1.461
 4667SOL    HW114900   6.071   2.863   1.425
 4667SOL    HW214901   6.108   2.978   1.534
 4668SOL     OW14902   4.680   1.685   5.571
 4668SOL    HW114903   4.735   1.744   5.513
 4668SOL    HW214904   4.711   1.590   5.562
 4669SOL     OW14905   5.356   0.104   6.064
 4669SOL    HW114906   5.364   0.132   6.160
 4669SOL    HW214907   5.322   0.010   6.060
 4670SOL     OW14908   0.202   3.608   6.610
 4670SOL    HW114909   0.135   3.642   6.675
 4670SOL    HW214910   0.209   3.671   6.533
 4671SOL     OW14911   6.678   2.745   1.670
 4671SOL    HW114912   6.677   2.786   1.761
 4671SOL    HW214913   6.771   2.748   1.634
 4672SOL     OW14914   3.386   3.193   0.204
 4672SOL    HW114915   3.400   3.155   0.296
 4672SOL    HW214916   3.434   3.138   0.137
 4673SOL     OW14917   5.569   0.836   0.885
 4673SOL    HW114918   5.512   0.763   0.924
 4673SOL    HW214919   5.558   0.837   0.786
 4674SOL     OW14920   1.436   2.740   0.584
 4674SOL    HW114921   1.523   2.782   0.557
 4674SOL    HW214922   1.440   2.642   0.567
 4675SOL     OW14923   1.668   6.133   0.112
 4675SOL    HW114924   1.686   6.140   0.014
 4675SOL    HW214925   1.572   6.156   0.130
 4676SOL     OW14926   0.853   5.638   4.798
 4676SOL    HW114927   0.875   5.540   4.797
 4676SOL    HW214928   0.758   5.651   4.769
 4677SOL     OW14929   4.092   6.856   6.698
 4677SOL    HW114930   4.129   6.917   6.767
 4677SOL    HW214931   4.118   6.761   6.720
 4678SOL     OW14932   2.397   4.708   6.893
 4678SOL    HW114933   2.298   4.719   6.889
 4678SOL    HW214934   2.441   4.780   6.840
 4679SOL     OW14935   2.251   0.035   5.372
 4679SOL    HW114936   2.322   6.997   5.344
 4679SOL    HW214937   2.171   7.011   5.404
 4680SOL     OW14938   0.535   5.155   6.624
 4680SOL    HW114939   0.535   5.237   6.566
 4680SOL    HW214940   0.481   5.084   6.580
 4681SOL     OW14941   6.524   5.906   4.767
 4681SOL    HW114942   6.597   5.865   4.822
 4681SOL    HW214943   6.440   5.910   4.820
 4682SOL     OW14944   3.130   0.440   0.936
 4682SOL    HW114945   3.134   0.525   0.883
 4682SOL    HW214946   3.130   0.462   1.034
 4683SOL     OW14947   0.307   4.867   3.398
 4683SOL    HW114948   0.248   4.939   3.433
 4683SOL    HW214949   0.295   4.859   3.299
 4684SOL     OW14950   1.858   1.331   5.043
 4684SOL    HW114951   1.764   1.298   5.046
 4684SOL    HW214952   1.902   1.316   5.131
 4685SOL     OW14953   5.345   4.450   4.584
 4685SOL    HW114954   5.391   4.533   4.552
 4685SOL    HW214955   5.266   4.475   4.640
 4686SOL     OW14956   4.904   5.734   6.781
 4686SOL    HW114957   4.923   5.800   6.853
 4686SOL    HW214958   4.980   5.669   6.774
 4687SOL     OW14959   5.049   6.918   4.367
 4687SOL    HW114960   5.085   6.911   4.460
 4687SOL    HW214961   4.968   6.860   4.357
 4688SOL     OW14962   6.893   1.610   0.707
 4688SOL    HW114963   6.991   1.595   0.724
 4688SOL    HW214964   6.840   1.571   0.782
 4689SOL     OW14965   1.966   5.552   4.494
 4689SOL    HW114966   1.906   5.530   4.417
 4689SOL    HW214967   1.937   5.638   4.536
 4690SOL     OW14968   2.064   1.766   1.198
 4690SOL    HW114969   2.085   1.680   1.152
 4690SOL    HW214970   1.984   1.808   1.154
 4691SOL     OW14971   3.410   4.386   0.445
 4691SOL    HW114972   3.451   4.320   0.508
 4691SOL    HW214973   3.314   4.400   0.470
 4692SOL     OW14974   1.086   5.810   3.664
 4692SOL    HW114975   1.093   5.764   3.575
 4692SOL    HW214976   1.165   5.870   3.677
 4693SOL     OW14977   1.100   0.642   2.118
 4693SOL    HW114978   1.016   0.654   2.065
 4693SOL    HW214979   1.124   0.729   2.161
 4694SOL     OW14980   1.181   1.110   5.421
 4694SOL    HW114981   1.183   1.123   5.322
 4694SOL    HW214982   1.274   1.088   5.453
 4695SOL     OW14983   3.209   3.365   2.818
 4695SOL    HW114984   3.127   3.395   2.770
 4695SOL    HW214985   3.275   3.440   2.820
 4696SOL     OW14986   6.744   3.491   0.726
 4696SOL    HW114987   6.647   3.472   0.736
 4696SOL    HW214988   6.761   3.589   0.733
 4697SOL     OW14989   0.917   5.764   6.612
 4697SOL    HW114990   0.884   5.788   6.703
 4697SOL    HW214991   0.998   5.706   6.620
 4698SOL     OW14992   6.144   3.478   1.812
 4698SOL    HW114993   6.089   3.397   1.788
 4698SOL    HW214994   6.089   3.539   1.868
 4699SOL     OW14995   6.762   6.718   3.241
 4699SOL    HW114996   6.761   6.623   3.212
 4699SOL    HW214997   6.805   6.725   3.332
 4700SOL     OW14998   5.148   6.610   6.795
 4700SOL    HW114999   5.125   6.702   6.826
 4700SOL    HW215000   5.158   6.610   6.695
 4701SOL     OW15001   1.652   0.529   6.912
 4701SOL    HW115002   1.661   0.433   6.938
 4701SOL    HW215003   1.578   0.571   6.964
 4702SOL     OW15004   2.461   3.124   0.850
 4702SOL    HW115005   2.499   3.151   0.938
 4702SOL    HW215006   2.523   3.150   0.777
 4703SOL     OW15007   0.974   7.005   1.989
 4703SOL    HW115008   0.885   0.024   1.987
 4703SOL    HW215009   0.987   6.953   1.905
 4704SOL     OW15010   4.887   6.708   6.476
 4704SOL    HW115011   4.950   6.648   6.525
 4704SOL    HW215012   4.937   6.757   6.404
 4705SOL     OW15013   4.161   3.380   4.694
 4705SOL    HW115014   4.169   3.443   4.617
 4705SOL    HW215015   4.200   3.292   4.670
 4706SOL     OW15016   5.628   4.258   6.813
 4706SOL    HW115017   5.656   4.311   6.893
 4706SOL    HW215018   5.637   4.160   6.833
 4707SOL     OW15019   2.840   5.509   1.435
 4707SOL    HW115020   2.853   5.462   1.348
 4707SOL    HW215021   2.854   5.607   1.424
 4708SOL     OW15022   1.584   3.632   2.407
 4708SOL    HW115023   1.581   3.556   2.343
 4708SOL    HW215024   1.493   3.647   2.446
 4709SOL     OW15025   2.863   4.515   0.485
 4709SOL    HW115026   2.783   4.569   0.460
 4709SOL    HW215027   2.851   4.477   0.576
 4710SOL     OW15028   4.958   3.009   1.170
 4710SOL    HW115029   5.020   3.087   1.175
 4710SOL    HW215030   4.902   3.005   1.253
 4711SOL     OW15031   2.755   0.012   3.253
 4711SOL    HW115032   2.683   0.012   3.322
 4711SOL    HW215033   2.803   0.100   3.255
 4712SOL     OW15034   1.666   3.911   6.740
 4712SOL    HW115035   1.656   3.985   6.674
 4712SOL    HW215036   1.755   3.868   6.730
 4713SOL     OW15037   1.068   5.255   0.756
 4713SOL    HW115038   1.075   5.171   0.703
 4713SOL    HW215039   1.046   5.331   0.696
 4714SOL     OW15040   3.913   2.376   1.344
 4714SOL    HW115041   3.820   2.362   1.309
 4714SOL    HW215042   3.915   2.459   1.400
 4715SOL     OW15043   4.834   3.948   5.075
 4715SOL    HW115044   4.830   3.969   5.172
 4715SOL    HW215045   4.810   3.852   5.060
 4716SOL     OW15046   2.830   5.346   6.427
 4716SOL    HW115047   2.843   5.443   6.449
 4716SOL    HW215048   2.742   5.334   6.381
 4717SOL     OW15049   2.280   5.100   4.686
 4717SOL    HW115050   2.217   5.177   4.685
 4717SOL    HW215051   2.368   5.130   4.723
 4718SOL     OW15052   4.936   0.646   0.264
 4718SOL    HW115053   4.995   0.682   0.192
 4718SOL    HW215054   4.853   0.607   0.224
 4719SOL     OW15055   4.121   3.156   1.793
 4719SOL    HW115056   4.102   3.166   1.696
 4719SOL    HW215057   4.214   3.121   1.805
 4720SOL     OW15058   3.158   1.446   3.329
 4720SOL    HW115059   3.221   1.474   3.401
 4720SOL    HW215060   3.129   1.351   3.346
 4721SOL     OW15061   1.780   1.259   1.791
 4721SOL    HW115062   1.774   1.173   1.842
 4721SOL    HW215063   1.830   1.245   1.706
 4722SOL     OW15064   3.195   0.194   2.298
 4722SOL    HW115065   3.141   0.236   2.371
 4722SOL    HW215066   3.195   0.094   2.310
 4723SOL     OW15067   2.919   6.789   5.043
 4723SOL    HW115068   2.904   6.708   5.098
 4723SOL    HW215069   3.018   6.802   5.028
 4724SOL     OW15070   4.416   4.841   0.620
 4724SOL    HW115071   4.343   4.899   0.583
 4724SOL    HW215072   4.488   4.830   0.551
 4725SOL     OW15073   6.029   5.299   2.344
 4725SOL    HW115074   5.963   5.291   2.419
 4725SOL    HW215075   5.992   5.254   2.263
 4726SOL     OW15076   0.357   6.585   4.722
 4726SOL    HW115077   0.411   6.669   4.717
 4726SOL    HW215078   0.315   6.566   4.633
 4727SOL     OW15079   5.982   6.789   1.858
 4727SOL    HW115080   6.041   6.781   1.938
 4727SOL    HW215081   6.008   6.870   1.805
 4728SOL     OW15082   6.342   0.748   6.915
 4728SOL    HW115083   6.328   0.663   6.966
 4728SOL    HW215084   6.259   0.771   6.865
 4729SOL     OW15085   3.343   0.800   0.949
 4729SOL    HW115086   3.262   0.757   0.910
 4729SOL    HW215087   3.421   0.786   0.887
 4730SOL     OW15088   2.169   0.674   6.037
 4730SOL    HW115089   2.135   0.767   6.023
 4730SOL    HW215090   2.123   0.611   5.975
 4731SOL     OW15091   4.975   2.117   6.132
 4731SOL    HW115092   4.941   2.074   6.048
 4731SOL    HW215093   5.001   2.046   6.198
 4732SOL     OW15094   0.564   0.334   0.107
 4732SOL    HW115095   0.479   0.312   0.154
 4732SOL    HW215096   0.621   0.392   0.165
 4733SOL     OW15097   6.607   3.456   3.455
 4733SOL    HW115098   6.692   3.417   3.418
 4733SOL    HW215099   6.550   3.382   3.491
 4734SOL     OW15100   5.818   4.433   5.683
 4734SOL    HW115101   5.867   4.363   5.631
 4734SOL    HW215102   5.721   4.410   5.686
 4735SOL     OW15103   0.425   4.280   3.788
 4735SOL    HW115104   0.481   4.200   3.811
 4735SOL    HW215105   0.331   4.264   3.816
 4736SOL     OW15106   1.621   7.022   2.107
 4736SOL    HW115107   1.603   0.092   2.092
 4736SOL    HW215108   1.699   6.993   2.053
 4737SOL     OW15109   3.532   5.160   1.789
 4737SOL    HW115110   3.447   5.181   1.743
 4737SOL    HW215111   3.513   5.107   1.872
 4738SOL     OW15112   0.667   6.613   2.492
 4738SOL    HW115113   0.584   6.661   2.521
 4738SOL    HW215114   0.643   6.520   2.462
 4739SOL     OW15115   3.778   0.239   1.669
 4739SOL    HW115116   3.854   0.273   1.614
 4739SOL    HW215117   3.778   0.285   1.758
 4740SOL     OW15118   0.713   1.936   4.207
 4740SOL    HW115119   0.801   1.888   4.205
 4740SOL    HW215120   0.725   2.026   4.248
 4741SOL     OW15121   4.085   3.674   2.348
 4741SOL    HW115122   3.997   3.627   2.348
 4741SOL    HW215123   4.127   3.666   2.257
 4742SOL     OW15124   4.842   0.865   1.507
 4742SOL    HW115125   4.844   0.960   1.474
 4742SOL    HW215126   4.923   0.848   1.564
 4743SOL     OW15127   1.751   5.362   0.946
 4743SOL    HW115128   1.743   5.266   0.975
 4743SOL    HW215129   1.683   5.417   0.995
 4744SOL     OW15130   1.489   5.840   1.225
 4744SOL    HW115131   1.503   5.779   1.303
 4744SOL    HW215132   1.569   5.897   1.212
 4745SOL     OW15133   1.954   3.024   0.587
 4745SOL    HW115134   1.874   3.081   0.570
 4745SOL    HW215135   2.004   3.058   0.667
 4746SOL     OW15136   5.286   5.362   4.306
 4746SOL    HW115137   5.236   5.373   4.393
 4746SOL    HW215138   5.344   5.281   4.312
 4747SOL     OW15139   3.474   0.442   0.058
 4747SOL    HW115140   3.415   0.521   0.074
 4747SOL    HW215141   3.497   0.436   6.988
 4748SOL     OW15142   1.868   0.088   2.492
 4748SOL    HW115143   1.952   0.063   2.541
 4748SOL    HW215144   1.851   0.186   2.502
 4749SOL     OW15145   2.656   1.611   1.176
 4749SOL    HW115146   2.715   1.687   1.203
 4749SOL    HW215147   2.569   1.647   1.142
 4750SOL     OW15148   4.655   3.225   6.228
 4750SOL    HW115149   4.569   3.183   6.198
 4750SOL    HW215150   4.716   3.236   6.149
 4751SOL     OW15151   4.823   0.974   2.167
 4751SOL    HW115152   4.759   0.899   2.148
 4751SOL    HW215153   4.797   1.020   2.251
 4752SOL     OW15154   5.472   1.328   6.808
 4752SOL    HW115155   5.515   1.238   6.809
 4752SOL    HW215156   5.460   1.361   6.902
 4753SOL     OW15157   2.683   6.195   5.548
 4753SOL    HW115158   2.595   6.158   5.576
 4753SOL    HW215159   2.691   6.290   5.580
 4754SOL     OW15160   5.365   4.312   6.682
 4754SOL    HW115161   5.358   4.272   6.591
 4754SOL    HW215162   5.449   4.280   6.726
 4755SOL     OW15163   0.982   1.259   1.364
 4755SOL    HW115164   1.017   1.347   1.394
 4755SOL    HW215165   0.977   1.196   1.441
 4756SOL     OW15166   0.265   3.654   5.747
 4756SOL    HW115167   0.298   3.747   5.731
 4756SOL    HW215168   0.255   3.606   5.660
 4757SOL     OW15169   1.960   3.114   0.293
 4757SOL    HW115170   1.973   3.097   0.391
 4757SOL    HW215171   1.918   3.034   0.251
 4758SOL     OW15172   2.225   4.906   2.772
 4758SOL    HW115173   2.215   4.996   2.730
 4758SOL    HW215174   2.296   4.854   2.724
 4759SOL     OW15175   0.606   6.333   2.419
 4759SOL    HW115176   0.514   6.354   2.385
 4759SOL    HW215177   0.672   6.342   2.344
 4760SOL     OW15178   1.730   6.385   1.622
 4760SOL    HW115179   1.787   6.336   1.556
 4760SOL    HW215180   1.676   6.454   1.574
 4761SOL     OW15181   5.180   6.575   1.888
 4761SOL    HW115182   5.241   6.504   1.854
 4761SOL    HW215183   5.233   6.645   1.936
 4762SOL     OW15184   1.149   1.015   3.047
 4762SOL    HW115185   1.114   1.093   3.099
 4762SOL    HW215186   1.199   0.954   3.108
 4763SOL     OW15187   5.540   5.131   1.865
 4763SOL    HW115188   5.528   5.097   1.772
 4763SOL    HW215189   5.495   5.219   1.875
 4764SOL     OW15190   4.796   2.975   6.739
 4764SOL    HW115191   4.706   3.004   6.706
 4764SOL    HW215192   4.811   2.879   6.714
 4765SOL     OW15193   4.011   1.617   5.893
 4765SOL    HW115194   4.104   1.650   5.879
 4765SOL    HW215195   3.995   1.535   5.838
 4766SOL     OW15196   0.937   1.039   4.515
 4766SOL    HW115197   1.005   1.112   4.510
 4766SOL    HW215198   0.868   1.053   4.444
 4767SOL     OW15199   2.067   4.837   3.730
 4767SOL    HW115200   2.122   4.897   3.672
 4767SOL    HW215201   1.986   4.887   3.762
 4768SOL     OW15202   4.645   2.020   6.135
 4768SOL    HW115203   4.573   2.089   6.126
 4768SOL    HW215204   4.695   2.012   6.049
 4769SOL     OW15205   2.518   3.390   1.215
 4769SOL    HW115206   2.507   3.459   1.143
 4769SOL    HW215207   2.496   3.300   1.178
 4770SOL     OW15208   6.923   1.386   3.267
 4770SOL    HW115209   6.980   1.432   3.199
 4770SOL    HW215210   6.891   1.453   3.334
 4771SOL     OW15211   2.660   0.226   4.116
 4771SOL    HW115212   2.755   0.258   4.107
 4771SOL    HW215213   2.599   0.286   4.065
 4772SOL     OW15214   2.691   4.708   3.003
 4772SOL    HW115215   2.596   4.678   2.988
 4772SOL    HW215216   2.737   4.717   2.915
 4773SOL     OW15217   2.830   5.210   4.700
 4773SOL    HW115218   2.915   5.244   4.659
 4773SOL    HW215219   2.832   5.110   4.701
 4774SOL     OW15220   0.931   4.585   1.156
 4774SOL    HW115221   0.870   4.524   1.206
 4774SOL    HW215222   0.878   4.644   1.095
 4775SOL     OW15223   6.022   5.104   4.437
 4775SOL    HW115224   5.924   5.087   4.446
 4775SOL    HW215225   6.055   5.148   4.520
 4776SOL     OW15226   6.518   1.610   4.980
 4776SOL    HW115227   6.538   1.569   4.891
 4776SOL    HW215228   6.518   1.709   4.972
 4777SOL     OW15229   1.282   6.971   3.282
 4777SOL    HW115230   1.352   6.942   3.217
 4777SOL    HW215231   1.206   6.906   3.281
 4778SOL     OW15232   1.863   0.003   0.188
 4778SOL    HW115233   1.792   6.973   0.229
 4778SOL    HW215234   1.865   0.092   0.233
 4779SOL     OW15235   5.154   1.220   4.566
 4779SOL    HW115236   5.213   1.181   4.494
 4779SOL    HW215237   5.111   1.146   4.617
 4780SOL     OW15238   4.927   3.025   4.862
 4780SOL    HW115239   4.851   3.040   4.799
 4780SOL    HW215240   4.987   3.106   4.863
 4781SOL     OW15241   1.868   5.454   2.096
 4781SOL    HW115242   1.882   5.519   2.170
 4781SOL    HW215243   1.916   5.369   2.117
 4782SOL     OW15244   1.263   6.028   3.240
 4782SOL    HW115245   1.340   5.985   3.192
 4782SOL    HW215246   1.202   6.071   3.174
 4783SOL     OW15247   0.431   3.466   6.687
 4783SOL    HW115248   0.493   3.476   6.764
 4783SOL    HW215249   0.353   3.527   6.698
 4784SOL     OW15250   5.708   3.026   0.008
 4784SOL    HW115251   5.666   3.061   6.951
 4784SOL    HW215252   5.662   2.942   0.037
 4785SOL     OW15253   0.066   0.195   3.923
 4785SOL    HW115254   7.024   0.268   3.933
 4785SOL    HW215255   0.043   0.120   3.985
 4786SOL     OW15256   0.702   5.423   0.426
 4786SOL    HW115257   0.705   5.434   0.525
 4786SOL    HW215258   0.701   5.326   0.402
 4787SOL     OW15259   4.760   0.975   4.830
 4787SOL    HW115260   4.695   0.901   4.847
 4787SOL    HW215261   4.832   0.973   4.899
 4788SOL     OW15262   0.023   5.763   1.012
 4788SOL    HW115263   0.106   5.715   1.040
 4788SOL    HW215264   6.969   5.712   1.043
 4789SOL     OW15265   6.049   0.847   2.831
 4789SOL    HW115266   6.108   0.923   2.805
 4789SOL    HW215267   6.083   0.763   2.788
 4790SOL     OW15268   6.645   2.245   4.876
 4790SOL    HW115269   6.599   2.260   4.964
 4790SOL    HW215270   6.577   2.248   4.803
 4791SOL     OW15271   0.384   0.721   6.805
 4791SOL    HW115272   0.424   0.811   6.783
 4791SOL    HW215273   0.456   0.659   6.835
 4792SOL     OW15274   0.434   3.808   1.655
 4792SOL    HW115275   0.366   3.806   1.582
 4792SOL    HW215276   0.456   3.902   1.678
 4793SOL     OW15277   0.927   3.663   5.209
 4793SOL    HW115278   0.962   3.756   5.218
 4793SOL    HW215279   0.911   3.624   5.299
 4794SOL     OW15280   5.381   1.529   6.245
 4794SOL    HW115281   5.314   1.590   6.285
 4794SOL    HW215282   5.370   1.526   6.145
 4795SOL     OW15283   7.003   0.831   6.847
 4795SOL    HW115284   6.976   0.763   6.915
 4795SOL    HW215285   6.942   0.910   6.853
 4796SOL     OW15286   5.684   0.866   5.743
 4796SOL    HW115287   5.703   0.941   5.679
 4796SOL    HW215288   5.703   0.779   5.698
 4797SOL     OW15289   2.409   5.047   5.564
 4797SOL    HW115290   2.413   5.008   5.472
 4797SOL    HW215291   2.470   5.126   5.569
 4798SOL     OW15292   3.027   6.263   0.221
 4798SOL    HW115293   2.983   6.264   0.311
 4798SOL    HW215294   2.959   6.278   0.150
 4799SOL     OW15295   3.640   3.287   0.575
 4799SOL    HW115296   3.736   3.285   0.601
 4799SOL    HW215297   3.604   3.193   0.573
 4800SOL     OW15298   0.941   4.625   0.481
 4800SOL    HW115299   0.903   4.597   0.568
 4800SOL    HW215300   1.039   4.605   0.478
 4801SOL     OW15301   4.935   2.843   3.267
 4801SOL    HW115302   5.016   2.808   3.315
 4801SOL    HW215303   4.886   2.767   3.225
 4802SOL     OW15304   6.909   0.493   5.085
 4802SOL    HW115305   6.938   0.484   5.181
 4802SOL    HW215306   6.886   0.589   5.067
 4803SOL     OW15307   5.079   3.597   5.636
 4803SOL    HW115308   5.116   3.577   5.727
 4803SOL    HW215309   5.072   3.696   5.623
 4804SOL     OW15310   5.208   2.671   0.441
 4804SOL    HW115311   5.247   2.597   0.495
 4804SOL    HW215312   5.281   2.729   0.407
 4805SOL     OW15313   5.920   1.099   6.600
 4805SOL    HW115314   5.971   1.028   6.551
 4805SOL    HW215315   5.985   1.164   6.640
 4806SOL     OW15316   0.877   2.337   3.225
 4806SOL    HW115317   0.878   2.255   3.283
 4806SOL    HW215318   0.969   2.375   3.220
 4807SOL     OW15319   0.667   4.150   0.109
 4807SOL    HW115320   0.604   4.073   0.118
 4807SOL    HW215321   0.731   4.133   0.033
 4808SOL     OW15322   3.488   6.244   2.478
 4808SOL    HW115323   3.553   6.196   2.536
 4808SOL    HW215324   3.399   6.197   2.482
 4809SOL     OW15325   2.890   3.646   0.516
 4809SOL    HW115326   2.965   3.582   0.496
 4809SOL    HW215327   2.892   3.721   0.450
 4810SOL     OW15328   1.765   5.507   4.761
 4810SOL    HW115329   1.810   5.510   4.850
 4810SOL    HW215330   1.799   5.582   4.703
 4811SOL     OW15331   3.334   3.530   4.445
 4811SOL    HW115332   3.387   3.548   4.363
 4811SOL    HW215333   3.257   3.594   4.451
 4812SOL     OW15334   2.698   6.581   1.936
 4812SOL    HW115335   2.630   6.651   1.914
 4812SOL    HW215336   2.703   6.570   2.035
 4813SOL     OW15337   0.806   2.701   4.657
 4813SOL    HW115338   0.813   2.787   4.605
 4813SOL    HW215339   0.898   2.664   4.672
 4814SOL     OW15340   6.312   2.292   0.741
 4814SOL    HW115341   6.226   2.315   0.696
 4814SOL    HW215342   6.296   2.222   0.810
 4815SOL     OW15343   6.622   4.363   2.290
 4815SOL    HW115344   6.633   4.372   2.389
 4815SOL    HW215345   6.695   4.415   2.244
 4816SOL     OW15346   2.593   0.489   2.587
 4816SOL    HW115347   2.503   0.526   2.609
 4816SOL    HW215348   2.611   0.500   2.490
 4817SOL     OW15349   3.873   2.467   0.208
 4817SOL    HW115350   3.886   2.394   0.141
 4817SOL    HW215351   3.782   2.460   0.249
 4818SOL     OW15352   5.140   6.501   4.509
 4818SOL    HW115353   5.167   6.405   4.500
 4818SOL    HW215354   5.045   6.505   4.541
 4819SOL     OW15355   3.362   0.987   0.045
 4819SOL    HW115356   3.392   1.063   0.102
 4819SOL    HW215357   3.438   0.923   0.033
 4820SOL     OW15358   6.547   4.752   1.618
 4820SOL    HW115359   6.575   4.678   1.556
 4820SOL    HW215360   6.495   4.713   1.694
 4821SOL     OW15361   6.890   6.348   1.549
 4821SOL    HW115362   6.919   6.357   1.645
 4821SOL    HW215363   6.954   6.288   1.501
 4822SOL     OW15364   0.514   4.137   1.600
 4822SOL    HW115365   0.432   4.181   1.564
 4822SOL    HW215366   0.567   4.203   1.653
 4823SOL     OW15367   0.309   1.876   3.182
 4823SOL    HW115368   0.211   1.865   3.168
 4823SOL    HW215369   0.332   1.855   3.277
 4824SOL     OW15370   5.721   1.943   2.207
 4824SOL    HW115371   5.713   1.879   2.284
 4824SOL    HW215372   5.687   2.033   2.235
 4825SOL     OW15373   1.139   3.472   4.368
 4825SOL    HW115374   1.084   3.538   4.419
 4825SOL    HW215375   1.235   3.500   4.369
 4826SOL     OW15376   6.785   6.944   0.455
 4826SOL    HW115377   6.768   7.017   0.521
 4826SOL    HW215378   6.866   6.967   0.400
 4827SOL     OW15379   5.106   2.210   0.063
 4827SOL    HW115380   5.019   2.220   0.013
 4827SOL    HW215381   5.129   2.113   0.068
 4828SOL     OW15382   5.786   2.961   6.534
 4828SOL    HW115383   5.743   2.873   6.515
 4828SOL    HW215384   5.825   2.960   6.626
 4829SOL     OW15385   3.077   0.411   5.339
 4829SOL    HW115386   3.040   0.325   5.302
 4829SOL    HW215387   3.103   0.398   5.434
 4830SOL     OW15388   5.102   4.981   4.992
 4830SOL    HW115389   5.173   5.040   4.955
 4830SOL    HW215390   5.144   4.913   5.053
 4831SOL     OW15391   6.105   1.994   6.746
 4831SOL    HW115392   6.161   2.012   6.665
 4831SOL    HW215393   6.135   1.908   6.788
 4832SOL     OW15394   1.475   2.778   6.503
 4832SOL    HW115395   1.424   2.692   6.503
 4832SOL    HW215396   1.457   2.829   6.587
 4833SOL     OW15397   6.301   2.166   3.493
 4833SOL    HW115398   6.331   2.090   3.550
 4833SOL    HW215399   6.303   2.138   3.397
 4834SOL     OW15400   5.780   0.060   3.333
 4834SOL    HW115401   5.686   0.057   3.297
 4834SOL    HW215402   5.816   6.994   3.341
 4835SOL     OW15403   1.935   1.689   6.695
 4835SOL    HW115404   2.024   1.667   6.734
 4835SOL    HW215405   1.947   1.726   6.603
 4836SOL     OW15406   5.722   3.128   2.564
 4836SOL    HW115407   5.786   3.131   2.640
 4836SOL    HW215408   5.634   3.165   2.593
 4837SOL     OW15409   0.278   5.175   1.263
 4837SOL    HW115410   0.189   5.151   1.302
 4837SOL    HW215411   0.266   5.238   1.187
 4838SOL     OW15412   2.523   5.911   2.533
 4838SOL    HW115413   2.471   5.961   2.463
 4838SOL    HW215414   2.461   5.848   2.581
 4839SOL     OW15415   0.890   0.367   6.163
 4839SOL    HW115416   0.814   0.306   6.187
 4839SOL    HW215417   0.919   0.349   6.069
 4840SOL     OW15418   6.576   6.080   6.150
 4840SOL    HW115419   6.527   6.025   6.217
 4840SOL    HW215420   6.553   6.048   6.058
 4841SOL     OW15421   1.803   5.742   0.704
 4841SOL    HW115422   1.853   5.822   0.670
 4841SOL    HW215423   1.719   5.773   0.749
 4842SOL     OW15424   3.111   6.722   1.129
 4842SOL    HW115425   3.089   6.820   1.128
 4842SOL    HW215426   3.061   6.676   1.055
 4843SOL     OW15427   1.620   3.542   6.908
 4843SOL    HW115428   1.617   3.543   7.008
 4843SOL    HW215429   1.527   3.542   6.872
 4844SOL     OW15430   0.991   1.757   5.423
 4844SOL    HW115431   1.053   1.772   5.346
 4844SOL    HW215432   0.900   1.733   5.390
 4845SOL     OW15433   5.508   5.962   3.461
 4845SOL    HW115434   5.416   5.997   3.443
 4845SOL    HW215435   5.514   5.867   3.431
 4846SOL     OW15436   0.015   5.354   6.212
 4846SOL    HW115437   6.956   5.384   6.255
 4846SOL    HW215438   0.032   5.408   6.130
 4847SOL     OW15439   4.698   2.794   4.442
 4847SOL    HW115440   4.644   2.815   4.361
 4847SOL    HW215441   4.761   2.719   4.423
 4848SOL     OW15442   2.796   3.214   1.784
 4848SOL    HW115443   2.858   3.291   1.796
 4848SOL    HW215444   2.849   3.130   1.774
 4849SOL     OW15445   2.134   6.348   5.969
 4849SOL    HW115446   2.186   6.272   5.929
 4849SOL    HW215447   2.055   6.368   5.911
 4850SOL     OW15448   3.814   6.763   3.146
 4850SOL    HW115449   3.831   6.861   3.144
 4850SOL    HW215450   3.851   6.720   3.064
 4851SOL     OW15451   5.036   1.336   5.749
 4851SOL    HW115452   5.025   1.243   5.783
 4851SOL    HW215453   5.115   1.340   5.688
 4852SOL     OW15454   1.877   1.775   1.876
 4852SOL    HW115455   1.972   1.772   1.907
 4852SOL    HW215456   1.817   1.771   1.956
 4853SOL     OW15457   4.018   1.726   2.250
 4853SOL    HW115458   3.977   1.680   2.171
 4853SOL    HW215459   4.048   1.817   2.224
 4854SOL     OW15460   3.720   0.113   6.087
 4854SOL    HW115461   3.716   0.014   6.103
 4854SOL    HW215462   3.745   0.159   6.172
 4855SOL     OW15463   6.733   2.584   2.393
 4855SOL    HW115464   6.717   2.492   2.428
 4855SOL    HW215465   6.649   2.619   2.352
 4856SOL     OW15466   0.236   4.496   2.223
 4856SOL    HW115467   0.321   4.443   2.221
 4856SOL    HW215468   0.173   4.454   2.288
 4857SOL     OW15469   0.401   0.886   5.449
 4857SOL    HW115470   0.471   0.951   5.477
 4857SOL    HW215471   0.365   0.912   5.359
 4858SOL     OW15472   1.847   0.618   3.729
 4858SOL    HW115473   1.783   0.662   3.792
 4858SOL    HW215474   1.845   0.665   3.641
 4859SOL     OW15475   3.711   6.209   6.224
 4859SOL    HW115476   3.765   6.163   6.153
 4859SOL    HW215477   3.760   6.203   6.312
 4860SOL     OW15478   3.509   4.667   0.637
 4860SOL    HW115479   3.413   4.657   0.610
 4860SOL    HW215480   3.559   4.715   0.564
 4861SOL     OW15481   3.994   4.274   6.473
 4861SOL    HW115482   3.923   4.216   6.515
 4861SOL    HW215483   4.078   4.220   6.462
 4862SOL     OW15484   1.395   6.920   0.535
 4862SOL    HW115485   1.448   6.999   0.567
 4862SOL    HW215486   1.335   6.888   0.608
 4863SOL     OW15487   5.173   3.665   6.149
 4863SOL    HW115488   5.176   3.585   6.090
 4863SOL    HW215489   5.266   3.698   6.166
 4864SOL     OW15490   3.356   1.407   4.148
 4864SOL    HW115491   3.291   1.418   4.073
 4864SOL    HW215492   3.347   1.484   4.212
 4865SOL     OW15493   1.513   6.497   5.249
 4865SOL    HW115494   1.418   6.525   5.236
 4865SOL    HW215495   1.550   6.464   5.163
 4866SOL     OW15496   0.045   4.422   5.942
 4866SOL    HW115497   0.109   4.488   5.903
 4866SOL    HW215498   6.980   4.462   5.945
 4867SOL     OW15499   4.455   1.044   3.032
 4867SOL    HW115500   4.535   0.986   3.044
 4867SOL    HW215501   4.483   1.140   3.027
 4868SOL     OW15502   6.708   4.887   0.338
 4868SOL    HW115503   6.787   4.893   0.399
 4868SOL    HW215504   6.639   4.953   0.366
 4869SOL     OW15505   0.343   1.619   0.917
 4869SOL    HW115506   0.341   1.539   0.976
 4869SOL    HW215507   0.437   1.653   0.910
 4870SOL     OW15508   0.523   0.165   1.013
 4870SOL    HW115509   0.448   0.104   1.040
 4870SOL    HW215510   0.600   0.110   0.981
 4871SOL     OW15511   0.652   1.810   3.022
 4871SOL    HW115512   0.637   1.904   3.054
 4871SOL    HW215513   0.744   1.804   2.982
 4872SOL     OW15514   5.545   0.107   3.205
 4872SOL    HW115515   5.599   0.174   3.154
 4872SOL    HW215516   5.478   0.065   3.144
 4873SOL     OW15517   6.970   5.462   3.988
 4873SOL    HW115518   0.043   5.473   3.991
 4873SOL    HW215519   6.946   5.389   3.924
 4874SOL     OW15520   5.202   4.044   2.099
 4874SOL    HW115521   5.125   4.098   2.068
 4874SOL    HW215522   5.170   3.954   2.129
 4875SOL     OW15523   6.467   6.115   5.115
 4875SOL    HW115524   6.527   6.195   5.113
 4875SOL    HW215525   6.518   6.035   5.146
 4876SOL     OW15526   6.721   1.299   2.344
 4876SOL    HW115527   6.756   1.236   2.414
 4876SOL    HW215528   6.795   1.358   2.312
 4877SOL     OW15529   0.123   1.374   6.854
 4877SOL    HW115530   0.136   1.278   6.832
 4877SOL    HW215531   0.072   1.383   6.939
 4878SOL     OW15532   6.242   3.924   3.122
 4878SOL    HW115533   6.187   3.974   3.189
 4878SOL    HW215534   6.338   3.925   3.150
 4879SOL     OW15535   5.393   0.382   3.029
 4879SOL    HW115536   5.338   0.336   3.099
 4879SOL    HW215537   5.489   0.356   3.041
 4880SOL     OW15538   6.963   3.007   6.129
 4880SOL    HW115539   6.934   3.050   6.043
 4880SOL    HW215540   0.034   2.987   6.124
 4881SOL     OW15541   0.416   3.697   1.911
 4881SOL    HW115542   0.398   3.762   1.986
 4881SOL    HW215543   0.378   3.733   1.826
 4882SOL     OW15544   5.180   1.706   4.142
 4882SOL    HW115545   5.142   1.623   4.101
 4882SOL    HW215546   5.155   1.786   4.087
 4883SOL     OW15547   6.043   4.303   6.820
 4883SOL    HW115548   6.132   4.289   6.863
 4883SOL    HW215549   6.014   4.218   6.776
 4884SOL     OW15550   2.175   1.735   1.893
 4884SOL    HW115551   2.258   1.751   1.948
 4884SOL    HW215552   2.142   1.642   1.910
 4885SOL     OW15553   0.700   5.157   0.052
 4885SOL    HW115554   0.681   5.206   6.994
 4885SOL    HW215555   0.747   5.071   0.031
 4886SOL     OW15556   2.837   0.619   2.304
 4886SOL    HW115557   2.824   0.521   2.320
 4886SOL    HW215558   2.755   0.669   2.332
 4887SOL     OW15559   4.460   5.659   0.713
 4887SOL    HW115560   4.441   5.604   0.631
 4887SOL    HW215561   4.479   5.753   0.686
 4888SOL     OW15562   4.709   0.421   2.627
 4888SOL    HW115563   4.748   0.456   2.542
 4888SOL    HW215564   4.688   0.497   2.688
 4889SOL     OW15565   5.809   3.621   3.845
 4889SOL    HW115566   5.780   3.695   3.786
 4889SOL    HW215567   5.909   3.620   3.850
 4890SOL     OW15568   6.539   1.645   4.693
 4890SOL    HW115569   6.532   1.566   4.631
 4890SOL    HW215570   6.631   1.650   4.731
 4891SOL     OW15571   2.303   5.874   0.504
 4891SOL    HW115572   2.344   5.897   0.416
 4891SOL    HW215573   2.330   5.782   0.530
 4892SOL     OW15574   5.502   4.951   2.281
 4892SOL    HW115575   5.567   4.956   2.204
 4892SOL    HW215576   5.526   5.020   2.349
 4893SOL     OW15577   1.136   3.068   1.381
 4893SOL    HW115578   1.083   3.148   1.352
 4893SOL    HW215579   1.200   3.043   1.308
 4894SOL     OW15580   5.084   6.124   0.879
 4894SOL    HW115581   5.121   6.033   0.861
 4894SOL    HW215582   5.159   6.185   0.904
 4895SOL     OW15583   6.707   4.072   5.334
 4895SOL    HW115584   6.677   3.995   5.390
 4895SOL    HW215585   6.805   4.087   5.348
 4896SOL     OW15586   2.772   5.220   5.224
 4896SOL    HW115587   2.712   5.159   5.276
 4896SOL    HW215588   2.747   5.216   5.127
 4897SOL     OW15589   2.057   1.705   5.098
 4897SOL    HW115590   2.151   1.693   5.065
 4897SOL    HW215591   2.002   1.748   5.026
 4898SOL     OW15592   4.560   2.015   4.128
 4898SOL    HW115593   4.524   2.073   4.055
 4898SOL    HW215594   4.516   2.040   4.215
 4899SOL     OW15595   6.470   6.482   1.630
 4899SOL    HW115596   6.554   6.466   1.682
 4899SOL    HW215597   6.392   6.478   1.692
 4900SOL     OW15598   3.659   5.863   6.203
 4900SOL    HW115599   3.585   5.897   6.261
 4900SOL    HW215600   3.745   5.864   6.255
 4901SOL     OW15601   2.142   1.116   6.834
 4901SOL    HW115602   2.131   1.213   6.814
 4901SOL    HW215603   2.167   1.104   6.930
 4902SOL     OW15604   2.960   0.190   5.274
 4902SOL    HW115605   2.989   0.100   5.304
 4902SOL    HW215606   2.900   0.181   5.194
 4903SOL     OW15607   4.840   3.879   2.447
 4903SOL    HW115608   4.934   3.853   2.469
 4903SOL    HW215609   4.783   3.873   2.529
 4904SOL     OW15610   1.464   0.258   2.066
 4904SOL    HW115611   1.388   0.204   2.027
 4904SOL    HW215612   1.497   0.323   1.997
 4905SOL     OW15613   2.456   1.117   2.292
 4905SOL    HW115614   2.425   1.106   2.387
 4905SOL    HW215615   2.555   1.127   2.290
 4906SOL     OW15616   5.227   3.319   5.130
 4906SOL    HW115617   5.179   3.406   5.132
 4906SOL    HW215618   5.300   3.322   5.062
 4907SOL     OW15619   3.402   2.382   0.402
 4907SOL    HW115620   3.435   2.379   0.497
 4907SOL    HW215621   3.477   2.413   0.343
 4908SOL     OW15622   3.581   6.702   6.413
 4908SOL    HW115623   3.612   6.754   6.334
 4908SOL    HW215624   3.528   6.623   6.382
 4909SOL     OW15625   4.940   5.234   4.217
 4909SOL    HW115626   4.964   5.320   4.261
 4909SOL    HW215627   5.007   5.164   4.242
 4910SOL     OW15628   3.866   1.693   0.162
 4910SOL    HW115629   3.963   1.696   0.185
 4910SOL    HW215630   3.812   1.690   0.245
 4911SOL     OW15631   6.608   4.697   3.225
 4911SOL    HW115632   6.592   4.774   3.287
 4911SOL    HW215633   6.638   4.618   3.277
 4912SOL     OW15634   5.935   2.822   3.681
 4912SOL    HW115635   5.980   2.780   3.759
 4912SOL    HW215636   6.003   2.852   3.614
 4913SOL     OW15637   0.471   4.034   5.179
 4913SOL    HW115638   0.442   4.031   5.084
 4913SOL    HW215639   0.516   3.948   5.203
 4914SOL     OW15640   3.927   6.526   3.648
 4914SOL    HW115641   3.917   6.613   3.696
 4914SOL    HW215642   4.014   6.484   3.672
 4915SOL     OW15643   3.798   6.035   5.666
 4915SOL    HW115644   3.872   5.988   5.617
 4915SOL    HW215645   3.771   6.117   5.615
 4916SOL     OW15646   5.399   2.712   3.730
 4916SOL    HW115647   5.479   2.704   3.790
 4916SOL    HW215648   5.321   2.665   3.772
 4917SOL     OW15649   4.264   6.644   6.341
 4917SOL    HW115650   4.180   6.591   6.326
 4917SOL    HW215651   4.255   6.696   6.426
 4918SOL     OW15652   5.585   5.711   3.863
 4918SOL    HW115653   5.542   5.622   3.860
 4918SOL    HW215654   5.612   5.739   3.771
 4919SOL     OW15655   3.997   3.925   2.083
 4919SOL    HW115656   3.990   3.965   2.174
 4919SOL    HW215657   4.019   3.828   2.090
 4920SOL     OW15658   6.027   0.728   5.968
 4920SOL    HW115659   5.975   0.643   5.977
 4920SOL    HW215660   5.965   0.806   5.978
 4921SOL     OW15661   0.192   6.933   2.486
 4921SOL    HW115662   0.222   7.019   2.528
 4921SOL    HW215663   0.107   6.903   2.529
 4922SOL     OW15664   4.114   1.049   5.863
 4922SOL    HW115665   4.038   0.993   5.896
 4922SOL    HW215666   4.170   1.078   5.940
 4923SOL     OW15667   3.840   1.509   1.738
 4923SOL    HW115668   3.892   1.583   1.694
 4923SOL    HW215669   3.812   1.443   1.669
 4924SOL     OW15670   2.502   1.588   5.163
 4924SOL    HW115671   2.492   1.559   5.258
 4924SOL    HW215672   2.595   1.569   5.132
 4925SOL     OW15673   4.459   5.891   3.580
 4925SOL    HW115674   4.403   5.870   3.500
 4925SOL    HW215675   4.540   5.833   3.580
 4926SOL     OW15676   5.211   2.694   1.775
 4926SOL    HW115677   5.244   2.751   1.700
 4926SOL    HW215678   5.137   2.742   1.823
 4927SOL     OW15679   2.505   1.392   0.263
 4927SOL    HW115680   2.460   1.434   0.184
 4927SOL    HW215681   2.435   1.355   0.325
 4928SOL     OW15682   0.221   0.800   1.073
 4928SOL    HW115683   0.164   0.745   1.134
 4928SOL    HW215684   0.204   0.898   1.090
 4929SOL     OW15685   6.982   0.080   5.194
 4929SOL    HW115686   0.023   0.107   5.125
 4929SOL    HW215687   7.018   0.006   5.250
 4930SOL     OW15688   4.262   5.623   2.670
 4930SOL    HW115689   4.200   5.598   2.596
 4930SOL    HW215690   4.353   5.587   2.651
 4931SOL     OW15691   5.971   0.234   1.303
 4931SOL    HW115692   6.036   0.309   1.299
 4931SOL    HW215693   5.965   0.190   1.214
 4932SOL     OW15694   3.627   3.776   3.172
 4932SOL    HW115695   3.599   3.691   3.215
 4932SOL    HW215696   3.683   3.756   3.091
 4933SOL     OW15697   1.707   6.700   5.050
 4933SOL    HW115698   1.785   6.692   4.988
 4933SOL    HW215699   1.656   6.614   5.051
 4934SOL     OW15700   3.321   6.914   2.958
 4934SOL    HW115701   3.338   7.012   2.972
 4934SOL    HW215702   3.229   6.891   2.989
 4935SOL     OW15703   6.521   0.394   5.171
 4935SOL    HW115704   6.575   0.466   5.214
 4935SOL    HW215705   6.433   0.431   5.141
 4936SOL     OW15706   4.231   3.070   0.825
 4936SOL    HW115707   4.293   3.085   0.748
 4936SOL    HW215708   4.279   3.020   0.897
 4937SOL     OW15709   4.021   2.844   5.280
 4937SOL    HW115710   3.933   2.874   5.242
 4937SOL    HW215711   4.041   2.751   5.247
 4938SOL     OW15712   3.323   4.505   6.889
 4938SOL    HW115713   3.403   4.492   6.831
 4938SOL    HW215714   3.247   4.449   6.855
 4939SOL     OW15715   4.407   3.871   6.325
 4939SOL    HW115716   4.330   3.808   6.336
 4939SOL    HW215717   4.377   3.954   6.278
 4940SOL     OW15718   1.884   6.061   3.936
 4940SOL    HW115719   1.857   6.034   3.844
 4940SOL    HW215720   1.832   6.142   3.964
 4941SOL     OW15721   5.988   0.958   1.501
 4941SOL    HW115722   5.967   1.050   1.533
 4941SOL    HW215723   6.087   0.942   1.510
 4942SOL     OW15724   5.368   2.249   5.952
 4942SOL    HW115725   5.363   2.159   5.907
 4942SOL    HW215726   5.423   2.311   5.896
 4943SOL     OW15727   5.597   2.955   1.037
 4943SOL    HW115728   5.677   2.899   1.017
 4943SOL    HW215729   5.581   2.957   1.135
 4944SOL     OW15730   2.118   3.721   2.143
 4944SOL    HW115731   2.183   3.663   2.094
 4944SOL    HW215732   2.157   3.746   2.232
 4945SOL     OW15733   0.066   5.927   4.319
 4945SOL    HW115734   0.048   6.024   4.300
 4945SOL    HW215735   0.101   5.883   4.236
 4946SOL     OW15736   6.817   4.596   2.164
 4946SOL    HW115737   6.833   4.516   2.106
 4946SOL    HW215738   6.729   4.637   2.141
 4947SOL     OW15739   5.957   0.679   0.664
 4947SOL    HW115740   5.990   0.644   0.576
 4947SOL    HW215741   6.008   0.760   0.689
 4948SOL     OW15742   2.354   1.686   2.604
 4948SOL    HW115743   2.331   1.670   2.508
 4948SOL    HW215744   2.447   1.722   2.610
 4949SOL     OW15745   5.239   2.200   4.999
 4949SOL    HW115746   5.337   2.215   4.986
 4949SOL    HW215747   5.216   2.107   4.973
 4950SOL     OW15748   3.097   5.651   4.682
 4950SOL    HW115749   3.160   5.729   4.678
 4950SOL    HW215750   3.052   5.650   4.771
 4951SOL     OW15751   4.170   2.259   4.020
 4951SOL    HW115752   4.209   2.339   3.976
 4951SOL    HW215753   4.084   2.235   3.976
 4952SOL     OW15754   6.480   4.434   4.294
 4952SOL    HW115755   6.448   4.372   4.366
 4952SOL    HW215756   6.524   4.380   4.222
 4953SOL     OW15757   0.850   4.493   1.956
 4953SOL    HW115758   0.942   4.528   1.937
 4953SOL    HW215759   0.786   4.528   1.888
 4954SOL     OW15760   6.510   6.451   6.503
 4954SOL    HW115761   6.436   6.460   6.569
 4954SOL    HW215762   6.596   6.433   6.551
 4955SOL     OW15763   1.668   0.326   1.607
 4955SOL    HW115764   1.722   0.329   1.692
 4955SOL    HW215765   1.729   0.310   1.530
 4956SOL     OW15766   6.236   6.306   3.516
 4956SOL    HW115767   6.246   6.403   3.540
 4956SOL    HW215768   6.143   6.276   3.536
 4957SOL     OW15769   1.464   5.789   4.172
 4957SOL    HW115770   1.510   5.819   4.255
 4957SOL    HW215771   1.421   5.867   4.127
 4958SOL     OW15772   6.788   6.739   6.757
 4958SOL    HW115773   6.778   6.832   6.792
 4958SOL    HW215774   6.788   6.741   6.657
 4959SOL     OW15775   0.644   2.125   0.016
 4959SOL    HW115776   0.726   2.157   6.996
 4959SOL    HW215777   0.597   2.058   6.985
 4960SOL     OW15778   3.603   0.187   5.397
 4960SOL    HW115779   3.661   0.144   5.328
 4960SOL    HW215780   3.518   0.134   5.406
 4961SOL     OW15781   5.225   0.426   5.283
 4961SOL    HW115782   5.175   0.489   5.342
 4961SOL    HW215783   5.248   0.343   5.335
 4962SOL     OW15784   6.281   2.299   2.076
 4962SOL    HW115785   6.290   2.276   1.979
 4962SOL    HW215786   6.223   2.232   2.121
 4963SOL     OW15787   0.385   4.378   1.279
 4963SOL    HW115788   0.472   4.387   1.328
 4963SOL    HW215789   0.312   4.419   1.334
 4964SOL     OW15790   3.057   6.724   3.056
 4964SOL    HW115791   2.967   6.733   3.098
 4964SOL    HW215792   3.127   6.750   3.122
 4965SOL     OW15793   7.009   5.974   4.840
 4965SOL    HW115794   7.005   5.875   4.827
 4965SOL    HW215795   0.070   6.008   4.805
 4966SOL     OW15796   4.811   5.659   5.059
 4966SOL    HW115797   4.833   5.748   5.097
 4966SOL    HW215798   4.862   5.588   5.107
 4967SOL     OW15799   5.950   1.859   0.051
 4967SOL    HW115800   5.986   1.801   7.004
 4967SOL    HW215801   5.905   1.939   0.011
 4968SOL     OW15802   5.220   4.134   6.481
 4968SOL    HW115803   5.156   4.069   6.442
 4968SOL    HW215804   5.245   4.202   6.411
 4969SOL     OW15805   1.698   1.748   1.583
 4969SOL    HW115806   1.733   1.718   1.671
 4969SOL    HW215807   1.762   1.721   1.510
 4970SOL     OW15808   1.863   2.713   5.802
 4970SOL    HW115809   1.931   2.639   5.794
 4970SOL    HW215810   1.893   2.791   5.748
 4971SOL     OW15811   6.472   5.362   3.825
 4971SOL    HW115812   6.482   5.305   3.744
 4971SOL    HW215813   6.555   5.357   3.880
 4972SOL     OW15814   1.700   2.072   4.683
 4972SOL    HW115815   1.696   2.082   4.584
 4972SOL    HW215816   1.795   2.055   4.711
 4973SOL     OW15817   4.925   5.604   2.800
 4973SOL    HW115818   4.927   5.518   2.749
 4973SOL    HW215819   4.889   5.677   2.741
 4974SOL     OW15820   3.895   6.683   6.409
 4974SOL    HW115821   3.953   6.643   6.480
 4974SOL    HW215822   3.859   6.610   6.351
 4975SOL     OW15823   3.927   6.298   0.527
 4975SOL    HW115824   3.902   6.384   0.484
 4975SOL    HW215825   4.026   6.297   0.543
 4976SOL     OW15826   2.168   0.768   4.565
 4976SOL    HW115827   2.124   0.760   4.654
 4976SOL    HW215828   2.101   0.749   4.493
 4977SOL     OW15829   3.483   3.279   0.943
 4977SOL    HW115830   3.463   3.352   0.878
 4977SOL    HW215831   3.478   3.190   0.897
 4978SOL     OW15832   6.521   4.357   6.434
 4978SOL    HW115833   6.423   4.358   6.456
 4978SOL    HW215834   6.544   4.271   6.389
 4979SOL     OW15835   2.342   2.457   3.874
 4979SOL    HW115836   2.351   2.438   3.776
 4979SOL    HW215837   2.401   2.393   3.925
 4980SOL     OW15838   2.209   4.777   3.432
 4980SOL    HW115839   2.217   4.873   3.461
 4980SOL    HW215840   2.115   4.747   3.444
 4981SOL     OW15841   5.464   5.546   5.225
 4981SOL    HW115842   5.472   5.599   5.310
 4981SOL    HW215843   5.499   5.600   5.149
 4982SOL     OW15844   2.203   1.544   6.698
 4982SOL    HW115845   2.242   1.634   6.680
 4982SOL    HW215846   2.188   1.496   6.612
 4983SOL     OW15847   6.683   2.393   4.413
 4983SOL    HW115848   6.627   2.467   4.373
 4983SOL    HW215849   6.687   2.316   4.349
 4984SOL     OW15850   4.934   4.841   3.327
 4984SOL    HW115851   4.983   4.856   3.413
 4984SOL    HW215852   4.836   4.855   3.342
 4985SOL     OW15853   5.871   3.779   2.326
 4985SOL    HW115854   5.850   3.690   2.366
 4985SOL    HW215855   5.802   3.802   2.257
 4986SOL     OW15856   4.490   5.225   2.747
 4986SOL    HW115857   4.403   5.176   2.754
 4986SOL    HW215858   4.556   5.169   2.697
 4987SOL     OW15859   0.812   3.028   0.338
 4987SOL    HW115860   0.723   3.053   0.300
 4987SOL    HW215861   0.810   2.932   0.367
 4988SOL     OW15862   1.948   2.500   5.534
 4988SOL    HW115863   2.045   2.475   5.536
 4988SOL    HW215864   1.939   2.598   5.553
 4989SOL     OW15865   0.213   1.086   1.102
 4989SOL    HW115866   0.167   1.156   1.156
 4989SOL    HW215867   0.310   1.107   1.096
 4990SOL     OW15868   1.379   2.234   6.675
 4990SOL    HW115869   1.287   2.214   6.639
 4990SOL    HW215870   1.444   2.169   6.638
 4991SOL     OW15871   2.798   2.055   5.529
 4991SOL    HW115872   2.767   1.960   5.538
 4991SOL    HW215873   2.878   2.070   5.588
 4992SOL     OW15874   4.029   6.586   4.809
 4992SOL    HW115875   3.937   6.619   4.832
 4992SOL    HW215876   4.038   6.581   4.710
 4993SOL     OW15877   1.550   6.444   4.148
 4993SOL    HW115878   1.629   6.449   4.210
 4993SOL    HW215879   1.518   6.537   4.129
 4994SOL     OW15880   0.184   6.795   3.173
 4994SOL    HW115881   0.254   6.725   3.185
 4994SOL    HW215882   0.185   6.856   3.252
 4995SOL     OW15883   5.893   3.275   5.698
 4995SOL    HW115884   5.919   3.197   5.641
 4995SOL    HW215885   5.875   3.244   5.791
 4996SOL     OW15886   0.958   1.704   3.613
 4996SOL    HW115887   0.906   1.749   3.540
 4996SOL    HW215888   1.034   1.763   3.641
 4997SOL     OW15889   0.027   2.577   3.935
 4997SOL    HW115890   0.109   2.532   3.900
 4997SOL    HW215891   6.973   2.521   3.915
 4998SOL     OW15892   0.986   5.845   5.643
 4998SOL    HW115893   0.923   5.923   5.641
 4998SOL    HW215894   0.937   5.762   5.615
 4999SOL     OW15895   6.059   4.862   0.926
 4999SOL    HW115896   6.087   4.957   0.909
 4999SOL    HW215897   5.963   4.851   0.901
 5000SOL     OW15898   6.365   5.177   4.448
 5000SOL    HW115899   6.361   5.117   4.528
 5000SOL    HW215900   6.371   5.122   4.365
 5001SOL     OW15901   4.854   3.481   5.498
 5001SOL    HW115902   4.831   3.391   5.461
 5001SOL    HW215903   4.939   3.513   5.457
 5002SOL     OW15904   1.490   2.338   1.842
 5002SOL    HW115905   1.431   2.278   1.789
 5002SOL    HW215906   1.578   2.292   1.859
 5003SOL     OW15907   6.832   5.355   4.214
 5003SOL    HW115908   6.869   5.402   4.134
 5003SOL    HW215909   6.855   5.407   4.297
 5004SOL     OW15910   1.999   4.424   6.244
 5004SOL    HW115911   2.015   4.497   6.177
 5004SOL    HW215912   1.940   4.354   6.204
 5005SOL     OW15913   4.924   2.288   0.336
 5005SOL    HW115914   4.826   2.286   0.352
 5005SOL    HW215915   4.942   2.307   0.240
 5006SOL     OW15916   5.132   4.842   2.237
 5006SOL    HW115917   5.193   4.835   2.158
 5006SOL    HW215918   5.038   4.850   2.205
 5007SOL     OW15919   4.286   0.314   4.862
 5007SOL    HW115920   4.229   0.396   4.871
 5007SOL    HW215921   4.314   0.282   4.953
 5008SOL     OW15922   6.342   1.815   3.940
 5008SOL    HW115923   6.362   1.911   3.920
 5008SOL    HW215924   6.293   1.775   3.863
 5009SOL     OW15925   2.378   6.542   1.700
 5009SOL    HW115926   2.441   6.619   1.691
 5009SOL    HW215927   2.423   6.468   1.751
 5010SOL     OW15928   3.095   3.717   5.862
 5010SOL    HW115929   3.013   3.664   5.842
 5010SOL    HW215930   3.107   3.724   5.961
 5011SOL     OW15931   1.394   1.598   3.558
 5011SOL    HW115932   1.328   1.551   3.617
 5011SOL    HW215933   1.411   1.690   3.593
 5012SOL     OW15934   5.996   2.982   0.003
 5012SOL    HW115935   5.896   2.991   0.008
 5012SOL    HW215936   6.029   2.929   0.081
 5013SOL     OW15937   4.825   1.878   5.461
 5013SOL    HW115938   4.838   1.947   5.532
 5013SOL    HW215939   4.902   1.881   5.397
 5014SOL     OW15940   6.947   5.285   6.753
 5014SOL    HW115941   6.948   5.224   6.674
 5014SOL    HW215942   6.885   5.362   6.735
 5015SOL     OW15943   4.875   2.081   3.816
 5015SOL    HW115944   4.945   2.135   3.862
 5015SOL    HW215945   4.838   2.013   3.879
 5016SOL     OW15946   2.842   6.086   1.557
 5016SOL    HW115947   2.848   6.103   1.655
 5016SOL    HW215948   2.819   5.990   1.541
 5017SOL     OW15949   1.316   1.880   1.861
 5017SOL    HW115950   1.403   1.917   1.896
 5017SOL    HW215951   1.248   1.881   1.934
 5018SOL     OW15952   6.200   5.097   4.020
 5018SOL    HW115953   6.246   5.086   3.932
 5018SOL    HW215954   6.103   5.117   4.005
 5019SOL     OW15955   3.281   5.545   5.286
 5019SOL    HW115956   3.199   5.492   5.310
 5019SOL    HW215957   3.349   5.485   5.245
 5020SOL     OW15958   4.494   4.863   0.058
 5020SOL    HW115959   4.558   4.897   7.016
 5020SOL    HW215960   4.533   4.783   0.104
 5021SOL     OW15961   1.809   4.553   5.577
 5021SOL    HW115962   1.836   4.597   5.662
 5021SOL    HW215963   1.865   4.470   5.564
 5022SOL     OW15964   1.919   4.066   0.104
 5022SOL    HW115965   1.983   4.103   0.171
 5022SOL    HW215966   1.963   3.993   0.052
 5023SOL     OW15967   0.152   2.978   4.785
 5023SOL    HW115968   0.219   3.024   4.843
 5023SOL    HW215969   0.187   2.887   4.761
 5024SOL     OW15970   4.772   3.816   5.503
 5024SOL    HW115971   4.814   3.904   5.526
 5024SOL    HW215972   4.746   3.768   5.587
 5025SOL     OW15973   5.832   0.697   4.224
 5025SOL    HW115974   5.782   0.668   4.306
 5025SOL    HW215975   5.805   0.790   4.199
 5026SOL     OW15976   0.745   5.505   2.961
 5026SOL    HW115977   0.776   5.424   3.010
 5026SOL    HW215978   0.668   5.546   3.009
 5027SOL     OW15979   1.048   5.448   3.334
 5027SOL    HW115980   1.067   5.373   3.271
 5027SOL    HW215981   1.134   5.493   3.360
 5028SOL     OW15982   0.875   6.583   3.263
 5028SOL    HW115983   0.874   6.547   3.170
 5028SOL    HW215984   0.903   6.511   3.327
 5029SOL     OW15985   6.186   0.663   3.964
 5029SOL    HW115986   6.150   0.754   3.985
 5029SOL    HW215987   6.205   0.613   4.048
 5030SOL     OW15988   1.221   6.534   7.000
 5030SOL    HW115989   1.145   6.485   0.018
 5030SOL    HW215990   1.235   6.497   6.908
 5031SOL     OW15991   5.478   0.329   6.799
 5031SOL    HW115992   5.542   0.253   6.789
 5031SOL    HW215993   5.504   0.382   6.880
 5032SOL     OW15994   1.256   5.080   2.553
 5032SOL    HW115995   1.171   5.128   2.531
 5032SOL    HW215996   1.331   5.121   2.501
 5033SOL     OW15997   0.460   4.610   4.675
 5033SOL    HW115998   0.403   4.677   4.627
 5033SOL    HW215999   0.452   4.624   4.774
 5034SOL     OW16000   0.453   3.462   6.419
 5034SOL    HW116001   0.426   3.375   6.380
 5034SOL    HW216002   0.434   3.462   6.518
 5035SOL     OW16003   6.992   4.003   1.495
 5035SOL    HW116004   6.895   4.000   1.474
 5035SOL    HW216005   0.018   3.995   1.411
 5036SOL     OW16006   0.910   1.731   2.743
 5036SOL    HW116007   0.821   1.758   2.706
 5036SOL    HW216008   0.908   1.736   2.843
 5037SOL     OW16009   5.070   4.049   1.768
 5037SOL    HW116010   5.113   4.101   1.694
 5037SOL    HW216011   5.067   4.106   1.851
 5038SOL     OW16012   3.342   5.603   5.561
 5038SOL    HW116013   3.435   5.618   5.595
 5038SOL    HW216014   3.343   5.594   5.462
 5039SOL     OW16015   1.409   2.259   3.486
 5039SOL    HW116016   1.404   2.185   3.418
 5039SOL    HW216017   1.493   2.311   3.472
 5040SOL     OW16018   2.837   3.607   5.823
 5040SOL    HW116019   2.873   3.536   5.883
 5040SOL    HW216020   2.866   3.589   5.729
 5041SOL     OW16021   6.971   5.612   0.486
 5041SOL    HW116022   6.885   5.566   0.507
 5041SOL    HW216023   0.015   5.579   0.549
 5042SOL     OW16024   5.684   1.862   6.145
 5042SOL    HW116025   5.711   1.797   6.215
 5042SOL    HW216026   5.661   1.950   6.187
 5043SOL     OW16027   5.266   5.648   3.672
 5043SOL    HW116028   5.172   5.678   3.687
 5043SOL    HW216029   5.278   5.624   3.576
 5044SOL     OW16030   6.115   4.341   2.011
 5044SOL    HW116031   6.084   4.408   2.079
 5044SOL    HW216032   6.143   4.257   2.058
 5045SOL     OW16033   5.566   2.612   5.357
 5045SOL    HW116034   5.538   2.693   5.409
 5045SOL    HW216035   5.555   2.629   5.260
 5046SOL     OW16036   4.024   3.126   5.888
 5046SOL    HW116037   4.122   3.118   5.907
 5046SOL    HW216038   4.000   3.066   5.812
 5047SOL     OW16039   0.214   1.459   2.284
 5047SOL    HW116040   0.118   1.432   2.283
 5047SOL    HW216041   0.271   1.377   2.281
 5048SOL     OW16042   6.037   3.415   1.011
 5048SOL    HW116043   5.952   3.364   1.015
 5048SOL    HW216044   6.018   3.513   1.018
 5049SOL     OW16045   0.975   1.386   1.685
 5049SOL    HW116046   1.007   1.389   1.779
 5049SOL    HW216047   0.944   1.293   1.663
 5050SOL     OW16048   2.044   4.473   0.371
 5050SOL    HW116049   2.086   4.427   0.292
 5050SOL    HW216050   1.972   4.535   0.341
 5051SOL     OW16051   2.389   4.201   6.510
 5051SOL    HW116052   2.326   4.252   6.451
 5051SOL    HW216053   2.349   4.112   6.533
 5052SOL     OW16054   6.243   2.898   0.893
 5052SOL    HW116055   6.269   2.888   0.797
 5052SOL    HW216056   6.312   2.952   0.941
 5053SOL     OW16057   1.282   4.182   1.359
 5053SOL    HW116058   1.284   4.228   1.270
 5053SOL    HW216059   1.341   4.101   1.356
 5054SOL     OW16060   4.236   5.852   5.325
 5054SOL    HW116061   4.194   5.766   5.296
 5054SOL    HW216062   4.192   5.928   5.279
 5055SOL     OW16063   0.732   0.558   3.692
 5055SOL    HW116064   0.765   0.619   3.620
 5055SOL    HW216065   0.802   0.549   3.763
 5056SOL     OW16066   3.300   2.477   6.162
 5056SOL    HW116067   3.347   2.393   6.192
 5056SOL    HW216068   3.232   2.454   6.092
 5057SOL     OW16069   0.382   4.131   2.564
 5057SOL    HW116070   0.403   4.209   2.625
 5057SOL    HW216071   0.400   4.158   2.470
 5058SOL     OW16072   3.782   1.969   0.345
 5058SOL    HW116073   3.706   1.940   0.287
 5058SOL    HW216074   3.770   2.065   0.371
 5059SOL     OW16075   5.516   2.296   2.504
 5059SOL    HW116076   5.578   2.353   2.558
 5059SOL    HW216077   5.428   2.289   2.551
 5060SOL     OW16078   6.279   3.042   5.651
 5060SOL    HW116079   6.324   3.128   5.626
 5060SOL    HW216080   6.248   2.996   5.568
 5061SOL     OW16081   3.968   2.713   5.521
 5061SOL    HW116082   4.006   2.794   5.476
 5061SOL    HW216083   4.038   2.643   5.528
 5062SOL     OW16084   5.470   1.477   3.193
 5062SOL    HW116085   5.440   1.503   3.285
 5062SOL    HW216086   5.497   1.559   3.143
 5063SOL     OW16087   0.651   1.700   1.527
 5063SOL    HW116088   0.708   1.737   1.454
 5063SOL    HW216089   0.705   1.692   1.611
 5064SOL     OW16090   6.246   4.912   1.153
 5064SOL    HW116091   6.187   4.991   1.172
 5064SOL    HW216092   6.340   4.934   1.177
 5065SOL     OW16093   2.332   1.940   2.814
 5065SOL    HW116094   2.363   1.872   2.748
 5065SOL    HW216095   2.299   2.021   2.765
 5066SOL     OW16096   1.406   5.272   3.415
 5066SOL    HW116097   1.429   5.183   3.455
 5066SOL    HW216098   1.316   5.267   3.373
 5067SOL     OW16099   5.036   2.691   0.777
 5067SOL    HW116100   5.089   2.776   0.779
 5067SOL    HW216101   4.957   2.701   0.716
 5068SOL     OW16102   1.555   6.757   1.167
 5068SOL    HW116103   1.516   6.833   1.219
 5068SOL    HW216104   1.651   6.775   1.148
 5069SOL     OW16105   4.551   4.317   5.983
 5069SOL    HW116106   4.641   4.355   5.964
 5069SOL    HW216107   4.483   4.362   5.923
 5070SOL     OW16108   6.753   3.619   6.094
 5070SOL    HW116109   6.792   3.668   6.016
 5070SOL    HW216110   6.749   3.680   6.173
 5071SOL     OW16111   2.555   6.454   2.513
 5071SOL    HW116112   2.488   6.393   2.555
 5071SOL    HW216113   2.638   6.457   2.569
 5072SOL     OW16114   0.868   1.667   2.356
 5072SOL    HW116115   0.907   1.612   2.430
 5072SOL    HW216116   0.920   1.652   2.272
 5073SOL     OW16117   1.766   1.383   3.639
 5073SOL    HW116118   1.749   1.389   3.541
 5073SOL    HW216119   1.863   1.365   3.656
 5074SOL     OW16120   3.698   2.064   1.012
 5074SOL    HW116121   3.723   1.975   0.973
 5074SOL    HW216122   3.611   2.093   0.974
 5075SOL     OW16123   6.217   2.301   0.284
 5075SOL    HW116124   6.306   2.344   0.300
 5075SOL    HW216125   6.195   2.240   0.360
 5076SOL     OW16126   6.665   0.916   5.823
 5076SOL    HW116127   6.673   1.011   5.793
 5076SOL    HW216128   6.576   0.902   5.866
 5077SOL     OW16129   0.302   4.533   3.997
 5077SOL    HW116130   0.282   4.630   3.987
 5077SOL    HW216131   0.373   4.506   3.931
 5078SOL     OW16132   6.170   2.397   3.158
 5078SOL    HW116133   6.214   2.369   3.073
 5078SOL    HW216134   6.200   2.488   3.183
 5079SOL     OW16135   1.903   4.137   5.032
 5079SOL    HW116136   1.934   4.136   4.937
 5079SOL    HW216137   1.807   4.164   5.036
 5080SOL     OW16138   6.358   5.350   6.897
 5080SOL    HW116139   6.389   5.367   6.803
 5080SOL    HW216140   6.413   5.405   6.960
 5081SOL     OW16141   2.609   4.669   5.496
 5081SOL    HW116142   2.523   4.624   5.520
 5081SOL    HW216143   2.639   4.639   5.406
 5082SOL     OW16144   6.068   0.166   2.667
 5082SOL    HW116145   5.993   0.207   2.615
 5082SOL    HW216146   6.068   0.204   2.760
 5083SOL     OW16147   0.949   6.776   3.666
 5083SOL    HW116148   0.994   6.738   3.747
 5083SOL    HW216149   0.875   6.837   3.695
 5084SOL     OW16150   3.297   5.059   5.793
 5084SOL    HW116151   3.363   5.133   5.805
 5084SOL    HW216152   3.334   4.992   5.727
 5085SOL     OW16153   0.024   4.175   5.371
 5085SOL    HW116154   0.121   4.178   5.395
 5085SOL    HW216155   7.024   4.081   5.350
 5086SOL     OW16156   1.013   4.614   2.224
 5086SOL    HW116157   0.990   4.578   2.315
 5086SOL    HW216158   1.112   4.612   2.211
 5087SOL     OW16159   6.992   5.906   1.664
 5087SOL    HW116160   0.040   5.841   1.674
 5087SOL    HW216161   6.906   5.857   1.647
 5088SOL     OW16162   4.634   4.864   1.866
 5088SOL    HW116163   4.555   4.887   1.924
 5088SOL    HW216164   4.704   4.934   1.876
 5089SOL     OW16165   5.416   6.510   5.341
 5089SOL    HW116166   5.433   6.549   5.431
 5089SOL    HW216167   5.347   6.565   5.293
 5090SOL     OW16168   2.426   6.565   4.395
 5090SOL    HW116169   2.343   6.611   4.426
 5090SOL    HW216170   2.450   6.492   4.458
 5091SOL     OW16171   6.150   5.921   5.685
 5091SOL    HW116172   6.173   5.852   5.753
 5091SOL    HW216173   6.199   6.006   5.706
 5092SOL     OW16174   3.735   2.978   4.335
 5092SOL    HW116175   3.697   2.901   4.385
 5092SOL    HW216176   3.663   3.045   4.316
 5093SOL     OW16177   3.634   2.144   3.773
 5093SOL    HW116178   3.639   2.148   3.673
 5093SOL    HW216179   3.683   2.063   3.805
 5094SOL     OW16180   1.956   6.012   5.348
 5094SOL    HW116181   1.893   6.001   5.425
 5094SOL    HW216182   1.933   6.095   5.297
 5095SOL     OW16183   6.268   1.393   3.232
 5095SOL    HW116184   6.254   1.371   3.329
 5095SOL    HW216185   6.365   1.411   3.216
 5096SOL     OW16186   5.922   2.768   5.946
 5096SOL    HW116187   5.963   2.706   6.013
 5096SOL    HW216188   5.983   2.847   5.933
 5097SOL     OW16189   1.052   1.497   5.509
 5097SOL    HW116190   1.051   1.594   5.488
 5097SOL    HW216191   1.046   1.484   5.608
 5098SOL     OW16192   3.097   1.982   1.212
 5098SOL    HW116193   3.033   2.029   1.272
 5098SOL    HW216194   3.065   1.987   1.118
 5099SOL     OW16195   2.271   5.422   2.579
 5099SOL    HW116196   2.185   5.471   2.592
 5099SOL    HW216197   2.346   5.476   2.616
 5100SOL     OW16198   5.488   3.580   1.656
 5100SOL    HW116199   5.482   3.680   1.645
 5100SOL    HW216200   5.536   3.560   1.741
 5101SOL     OW16201   3.074   1.320   5.150
 5101SOL    HW116202   3.085   1.222   5.133
 5101SOL    HW216203   3.064   1.336   5.248
 5102SOL     OW16204   5.742   4.471   5.317
 5102SOL    HW116205   5.796   4.387   5.323
 5102SOL    HW216206   5.795   4.548   5.354
 5103SOL     OW16207   0.959   0.329   5.880
 5103SOL    HW116208   0.863   0.356   5.869
 5103SOL    HW216209   0.980   0.254   5.818
 5104SOL     OW16210   3.891   3.846   3.653
 5104SOL    HW116211   3.990   3.863   3.659
 5104SOL    HW216212   3.876   3.755   3.613
 5105SOL     OW16213   4.313   3.254   6.771
 5105SOL    HW116214   4.369   3.275   6.852
 5105SOL    HW216215   4.298   3.156   6.766
 5106SOL     OW16216   3.581   1.200   1.364
 5106SOL    HW116217   3.659   1.190   1.302
 5106SOL    HW216218   3.533   1.285   1.344
 5107SOL     OW16219   5.813   5.272   6.599
 5107SOL    HW116220   5.842   5.363   6.627
 5107SOL    HW216221   5.877   5.204   6.635
 5108SOL     OW16222   4.196   4.144   1.392
 5108SOL    HW116223   4.240   4.225   1.353
 5108SOL    HW216224   4.097   4.154   1.386
 5109SOL     OW16225   1.950   2.556   2.447
 5109SOL    HW116226   2.039   2.591   2.417
 5109SOL    HW216227   1.915   2.491   2.380
 5110SOL     OW16228   3.790   6.179   4.797
 5110SOL    HW116229   3.884   6.170   4.764
 5110SOL    HW216230   3.731   6.212   4.723
 5111SOL     OW16231   2.232   5.508   5.773
 5111SOL    HW116232   2.286   5.431   5.806
 5111SOL    HW216233   2.137   5.496   5.801
 5112SOL     OW16234   0.958   4.588   2.536
 5112SOL    HW116235   1.035   4.637   2.578
 5112SOL    HW216236   0.979   4.490   2.534
 5113SOL     OW16237   2.397   3.986   0.946
 5113SOL    HW116238   2.351   4.027   1.025
 5113SOL    HW216239   2.331   3.932   0.894
 5114SOL     OW16240   4.459   4.789   1.654
 5114SOL    HW116241   4.408   4.721   1.706
 5114SOL    HW216242   4.527   4.833   1.714
 5115SOL     OW16243   1.288   4.788   0.790
 5115SOL    HW116244   1.384   4.773   0.766
 5115SOL    HW216245   1.249   4.703   0.826
 5116SOL     OW16246   0.516   6.364   5.719
 5116SOL    HW116247   0.570   6.447   5.732
 5116SOL    HW216248   0.445   6.380   5.650
 5117SOL     OW16249   7.008   3.110   3.611
 5117SOL    HW116250   6.937   3.060   3.660
 5117SOL    HW216251   6.991   3.106   3.513
 5118SOL     OW16252   4.104   5.187   6.925
 5118SOL    HW116253   4.082   5.095   6.958
 5118SOL    HW216254   4.037   5.252   6.960
 5119SOL     OW16255   5.406   1.735   0.987
 5119SOL    HW116256   5.419   1.638   1.008
 5119SOL    HW216257   5.478   1.788   1.029
 5120SOL     OW16258   5.838   6.429   6.211
 5120SOL    HW116259   5.888   6.352   6.252
 5120SOL    HW216260   5.799   6.485   6.283
 5121SOL     OW16261   1.160   3.491   0.216
 5121SOL    HW116262   1.183   3.492   0.314
 5121SOL    HW216263   1.082   3.431   0.200
 5122SOL     OW16264   4.429   4.802   3.378
 5122SOL    HW116265   4.410   4.706   3.396
 5122SOL    HW216266   4.375   4.859   3.439
 5123SOL     OW16267   5.256   2.454   1.401
 5123SOL    HW116268   5.325   2.390   1.367
 5123SOL    HW216269   5.275   2.546   1.366
 5124SOL     OW16270   0.451   5.773   4.220
 5124SOL    HW116271   0.509   5.825   4.157
 5124SOL    HW216272   0.427   5.832   4.298
 5125SOL     OW16273   5.947   2.308   3.764
 5125SOL    HW116274   5.887   2.250   3.708
 5125SOL    HW216275   5.907   2.399   3.770
 5126SOL     OW16276   2.069   1.495   1.974
 5126SOL    HW116277   2.045   1.404   1.938
 5126SOL    HW216278   2.133   1.485   2.050
 5127SOL     OW16279   2.077   6.909   0.038
 5127SOL    HW116280   1.999   6.951   0.085
 5127SOL    HW216281   2.078   6.811   0.058
 5128SOL     OW16282   4.226   6.546   1.099
 5128SOL    HW116283   4.299   6.528   1.165
 5128SOL    HW216284   4.202   6.643   1.103
 5129SOL     OW16285   6.198   5.883   0.347
 5129SOL    HW116286   6.122   5.829   0.311
 5129SOL    HW216287   6.197   5.881   0.447
 5130SOL     OW16288   6.433   4.926   2.484
 5130SOL    HW116289   6.414   4.943   2.388
 5130SOL    HW216290   6.397   4.836   2.510
 5131SOL     OW16291   2.581   2.432   2.643
 5131SOL    HW116292   2.532   2.378   2.575
 5131SOL    HW216293   2.516   2.483   2.699
 5132SOL     OW16294   2.684   5.770   5.252
 5132SOL    HW116295   2.708   5.867   5.258
 5132SOL    HW216296   2.632   5.753   5.169
 5133SOL     OW16297   3.606   6.446   4.728
 5133SOL    HW116298   3.663   6.478   4.803
 5133SOL    HW216299   3.511   6.438   4.759
 5134SOL     OW16300   6.847   3.477   6.653
 5134SOL    HW116301   6.907   3.404   6.620
 5134SOL    HW216302   6.830   3.464   6.751
 5135SOL     OW16303   6.983   1.706   4.292
 5135SOL    HW116304   6.885   1.715   4.307
 5135SOL    HW216305   7.018   1.786   4.244
 5136SOL     OW16306   3.146   1.887   6.791
 5136SOL    HW116307   3.058   1.841   6.797
 5136SOL    HW216308   3.138   1.968   6.733
 5137SOL     OW16309   3.867   3.377   6.835
 5137SOL    HW116310   3.799   3.322   6.882
 5137SOL    HW216311   3.829   3.467   6.813
 5138SOL     OW16312   2.390   3.470   5.729
 5138SOL    HW116313   2.292   3.456   5.739
 5138SOL    HW216314   2.411   3.491   5.633
 5139SOL     OW16315   1.045   6.719   3.898
 5139SOL    HW116316   1.071   6.787   3.967
 5139SOL    HW216317   1.089   6.632   3.920
 5140SOL     OW16318   3.179   3.077   1.592
 5140SOL    HW116319   3.116   3.083   1.670
 5140SOL    HW216320   3.245   3.004   1.609
 5141SOL     OW16321   1.153   3.900   5.861
 5141SOL    HW116322   1.064   3.944   5.851
 5141SOL    HW216323   1.141   3.810   5.904
 5142SOL     OW16324   5.617   3.374   2.040
 5142SOL    HW116325   5.581   3.368   2.133
 5142SOL    HW216326   5.584   3.296   1.987
 5143SOL     OW16327   0.030   4.811   5.617
 5143SOL    HW116328   0.051   4.743   5.547
 5143SOL    HW216329   6.973   4.860   5.591
 5144SOL     OW16330   1.973   1.867   4.878
 5144SOL    HW116331   2.017   1.802   4.816
 5144SOL    HW216332   1.974   1.958   4.839
 5145SOL     OW16333   3.344   5.815   5.871
 5145SOL    HW116334   3.419   5.846   5.813
 5145SOL    HW216335   3.298   5.894   5.912
 5146SOL     OW16336   3.184   4.637   0.848
 5146SOL    HW116337   3.217   4.557   0.798
 5146SOL    HW216338   3.091   4.621   0.880
 5147SOL     OW16339   6.875   5.074   6.524
 5147SOL    HW116340   6.934   4.997   6.502
 5147SOL    HW216341   6.816   5.095   6.446
 5148SOL     OW16342   0.250   0.658   1.507
 5148SOL    HW116343   0.302   0.724   1.453
 5148SOL    HW216344   0.270   0.566   1.475
 5149SOL     OW16345   6.618   0.224   5.836
 5149SOL    HW116346   6.584   0.135   5.807
 5149SOL    HW216347   6.714   0.233   5.811
 5150SOL     OW16348   2.544   5.364   5.532
 5150SOL    HW116349   2.584   5.361   5.623
 5150SOL    HW216350   2.562   5.453   5.491
 5151SOL     OW16351   3.875   0.605   5.395
 5151SOL    HW116352   3.779   0.624   5.411
 5151SOL    HW216353   3.907   0.536   5.460
 5152SOL     OW16354   7.015   4.814   6.804
 5152SOL    HW116355   7.010   4.743   6.874
 5152SOL    HW216356   6.992   4.903   6.846
 5153SOL     OW16357   2.054   2.412   1.215
 5153SOL    HW116358   1.967   2.453   1.188
 5153SOL    HW216359   2.049   2.313   1.206
 5154SOL     OW16360   1.717   4.743   4.636
 5154SOL    HW116361   1.753   4.770   4.547
 5154SOL    HW216362   1.688   4.825   4.686
 5155SOL     OW16363   4.116   0.344   2.549
 5155SOL    HW116364   4.203   0.299   2.568
 5155SOL    HW216365   4.048   0.313   2.616
 5156SOL     OW16366   5.252   3.342   6.013
 5156SOL    HW116367   5.313   3.265   6.035
 5156SOL    HW216368   5.172   3.339   6.073
 5157SOL     OW16369   6.298   1.894   4.187
 5157SOL    HW116370   6.381   1.881   4.242
 5157SOL    HW216371   6.314   1.862   4.094
 5158SOL     OW16372   3.772   0.683   1.353
 5158SOL    HW116373   3.810   0.716   1.439
 5158SOL    HW216374   3.708   0.751   1.316
 5159SOL     OW16375   2.163   3.449   4.476
 5159SOL    HW116376   2.153   3.542   4.512
 5159SOL    HW216377   2.166   3.384   4.551
 5160SOL     OW16378   2.668   2.346   3.798
 5160SOL    HW116379   2.653   2.380   3.891
 5160SOL    HW216380   2.666   2.246   3.799
 5161SOL     OW16381   2.010   3.040   6.609
 5161SOL    HW116382   1.938   3.034   6.679
 5161SOL    HW216383   2.014   2.953   6.559
 5162SOL     OW16384   6.788   5.600   4.565
 5162SOL    HW116385   6.734   5.540   4.506
 5162SOL    HW216386   6.864   5.548   4.604
 5163SOL     OW16387   5.355   3.909   0.826
 5163SOL    HW116388   5.388   3.875   0.737
 5163SOL    HW216389   5.275   3.968   0.811
 5164SOL     OW16390   6.405   6.093   4.537
 5164SOL    HW116391   6.403   6.135   4.627
 5164SOL    HW216392   6.346   6.144   4.474
 5165SOL     OW16393   5.783   3.469   4.939
 5165SOL    HW116394   5.881   3.469   4.959
 5165SOL    HW216395   5.732   3.456   5.024
 5166SOL     OW16396   1.415   6.826   2.554
 5166SOL    HW116397   1.353   6.862   2.484
 5166SOL    HW216398   1.473   6.899   2.589
 5167SOL     OW16399   2.082   0.472   5.895
 5167SOL    HW116400   2.012   0.423   5.842
 5167SOL    HW216401   2.140   0.406   5.941
 5168SOL     OW16402   3.625   2.035   2.457
 5168SOL    HW116403   3.526   2.048   2.452
 5168SOL    HW216404   3.662   2.024   2.364
 5169SOL     OW16405   4.300   4.713   6.437
 5169SOL    HW116406   4.293   4.717   6.338
 5169SOL    HW216407   4.250   4.633   6.471
 5170SOL     OW16408   4.136   5.387   4.149
 5170SOL    HW116409   4.207   5.354   4.210
 5170SOL    HW216410   4.105   5.312   4.090
 5171SOL     OW16411   2.582   4.800   5.144
 5171SOL    HW116412   2.532   4.852   5.075
 5171SOL    HW216413   2.653   4.746   5.099
 5172SOL     OW16414   1.771   4.380   6.623
 5172SOL    HW116415   1.795   4.316   6.695
 5172SOL    HW216416   1.854   4.408   6.574
 5173SOL     OW16417   0.126   2.476   4.909
 5173SOL    HW116418   0.186   2.554   4.889
 5173SOL    HW216419   0.063   2.500   4.983
 5174SOL     OW16420   2.491   4.948   6.733
 5174SOL    HW116421   2.412   4.984   6.782
 5174SOL    HW216422   2.575   4.981   6.776
 5175SOL     OW16423   0.138   5.555   6.608
 5175SOL    HW116424   0.160   5.652   6.619
 5175SOL    HW216425   0.134   5.511   6.698
 5176SOL     OW16426   5.679   3.940   6.398
 5176SOL    HW116427   5.709   4.026   6.438
 5176SOL    HW216428   5.579   3.934   6.403
 5177SOL     OW16429   5.410   5.378   5.466
 5177SOL    HW116430   5.400   5.478   5.471
 5177SOL    HW216431   5.506   5.356   5.451
 5178SOL     OW16432   3.213   4.384   0.731
 5178SOL    HW116433   3.154   4.311   0.766
 5178SOL    HW216434   3.169   4.427   0.653
 5179SOL     OW16435   3.471   6.278   5.209
 5179SOL    HW116436   3.533   6.290   5.131
 5179SOL    HW216437   3.466   6.181   5.233
 5180SOL     OW16438   4.644   1.711   0.233
 5180SOL    HW116439   4.658   1.801   0.192
 5180SOL    HW216440   4.666   1.640   0.166
 5181SOL     OW16441   3.228   5.978   2.206
 5181SOL    HW116442   3.150   5.918   2.221
 5181SOL    HW216443   3.299   5.929   2.155
 5182SOL     OW16444   4.785   4.310   1.102
 5182SOL    HW116445   4.707   4.352   1.056
 5182SOL    HW216446   4.808   4.224   1.057
 5183SOL     OW16447   3.658   0.618   3.829
 5183SOL    HW116448   3.696   0.562   3.902
 5183SOL    HW216449   3.637   0.709   3.865
 5184SOL     OW16450   0.840   2.644   3.407
 5184SOL    HW116451   0.886   2.605   3.327
 5184SOL    HW216452   0.763   2.699   3.376
 5185SOL     OW16453   3.992   0.090   1.413
 5185SOL    HW116454   3.930   0.012   1.419
 5185SOL    HW216455   4.084   0.062   1.440
 5186SOL     OW16456   5.249   4.438   6.902
 5186SOL    HW116457   5.212   4.367   6.963
 5186SOL    HW216458   5.290   4.394   6.822
 5187SOL     OW16459   4.882   3.096   4.272
 5187SOL    HW116460   4.981   3.090   4.284
 5187SOL    HW216461   4.860   3.181   4.223
 5188SOL     OW16462   0.509   0.887   3.849
 5188SOL    HW116463   0.426   0.844   3.886
 5188SOL    HW216464   0.588   0.860   3.904
 5189SOL     OW16465   4.682   6.140   5.840
 5189SOL    HW116466   4.702   6.149   5.742
 5189SOL    HW216467   4.597   6.187   5.862
 5190SOL     OW16468   2.383   2.698   2.036
 5190SOL    HW116469   2.314   2.724   2.104
 5190SOL    HW216470   2.386   2.767   1.964
 5191SOL     OW16471   4.814   0.578   2.273
 5191SOL    HW116472   4.867   0.561   2.190
 5191SOL    HW216473   4.801   0.492   2.323
 5192SOL     OW16474   6.417   4.086   1.221
 5192SOL    HW116475   6.317   4.075   1.222
 5192SOL    HW216476   6.448   4.110   1.313
 5193SOL     OW16477   3.607   4.886   2.356
 5193SOL    HW116478   3.529   4.946   2.371
 5193SOL    HW216479   3.612   4.861   2.260
 5194SOL     OW16480   5.285   0.763   0.405
 5194SOL    HW116481   5.270   0.711   0.321
 5194SOL    HW216482   5.210   0.827   0.419
 5195SOL     OW16483   0.619   6.585   5.153
 5195SOL    HW116484   0.669   6.553   5.234
 5195SOL    HW216485   0.534   6.630   5.182
 5196SOL     OW16486   6.907   3.989   3.697
 5196SOL    HW116487   6.886   3.995   3.795
 5196SOL    HW216488   6.829   4.022   3.644
 5197SOL     OW16489   4.149   5.599   5.204
 5197SOL    HW116490   4.124   5.586   5.300
 5197SOL    HW216491   4.093   5.538   5.147
 5198SOL     OW16492   4.476   1.194   5.510
 5198SOL    HW116493   4.454   1.231   5.601
 5198SOL    HW216494   4.564   1.146   5.514
 5199SOL     OW16495   0.382   5.908   1.286
 5199SOL    HW116496   0.289   5.922   1.253
 5199SOL    HW216497   0.382   5.833   1.352
 5200SOL     OW16498   6.699   0.228   4.809
 5200SOL    HW116499   6.615   0.180   4.836
 5200SOL    HW216500   6.681   0.326   4.806
 5201SOL     OW16501   6.445   4.318   5.502
 5201SOL    HW116502   6.422   4.221   5.494
 5201SOL    HW216503   6.535   4.328   5.543
 5202SOL     OW16504   3.440   2.343   5.840
 5202SOL    HW116505   3.494   2.424   5.820
 5202SOL    HW216506   3.473   2.301   5.925
 5203SOL     OW16507   1.071   0.484   6.547
 5203SOL    HW116508   1.098   0.410   6.486
 5203SOL    HW216509   1.124   0.566   6.525
 5204SOL     OW16510   1.611   0.619   1.931
 5204SOL    HW116511   1.653   0.650   1.846
 5204SOL    HW216512   1.522   0.578   1.912
 5205SOL     OW16513   0.050   0.040   2.185
 5205SOL    HW116514   0.149   0.047   2.173
 5205SOL    HW216515   0.018   6.980   2.147
 5206SOL     OW16516   1.049   5.110   4.709
 5206SOL    HW116517   1.019   5.064   4.793
 5206SOL    HW216518   1.144   5.137   4.719
 5207SOL     OW16519   4.992   0.409   4.912
 5207SOL    HW116520   4.921   0.394   4.981
 5207SOL    HW216521   4.949   0.442   4.828
 5208SOL     OW16522   6.695   1.514   0.100
 5208SOL    HW116523   6.675   1.459   0.182
 5208SOL    HW216524   6.637   1.596   0.100
 5209SOL     OW16525   5.220   6.152   2.290
 5209SOL    HW116526   5.303   6.114   2.249
 5209SOL    HW216527   5.141   6.098   2.263
 5210SOL     OW16528   5.795   4.539   1.203
 5210SOL    HW116529   5.881   4.588   1.211
 5210SOL    HW216530   5.719   4.602   1.215
 5211SOL     OW16531   5.582   2.953   5.513
 5211SOL    HW116532   5.672   2.909   5.507
 5211SOL    HW216533   5.570   3.016   5.436
 5212SOL     OW16534   6.534   3.849   6.565
 5212SOL    HW116535   6.612   3.811   6.515
 5212SOL    HW216536   6.506   3.786   6.637
 5213SOL     OW16537   3.462   3.024   3.306
 5213SOL    HW116538   3.369   3.060   3.316
 5213SOL    HW216539   3.489   2.981   3.392
 5214SOL     OW16540   5.399   3.152   6.229
 5214SOL    HW116541   5.308   3.111   6.228
 5214SOL    HW216542   5.466   3.084   6.197
 5215SOL     OW16543   0.114   5.293   4.985
 5215SOL    HW116544   0.194   5.285   4.925
 5215SOL    HW216545   0.124   5.375   5.042
 5216SOL     OW16546   6.234   4.215   0.952
 5216SOL    HW116547   6.135   4.217   0.937
 5216SOL    HW216548   6.262   4.300   0.998
 5217SOL     OW16549   3.855   6.654   2.683
 5217SOL    HW116550   3.846   6.754   2.687
 5217SOL    HW216551   3.867   6.618   2.775
 5218SOL     OW16552   6.059   0.118   0.772
 5218SOL    HW116553   6.057   0.029   0.725
 5218SOL    HW216554   6.005   0.184   0.720
 5219SOL     OW16555   3.964   1.681   4.769
 5219SOL    HW116556   3.981   1.591   4.808
 5219SOL    HW216557   3.949   1.672   4.670
 5220SOL     OW16558   1.829   4.817   4.386
 5220SOL    HW116559   1.907   4.858   4.434
 5220SOL    HW216560   1.777   4.889   4.340
 5221SOL     OW16561   5.000   5.851   1.306
 5221SOL    HW116562   4.981   5.901   1.391
 5221SOL    HW216563   4.944   5.768   1.302
 5222SOL     OW16564   6.635   3.542   2.459
 5222SOL    HW116565   6.561   3.490   2.500
 5222SOL    HW216566   6.699   3.480   2.414
 5223SOL     OW16567   0.244   2.628   0.834
 5223SOL    HW116568   0.181   2.561   0.794
 5223SOL    HW216569   0.314   2.653   0.767
 5224SOL     OW16570   1.876   1.033   4.471
 5224SOL    HW116571   1.893   1.087   4.389
 5224SOL    HW216572   1.903   1.086   4.552
 5225SOL     OW16573   6.727   2.006   6.109
 5225SOL    HW116574   6.782   1.955   6.043
 5225SOL    HW216575   6.645   2.042   6.064
 5226SOL     OW16576   0.160   6.722   4.140
 5226SOL    HW116577   0.097   6.753   4.069
 5226SOL    HW216578   0.217   6.648   4.104
 5227SOL     OW16579   1.344   2.923   6.137
 5227SOL    HW116580   1.433   2.901   6.177
 5227SOL    HW216581   1.355   2.996   6.069
 5228SOL     OW16582   1.144   2.429   5.243
 5228SOL    HW116583   1.239   2.460   5.239
 5228SOL    HW216584   1.092   2.474   5.171
 5229SOL     OW16585   3.640   1.712   6.766
 5229SOL    HW116586   3.643   1.705   6.866
 5229SOL    HW216587   3.586   1.792   6.740
 5230SOL     OW16588   6.844   0.372   2.287
 5230SOL    HW116589   6.875   0.335   2.374
 5230SOL    HW216590   6.903   0.338   2.213
 5231SOL     OW16591   6.025   3.245   1.746
 5231SOL    HW116592   6.116   3.203   1.736
 5231SOL    HW216593   5.976   3.200   1.821
 5232SOL     OW16594   1.658   1.839   5.639
 5232SOL    HW116595   1.757   1.847   5.629
 5232SOL    HW216596   1.631   1.743   5.636
 5233SOL     OW16597   2.892   6.845   3.662
 5233SOL    HW116598   2.818   6.778   3.663
 5233SOL    HW216599   2.904   6.880   3.569
 5234SOL     OW16600   2.726   2.527   6.588
 5234SOL    HW116601   2.701   2.450   6.529
 5234SOL    HW216602   2.651   2.547   6.651
 5235SOL     OW16603   2.287   2.731   1.627
 5235SOL    HW116604   2.291   2.633   1.608
 5235SOL    HW216605   2.330   2.781   1.552
 5236SOL     OW16606   2.827   4.856   2.396
 5236SOL    HW116607   2.779   4.937   2.431
 5236SOL    HW216608   2.913   4.845   2.445
 5237SOL     OW16609   1.780   1.807   2.125
 5237SOL    HW116610   1.733   1.851   2.202
 5237SOL    HW216611   1.816   1.719   2.155
 5238SOL     OW16612   6.383   0.627   2.866
 5238SOL    HW116613   6.421   0.561   2.931
 5238SOL    HW216614   6.383   0.718   2.908
 5239SOL     OW16615   2.861   4.410   0.211
 5239SOL    HW116616   2.933   4.409   0.141
 5239SOL    HW216617   2.886   4.474   0.284
 5240SOL     OW16618   2.002   4.542   5.923
 5240SOL    HW116619   1.931   4.484   5.883
 5240SOL    HW216620   2.082   4.543   5.863
 5241SOL     OW16621   1.651   6.067   3.407
 5241SOL    HW116622   1.663   6.099   3.501
 5241SOL    HW216623   1.595   6.132   3.356
 5242SOL     OW16624   4.479   6.108   5.569
 5242SOL    HW116625   4.533   6.072   5.494
 5242SOL    HW216626   4.503   6.204   5.585
 5243SOL     OW16627   1.963   5.908   3.587
 5243SOL    HW116628   1.963   5.994   3.637
 5243SOL    HW216629   2.040   5.906   3.523
 5244SOL     OW16630   4.997   1.296   6.335
 5244SOL    HW116631   4.923   1.232   6.357
 5244SOL    HW216632   4.963   1.368   6.275
 5245SOL     OW16633   3.287   4.116   2.369
 5245SOL    HW116634   3.247   4.201   2.334
 5245SOL    HW216635   3.225   4.075   2.436
 5246SOL     OW16636   6.566   3.122   6.114
 5246SOL    HW116637   6.510   3.150   6.036
 5246SOL    HW216638   6.659   3.158   6.104
 5247SOL     OW16639   4.505   1.122   5.888
 5247SOL    HW116640   4.430   1.127   5.823
 5247SOL    HW216641   4.526   1.214   5.922
 5248SOL     OW16642   4.856   1.019   3.092
 5248SOL    HW116643   4.927   1.042   3.026
 5248SOL    HW216644   4.882   0.934   3.139
 5249SOL     OW16645   6.976   5.468   1.774
 5249SOL    HW116646   6.880   5.488   1.794
 5249SOL    HW216647   7.017   5.548   1.729
 5250SOL     OW16648   2.033   5.182   0.724
 5250SOL    HW116649   2.061   5.150   0.815
 5250SOL    HW216650   2.075   5.123   0.654
 5251SOL     OW16651   0.812   4.893   0.010
 5251SOL    HW116652   0.810   4.912   6.938
 5251SOL    HW216653   0.785   4.798   0.026
 5252SOL     OW16654   3.850   5.414   3.321
 5252SOL    HW116655   3.881   5.503   3.356
 5252SOL    HW216656   3.882   5.404   3.226
 5253SOL     OW16657   0.219   6.075   4.755
 5253SOL    HW116658   0.248   6.163   4.793
 5253SOL    HW216659   0.289   6.006   4.773
 5254SOL     OW16660   4.525   6.448   2.265
 5254SOL    HW116661   4.457   6.516   2.293
 5254SOL    HW216662   4.541   6.384   2.340
 5255SOL     OW16663   0.328   1.111   6.480
 5255SOL    HW116664   0.391   1.068   6.415
 5255SOL    HW216665   0.379   1.152   6.555
 5256SOL     OW16666   4.161   2.257   2.570
 5256SOL    HW116667   4.189   2.168   2.607
 5256SOL    HW216668   4.209   2.330   2.619
 5257SOL     OW16669   5.199   1.284   6.717
 5257SOL    HW116670   5.187   1.368   6.665
 5257SOL    HW216671   5.294   1.275   6.746
 5258SOL     OW16672   5.458   1.786   5.225
 5258SOL    HW116673   5.547   1.752   5.194
 5258SOL    HW216674   5.391   1.774   5.152
 5259SOL     OW16675   4.983   5.813   3.818
 5259SOL    HW116676   4.890   5.821   3.853
 5259SOL    HW216677   5.030   5.738   3.864
 5260SOL     OW16678   1.579   6.147   1.373
 5260SOL    HW116679   1.496   6.099   1.403
 5260SOL    HW216680   1.659   6.103   1.413
 5261SOL     OW16681   5.930   5.024   0.011
 5261SOL    HW116682   5.862   5.060   0.075
 5261SOL    HW216683   6.021   5.028   0.052
 5262SOL     OW16684   1.970   2.390   1.529
 5262SOL    HW116685   1.947   2.383   1.626
 5262SOL    HW216686   2.010   2.303   1.498
 5263SOL     OW16687   0.956   6.052   3.366
 5263SOL    HW116688   0.863   6.087   3.383
 5263SOL    HW216689   1.020   6.098   3.427
 5264SOL     OW16690   6.696   2.478   2.093
 5264SOL    HW116691   6.791   2.500   2.073
 5264SOL    HW216692   6.660   2.544   2.159
 5265SOL     OW16693   0.331   6.050   6.202
 5265SOL    HW116694   0.415   6.102   6.187
 5265SOL    HW216695   0.301   6.010   6.116
 5266SOL     OW16696   1.565   6.949   6.359
 5266SOL    HW116697   1.655   6.921   6.326
 5266SOL    HW216698   1.510   6.983   6.283
 5267SOL     OW16699   6.158   1.288   4.692
 5267SOL    HW116700   6.215   1.307   4.772
 5267SOL    HW216701   6.215   1.290   4.610
 5268SOL     OW16702   5.629   6.845   5.940
 5268SOL    HW116703   5.693   6.830   5.864
 5268SOL    HW216704   5.577   6.762   5.958
 5269SOL     OW16705   1.179   0.613   4.409
 5269SOL    HW116706   1.278   0.611   4.395
 5269SOL    HW216707   1.150   0.706   4.430
 5270SOL     OW16708   0.843   1.723   6.687
 5270SOL    HW116709   0.882   1.782   6.757
 5270SOL    HW216710   0.810   1.778   6.610
 5271SOL     OW16711   1.456   5.384   5.923
 5271SOL    HW116712   1.362   5.413   5.942
 5271SOL    HW216713   1.519   5.443   5.973
 5272SOL     OW16714   4.106   0.547   6.094
 5272SOL    HW116715   4.109   0.623   6.029
 5272SOL    HW216716   4.141   0.577   6.183
 5273SOL     OW16717   2.356   1.300   3.448
 5273SOL    HW116718   2.353   1.381   3.507
 5273SOL    HW216719   2.274   1.245   3.463
 5274SOL     OW16720   5.436   4.404   1.004
 5274SOL    HW116721   5.501   4.386   0.931
 5274SOL    HW216722   5.416   4.502   1.007
 5275SOL     OW16723   5.491   1.001   6.274
 5275SOL    HW116724   5.540   1.060   6.210
 5275SOL    HW216725   5.455   1.057   6.349
 5276SOL     OW16726   3.633   6.516   1.660
 5276SOL    HW116727   3.671   6.532   1.569
 5276SOL    HW216728   3.590   6.600   1.693
 5277SOL     OW16729   2.063   3.752   1.700
 5277SOL    HW116730   2.036   3.806   1.780
 5277SOL    HW216731   1.982   3.724   1.649
 5278SOL     OW16732   3.741   3.794   2.577
 5278SOL    HW116733   3.766   3.743   2.495
 5278SOL    HW216734   3.790   3.881   2.578
 5279SOL     OW16735   1.393   6.294   3.009
 5279SOL    HW116736   1.464   6.330   2.950
 5279SOL    HW216737   1.320   6.361   3.019
 5280SOL     OW16738   3.714   0.569   4.141
 5280SOL    HW116739   3.667   0.601   4.223
 5280SOL    HW216740   3.734   0.471   4.150
 5281SOL     OW16741   6.347   2.880   3.906
 5281SOL    HW116742   6.420   2.822   3.943
 5281SOL    HW216743   6.318   2.945   3.975
 5282SOL     OW16744   4.772   2.474   1.373
 5282SOL    HW116745   4.809   2.429   1.292
 5282SOL    HW216746   4.833   2.458   1.451
 5283SOL     OW16747   4.929   4.685   5.677
 5283SOL    HW116748   4.844   4.712   5.631
 5283SOL    HW216749   5.007   4.720   5.626
 5284SOL     OW16750   5.102   2.891   4.265
 5284SOL    HW116751   5.113   2.897   4.166
 5284SOL    HW216752   5.132   2.977   4.307
 5285SOL     OW16753   4.195   6.377   2.450
 5285SOL    HW116754   4.221   6.300   2.509
 5285SOL    HW216755   4.197   6.348   2.355
 5286SOL     OW16756   1.912   5.057   2.251
 5286SOL    HW116757   1.960   5.141   2.225
 5286SOL    HW216758   1.828   5.049   2.198
 5287SOL     OW16759   1.274   0.662   2.575
 5287SOL    HW116760   1.333   0.725   2.625
 5287SOL    HW216761   1.301   0.660   2.479
 5288SOL     OW16762   3.646   0.154   1.054
 5288SOL    HW116763   3.711   0.193   1.119
 5288SOL    HW216764   3.697   0.109   0.980
 5289SOL     OW16765   1.915   6.664   1.472
 5289SOL    HW116766   1.822   6.634   1.453
 5289SOL    HW216767   1.919   6.708   1.562
 5290SOL     OW16768   5.903   6.034   6.901
 5290SOL    HW116769   5.823   6.066   6.952
 5290SOL    HW216770   5.985   6.047   6.957
 5291SOL     OW16771   1.020   5.570   0.182
 5291SOL    HW116772   1.030   5.664   0.150
 5291SOL    HW216773   0.933   5.533   0.151
 5292SOL     OW16774   5.675   1.520   1.122
 5292SOL    HW116775   5.647   1.523   1.026
 5292SOL    HW216776   5.600   1.553   1.180
 5293SOL     OW16777   1.718   1.073   4.092
 5293SOL    HW116778   1.732   0.994   4.152
 5293SOL    HW216779   1.661   1.141   4.139
 5294SOL     OW16780   3.460   2.271   6.655
 5294SOL    HW116781   3.474   2.175   6.633
 5294SOL    HW216782   3.404   2.278   6.738
 5295SOL     OW16783   6.860   1.576   3.436
 5295SOL    HW116784   6.949   1.620   3.437
 5295SOL    HW216785   6.816   1.588   3.524
 5296SOL     OW16786   0.149   2.701   6.808
 5296SOL    HW116787   0.141   2.773   6.877
 5296SOL    HW216788   0.228   2.643   6.828
 5297SOL     OW16789   1.216   2.344   2.112
 5297SOL    HW116790   1.306   2.376   2.081
 5297SOL    HW216791   1.148   2.366   2.042
 5298SOL     OW16792   1.125   4.569   1.896
 5298SOL    HW116793   1.128   4.506   1.973
 5298SOL    HW216794   1.216   4.577   1.856
 5299SOL     OW16795   4.001   0.066   0.641
 5299SOL    HW116796   3.950   0.073   0.556
 5299SOL    HW216797   4.063   0.145   0.650
 5300SOL     OW16798   6.426   4.969   3.786
 5300SOL    HW116799   6.422   4.869   3.774
 5300SOL    HW216800   6.493   4.991   3.857
 5301SOL     OW16801   5.817   0.397   6.753
 5301SOL    HW116802   5.773   0.450   6.680
 5301SOL    HW216803   5.796   0.438   6.842
 5302SOL     OW16804   6.826   4.313   3.727
 5302SOL    HW116805   6.864   4.335   3.816
 5302SOL    HW216806   6.756   4.381   3.702
 5303SOL     OW16807   1.934   4.531   3.246
 5303SOL    HW116808   1.892   4.519   3.156
 5303SOL    HW216809   2.007   4.463   3.257
 5304SOL     OW16810   4.357   2.081   5.683
 5304SOL    HW116811   4.398   2.000   5.640
 5304SOL    HW216812   4.277   2.053   5.735
 5305SOL     OW16813   3.564   2.021   4.932
 5305SOL    HW116814   3.467   2.039   4.913
 5305SOL    HW216815   3.590   1.933   4.891
 5306SOL     OW16816   2.779   6.754   3.162
 5306SOL    HW116817   2.769   6.839   3.214
 5306SOL    HW216818   2.711   6.687   3.194
 5307SOL     OW16819   5.400   6.449   6.841
 5307SOL    HW116820   5.413   6.548   6.845
 5307SOL    HW216821   5.306   6.427   6.869
 5308SOL     OW16822   7.023   1.488   1.951
 5308SOL    HW116823   7.024   1.516   1.855
 5308SOL    HW216824   0.007   1.568   2.009
 5309SOL     OW16825   3.974   3.431   5.105
 5309SOL    HW116826   3.888   3.463   5.066
 5309SOL    HW216827   4.050   3.473   5.056
 5310SOL     OW16828   4.997   2.821   0.105
 5310SOL    HW116829   4.912   2.868   0.082
 5310SOL    HW216830   4.978   2.743   0.164
 5311SOL     OW16831   6.778   6.327   0.314
 5311SOL    HW116832   6.771   6.310   0.413
 5311SOL    HW216833   6.777   6.240   0.265
 5312SOL     OW16834   0.405   3.469   2.046
 5312SOL    HW116835   0.491   3.418   2.045
 5312SOL    HW216836   0.417   3.556   1.997
 5313SOL     OW16837   7.005   6.775   6.939
 5313SOL    HW116838   6.928   6.752   6.880
 5313SOL    HW216839   0.041   6.837   6.892
 5314SOL     OW16840   3.752   5.067   1.334
 5314SOL    HW116841   3.795   5.054   1.423
 5314SOL    HW216842   3.686   4.994   1.318
 5315SOL     OW16843   5.413   1.322   2.177
 5315SOL    HW116844   5.478   1.311   2.252
 5315SOL    HW216845   5.461   1.310   2.090
 5316SOL     OW16846   5.249   5.458   4.590
 5316SOL    HW116847   5.276   5.549   4.559
 5316SOL    HW216848   5.328   5.413   4.632
 5317SOL     OW16849   6.459   5.053   1.623
 5317SOL    HW116850   6.486   4.962   1.653
 5317SOL    HW216851   6.436   5.050   1.526
 5318SOL     OW16852   6.816   2.463   3.831
 5318SOL    HW116853   6.875   2.440   3.754
 5318SOL    HW216854   6.727   2.494   3.797
 5319SOL     OW16855   3.185   6.288   2.649
 5319SOL    HW116856   3.097   6.333   2.641
 5319SOL    HW216857   3.204   6.235   2.567
 5320SOL     OW16858   6.339   2.087   0.130
 5320SOL    HW116859   6.384   2.122   0.048
 5320SOL    HW216860   6.267   2.150   0.158
 5321SOL     OW16861   2.705   4.511   6.901
 5321SOL    HW116862   2.656   4.485   6.984
 5321SOL    HW216863   2.778   4.575   6.924
 5322SOL     OW16864   2.349   6.679   0.211
 5322SOL    HW116865   2.388   6.728   0.288
 5322SOL    HW216866   2.361   6.581   0.224
 5323SOL     OW16867   6.137   3.374   0.436
 5323SOL    HW116868   6.042   3.403   0.444
 5323SOL    HW216869   6.157   3.305   0.505
 5324SOL     OW16870   3.878   3.463   1.732
 5324SOL    HW116871   3.900   3.560   1.743
 5324SOL    HW216872   3.922   3.410   1.804
 5325SOL     OW16873   3.337   6.184   5.724
 5325SOL    HW116874   3.351   6.275   5.685
 5325SOL    HW216875   3.377   6.180   5.816
 5326SOL     OW16876   6.413   0.855   3.030
 5326SOL    HW116877   6.497   0.852   3.085
 5326SOL    HW216878   6.335   0.834   3.088
 5327SOL     OW16879   6.251   6.721   4.370
 5327SOL    HW116880   6.212   6.635   4.404
 5327SOL    HW216881   6.181   6.792   4.370
 5328SOL     OW16882   2.967   5.083   6.381
 5328SOL    HW116883   2.919   5.008   6.427
 5328SOL    HW216884   2.935   5.170   6.417
 5329SOL     OW16885   0.162   6.696   6.654
 5329SOL    HW116886   0.161   6.764   6.728
 5329SOL    HW216887   0.092   6.720   6.586
 5330SOL     OW16888   4.570   4.394   0.955
 5330SOL    HW116889   4.626   4.347   0.887
 5330SOL    HW216890   4.481   4.416   0.916
 5331SOL     OW16891   5.767   1.015   6.805
 5331SOL    HW116892   5.674   1.000   6.769
 5331SOL    HW216893   5.828   1.039   6.729
 5332SOL     OW16894   6.329   2.683   6.922
 5332SOL    HW116895   6.321   2.711   7.017
 5332SOL    HW216896   6.420   2.642   6.906
 5333SOL     OW16897   0.841   6.835   4.227
 5333SOL    HW116898   0.824   6.759   4.164
 5333SOL    HW216899   0.915   6.892   4.190
 5334SOL     OW16900   3.490   5.988   1.395
 5334SOL    HW116901   3.523   5.898   1.366
 5334SOL    HW216902   3.557   6.058   1.368
 5335SOL     OW16903   0.386   5.087   1.491
 5335SOL    HW116904   0.346   5.092   1.400
 5335SOL    HW216905   0.318   5.052   1.556
 5336SOL     OW16906   1.102   3.117   5.769
 5336SOL    HW116907   1.086   3.213   5.792
 5336SOL    HW216908   1.142   3.070   5.849
 5337SOL     OW16909   6.734   1.549   0.924
 5337SOL    HW116910   6.717   1.459   0.965
 5337SOL    HW216911   6.664   1.614   0.954
 5338SOL     OW16912   0.046   3.481   1.577
 5338SOL    HW116913   0.010   3.573   1.592
 5338SOL    HW216914   0.103   3.454   1.655
 5339SOL     OW16915   4.922   3.529   3.260
 5339SOL    HW116916   5.015   3.566   3.270
 5339SOL    HW216917   4.926   3.430   3.250
 5340SOL     OW16918   5.017   3.404   0.921
 5340SOL    HW116919   5.100   3.436   0.877
 5340SOL    HW216920   4.952   3.374   0.851
 5341SOL     OW16921   4.635   5.076   3.223
 5341SOL    HW116922   4.573   4.998   3.237
 5341SOL    HW216923   4.660   5.081   3.126
 5342SOL     OW16924   6.056   5.491   5.085
 5342SOL    HW116925   6.087   5.464   5.176
 5342SOL    HW216926   6.055   5.591   5.079
 5343SOL     OW16927   3.527   3.595   6.842
 5343SOL    HW116928   3.459   3.640   6.783
 5343SOL    HW216929   3.480   3.553   6.920
 5344SOL     OW16930   6.166   1.328   0.134
 5344SOL    HW116931   6.106   1.252   0.108
 5344SOL    HW216932   6.117   1.389   0.197
 5345SOL     OW16933   3.711   1.480   0.313
 5345SOL    HW116934   3.785   1.450   0.372
 5345SOL    HW216935   3.720   1.438   0.223
 5346SOL     OW16936   1.982   5.857   3.043
 5346SOL    HW116937   2.006   5.762   3.066
 5346SOL    HW216938   1.963   5.907   3.128
 5347SOL     OW16939   6.052   1.504   5.263
 5347SOL    HW116940   6.134   1.489   5.318
 5347SOL    HW216941   5.997   1.576   5.305
 5348SOL     OW16942   4.893   2.500   5.261
 5348SOL    HW116943   4.855   2.444   5.334
 5348SOL    HW216944   4.900   2.595   5.292
 5349SOL     OW16945   0.926   4.225   0.620
 5349SOL    HW116946   1.016   4.251   0.656
 5349SOL    HW216947   0.917   4.255   0.525
 5350SOL     OW16948   1.070   6.601   6.628
 5350SOL    HW116949   1.145   6.659   6.596
 5350SOL    HW216950   0.992   6.612   6.567
 5351SOL     OW16951   0.684   5.683   3.818
 5351SOL    HW116952   0.644   5.597   3.786
 5351SOL    HW216953   0.777   5.667   3.850
 5352SOL     OW16954   0.160   2.490   5.602
 5352SOL    HW116955   0.095   2.533   5.665
 5352SOL    HW216956   0.237   2.451   5.654
 5353SOL     OW16957   2.569   6.877   3.037
 5353SOL    HW116958   2.549   6.943   3.109
 5353SOL    HW216959   2.651   6.825   3.061
 5354SOL     OW16960   3.328   5.807   1.956
 5354SOL    HW116961   3.252   5.743   1.958
 5354SOL    HW216962   3.382   5.793   1.873
 5355SOL     OW16963   5.456   4.712   5.297
 5355SOL    HW116964   5.463   4.790   5.359
 5355SOL    HW216965   5.544   4.695   5.253
 5356SOL     OW16966   0.569   6.484   1.611
 5356SOL    HW116967   0.653   6.536   1.627
 5356SOL    HW216968   0.541   6.439   1.696
 5357SOL     OW16969   6.482   3.257   2.649
 5357SOL    HW116970   6.532   3.171   2.653
 5357SOL    HW216971   6.390   3.244   2.686
 5358SOL     OW16972   6.275   0.470   6.673
 5358SOL    HW116973   6.257   0.464   6.574
 5358SOL    HW216974   6.347   0.538   6.689
 5359SOL     OW16975   2.946   2.438   6.988
 5359SOL    HW116976   2.919   2.493   0.040
 5359SOL    HW216977   3.027   2.479   6.945
 5360SOL     OW16978   5.669   4.959   2.780
 5360SOL    HW116979   5.679   5.029   2.852
 5360SOL    HW216980   5.689   4.869   2.818
 5361SOL     OW16981   1.601   3.719   2.818
 5361SOL    HW116982   1.504   3.718   2.792
 5361SOL    HW216983   1.656   3.749   2.740
 5362SOL     OW16984   5.880   1.766   3.704
 5362SOL    HW116985   5.798   1.791   3.756
 5362SOL    HW216986   5.861   1.777   3.606
 5363SOL     OW16987   6.242   5.169   5.051
 5363SOL    HW116988   6.317   5.228   5.021
 5363SOL    HW216989   6.257   5.076   5.019
 5364SOL     OW16990   4.679   2.421   1.733
 5364SOL    HW116991   4.623   2.340   1.748
 5364SOL    HW216992   4.666   2.454   1.640
 5365SOL     OW16993   3.491   3.109   6.049
 5365SOL    HW116994   3.402   3.083   6.085
 5365SOL    HW216995   3.561   3.050   6.088
 5366SOL     OW16996   0.624   4.468   3.704
 5366SOL    HW116997   0.562   4.398   3.739
 5366SOL    HW216998   0.591   4.558   3.733
 5367SOL     OW16999   6.595   6.029   1.377
 5367SOL    HW117000   6.501   6.004   1.400
 5367SOL    HW217001   6.611   6.124   1.402
 5368SOL     OW17002   6.796   6.073   5.532
 5368SOL    HW117003   6.749   6.153   5.569
 5368SOL    HW217004   6.730   6.011   5.490
 5369SOL     OW17005   3.887   0.021   3.052
 5369SOL    HW117006   3.847   0.051   2.966
 5369SOL    HW217007   3.984   0.043   3.054
 5370SOL     OW17008   2.526   2.730   0.782
 5370SOL    HW117009   2.582   2.803   0.742
 5370SOL    HW217010   2.511   2.658   0.714
 5371SOL     OW17011   6.206   5.271   3.280
 5371SOL    HW117012   6.294   5.238   3.312
 5371SOL    HW217013   6.140   5.268   3.355
 5372SOL     OW17014   0.594   0.264   4.107
 5372SOL    HW117015   0.588   0.173   4.149
 5372SOL    HW217016   0.615   0.255   4.010
 5373SOL     OW17017   4.124   6.689   0.545
 5373SOL    HW117018   4.199   6.736   0.499
 5373SOL    HW217019   4.086   6.749   0.616
 5374SOL     OW17020   1.267   3.934   1.029
 5374SOL    HW117021   1.214   3.944   1.114
 5374SOL    HW217022   1.220   3.871   0.968
 5375SOL     OW17023   2.932   4.890   5.216
 5375SOL    HW117024   2.879   4.812   5.250
 5375SOL    HW217025   2.972   4.867   5.127
 5376SOL     OW17026   0.327   6.919   2.054
 5376SOL    HW117027   0.308   6.821   2.045
 5376SOL    HW217028   0.312   6.964   1.966
 5377SOL     OW17029   1.108   2.567   2.275
 5377SOL    HW117030   1.167   2.500   2.229
 5377SOL    HW217031   1.096   2.647   2.218
 5378SOL     OW17032   5.236   6.787   3.195
 5378SOL    HW117033   5.249   6.839   3.111
 5378SOL    HW217034   5.326   6.768   3.236
 5379SOL     OW17035   3.138   2.128   4.417
 5379SOL    HW117036   3.124   2.168   4.507
 5379SOL    HW217037   3.236   2.129   4.395
 5380SOL     OW17038   4.589   6.548   1.765
 5380SOL    HW117039   4.494   6.548   1.796
 5380SOL    HW217040   4.595   6.502   1.676
 5381SOL     OW17041   3.342   2.079   2.488
 5381SOL    HW117042   3.301   1.995   2.524
 5381SOL    HW217043   3.292   2.109   2.407
 5382SOL     OW17044   4.851   0.942   2.546
 5382SOL    HW117045   4.788   0.979   2.477
 5382SOL    HW217046   4.889   0.856   2.512
 5383SOL     OW17047   2.469   4.071   5.442
 5383SOL    HW117048   2.451   4.028   5.353
 5383SOL    HW217049   2.528   4.150   5.429
 5384SOL     OW17050   5.198   6.384   5.995
 5384SOL    HW117051   5.101   6.378   5.972
 5384SOL    HW217052   5.218   6.321   6.070
 5385SOL     OW17053   3.880   4.158   0.716
 5385SOL    HW117054   3.944   4.232   0.741
 5385SOL    HW217055   3.898   4.079   0.775
 5386SOL     OW17056   4.396   4.528   3.430
 5386SOL    HW117057   4.472   4.465   3.447
 5386SOL    HW217058   4.348   4.546   3.516
 5387SOL     OW17059   1.070   2.606   4.673
 5387SOL    HW117060   1.098   2.619   4.768
 5387SOL    HW217061   1.054   2.509   4.655
 5388SOL     OW17062   6.561   6.450   3.497
 5388SOL    HW117063   6.478   6.496   3.465
 5388SOL    HW217064   6.565   6.455   3.597
 5389SOL     OW17065   5.832   1.597   4.923
 5389SOL    HW117066   5.892   1.547   4.861
 5389SOL    HW217067   5.795   1.534   4.991
 5390SOL     OW17068   5.686   3.224   3.213
 5390SOL    HW117069   5.713   3.319   3.232
 5390SOL    HW217070   5.711   3.167   3.291
 5391SOL     OW17071   4.389   3.102   0.629
 5391SOL    HW117072   4.462   3.169   0.612
 5391SOL    HW217073   4.325   3.103   0.552
 5392SOL     OW17074   5.253   0.963   4.112
 5392SOL    HW117075   5.318   0.906   4.063
 5392SOL    HW217076   5.224   1.039   4.054
 5393SOL     OW17077   4.799   2.641   3.146
 5393SOL    HW117078   4.702   2.630   3.124
 5393SOL    HW217079   4.829   2.564   3.203
 5394SOL     OW17080   0.221   3.082   3.102
 5394SOL    HW117081   0.275   3.131   3.034
 5394SOL    HW217082   0.240   2.984   3.094
 5395SOL     OW17083   7.014   0.622   1.818
 5395SOL    HW117084   0.043   0.682   1.760
 5395SOL    HW217085   6.918   0.629   1.791
 5396SOL     OW17086   4.164   2.512   7.001
 5396SOL    HW117087   4.223   2.501   0.054
 5396SOL    HW217088   4.141   2.422   6.963
 5397SOL     OW17089   0.982   6.588   2.342
 5397SOL    HW117090   0.991   6.663   2.277
 5397SOL    HW217091   0.886   6.576   2.366
 5398SOL     OW17092   5.899   2.653   3.229
 5398SOL    HW117093   5.830   2.721   3.257
 5398SOL    HW217094   5.952   2.626   3.309
 5399SOL     OW17095   2.448   3.263   0.197
 5399SOL    HW117096   2.471   3.349   0.243
 5399SOL    HW217097   2.353   3.240   0.215
 5400SOL     OW17098   5.560   2.927   0.588
 5400SOL    HW117099   5.538   2.843   0.538
 5400SOL    HW217100   5.485   2.993   0.577
 5401SOL     OW17101   5.194   4.116   0.766
 5401SOL    HW117102   5.103   4.089   0.798
 5401SOL    HW217103   5.192   4.211   0.736
 5402SOL     OW17104   2.021   6.091   1.819
 5402SOL    HW117105   1.948   6.035   1.779
 5402SOL    HW217106   2.103   6.083   1.762
 5403SOL     OW17107   6.149   2.569   5.281
 5403SOL    HW117108   6.114   2.525   5.364
 5403SOL    HW217109   6.076   2.572   5.213
 5404SOL     OW17110   4.751   6.470   0.835
 5404SOL    HW117111   4.788   6.378   0.817
 5404SOL    HW217112   4.654   6.471   0.814
 5405SOL     OW17113   6.579   4.876   5.986
 5405SOL    HW117114   6.621   4.962   5.957
 5405SOL    HW217115   6.514   4.846   5.916
 5406SOL     OW17116   2.031   1.041   5.030
 5406SOL    HW117117   2.075   0.994   5.107
 5406SOL    HW217118   1.970   1.112   5.065
 5407SOL     OW17119   2.138   1.406   2.885
 5407SOL    HW117120   2.151   1.417   2.983
 5407SOL    HW217121   2.122   1.495   2.843
 5408SOL     OW17122   1.929   2.419   4.417
 5408SOL    HW117123   1.867   2.460   4.350
 5408SOL    HW217124   1.875   2.367   4.484
 5409SOL     OW17125   6.979   4.726   3.318
 5409SOL    HW117126   7.007   4.680   3.234
 5409SOL    HW217127   6.924   4.664   3.373
 5410SOL     OW17128   5.576   2.369   0.489
 5410SOL    HW117129   5.605   2.377   0.584
 5410SOL    HW217130   5.643   2.414   0.430
 5411SOL     OW17131   3.067   5.811   1.698
 5411SOL    HW117132   3.077   5.724   1.651
 5411SOL    HW217133   3.115   5.882   1.647
 5412SOL     OW17134   1.784   1.731   6.128
 5412SOL    HW117135   1.693   1.758   6.095
 5412SOL    HW217136   1.835   1.812   6.155
 5413SOL     OW17137   0.010   5.701   5.813
 5413SOL    HW117138   7.014   5.798   5.800
 5413SOL    HW217139   0.026   5.658   5.724
 5414SOL     OW17140   5.753   6.062   6.146
 5414SOL    HW117141   5.676   6.124   6.161
 5414SOL    HW217142   5.790   6.076   6.054
 5415SOL     OW17143   2.212   1.026   0.100
 5415SOL    HW117144   2.218   0.945   0.043
 5415SOL    HW217145   2.297   1.079   0.092
 5416SOL     OW17146   3.852   5.581   6.571
 5416SOL    HW117147   3.902   5.505   6.529
 5416SOL    HW217148   3.811   5.550   6.656
 5417SOL     OW17149   5.557   0.143   2.010
 5417SOL    HW117150   5.527   0.179   2.099
 5417SOL    HW217151   5.542   0.045   2.007
 5418SOL     OW17152   0.575   3.307   5.176
 5418SOL    HW117153   0.505   3.362   5.130
 5418SOL    HW217154   0.589   3.340   5.269
 5419SOL     OW17155   3.750   2.199   6.272
 5419SOL    HW117156   3.850   2.201   6.280
 5419SOL    HW217157   3.710   2.261   6.339
 5420SOL     OW17158   2.159   1.520   1.082
 5420SOL    HW117159   2.115   1.464   1.013
 5420SOL    HW217160   2.238   1.471   1.120
 5421SOL     OW17161   4.256   5.302   1.294
 5421SOL    HW117162   4.192   5.272   1.365
 5421SOL    HW217163   4.293   5.392   1.317
 5422SOL     OW17164   2.435   6.706   2.552
 5422SOL    HW117165   2.486   6.757   2.621
 5422SOL    HW217166   2.477   6.617   2.537
 5423SOL     OW17167   4.260   6.782   2.239
 5423SOL    HW117168   4.317   6.736   2.307
 5423SOL    HW217169   4.311   6.858   2.198
 5424SOL     OW17170   3.520   3.177   4.907
 5424SOL    HW117171   3.581   3.141   4.977
 5424SOL    HW217172   3.430   3.194   4.948
 5425SOL     OW17173   0.884   5.282   5.392
 5425SOL    HW117174   0.894   5.193   5.436
 5425SOL    HW217175   0.821   5.339   5.446
 5426SOL     OW17176   1.267   4.445   0.224
 5426SOL    HW117177   1.269   4.544   0.238
 5426SOL    HW217178   1.350   4.416   0.177
 5427SOL     OW17179   5.063   2.206   0.850
 5427SOL    HW117180   5.110   2.294   0.861
 5427SOL    HW217181   4.969   2.215   0.884
 5428SOL     OW17182   4.653   5.586   2.600
 5428SOL    HW117183   4.679   5.505   2.652
 5428SOL    HW217184   4.629   5.660   2.664
 5429SOL     OW17185   2.528   6.637   3.322
 5429SOL    HW117186   2.510   6.595   3.411
 5429SOL    HW217187   2.487   6.729   3.321
 5430SOL     OW17188   1.033   4.571   5.518
 5430SOL    HW117189   1.009   4.664   5.545
 5430SOL    HW217190   1.085   4.574   5.433
 5431SOL     OW17191   5.303   4.439   1.250
 5431SOL    HW117192   5.209   4.443   1.216
 5431SOL    HW217193   5.365   4.413   1.176
 5432SOL     OW17194   1.079   5.105   5.766
 5432SOL    HW117195   1.148   5.037   5.792
 5432SOL    HW217196   1.124   5.187   5.732
 5433SOL     OW17197   2.779   0.360   1.361
 5433SOL    HW117198   2.781   0.397   1.455
 5433SOL    HW217199   2.835   0.278   1.356
 5434SOL     OW17200   5.203   5.668   4.316
 5434SOL    HW117201   5.190   5.639   4.221
 5434SOL    HW217202   5.216   5.587   4.373
 5435SOL     OW17203   6.834   3.413   6.896
 5435SOL    HW117204   6.757   3.442   6.954
 5435SOL    HW217205   6.911   3.385   6.954
 5436SOL     OW17206   1.137   4.771   1.161
 5436SOL    HW117207   1.129   4.848   1.097
 5436SOL    HW217208   1.084   4.694   1.126
 5437SOL     OW17209   3.724   6.521   6.551
 5437SOL    HW117210   3.683   6.598   6.502
 5437SOL    HW217211   3.654   6.472   6.601
 5438SOL     OW17212   5.068   6.449   2.708
 5438SOL    HW117213   5.122   6.421   2.788
 5438SOL    HW217214   5.126   6.504   2.647
 5439SOL     OW17215   1.372   3.876   1.572
 5439SOL    HW117216   1.274   3.865   1.562
 5439SOL    HW217217   1.398   3.860   1.668
 5440SOL     OW17218   6.256   6.692   4.005
 5440SOL    HW117219   6.313   6.710   4.085
 5440SOL    HW217220   6.221   6.598   4.010
 5441SOL     OW17221   5.503   0.720   4.941
 5441SOL    HW117222   5.448   0.680   5.014
 5441SOL    HW217223   5.464   0.809   4.914
 5442SOL     OW17224   2.839   0.183   6.860
 5442SOL    HW117225   2.815   0.151   6.769
 5442SOL    HW217226   2.927   0.143   6.887
 5443SOL     OW17227   5.542   1.247   3.478
 5443SOL    HW117228   5.496   1.258   3.390
 5443SOL    HW217229   5.614   1.179   3.469
 5444SOL     OW17230   1.606   1.438   6.356
 5444SOL    HW117231   1.595   1.390   6.443
 5444SOL    HW217232   1.681   1.398   6.304
 5445SOL     OW17233   5.785   6.572   4.871
 5445SOL    HW117234   5.795   6.575   4.971
 5445SOL    HW217235   5.690   6.592   4.846
 5446SOL     OW17236   2.381   4.648   6.398
 5446SOL    HW117237   2.383   4.738   6.442
 5446SOL    HW217238   2.419   4.580   6.461
 5447SOL     OW17239   6.418   2.100   1.398
 5447SOL    HW117240   6.476   2.059   1.469
 5447SOL    HW217241   6.341   2.040   1.379
 5448SOL     OW17242   6.280   4.716   1.361
 5448SOL    HW117243   6.284   4.757   1.269
 5448SOL    HW217244   6.370   4.682   1.387
 5449SOL     OW17245   2.384   0.130   2.419
 5449SOL    HW117246   2.288   0.156   2.415
 5449SOL    HW217247   2.391   0.030   2.424
 5450SOL     OW17248   4.573   5.327   1.971
 5450SOL    HW117249   4.634   5.269   1.917
 5450SOL    HW217250   4.593   5.423   1.952
 5451SOL     OW17251   0.682   5.825   4.066
 5451SOL    HW117252   0.725   5.910   4.037
 5451SOL    HW217253   0.653   5.773   3.986
 5452SOL     OW17254   2.205   4.086   2.875
 5452SOL    HW117255   2.230   4.116   2.783
 5452SOL    HW217256   2.152   4.001   2.870
 5453SOL     OW17257   5.757   4.816   4.157
 5453SOL    HW117258   5.795   4.875   4.086
 5453SOL    HW217259   5.819   4.816   4.236
 5454SOL     OW17260   6.072   3.883   1.997
 5454SOL    HW117261   6.014   3.912   1.921
 5454SOL    HW217262   6.053   3.787   2.018
 5455SOL     OW17263   2.461   2.613   3.241
 5455SOL    HW117264   2.518   2.532   3.254
 5455SOL    HW217265   2.439   2.653   3.331
 5456SOL     OW17266   5.112   2.978   0.385
 5456SOL    HW117267   5.043   2.920   0.428
 5456SOL    HW217268   5.174   2.921   0.331
 5457SOL     OW17269   6.640   1.397   0.364
 5457SOL    HW117270   6.589   1.376   0.447
 5457SOL    HW217271   6.612   1.334   0.291
 5458SOL     OW17272   6.123   5.058   5.744
 5458SOL    HW117273   6.131   4.970   5.697
 5458SOL    HW217274   6.072   5.045   5.829
 5459SOL     OW17275   2.390   3.722   5.314
 5459SOL    HW117276   2.404   3.805   5.260
 5459SOL    HW217277   2.441   3.730   5.400
 5460SOL     OW17278   0.163   0.801   1.721
 5460SOL    HW117279   0.211   0.842   1.799
 5460SOL    HW217280   0.227   0.746   1.668
 5461SOL     OW17281   5.663   1.186   6.511
 5461SOL    HW117282   5.698   1.273   6.476
 5461SOL    HW217283   5.739   1.131   6.546
 5462SOL     OW17284   4.964   5.267   6.293
 5462SOL    HW117285   5.061   5.251   6.315
 5462SOL    HW217286   4.950   5.364   6.276
 5463SOL     OW17287   2.245   5.233   0.015
 5463SOL    HW117288   2.162   5.287   0.005
 5463SOL    HW217289   2.324   5.294   0.028
 5464SOL     OW17290   1.868   5.844   4.102
 5464SOL    HW117291   1.815   5.882   4.178
 5464SOL    HW217292   1.899   5.918   4.043
 5465SOL     OW17293   0.943   0.942   4.984
 5465SOL    HW117294   0.976   0.983   4.900
 5465SOL    HW217295   0.916   1.014   5.048
 5466SOL     OW17296   4.947   2.619   4.885
 5466SOL    HW117297   4.966   2.589   4.978
 5466SOL    HW217298   4.970   2.545   4.821
 5467SOL     OW17299   5.763   3.972   3.722
 5467SOL    HW117300   5.797   4.044   3.783
 5467SOL    HW217301   5.696   4.011   3.659
 5468SOL     OW17302   0.391   2.771   1.432
 5468SOL    HW117303   0.442   2.783   1.517
 5468SOL    HW217304   0.442   2.709   1.371
 5469SOL     OW17305   4.552   1.485   3.597
 5469SOL    HW117306   4.517   1.534   3.517
 5469SOL    HW217307   4.479   1.473   3.664
 5470SOL     OW17308   2.878   4.809   4.079
 5470SOL    HW117309   2.806   4.765   4.026
 5470SOL    HW217310   2.949   4.843   4.017
 5471SOL     OW17311   5.477   0.494   3.665
 5471SOL    HW117312   5.471   0.394   3.671
 5471SOL    HW217313   5.559   0.525   3.712
 5472SOL     OW17314   2.707   3.792   6.816
 5472SOL    HW117315   2.734   3.749   6.902
 5472SOL    HW217316   2.692   3.722   6.746
 5473SOL     OW17317   2.688   4.835   2.135
 5473SOL    HW117318   2.753   4.874   2.199
 5473SOL    HW217319   2.735   4.773   2.072
 5474SOL     OW17320   1.115   5.032   1.887
 5474SOL    HW117321   1.054   5.107   1.913
 5474SOL    HW217322   1.075   4.945   1.917
 5475SOL     OW17323   0.519   0.721   5.128
 5475SOL    HW117324   0.619   0.719   5.125
 5475SOL    HW217325   0.484   0.631   5.100
 5476SOL     OW17326   2.447   1.007   5.152
 5476SOL    HW117327   2.400   0.959   5.078
 5476SOL    HW217328   2.479   1.095   5.119
 5477SOL     OW17329   2.180   3.848   3.293
 5477SOL    HW117330   2.118   3.880   3.221
 5477SOL    HW217331   2.250   3.917   3.309
 5478SOL     OW17332   6.554   3.618   5.371
 5478SOL    HW117333   6.533   3.567   5.455
 5478SOL    HW217334   6.506   3.574   5.294
 5479SOL     OW17335   5.088   3.859   4.233
 5479SOL    HW117336   5.040   3.791   4.290
 5479SOL    HW217337   5.095   3.824   4.139
 5480SOL     OW17338   1.636   3.179   5.502
 5480SOL    HW117339   1.653   3.270   5.464
 5480SOL    HW217340   1.578   3.127   5.439
 5481SOL     OW17341   4.500   1.402   0.299
 5481SOL    HW117342   4.478   1.486   0.349
 5481SOL    HW217343   4.432   1.332   0.320
 5482SOL     OW17344   5.045   4.542   2.249
 5482SOL    HW117345   5.069   4.632   2.283
 5482SOL    HW217346   5.110   4.514   2.178
 5483SOL     OW17347   5.852   2.103   0.585
 5483SOL    HW117348   5.832   2.198   0.611
 5483SOL    HW217349   5.945   2.098   0.549
 5484SOL     OW17350   6.328   0.613   5.437
 5484SOL    HW117351   6.346   0.546   5.365
 5484SOL    HW217352   6.277   0.569   5.512
 5485SOL     OW17353   2.654   0.927   3.965
 5485SOL    HW117354   2.583   0.879   3.913
 5485SOL    HW217355   2.742   0.918   3.917
 5486SOL     OW17356   0.347   0.151   3.841
 5486SOL    HW117357   0.425   0.214   3.843
 5486SOL    HW217358   0.267   0.196   3.881
 5487SOL     OW17359   4.714   5.256   0.912
 5487SOL    HW117360   4.642   5.187   0.924
 5487SOL    HW217361   4.722   5.310   0.996
 5488SOL     OW17362   5.089   1.025   6.209
 5488SOL    HW117363   5.158   1.092   6.236
 5488SOL    HW217364   5.005   1.072   6.184
 5489SOL     OW17365   6.737   3.865   2.639
 5489SOL    HW117366   6.799   3.922   2.693
 5489SOL    HW217367   6.685   3.923   2.576
 5490SOL     OW17368   3.062   1.510   6.713
 5490SOL    HW117369   3.067   1.546   6.806
 5490SOL    HW217370   2.988   1.557   6.663
 5491SOL     OW17371   6.813   5.916   2.587
 5491SOL    HW117372   6.812   5.951   2.494
 5491SOL    HW217373   6.794   5.818   2.587
 5492SOL     OW17374   1.114   1.053   4.757
 5492SOL    HW117375   1.210   1.063   4.728
 5492SOL    HW217376   1.055   1.101   4.693
 5493SOL     OW17377   4.076   1.627   0.553
 5493SOL    HW117378   4.061   1.724   0.534
 5493SOL    HW217379   4.144   1.617   0.625
 5494SOL     OW17380   4.979   3.175   2.453
 5494SOL    HW117381   5.004   3.272   2.447
 5494SOL    HW217382   4.972   3.137   2.361
 5495SOL     OW17383   3.535   3.003   3.824
 5495SOL    HW117384   3.513   2.967   3.914
 5495SOL    HW217385   3.487   3.090   3.810
 5496SOL     OW17386   4.673   5.597   1.947
 5496SOL    HW117387   4.661   5.580   1.850
 5496SOL    HW217388   4.644   5.690   1.969
 5497SOL     OW17389   5.505   0.460   0.007
 5497SOL    HW117390   5.426   0.451   0.067
 5497SOL    HW217391   5.587   0.430   0.056
 5498SOL     OW17392   3.999   1.962   4.250
 5498SOL    HW117393   3.951   1.938   4.334
 5498SOL    HW217394   4.080   2.016   4.272
 5499SOL     OW17395   0.235   0.611   5.276
 5499SOL    HW117396   0.161   0.544   5.292
 5499SOL    HW217397   0.308   0.567   5.224
 5500SOL     OW17398   2.235   6.731   0.861
 5500SOL    HW117399   2.180   6.764   0.784
 5500SOL    HW217400   2.318   6.785   0.869
 5501SOL     OW17401   2.745   0.374   2.335
 5501SOL    HW117402   2.830   0.358   2.285
 5501SOL    HW217403   2.670   0.326   2.289
 5502SOL     OW17404   4.796   3.619   0.634
 5502SOL    HW117405   4.827   3.536   0.679
 5502SOL    HW217406   4.766   3.598   0.541
 5503SOL     OW17407   6.814   0.354   3.544
 5503SOL    HW117408   6.906   0.329   3.575
 5503SOL    HW217409   6.812   0.452   3.522
 5504SOL     OW17410   3.067   2.199   4.724
 5504SOL    HW117411   3.084   2.233   4.816
 5504SOL    HW217412   3.037   2.103   4.729
 5505SOL     OW17413   3.316   5.004   0.792
 5505SOL    HW117414   3.331   4.982   0.696
 5505SOL    HW217415   3.218   5.009   0.810
 5506SOL     OW17416   0.533   6.922   5.978
 5506SOL    HW117417   0.617   6.884   6.018
 5506SOL    HW217418   0.481   6.970   6.048
 5507SOL     OW17419   3.054   5.153   5.178
 5507SOL    HW117420   2.972   5.190   5.223
 5507SOL    HW217421   3.041   5.056   5.160
 5508SOL     OW17422   1.463   0.673   5.170
 5508SOL    HW117423   1.437   0.597   5.229
 5508SOL    HW217424   1.391   0.742   5.171
 5509SOL     OW17425   6.262   0.074   6.116
 5509SOL    HW117426   6.360   0.059   6.118
 5509SOL    HW217427   6.215   7.012   6.113
 5510SOL     OW17428   6.843   0.072   6.039
 5510SOL    HW117429   6.746   0.060   6.060
 5510SOL    HW217430   6.853   0.117   5.950
 5511SOL     OW17431   0.427   2.636   1.062
 5511SOL    HW117432   0.394   2.555   1.110
 5511SOL    HW217433   0.349   2.683   1.020
 5512SOL     OW17434   6.076   0.577   0.412
 5512SOL    HW117435   6.162   0.590   0.362
 5512SOL    HW217436   6.037   0.488   0.390
 5513SOL     OW17437   2.993   6.055   4.891
 5513SOL    HW117438   2.965   5.974   4.942
 5513SOL    HW217439   3.060   6.029   4.822
 5514SOL     OW17440   6.281   6.025   3.646
 5514SOL    HW117441   6.312   6.085   3.573
 5514SOL    HW217442   6.242   6.080   3.720
 5515SOL     OW17443   0.077   4.039   3.329
 5515SOL    HW117444   0.098   4.093   3.411
 5515SOL    HW217445   7.005   4.026   3.322
 5516SOL     OW17446   1.005   2.145   0.113
 5516SOL    HW117447   0.950   2.177   0.036
 5516SOL    HW217448   1.075   2.212   0.136
 5517SOL     OW17449   2.804   0.921   2.239
 5517SOL    HW117450   2.852   0.889   2.157
 5517SOL    HW217451   2.859   0.900   2.320
 5518SOL     OW17452   5.580   4.090   5.458
 5518SOL    HW117453   5.515   4.129   5.392
 5518SOL    HW217454   5.579   3.990   5.451
 5519SOL     OW17455   5.390   4.486   2.337
 5519SOL    HW117456   5.422   4.398   2.372
 5519SOL    HW217457   5.300   4.474   2.295
 5520SOL     OW17458   1.778   2.518   1.122
 5520SOL    HW117459   1.741   2.490   1.211
 5520SOL    HW217460   1.703   2.543   1.061
 5521SOL     OW17461   5.093   5.453   6.510
 5521SOL    HW117462   5.174   5.495   6.468
 5521SOL    HW217463   5.015   5.461   6.448
 5522SOL     OW17464   1.943   2.380   2.221
 5522SOL    HW117465   2.004   2.323   2.167
 5522SOL    HW217466   1.857   2.330   2.239
 5523SOL     OW17467   3.317   6.629   1.727
 5523SOL    HW117468   3.331   6.603   1.822
 5523SOL    HW217469   3.226   6.668   1.717
 5524SOL     OW17470   6.217   6.549   5.875
 5524SOL    HW117471   6.311   6.553   5.908
 5524SOL    HW217472   6.202   6.622   5.809
 5525SOL     OW17473   6.481   5.880   3.216
 5525SOL    HW117474   6.549   5.954   3.222
 5525SOL    HW217475   6.521   5.795   3.250
 5526SOL     OW17476   5.109   3.151   4.599
 5526SOL    HW117477   5.032   3.089   4.583
 5526SOL    HW217478   5.084   3.218   4.669
 5527SOL     OW17479   2.147   3.116   0.017
 5527SOL    HW117480   2.119   3.199   6.997
 5527SOL    HW217481   2.080   3.094   0.088
 5528SOL     OW17482   6.494   2.650   2.255
 5528SOL    HW117483   6.467   2.722   2.190
 5528SOL    HW217484   6.413   2.598   2.282
 5529SOL     OW17485   0.921   0.919   3.706
 5529SOL    HW117486   0.840   0.977   3.714
 5529SOL    HW217487   1.001   0.967   3.741
 5530SOL     OW17488   6.630   2.902   7.009
 5530SOL    HW117489   6.655   2.913   0.078
 5530SOL    HW217490   6.545   2.950   6.990
 5531SOL     OW17491   1.800   2.949   0.137
 5531SOL    HW117492   1.715   2.916   0.178
 5531SOL    HW217493   1.843   2.875   0.086
 5532SOL     OW17494   2.462   2.659   1.287
 5532SOL    HW117495   2.366   2.667   1.263
 5532SOL    HW217496   2.518   2.671   1.204
 5533SOL     OW17497   4.093   0.395   1.298
 5533SOL    HW117498   4.064   0.470   1.238
 5533SOL    HW217499   4.092   0.310   1.245
 5534SOL     OW17500   0.676   3.790   5.174
 5534SOL    HW117501   0.637   3.699   5.190
 5534SOL    HW217502   0.706   3.798   5.079
 5535SOL     OW17503   5.411   4.125   3.495
 5535SOL    HW117504   5.434   4.185   3.418
 5535SOL    HW217505   5.343   4.170   3.553
 5536SOL     OW17506   2.622   0.870   4.253
 5536SOL    HW117507   2.602   0.773   4.266
 5536SOL    HW217508   2.621   0.891   4.155
 5537SOL     OW17509   3.815   0.503   4.513
 5537SOL    HW117510   3.893   0.441   4.516
 5537SOL    HW217511   3.828   0.577   4.579
 5538SOL     OW17512   5.561   2.154   2.254
 5538SOL    HW117513   5.536   2.214   2.330
 5538SOL    HW217514   5.481   2.101   2.226
 5539SOL     OW17515   2.226   0.088   6.639
 5539SOL    HW117516   2.230   7.019   6.668
 5539SOL    HW217517   2.187   0.093   6.547
 5540SOL     OW17518   5.362   6.964   5.241
 5540SOL    HW117519   5.316   0.002   5.181
 5540SOL    HW217520   5.427   6.909   5.188
 5541SOL     OW17521   4.723   2.492   6.959
 5541SOL    HW117522   4.797   2.500   7.026
 5541SOL    HW217523   4.689   2.399   6.957
 5542SOL     OW17524   4.986   4.585   6.651
 5542SOL    HW117525   4.890   4.614   6.643
 5542SOL    HW217526   5.028   4.632   6.729
 5543SOL     OW17527   0.753   0.325   6.676
 5543SOL    HW117528   0.848   0.293   6.683
 5543SOL    HW217529   0.711   0.287   6.594
 5544SOL     OW17530   3.721   5.109   0.337
 5544SOL    HW117531   3.754   5.159   0.417
 5544SOL    HW217532   3.794   5.103   0.269
 5545SOL     OW17533   5.854   1.603   2.541
 5545SOL    HW117534   5.890   1.637   2.454
 5545SOL    HW217535   5.790   1.670   2.579
 5546SOL     OW17536   0.322   5.593   4.361
 5546SOL    HW117537   0.375   5.665   4.318
 5546SOL    HW217538   0.374   5.508   4.360
 5547SOL     OW17539   5.322   1.686   4.993
 5547SOL    HW117540   5.404   1.658   4.942
 5547SOL    HW217541   5.243   1.685   4.932
 5548SOL     OW17542   0.190   3.569   4.946
 5548SOL    HW117543   0.220   3.662   4.926
 5548SOL    HW217544   0.152   3.527   4.864
 5549SOL     OW17545   3.577   2.818   0.542
 5549SOL    HW117546   3.544   2.767   0.622
 5549SOL    HW217547   3.671   2.791   0.523
 5550SOL     OW17548   2.633   4.158   1.641
 5550SOL    HW117549   2.600   4.173   1.548
 5550SOL    HW217550   2.726   4.121   1.637
 5551SOL     OW17551   1.474   4.685   2.759
 5551SOL    HW117552   1.551   4.733   2.799
 5551SOL    HW217553   1.439   4.737   2.681
 5552SOL     OW17554   0.935   0.236   0.474
 5552SOL    HW117555   1.024   0.248   0.432
 5552SOL    HW217556   0.902   0.143   0.456
 5553SOL     OW17557   5.149   0.093   0.029
 5553SOL    HW117558   5.158   0.051   0.119
 5553SOL    HW217559   5.239   0.095   7.011
 5554SOL     OW17560   6.592   2.589   1.274
 5554SOL    HW117561   6.664   2.646   1.233
 5554SOL    HW217562   6.616   2.568   1.369
 5555SOL     OW17563   1.418   5.225   2.364
 5555SOL    HW117564   1.363   5.306   2.385
 5555SOL    HW217565   1.390   5.187   2.276
 5556SOL     OW17566   0.216   1.240   4.810
 5556SOL    HW117567   0.293   1.269   4.754
 5556SOL    HW217568   0.179   1.319   4.859
 5557SOL     OW17569   3.661   6.141   2.673
 5557SOL    HW117570   3.676   6.043   2.655
 5557SOL    HW217571   3.738   6.193   2.636
 5558SOL     OW17572   4.720   3.653   6.507
 5558SOL    HW117573   4.670   3.738   6.493
 5558SOL    HW217574   4.697   3.588   6.434
 5559SOL     OW17575   3.592   0.724   2.431
 5559SOL    HW117576   3.676   0.694   2.386
 5559SOL    HW217577   3.556   0.650   2.489
 5560SOL     OW17578   0.115   5.740   3.707
 5560SOL    HW117579   0.033   5.711   3.755
 5560SOL    HW217580   0.178   5.784   3.771
 5561SOL     OW17581   3.382   0.370   3.503
 5561SOL    HW117582   3.465   0.366   3.559
 5561SOL    HW217583   3.357   0.277   3.475
 5562SOL     OW17584   3.886   3.250   0.699
 5562SOL    HW117585   3.921   3.308   0.773
 5562SOL    HW217586   3.896   3.154   0.725
 5563SOL     OW17587   2.306   4.779   2.372
 5563SOL    HW117588   2.234   4.710   2.385
 5563SOL    HW217589   2.367   4.749   2.299
 5564SOL     OW17590   4.829   0.138   6.287
 5564SOL    HW117591   4.803   0.204   6.216
 5564SOL    HW217592   4.815   0.045   6.254
 5565SOL     OW17593   3.952   1.390   5.789
 5565SOL    HW117594   3.931   1.315   5.852
 5565SOL    HW217595   3.985   1.351   5.702
 5566SOL     OW17596   1.478   5.116   5.795
 5566SOL    HW117597   1.457   5.188   5.861
 5566SOL    HW217598   1.409   5.119   5.722
 5567SOL     OW17599   0.309   4.937   0.225
 5567SOL    HW117600   0.351   4.868   0.165
 5567SOL    HW217601   0.341   4.923   0.319
 5568SOL     OW17602   4.828   4.920   1.400
 5568SOL    HW117603   4.748   4.865   1.426
 5568SOL    HW217604   4.869   4.960   1.482
 5569SOL     OW17605   2.321   2.808   3.118
 5569SOL    HW117606   2.389   2.741   3.147
 5569SOL    HW217607   2.325   2.820   3.019
 5570SOL     OW17608   6.692   3.766   1.325
 5570SOL    HW117609   6.593   3.757   1.313
 5570SOL    HW217610   6.714   3.769   1.423
 5571SOL     OW17611   6.574   4.334   0.795
 5571SOL    HW117612   6.569   4.373   0.887
 5571SOL    HW217613   6.499   4.269   0.783
 5572SOL     OW17614   1.657   4.282   5.028
 5572SOL    HW117615   1.559   4.270   5.039
 5572SOL    HW217616   1.683   4.265   4.933
 5573SOL     OW17617   3.230   5.450   3.984
 5573SOL    HW117618   3.244   5.534   3.931
 5573SOL    HW217619   3.138   5.415   3.965
 5574SOL     OW17620   0.693   1.740   5.724
 5574SOL    HW117621   0.793   1.749   5.725
 5574SOL    HW217622   0.668   1.647   5.750
 5575SOL     OW17623   0.068   0.109   1.720
 5575SOL    HW117624   0.118   0.133   1.637
 5575SOL    HW217625   7.022   0.175   1.735
 5576SOL     OW17626   1.447   5.012   3.507
 5576SOL    HW117627   1.489   4.924   3.527
 5576SOL    HW217628   1.399   5.046   3.588
 5577SOL     OW17629   2.111   2.631   6.260
 5577SOL    HW117630   2.198   2.659   6.301
 5577SOL    HW217631   2.114   2.648   6.161
 5578SOL     OW17632   3.769   4.105   3.926
 5578SOL    HW117633   3.830   4.154   3.864
 5578SOL    HW217634   3.813   4.020   3.956
 5579SOL     OW17635   6.253   3.105   1.721
 5579SOL    HW117636   6.333   3.108   1.661
 5579SOL    HW217637   6.282   3.123   1.815
 5580SOL     OW17638   5.574   1.951   5.521
 5580SOL    HW117639   5.670   1.963   5.494
 5580SOL    HW217640   5.521   2.029   5.489
 5581SOL     OW17641   1.000   1.913   6.260
 5581SOL    HW117642   0.993   1.970   6.178
 5581SOL    HW217643   1.096   1.901   6.284
 5582SOL     OW17644   2.732   2.637   6.003
 5582SOL    HW117645   2.807   2.700   6.024
 5582SOL    HW217646   2.761   2.571   5.934
 5583SOL     OW17647   5.857   6.887   1.002
 5583SOL    HW117648   5.953   6.859   1.003
 5583SOL    HW217649   5.851   6.986   1.017
 5584SOL     OW17650   2.034   3.080   4.599
 5584SOL    HW117651   2.083   2.993   4.591
 5584SOL    HW217652   2.088   3.143   4.655
 5585SOL     OW17653   5.545   5.014   1.446
 5585SOL    HW117654   5.645   5.006   1.451
 5585SOL    HW217655   5.519   5.108   1.467
 5586SOL     OW17656   0.824   5.198   0.928
 5586SOL    HW117657   0.833   5.249   1.013
 5586SOL    HW217658   0.899   5.222   0.866
 5587SOL     OW17659   6.287   0.837   5.965
 5587SOL    HW117660   6.188   0.825   5.970
 5587SOL    HW217661   6.310   0.888   5.882
 5588SOL     OW17662   3.316   6.553   0.889
 5588SOL    HW117663   3.301   6.547   0.987
 5588SOL    HW217664   3.311   6.462   0.848
 5589SOL     OW17665   6.639   4.640   6.127
 5589SOL    HW117666   6.642   4.652   6.226
 5589SOL    HW217667   6.640   4.729   6.082
 5590SOL     OW17668   5.959   5.593   3.144
 5590SOL    HW117669   5.960   5.690   3.120
 5590SOL    HW217670   5.870   5.568   3.182
 5591SOL     OW17671   5.412   1.113   1.899
 5591SOL    HW117672   5.478   1.087   1.970
 5591SOL    HW217673   5.437   1.201   1.861
 5592SOL     OW17674   0.301   4.435   3.301
 5592SOL    HW117675   0.373   4.501   3.279
 5592SOL    HW217676   0.311   4.354   3.243
 5593SOL     OW17677   1.033   3.956   0.590
 5593SOL    HW117678   0.956   3.913   0.542
 5593SOL    HW217679   1.025   4.055   0.584
 5594SOL     OW17680   5.949   1.592   5.835
 5594SOL    HW117681   5.865   1.589   5.889
 5594SOL    HW217682   5.984   1.499   5.821
 5595SOL     OW17683   0.690   2.530   0.441
 5595SOL    HW117684   0.674   2.543   0.539
 5595SOL    HW217685   0.659   2.438   0.414
 5596SOL     OW17686   3.131   6.066   3.497
 5596SOL    HW117687   3.178   5.980   3.515
 5596SOL    HW217688   3.056   6.078   3.562
 5597SOL     OW17689   4.915   3.286   1.888
 5597SOL    HW117690   5.002   3.244   1.861
 5597SOL    HW217691   4.849   3.215   1.911
 5598SOL     OW17692   4.910   1.012   4.599
 5598SOL    HW117693   4.851   1.041   4.674
 5598SOL    HW217694   4.861   0.947   4.540
 5599SOL     OW17695   0.800   1.339   3.415
 5599SOL    HW117696   0.742   1.267   3.376
 5599SOL    HW217697   0.744   1.417   3.440
 5600SOL     OW17698   2.160   2.786   5.383
 5600SOL    HW117699   2.088   2.804   5.316
 5600SOL    HW217700   2.246   2.825   5.350
 5601SOL     OW17701   2.804   0.932   6.309
 5601SOL    HW117702   2.723   0.991   6.316
 5601SOL    HW217703   2.820   0.885   6.396
 5602SOL     OW17704   1.747   0.832   6.862
 5602SOL    HW117705   1.781   0.739   6.854
 5602SOL    HW217706   1.781   0.874   6.946
 5603SOL     OW17707   6.232   4.291   5.662
 5603SOL    HW117708   6.307   4.318   5.602
 5603SOL    HW217709   6.265   4.288   5.757
 5604SOL     OW17710   5.738   1.542   6.011
 5604SOL    HW117711   5.724   1.542   6.110
 5604SOL    HW217712   5.661   1.496   5.966
 5605SOL     OW17713   0.398   1.879   6.542
 5605SOL    HW117714   0.435   1.920   6.458
 5605SOL    HW217715   0.424   1.783   6.546
 5606SOL     OW17716   5.750   6.626   3.258
 5606SOL    HW117717   5.717   6.700   3.199
 5606SOL    HW217718   5.759   6.542   3.204
 5607SOL     OW17719   5.676   0.473   1.159
 5607SOL    HW117720   5.645   0.446   1.068
 5607SOL    HW217721   5.775   0.460   1.166
 5608SOL     OW17722   4.186   6.128   5.219
 5608SOL    HW117723   4.184   6.093   5.126
 5608SOL    HW217724   4.281   6.135   5.250
 5609SOL     OW17725   0.890   5.410   5.768
 5609SOL    HW117726   0.831   5.411   5.849
 5609SOL    HW217727   0.868   5.487   5.709
 5610SOL     OW17728   4.549   0.545   6.315
 5610SOL    HW117729   4.624   0.487   6.285
 5610SOL    HW217730   4.489   0.565   6.238
 5611SOL     OW17731   2.270   4.121   3.844
 5611SOL    HW117732   2.321   4.207   3.835
 5611SOL    HW217733   2.216   4.122   3.928
 5612SOL     OW17734   3.331   6.760   4.769
 5612SOL    HW117735   3.287   6.711   4.693
 5612SOL    HW217736   3.396   6.826   4.732
 5613SOL     OW17737   3.384   5.496   1.668
 5613SOL    HW117738   3.287   5.518   1.661
 5613SOL    HW217739   3.437   5.580   1.660
 5614SOL     OW17740   5.267   1.731   4.413
 5614SOL    HW117741   5.302   1.804   4.471
 5614SOL    HW217742   5.261   1.763   4.318
 5615SOL     OW17743   1.587   1.241   1.981
 5615SOL    HW117744   1.632   1.265   1.895
 5615SOL    HW217745   1.489   1.262   1.975
 5616SOL     OW17746   2.001   6.879   5.050
 5616SOL    HW117747   2.099   6.868   5.066
 5616SOL    HW217748   1.969   6.811   4.984
 5617SOL     OW17749   0.836   0.965   5.559
 5617SOL    HW117750   0.919   0.945   5.611
 5617SOL    HW217751   0.857   0.967   5.461
 5618SOL     OW17752   6.306   4.777   2.873
 5618SOL    HW117753   6.307   4.825   2.960
 5618SOL    HW217754   6.223   4.800   2.822
 5619SOL     OW17755   2.103   3.963   5.124
 5619SOL    HW117756   2.192   4.002   5.100
 5619SOL    HW217757   2.034   3.997   5.060
 5620SOL     OW17758   4.643   1.484   0.089
 5620SOL    HW117759   4.602   1.428   0.161
 5620SOL    HW217760   4.730   1.444   0.061
 5621SOL     OW17761   2.628   1.684   6.627
 5621SOL    HW117762   2.557   1.728   6.682
 5621SOL    HW217763   2.601   1.590   6.606
 5622SOL     OW17764   5.420   0.595   5.181
 5622SOL    HW117765   5.348   0.535   5.218
 5622SOL    HW217766   5.474   0.631   5.257
 5623SOL     OW17767   0.311   6.385   7.016
 5623SOL    HW117768   0.393   6.440   0.007
 5623SOL    HW217769   0.275   6.351   0.076
 5624SOL     OW17770   0.298   4.065   1.812
 5624SOL    HW117771   0.395   4.040   1.804
 5624SOL    HW217772   0.244   3.983   1.828
 5625SOL     OW17773   6.393   2.224   5.633
 5625SOL    HW117774   6.378   2.128   5.656
 5625SOL    HW217775   6.317   2.257   5.577
 5626SOL     OW17776   5.331   6.803   4.238
 5626SOL    HW117777   5.290   6.712   4.241
 5626SOL    HW217778   5.296   6.853   4.159
 5627SOL     OW17779   0.802   6.936   1.241
 5627SOL    HW117780   0.895   6.953   1.208
 5627SOL    HW217781   0.804   6.861   1.307
 5628SOL     OW17782   1.781   1.561   4.325
 5628SOL    HW117783   1.816   1.528   4.413
 5628SOL    HW217784   1.739   1.651   4.338
 5629SOL     OW17785   3.553   2.913   3.562
 5629SOL    HW117786   3.552   2.922   3.662
 5629SOL    HW217787   3.647   2.926   3.529
 5630SOL     OW17788   6.589   4.102   1.033
 5630SOL    HW117789   6.498   4.111   1.073
 5630SOL    HW217790   6.612   4.186   0.983
 5631SOL     OW17791   5.670   1.404   6.247
 5631SOL    HW117792   5.584   1.451   6.231
 5631SOL    HW217793   5.709   1.435   6.334
 5632SOL     OW17794   2.676   2.216   0.541
 5632SOL    HW117795   2.748   2.246   0.478
 5632SOL    HW217796   2.660   2.287   0.609
 5633SOL     OW17797   0.177   2.927   5.532
 5633SOL    HW117798   0.159   2.961   5.625
 5633SOL    HW217799   0.105   2.861   5.507
 5634SOL     OW17800   5.201   6.183   4.453
 5634SOL    HW117801   5.212   6.084   4.445
 5634SOL    HW217802   5.127   6.212   4.393
 5635SOL     OW17803   3.217   1.692   5.878
 5635SOL    HW117804   3.158   1.672   5.800
 5635SOL    HW217805   3.295   1.747   5.848
 5636SOL     OW17806   4.250   6.376   4.471
 5636SOL    HW117807   4.298   6.370   4.559
 5636SOL    HW217808   4.196   6.293   4.456
 5637SOL     OW17809   6.200   0.128   3.518
 5637SOL    HW117810   6.202   0.116   3.418
 5637SOL    HW217811   6.251   0.211   3.543
 5638SOL     OW17812   6.628   3.452   0.115
 5638SOL    HW117813   6.647   3.546   0.142
 5638SOL    HW217814   6.632   3.392   0.195
 5639SOL     OW17815   4.152   0.221   6.981
 5639SOL    HW117816   4.181   0.294   6.919
 5639SOL    HW217817   4.219   0.211   0.028
 5640SOL     OW17818   1.451   0.540   3.155
 5640SOL    HW117819   1.459   0.602   3.233
 5640SOL    HW217820   1.541   0.502   3.133
 5641SOL     OW17821   6.628   5.378   4.473
 5641SOL    HW117822   6.654   5.288   4.509
 5641SOL    HW217823   6.562   5.366   4.399
 5642SOL     OW17824   1.598   1.467   0.101
 5642SOL    HW117825   1.583   1.536   0.030
 5642SOL    HW217826   1.533   1.392   0.089
 5643SOL     OW17827   5.213   1.961   6.500
 5643SOL    HW117828   5.119   1.971   6.466
 5643SOL    HW217829   5.272   2.026   6.452
 5644SOL     OW17830   2.445   1.248   5.980
 5644SOL    HW117831   2.506   1.176   5.948
 5644SOL    HW217832   2.492   1.302   6.051
 5645SOL     OW17833   5.533   3.833   4.705
 5645SOL    HW117834   5.554   3.859   4.610
 5645SOL    HW217835   5.446   3.873   4.732
 5646SOL     OW17836   1.079   3.861   2.780
 5646SOL    HW117837   1.087   3.763   2.765
 5646SOL    HW217838   1.009   3.898   2.719
 5647SOL     OW17839   5.486   5.937   2.755
 5647SOL    HW117840   5.449   5.873   2.687
 5647SOL    HW217841   5.483   5.895   2.845
 5648SOL     OW17842   4.974   5.817   3.149
 5648SOL    HW117843   4.876   5.809   3.129
 5648SOL    HW217844   5.022   5.737   3.113
 5649SOL     OW17845   0.722   0.044   4.685
 5649SOL    HW117846   0.736   0.064   4.782
 5649SOL    HW217847   0.789   7.002   4.655
 5650SOL     OW17848   6.925   3.865   5.928
 5650SOL    HW117849   7.011   3.819   5.949
 5650SOL    HW217850   6.908   3.936   5.995
 5651SOL     OW17851   2.668   1.051   0.527
 5651SOL    HW117852   2.747   1.092   0.481
 5651SOL    HW217853   2.637   1.111   0.600
 5652SOL     OW17854   0.600   5.962   3.161
 5652SOL    HW117855   0.534   5.947   3.235
 5652SOL    HW217856   0.582   5.900   3.086
 5653SOL     OW17857   7.009   0.363   2.868
 5653SOL    HW117858   0.033   0.429   2.924
 5653SOL    HW217859   0.019   0.272   2.883
 5654SOL     OW17860   3.261   6.022   5.523
 5654SOL    HW117861   3.282   6.073   5.606
 5654SOL    HW217862   3.212   5.938   5.547
 5655SOL     OW17863   5.171   2.913   5.109
 5655SOL    HW117864   5.078   2.883   5.089
 5655SOL    HW217865   5.206   2.967   5.033
 5656SOL     OW17866   0.322   3.851   0.452
 5656SOL    HW117867   0.316   3.841   0.551
 5656SOL    HW217868   0.272   3.933   0.424
 5657SOL     OW17869   5.340   6.079   4.823
 5657SOL    HW117870   5.261   6.092   4.764
 5657SOL    HW217871   5.410   6.028   4.774
 5658SOL     OW17872   2.355   3.111   6.214
 5658SOL    HW117873   2.375   3.020   6.178
 5658SOL    HW217874   2.344   3.107   6.313
 5659SOL     OW17875   2.546   4.175   0.276
 5659SOL    HW117876   2.498   4.137   0.355
 5659SOL    HW217877   2.624   4.117   0.253
 5660SOL     OW17878   3.985   0.006   4.780
 5660SOL    HW117879   3.893   7.014   4.746
 5660SOL    HW217880   4.049   0.011   4.703
 5661SOL     OW17881   0.968   5.698   5.961
 5661SOL    HW117882   1.060   5.702   5.924
 5661SOL    HW217883   0.942   5.603   5.977
 5662SOL     OW17884   3.013   6.441   0.516
 5662SOL    HW117885   2.972   6.350   0.526
 5662SOL    HW217886   3.096   6.446   0.571
 5663SOL     OW17887   1.786   2.886   6.046
 5663SOL    HW117888   1.733   2.955   5.997
 5663SOL    HW217889   1.835   2.828   5.981
 5664SOL     OW17890   4.927   4.865   4.158
 5664SOL    HW117891   4.838   4.891   4.196
 5664SOL    HW217892   4.984   4.947   4.149
 5665SOL     OW17893   1.874   1.579   0.897
 5665SOL    HW117894   1.786   1.618   0.870
 5665SOL    HW217895   1.947   1.642   0.871
 5666SOL     OW17896   5.726   2.644   5.027
 5666SOL    HW117897   5.697   2.737   5.050
 5666SOL    HW217898   5.663   2.605   4.960
 5667SOL     OW17899   2.775   4.864   4.321
 5667SOL    HW117900   2.815   4.850   4.230
 5667SOL    HW217901   2.718   4.785   4.345
 5668SOL     OW17902   4.636   4.351   3.844
 5668SOL    HW117903   4.623   4.346   3.944
 5668SOL    HW217904   4.702   4.282   3.816
 5669SOL     OW17905   5.446   4.297   5.883
 5669SOL    HW117906   5.505   4.315   5.962
 5669SOL    HW217907   5.361   4.348   5.893
 5670SOL     OW17908   1.287   2.716   3.967
 5670SOL    HW117909   1.300   2.801   4.017
 5670SOL    HW217910   1.203   2.671   3.998
 5671SOL     OW17911   6.824   5.350   3.037
 5671SOL    HW117912   6.747   5.415   3.035
 5671SOL    HW217913   6.831   5.305   2.948
 5672SOL     OW17914   5.243   3.490   4.737
 5672SOL    HW117915   5.147   3.502   4.712
 5672SOL    HW217916   5.299   3.487   4.655
 5673SOL     OW17917   0.317   2.467   0.246
 5673SOL    HW117918   0.306   2.559   0.284
 5673SOL    HW217919   0.245   2.407   0.281
 5674SOL     OW17920   2.596   5.022   5.308
 5674SOL    HW117921   2.590   4.977   5.219
 5674SOL    HW217922   2.629   4.957   5.376
 5675SOL     OW17923   3.098   2.188   0.796
 5675SOL    HW117924   3.136   2.100   0.822
 5675SOL    HW217925   3.138   2.217   0.709
 5676SOL     OW17926   3.633   1.391   1.869
 5676SOL    HW117927   3.713   1.422   1.817
 5676SOL    HW217928   3.563   1.359   1.807
 5677SOL     OW17929   0.573   1.437   6.060
 5677SOL    HW117930   0.499   1.489   6.017
 5677SOL    HW217931   0.593   1.355   6.006
 5678SOL     OW17932   3.874   2.137   2.193
 5678SOL    HW117933   3.807   2.108   2.262
 5678SOL    HW217934   3.827   2.185   2.119
 5679SOL     OW17935   7.010   3.916   5.337
 5679SOL    HW117936   0.080   3.894   5.320
 5679SOL    HW217937   6.963   3.835   5.371
 5680SOL     OW17938   0.396   5.717   5.010
 5680SOL    HW117939   0.358   5.745   4.921
 5680SOL    HW217940   0.475   5.658   4.995
 5681SOL     OW17941   1.459   3.450   3.454
 5681SOL    HW117942   1.443   3.359   3.416
 5681SOL    HW217943   1.404   3.517   3.404
 5682SOL     OW17944   1.997   4.589   1.060
 5682SOL    HW117945   1.954   4.544   1.139
 5682SOL    HW217946   2.078   4.638   1.090
 5683SOL     OW17947   0.024   0.218   6.183
 5683SOL    HW117948   6.996   0.163   6.120
 5683SOL    HW217949   7.015   0.312   6.185
 5684SOL     OW17950   2.181   3.004   4.828
 5684SOL    HW117951   2.260   2.998   4.890
 5684SOL    HW217952   2.188   2.933   4.758
 5685SOL     OW17953   2.290   1.505   2.151
 5685SOL    HW117954   2.307   1.577   2.218
 5685SOL    HW217955   2.367   1.442   2.148
 5686SOL     OW17956   5.339   5.881   5.521
 5686SOL    HW117957   5.240   5.879   5.510
 5686SOL    HW217958   5.361   5.890   5.618
 5687SOL     OW17959   2.030   6.894   6.106
 5687SOL    HW117960   2.117   6.935   6.077
 5687SOL    HW217961   2.011   6.814   6.050
 5688SOL     OW17962   1.651   1.535   3.413
 5688SOL    HW117963   1.596   1.575   3.486
 5688SOL    HW217964   1.612   1.561   3.324
 5689SOL     OW17965   0.173   2.502   1.368
 5689SOL    HW117966   0.145   2.433   1.301
 5689SOL    HW217967   0.152   2.593   1.331
 5690SOL     OW17968   3.315   5.349   0.166
 5690SOL    HW117969   3.243   5.299   0.215
 5690SOL    HW217970   3.402   5.335   0.213
 5691SOL     OW17971   4.657   2.728   3.867
 5691SOL    HW117972   4.678   2.639   3.908
 5691SOL    HW217973   4.673   2.800   3.934
 5692SOL     OW17974   6.142   4.906   1.559
 5692SOL    HW117975   6.198   4.851   1.497
 5692SOL    HW217976   6.090   4.974   1.507
 5693SOL     OW17977   3.825   0.326   1.989
 5693SOL    HW117978   3.867   0.407   1.948
 5693SOL    HW217979   3.872   0.304   2.074
 5694SOL     OW17980   0.472   0.159   1.345
 5694SOL    HW117981   0.490   0.087   1.277
 5694SOL    HW217982   0.473   0.118   1.437
 5695SOL     OW17983   2.025   1.294   2.462
 5695SOL    HW117984   2.074   1.261   2.382
 5695SOL    HW217985   1.986   1.385   2.443
 5696SOL     OW17986   0.494   6.779   4.073
 5696SOL    HW117987   0.502   6.848   4.001
 5696SOL    HW217988   0.568   6.712   4.063
 5697SOL     OW17989   6.285   1.835   0.056
 5697SOL    HW117990   6.290   1.930   0.087
 5697SOL    HW217991   6.252   1.777   0.131
 5698SOL     OW17992   3.563   2.041   4.120
 5698SOL    HW117993   3.645   2.080   4.162
 5698SOL    HW217994   3.565   2.060   4.021
 5699SOL     OW17995   1.993   3.202   2.577
 5699SOL    HW117996   2.042   3.222   2.492
 5699SOL    HW217997   1.914   3.263   2.584
 5700SOL     OW17998   6.145   0.225   2.950
 5700SOL    HW117999   6.244   0.221   2.952
 5700SOL    HW218000   6.115   0.321   2.946
 5701SOL     OW18001   1.145   0.689   0.741
 5701SOL    HW118002   1.059   0.729   0.710
 5701SOL    HW218003   1.213   0.696   0.668
 5702SOL     OW18004   1.673   6.430   5.028
 5702SOL    HW118005   1.661   6.424   4.929
 5702SOL    HW218006   1.762   6.393   5.053
 5703SOL     OW18007   0.506   2.711   6.037
 5703SOL    HW118008   0.476   2.712   5.941
 5703SOL    HW218009   0.590   2.764   6.046
 5704SOL     OW18010   4.085   5.604   4.304
 5704SOL    HW118011   4.064   5.592   4.401
 5704SOL    HW218012   4.118   5.518   4.266
 5705SOL     OW18013   5.578   0.203   5.426
 5705SOL    HW118014   5.546   0.161   5.511
 5705SOL    HW218015   5.615   0.293   5.446
 5706SOL     OW18016   5.253   2.056   1.228
 5706SOL    HW118017   5.224   2.042   1.323
 5706SOL    HW218018   5.290   2.149   1.218
 5707SOL     OW18019   6.103   5.500   1.149
 5707SOL    HW118020   6.123   5.598   1.159
 5707SOL    HW218021   6.017   5.489   1.099
 5708SOL     OW18022   5.385   6.175   1.984
 5708SOL    HW118023   5.449   6.201   1.912
 5708SOL    HW218024   5.436   6.153   2.067
 5709SOL     OW18025   0.122   2.700   2.279
 5709SOL    HW118026   0.080   2.756   2.207
 5709SOL    HW218027   0.068   2.617   2.293
 5710SOL     OW18028   5.009   1.629   0.865
 5710SOL    HW118029   4.949   1.572   0.921
 5710SOL    HW218030   5.048   1.702   0.921
 5711SOL     OW18031   4.737   2.037   2.369
 5711SOL    HW118032   4.749   2.120   2.423
 5711SOL    HW218033   4.825   1.991   2.358
 5712SOL     OW18034   6.261   5.934   0.006
 5712SOL    HW118035   6.290   5.968   0.095
 5712SOL    HW218036   6.253   5.835   0.008
 5713SOL     OW18037   1.409   1.440   0.819
 5713SOL    HW118038   1.372   1.455   0.911
 5713SOL    HW218039   1.398   1.344   0.794
 5714SOL     OW18040   6.319   0.295   0.877
 5714SOL    HW118041   6.277   0.363   0.817
 5714SOL    HW218042   6.308   0.204   0.838
 5715SOL     OW18043   6.986   6.456   0.986
 5715SOL    HW118044   6.950   6.509   1.063
 5715SOL    HW218045   7.013   6.518   0.912
 5716SOL     OW18046   0.737   4.748   5.238
 5716SOL    HW118047   0.749   4.813   5.313
 5716SOL    HW218048   0.675   4.787   5.170
 5717SOL     OW18049   0.610   5.454   3.630
 5717SOL    HW118050   0.701   5.424   3.659
 5717SOL    HW218051   0.558   5.374   3.598
 5718SOL     OW18052   0.805   4.137   6.905
 5718SOL    HW118053   0.903   4.153   6.911
 5718SOL    HW218054   0.788   4.043   6.876
 5719SOL     OW18055   2.754   3.413   0.446
 5719SOL    HW118056   2.804   3.476   0.506
 5719SOL    HW218057   2.814   3.383   0.372
 5720SOL     OW18058   3.213   5.157   6.451
 5720SOL    HW118059   3.207   5.253   6.479
 5720SOL    HW218060   3.127   5.129   6.409
 5721SOL     OW18061   1.079   2.956   0.433
 5721SOL    HW118062   1.069   2.991   0.340
 5721SOL    HW218063   1.024   2.874   0.444
 5722SOL     OW18064   1.683   0.475   6.016
 5722SOL    HW118065   1.624   0.461   5.935
 5722SOL    HW218066   1.717   0.569   6.016
 5723SOL     OW18067   4.243   3.143   0.365
 5723SOL    HW118068   4.246   3.226   0.309
 5723SOL    HW218069   4.161   3.143   0.421
 5724SOL     OW18070   5.807   2.164   5.716
 5724SOL    HW118071   5.720   2.213   5.707
 5724SOL    HW218072   5.789   2.070   5.747
 5725SOL     OW18073   0.243   4.222   5.055
 5725SOL    HW118074   0.304   4.196   4.980
 5725SOL    HW218075   0.151   4.187   5.038
 5726SOL     OW18076   4.844   4.380   1.936
 5726SOL    HW118077   4.762   4.355   1.884
 5726SOL    HW218078   4.849   4.480   1.945
 5727SOL     OW18079   0.914   3.098   5.272
 5727SOL    HW118080   0.908   3.198   5.262
 5727SOL    HW218081   0.823   3.061   5.288
 5728SOL     OW18082   3.009   6.958   5.375
 5728SOL    HW118083   2.984   6.862   5.357
 5728SOL    HW218084   3.068   6.962   5.456
 5729SOL     OW18085   2.508   2.018   4.856
 5729SOL    HW118086   2.542   2.091   4.914
 5729SOL    HW218087   2.559   1.934   4.875
 5730SOL     OW18088   6.493   4.326   4.986
 5730SOL    HW118089   6.478   4.422   5.008
 5730SOL    HW218090   6.518   4.276   5.069
 5731SOL     OW18091   0.885   6.257   2.667
 5731SOL    HW118092   0.934   6.299   2.591
 5731SOL    HW218093   0.802   6.309   2.687
 5732SOL     OW18094   5.846   0.275   3.473
 5732SOL    HW118095   5.856   0.239   3.566
 5732SOL    HW218096   5.831   0.199   3.410
 5733SOL     OW18097   2.577   1.200   4.978
 5733SOL    HW118098   2.604   1.110   4.944
 5733SOL    HW218099   2.533   1.251   4.904
 5734SOL     OW18100   1.824   6.613   3.758
 5734SOL    HW118101   1.889   6.633   3.831
 5734SOL    HW218102   1.846   6.525   3.716
 5735SOL     OW18103   3.079   0.688   1.444
 5735SOL    HW118104   3.088   0.632   1.526
 5735SOL    HW218105   3.031   0.773   1.466
 5736SOL     OW18106   1.744   5.123   0.694
 5736SOL    HW118107   1.826   5.170   0.728
 5736SOL    HW218108   1.664   5.158   0.741
 5737SOL     OW18109   5.931   3.924   6.963
 5737SOL    HW118110   5.915   4.000   7.026
 5737SOL    HW218111   5.937   3.839   7.015
 5738SOL     OW18112   0.606   4.992   4.760
 5738SOL    HW118113   0.661   4.910   4.743
 5738SOL    HW218114   0.660   5.073   4.736
 5739SOL     OW18115   0.798   3.027   0.758
 5739SOL    HW118116   0.798   3.063   0.852
 5739SOL    HW218117   0.845   2.939   0.756
 5740SOL     OW18118   4.347   4.928   6.816
 5740SOL    HW118119   4.337   4.933   6.915
 5740SOL    HW218120   4.333   5.019   6.777
 5741SOL     OW18121   0.064   3.166   1.909
 5741SOL    HW118122   0.053   3.070   1.886
 5741SOL    HW218123   0.107   3.175   1.999
 5742SOL     OW18124   0.381   5.553   3.840
 5742SOL    HW118125   0.360   5.648   3.865
 5742SOL    HW218126   0.449   5.552   3.767
 5743SOL     OW18127   1.326   6.566   5.673
 5743SOL    HW118128   1.300   6.560   5.769
 5743SOL    HW218129   1.244   6.580   5.617
 5744SOL     OW18130   6.353   0.444   1.874
 5744SOL    HW118131   6.414   0.519   1.898
 5744SOL    HW218132   6.260   0.478   1.864
 5745SOL     OW18133   0.220   3.651   3.203
 5745SOL    HW118134   0.302   3.604   3.235
 5745SOL    HW218135   0.157   3.584   3.163
 5746SOL     OW18136   6.381   4.620   6.516
 5746SOL    HW118137   6.389   4.523   6.535
 5746SOL    HW218138   6.315   4.635   6.443
 5747SOL     OW18139   0.712   5.929   3.639
 5747SOL    HW118140   0.714   5.845   3.692
 5747SOL    HW218141   0.804   5.950   3.606
 5748SOL     OW18142   1.651   0.264   3.633
 5748SOL    HW118143   1.742   0.293   3.662
 5748SOL    HW218144   1.586   0.338   3.647
 5749SOL     OW18145   0.920   1.012   2.874
 5749SOL    HW118146   0.893   0.922   2.841
 5749SOL    HW218147   0.991   1.003   2.944
 5750SOL     OW18148   5.844   6.576   2.379
 5750SOL    HW118149   5.912   6.529   2.435
 5750SOL    HW218150   5.891   6.631   2.309
 5751SOL     OW18151   0.559   2.448   5.941
 5751SOL    HW118152   0.560   2.531   5.997
 5751SOL    HW218153   0.653   2.419   5.921
 5752SOL     OW18154   1.462   1.569   6.577
 5752SOL    HW118155   1.511   1.556   6.491
 5752SOL    HW218156   1.485   1.495   6.640
 5753SOL     OW18157   4.782   1.801   0.494
 5753SOL    HW118158   4.745   1.764   0.409
 5753SOL    HW218159   4.872   1.761   0.511
 5754SOL     OW18160   6.280   5.812   0.742
 5754SOL    HW118161   6.238   5.885   0.688
 5754SOL    HW218162   6.377   5.804   0.718
 5755SOL     OW18163   3.306   3.773   1.535
 5755SOL    HW118164   3.350   3.715   1.466
 5755SOL    HW218165   3.282   3.718   1.614
 5756SOL     OW18166   6.764   6.589   4.117
 5756SOL    HW118167   6.791   6.685   4.122
 5756SOL    HW218168   6.667   6.584   4.092
 5757SOL     OW18169   6.530   6.472   2.307
 5757SOL    HW118170   6.431   6.464   2.300
 5757SOL    HW218171   6.554   6.564   2.339
 5758SOL     OW18172   2.634   1.485   5.827
 5758SOL    HW118173   2.577   1.403   5.821
 5758SOL    HW218174   2.584   1.563   5.786
 5759SOL     OW18175   0.963   1.182   6.267
 5759SOL    HW118176   0.886   1.198   6.329
 5759SOL    HW218177   0.934   1.120   6.194
 5760SOL     OW18178   6.626   5.820   1.063
 5760SOL    HW118179   6.678   5.737   1.044
 5760SOL    HW218180   6.688   5.899   1.065
 5761SOL     OW18181   4.350   0.554   4.247
 5761SOL    HW118182   4.299   0.474   4.217
 5761SOL    HW218183   4.361   0.618   4.171
 5762SOL     OW18184   5.370   6.264   1.545
 5762SOL    HW118185   5.285   6.316   1.541
 5762SOL    HW218186   5.428   6.288   1.467
 5763SOL     OW18187   3.143   0.696   0.793
 5763SOL    HW118188   3.155   0.700   0.693
 5763SOL    HW218189   3.052   0.731   0.816
 5764SOL     OW18190   3.857   3.168   6.138
 5764SOL    HW118191   3.920   3.194   6.211
 5764SOL    HW218192   3.883   3.215   6.054
 5765SOL     OW18193   6.439   5.559   6.693
 5765SOL    HW118194   6.407   5.573   6.600
 5765SOL    HW218195   6.435   5.646   6.743
 5766SOL     OW18196   2.861   1.321   3.437
 5766SOL    HW118197   2.776   1.270   3.453
 5766SOL    HW218198   2.939   1.260   3.448
 5767SOL     OW18199   5.200   6.620   0.229
 5767SOL    HW118200   5.113   6.611   0.279
 5767SOL    HW218201   5.182   6.655   0.137
 5768SOL     OW18202   6.710   0.080   2.388
 5768SOL    HW118203   6.803   0.115   2.395
 5768SOL    HW218204   6.696   0.009   2.457
 5769SOL     OW18205   1.163   4.270   3.207
 5769SOL    HW118206   1.141   4.191   3.263
 5769SOL    HW218207   1.177   4.350   3.266
 5770SOL     OW18208   5.256   1.948   1.988
 5770SOL    HW118209   5.275   2.042   1.961
 5770SOL    HW218210   5.185   1.947   2.058
 5771SOL     OW18211   1.091   0.713   1.584
 5771SOL    HW118212   1.169   0.663   1.545
 5771SOL    HW218213   1.113   0.740   1.677
 5772SOL     OW18214   6.555   5.270   5.613
 5772SOL    HW118215   6.577   5.339   5.681
 5772SOL    HW218216   6.457   5.270   5.596
 5773SOL     OW18217   5.464   5.317   4.649
 5773SOL    HW118218   5.452   5.221   4.623
 5773SOL    HW218219   5.561   5.341   4.644
 5774SOL     OW18220   2.079   5.259   2.177
 5774SOL    HW118221   2.123   5.172   2.156
 5774SOL    HW218222   2.144   5.318   2.226
 5775SOL     OW18223   0.880   0.728   0.649
 5775SOL    HW118224   0.794   0.766   0.685
 5775SOL    HW218225   0.871   0.629   0.639
 5776SOL     OW18226   5.002   1.089   5.899
 5776SOL    HW118227   4.939   1.070   5.974
 5776SOL    HW218228   5.096   1.076   5.931
 5777SOL     OW18229   5.683   6.237   4.603
 5777SOL    HW118230   5.604   6.269   4.552
 5777SOL    HW218231   5.676   6.269   4.698
 5778SOL     OW18232   2.871   0.010   3.862
 5778SOL    HW118233   2.789   0.013   3.919
 5778SOL    HW218234   2.859   6.969   3.790
 5779SOL     OW18235   4.166   0.411   1.771
 5779SOL    HW118236   4.103   0.369   1.706
 5779SOL    HW218237   4.257   0.416   1.731
 5780SOL     OW18238   6.210   4.215   0.597
 5780SOL    HW118239   6.188   4.141   0.534
 5780SOL    HW218240   6.268   4.180   0.671
 5781SOL     OW18241   3.853   4.172   5.234
 5781SOL    HW118242   3.755   4.153   5.236
 5781SOL    HW218243   3.902   4.091   5.204
 5782SOL     OW18244   4.635   1.791   2.978
 5782SOL    HW118245   4.556   1.852   2.969
 5782SOL    HW218246   4.707   1.821   2.915
 5783SOL     OW18247   3.343   5.673   3.006
 5783SOL    HW118248   3.282   5.701   2.931
 5783SOL    HW218249   3.438   5.685   2.978
 5784SOL     OW18250   1.195   6.174   0.446
 5784SOL    HW118251   1.219   6.079   0.429
 5784SOL    HW218252   1.278   6.229   0.455
 5785SOL     OW18253   2.504   2.342   6.406
 5785SOL    HW118254   2.514   2.382   6.315
 5785SOL    HW218255   2.432   2.391   6.456
 5786SOL     OW18256   1.236   1.814   6.390
 5786SOL    HW118257   1.282   1.730   6.362
 5786SOL    HW218258   1.266   1.840   6.482
 5787SOL     OW18259   0.913   2.528   5.097
 5787SOL    HW118260   0.843   2.465   5.132
 5787SOL    HW218261   0.883   2.622   5.109
 5788SOL     OW18262   0.543   2.069   1.998
 5788SOL    HW118263   0.631   2.036   1.965
 5788SOL    HW218264   0.502   2.000   2.058
 5789SOL     OW18265   2.459   6.835   0.027
 5789SOL    HW118266   2.510   6.894   0.089
 5789SOL    HW218267   2.413   6.763   0.079
 5790SOL     OW18268   6.920   6.417   2.529
 5790SOL    HW118269   6.974   6.333   2.538
 5790SOL    HW218270   6.865   6.430   2.611
 5791SOL     OW18271   4.419   0.723   1.399
 5791SOL    HW118272   4.464   0.782   1.467
 5791SOL    HW218273   4.402   0.775   1.316
 5792SOL     OW18274   4.629   2.678   2.890
 5792SOL    HW118275   4.569   2.680   2.970
 5792SOL    HW218276   4.695   2.752   2.896
 5793SOL     OW18277   4.311   1.940   0.267
 5793SOL    HW118278   4.226   1.991   0.266
 5793SOL    HW218279   4.326   1.902   0.359
 5794SOL     OW18280   2.833   6.322   0.047
 5794SOL    HW118281   2.790   6.409   0.074
 5794SOL    HW218282   2.762   6.255   0.027
 5795SOL     OW18283   1.179   0.818   1.248
 5795SOL    HW118284   1.180   0.916   1.226
 5795SOL    HW218285   1.130   0.768   1.177
 5796SOL     OW18286   4.550   0.439   5.617
 5796SOL    HW118287   4.549   0.464   5.520
 5796SOL    HW218288   4.600   0.353   5.629
 5797SOL     OW18289   6.154   1.698   0.513
 5797SOL    HW118290   6.201   1.610   0.519
 5797SOL    HW218291   6.056   1.684   0.530
 5798SOL     OW18292   2.111   2.532   4.593
 5798SOL    HW118293   2.189   2.490   4.546
 5798SOL    HW218294   2.036   2.546   4.527
 5799SOL     OW18295   3.059   0.210   3.819
 5799SOL    HW118296   3.057   0.244   3.725
 5799SOL    HW218297   2.979   0.151   3.834
 5800SOL     OW18298   1.337   6.177   1.779
 5800SOL    HW118299   1.399   6.102   1.758
 5800SOL    HW218300   1.369   6.261   1.736
 5801SOL     OW18301   1.468   2.066   2.997
 5801SOL    HW118302   1.543   2.132   2.997
 5801SOL    HW218303   1.392   2.102   2.943
 5802SOL     OW18304   6.814   0.101   2.957
 5802SOL    HW118305   6.835   0.126   2.862
 5802SOL    HW218306   6.891   0.050   2.995
 5803SOL     OW18307   0.902   6.875   4.500
 5803SOL    HW118308   0.843   6.835   4.570
 5803SOL    HW218309   0.857   6.868   4.411
 5804SOL     OW18310   6.408   1.946   3.601
 5804SOL    HW118311   6.326   1.948   3.659
 5804SOL    HW218312   6.424   1.852   3.570
 5805SOL     OW18313   1.129   2.738   1.785
 5805SOL    HW118314   1.148   2.660   1.725
 5805SOL    HW218315   1.116   2.820   1.729
 5806SOL     OW18316   6.726   4.495   1.784
 5806SOL    HW118317   6.632   4.526   1.798
 5806SOL    HW218318   6.762   4.460   1.870
 5807SOL     OW18319   1.101   0.912   2.209
 5807SOL    HW118320   1.173   0.981   2.218
 5807SOL    HW218321   1.035   0.924   2.283
 5808SOL     OW18322   6.459   6.582   5.985
 5808SOL    HW118323   6.503   6.657   6.036
 5808SOL    HW218324   6.409   6.524   6.049
 5809SOL     OW18325   6.987   3.839   4.499
 5809SOL    HW118326   6.915   3.771   4.486
 5809SOL    HW218327   6.955   3.928   4.467
 5810SOL     OW18328   1.064   6.591   5.537
 5810SOL    HW118329   0.999   6.576   5.611
 5810SOL    HW218330   1.060   6.687   5.508
 5811SOL     OW18331   3.142   4.993   6.989
 5811SOL    HW118332   3.204   5.071   6.979
 5811SOL    HW218333   3.172   4.919   6.929
 5812SOL     OW18334   6.528   2.867   6.226
 5812SOL    HW118335   6.526   2.947   6.166
 5812SOL    HW218336   6.448   2.868   6.286
 5813SOL     OW18337   6.328   5.253   1.233
 5813SOL    HW118338   6.339   5.251   1.134
 5813SOL    HW218339   6.232   5.244   1.257
 5814SOL     OW18340   5.073   1.756   2.702
 5814SOL    HW118341   5.075   1.660   2.675
 5814SOL    HW218342   5.046   1.764   2.798
 5815SOL     OW18343   6.334   3.468   4.680
 5815SOL    HW118344   6.431   3.443   4.674
 5815SOL    HW218345   6.281   3.408   4.621
 5816SOL     OW18346   6.890   4.399   0.902
 5816SOL    HW118347   6.943   4.332   0.954
 5816SOL    HW218348   6.847   4.353   0.824
 5817SOL     OW18349   6.165   2.572   4.060
 5817SOL    HW118350   6.166   2.605   3.965
 5817SOL    HW218351   6.239   2.506   4.073
 5818SOL     OW18352   2.430   0.079   4.171
 5818SOL    HW118353   2.517   0.128   4.172
 5818SOL    HW218354   2.384   0.092   4.258
 5819SOL     OW18355   4.319   4.327   1.244
 5819SOL    HW118356   4.311   4.383   1.326
 5819SOL    HW218357   4.288   4.379   1.165
 5820SOL     OW18358   1.019   6.317   2.438
 5820SOL    HW118359   0.997   6.408   2.403
 5820SOL    HW218360   0.986   6.248   2.374
 5821SOL     OW18361   6.038   6.473   2.554
 5821SOL    HW118362   6.127   6.435   2.580
 5821SOL    HW218363   6.027   6.563   2.595
 5822SOL     OW18364   0.898   4.054   2.942
 5822SOL    HW118365   0.956   4.136   2.948
 5822SOL    HW218366   0.949   3.981   2.895
 5823SOL     OW18367   2.712   6.449   4.984
 5823SOL    HW118368   2.678   6.465   5.076
 5823SOL    HW218369   2.812   6.453   4.983
 5824SOL     OW18370   2.624   5.365   3.032
 5824SOL    HW118371   2.608   5.275   3.072
 5824SOL    HW218372   2.718   5.371   2.999
 5825SOL     OW18373   3.755   2.116   4.750
 5825SOL    HW118374   3.690   2.115   4.826
 5825SOL    HW218375   3.837   2.064   4.777
 5826SOL     OW18376   1.358   6.190   4.982
 5826SOL    HW118377   1.421   6.215   4.908
 5826SOL    HW218378   1.265   6.181   4.946
 5827SOL     OW18379   2.295   4.169   3.501
 5827SOL    HW118380   2.287   4.131   3.593
 5827SOL    HW218381   2.382   4.142   3.461
 5828SOL     OW18382   4.561   0.002   4.698
 5828SOL    HW118383   4.565   0.102   4.709
 5828SOL    HW218384   4.479   6.994   4.742
 5829SOL     OW18385   2.428   1.301   3.177
 5829SOL    HW118386   2.437   1.396   3.148
 5829SOL    HW218387   2.396   1.298   3.271
 5830SOL     OW18388   4.663   4.894   4.572
 5830SOL    HW118389   4.701   4.849   4.653
 5830SOL    HW218390   4.568   4.867   4.560
 5831SOL     OW18391   2.358   1.800   4.731
 5831SOL    HW118392   2.259   1.797   4.738
 5831SOL    HW218393   2.393   1.880   4.781
 5832SOL     OW18394   2.256   5.016   3.587
 5832SOL    HW118395   2.354   5.023   3.566
 5832SOL    HW218396   2.230   5.090   3.649
 5833SOL     OW18397   2.681   4.766   1.315
 5833SOL    HW118398   2.709   4.671   1.300
 5833SOL    HW218399   2.589   4.769   1.353
 5834SOL     OW18400   5.777   1.882   5.846
 5834SOL    HW118401   5.689   1.867   5.801
 5834SOL    HW218402   5.775   1.841   5.937
 5835SOL     OW18403   3.929   1.105   3.816
 5835SOL    HW118404   4.018   1.137   3.850
 5835SOL    HW218405   3.943   1.050   3.734
 5836SOL     OW18406   4.978   5.062   1.011
 5836SOL    HW118407   5.077   5.072   0.998
 5836SOL    HW218408   4.941   5.002   0.939
 5837SOL     OW18409   2.341   4.822   0.296
 5837SOL    HW118410   2.387   4.904   0.262
 5837SOL    HW218411   2.376   4.742   0.248
 5838SOL     OW18412   3.137   3.700   7.015
 5838SOL    HW118413   3.078   3.780   7.024
 5838SOL    HW218414   3.085   3.625   6.973
 5839SOL     OW18415   2.621   1.347   1.319
 5839SOL    HW118416   2.633   1.360   1.418
 5839SOL    HW218417   2.615   1.436   1.275
 5840SOL     OW18418   6.484   3.741   2.686
 5840SOL    HW118419   6.580   3.768   2.697
 5840SOL    HW218420   6.478   3.669   2.617
 5841SOL     OW18421   5.443   2.730   0.850
 5841SOL    HW118422   5.387   2.808   0.878
 5841SOL    HW218423   5.424   2.709   0.754
 5842SOL     OW18424   3.959   2.116   2.457
 5842SOL    HW118425   3.952   2.140   2.360
 5842SOL    HW218426   4.023   2.179   2.502
 5843SOL     OW18427   3.070   2.444   0.925
 5843SOL    HW118428   3.041   2.367   0.869
 5843SOL    HW218429   3.082   2.525   0.867
 5844SOL     OW18430   0.042   5.331   5.361
 5844SOL    HW118431   0.119   5.385   5.396
 5844SOL    HW218432   0.072   5.281   5.280
 5845SOL     OW18433   1.897   6.204   2.771
 5845SOL    HW118434   1.949   6.268   2.828
 5845SOL    HW218435   1.894   6.115   2.816
 5846SOL     OW18436   0.783   4.456   4.955
 5846SOL    HW118437   0.731   4.478   5.037
 5846SOL    HW218438   0.827   4.367   4.967
 5847SOL     OW18439   2.245   4.268   6.289
 5847SOL    HW118440   2.247   4.179   6.242
 5847SOL    HW218441   2.153   4.306   6.283
 5848SOL     OW18442   3.295   6.579   1.984
 5848SOL    HW118443   3.300   6.482   2.009
 5848SOL    HW218444   3.203   6.613   2.002
 5849SOL     OW18445   3.325   5.512   6.854
 5849SOL    HW118446   3.353   5.519   6.759
 5849SOL    HW218447   3.331   5.417   6.885
 5850SOL     OW18448   5.228   1.985   1.538
 5850SOL    HW118449   5.177   1.912   1.583
 5850SOL    HW218450   5.180   2.072   1.550
 5851SOL     OW18451   0.960   3.358   5.242
 5851SOL    HW118452   1.052   3.397   5.238
 5851SOL    HW218453   0.927   3.342   5.149
 5852SOL     OW18454   4.506   4.847   2.699
 5852SOL    HW118455   4.565   4.786   2.751
 5852SOL    HW218456   4.438   4.888   2.759
 5853SOL     OW18457   3.934   4.986   0.203
 5853SOL    HW118458   3.888   4.897   0.214
 5853SOL    HW218459   3.980   5.010   0.289
 5854SOL     OW18460   2.670   4.519   5.258
 5854SOL    HW118461   2.614   4.497   5.178
 5854SOL    HW218462   2.760   4.550   5.228
 5855SOL     OW18463   1.537   1.870   4.779
 5855SOL    HW118464   1.598   1.930   4.727
 5855SOL    HW218465   1.589   1.825   4.851
 5856SOL     OW18466   0.407   0.806   2.449
 5856SOL    HW118467   0.393   0.707   2.453
 5856SOL    HW218468   0.435   0.840   2.539
 5857SOL     OW18469   6.106   5.507   6.668
 5857SOL    HW118470   6.164   5.545   6.741
 5857SOL    HW218471   6.048   5.580   6.631
 5858SOL     OW18472   3.084   1.567   2.110
 5858SOL    HW118473   3.169   1.514   2.106
 5858SOL    HW218474   3.102   1.655   2.153
 5859SOL     OW18475   5.824   4.993   1.425
 5859SOL    HW118476   5.811   4.923   1.495
 5859SOL    HW218477   5.889   5.062   1.458
 5860SOL     OW18478   1.728   3.787   1.885
 5860SOL    HW118479   1.772   3.783   1.975
 5860SOL    HW218480   1.631   3.766   1.894
 5861SOL     OW18481   5.674   6.976   4.623
 5861SOL    HW118482   5.631   0.008   4.691
 5861SOL    HW218483   5.774   6.982   4.633
 5862SOL     OW18484   6.898   4.954   1.969
 5862SOL    HW118485   6.968   5.025   1.975
 5862SOL    HW218486   6.926   4.885   1.902
 5863SOL     OW18487   4.122   0.108   5.945
 5863SOL    HW118488   4.118   0.009   5.964
 5863SOL    HW218489   4.140   0.157   6.030
 5864SOL     OW18490   3.813   2.931   3.460
 5864SOL    HW118491   3.836   2.991   3.383
 5864SOL    HW218492   3.893   2.876   3.484
 5865SOL     OW18493   6.657   6.729   1.671
 5865SOL    HW118494   6.687   6.706   1.578
 5865SOL    HW218495   6.658   6.647   1.728
 5866SOL     OW18496   3.401   3.487   3.931
 5866SOL    HW118497   3.304   3.465   3.933
 5866SOL    HW218498   3.418   3.559   3.863
 5867SOL     OW18499   4.838   1.336   0.886
 5867SOL    HW118500   4.821   1.424   0.931
 5867SOL    HW218501   4.900   1.281   0.942
 5868SOL     OW18502   1.133   1.227   1.018
 5868SOL    HW118503   1.202   1.219   0.946
 5868SOL    HW218504   1.163   1.176   1.099
 5869SOL     OW18505   2.026   5.376   3.642
 5869SOL    HW118506   2.021   5.472   3.614
 5869SOL    HW218507   1.963   5.322   3.587
 5870SOL     OW18508   4.344   6.527   3.913
 5870SOL    HW118509   4.423   6.554   3.857
 5870SOL    HW218510   4.368   6.448   3.968
 5871SOL     OW18511   4.126   3.403   3.567
 5871SOL    HW118512   4.065   3.347   3.623
 5871SOL    HW218513   4.096   3.401   3.472
 5872SOL     OW18514   3.170   5.799   1.317
 5872SOL    HW118515   3.184   5.701   1.309
 5872SOL    HW218516   3.200   5.844   1.232
 5873SOL     OW18517   4.360   0.111   1.962
 5873SOL    HW118518   4.362   0.075   2.055
 5873SOL    HW218519   4.448   0.155   1.942
 5874SOL     OW18520   6.884   4.147   4.455
 5874SOL    HW118521   6.877   4.245   4.470
 5874SOL    HW218522   6.842   4.098   4.531
 5875SOL     OW18523   4.158   2.359   0.910
 5875SOL    HW118524   4.158   2.459   0.898
 5875SOL    HW218525   4.151   2.338   1.007
 5876SOL     OW18526   3.138   3.110   2.707
 5876SOL    HW118527   3.155   3.126   2.610
 5876SOL    HW218528   3.159   3.193   2.759
 5877SOL     OW18529   4.913   4.070   1.437
 5877SOL    HW118530   4.999   4.115   1.462
 5877SOL    HW218531   4.902   3.987   1.492
 5878SOL     OW18532   0.668   3.516   1.834
 5878SOL    HW118533   0.711   3.570   1.762
 5878SOL    HW218534   0.577   3.553   1.854
 5879SOL     OW18535   2.025   4.652   4.672
 5879SOL    HW118536   2.060   4.745   4.663
 5879SOL    HW218537   1.962   4.649   4.749
 5880SOL     OW18538   2.800   5.164   6.753
 5880SOL    HW118539   2.789   5.215   6.838
 5880SOL    HW218540   2.791   5.227   6.676
 5881SOL     OW18541   1.795   6.301   4.028
 5881SOL    HW118542   1.736   6.375   4.062
 5881SOL    HW218543   1.879   6.340   3.991
 5882SOL     OW18544   4.570   0.633   2.795
 5882SOL    HW118545   4.637   0.707   2.802
 5882SOL    HW218546   4.555   0.593   2.886
 5883SOL     OW18547   1.350   3.199   5.224
 5883SOL    HW118548   1.436   3.246   5.201
 5883SOL    HW218549   1.369   3.122   5.284
 5884SOL     OW18550   0.093   0.733   3.218
 5884SOL    HW118551   0.031   0.661   3.250
 5884SOL    HW218552   0.135   0.778   3.297
 5885SOL     OW18553   5.403   6.511   0.400
 5885SOL    HW118554   5.374   6.524   0.494
 5885SOL    HW218555   5.331   6.544   0.338
 5886SOL     OW18556   5.787   1.455   6.503
 5886SOL    HW118557   5.874   1.417   6.471
 5886SOL    HW218558   5.778   1.438   6.601
 5887SOL     OW18559   3.595   6.599   2.817
 5887SOL    HW118560   3.616   6.598   2.719
 5887SOL    HW218561   3.585   6.693   2.848
 5888SOL     OW18562   6.651   6.455   2.051
 5888SOL    HW118563   6.728   6.448   2.115
 5888SOL    HW218564   6.570   6.488   2.100
 5889SOL     OW18565   2.603   7.001   0.189
 5889SOL    HW118566   2.610   0.059   0.135
 5889SOL    HW218567   2.581   7.024   0.284
 5890SOL     OW18568   3.930   5.665   5.931
 5890SOL    HW118569   3.927   5.567   5.949
 5890SOL    HW218570   3.837   5.702   5.930
 5891SOL     OW18571   1.738   3.517   6.227
 5891SOL    HW118572   1.824   3.546   6.186
 5891SOL    HW218573   1.675   3.595   6.230
 5892SOL     OW18574   2.408   5.614   2.244
 5892SOL    HW118575   2.432   5.623   2.148
 5892SOL    HW218576   2.362   5.526   2.259
 5893SOL     OW18577   1.409   2.547   2.651
 5893SOL    HW118578   1.392   2.521   2.746
 5893SOL    HW218579   1.322   2.555   2.602
 5894SOL     OW18580   1.300   3.809   3.899
 5894SOL    HW118581   1.397   3.810   3.923
 5894SOL    HW218582   1.290   3.825   3.800
 5895SOL     OW18583   5.607   4.465   2.597
 5895SOL    HW118584   5.586   4.398   2.525
 5895SOL    HW218585   5.565   4.436   2.683
 5896SOL     OW18586   4.935   2.140   5.588
 5896SOL    HW118587   4.941   2.224   5.641
 5896SOL    HW218588   4.919   2.162   5.492
 5897SOL     OW18589   4.156   4.538   1.019
 5897SOL    HW118590   4.083   4.583   0.967
 5897SOL    HW218591   4.231   4.514   0.957
 5898SOL     OW18592   1.931   6.247   3.071
 5898SOL    HW118593   1.843   6.294   3.066
 5898SOL    HW218594   1.923   6.169   3.133
 5899SOL     OW18595   5.173   0.311   3.228
 5899SOL    HW118596   5.203   0.260   3.308
 5899SOL    HW218597   5.092   0.366   3.253
 5900SOL     OW18598   3.797   4.958   1.860
 5900SOL    HW118599   3.725   4.908   1.909
 5900SOL    HW218600   3.871   4.979   1.924
 5901SOL     OW18601   3.080   5.987   4.276
 5901SOL    HW118602   3.081   5.931   4.194
 5901SOL    HW218603   3.059   6.082   4.252
 5902SOL     OW18604   6.083   2.635   0.462
 5902SOL    HW118605   6.001   2.646   0.518
 5902SOL    HW218606   6.127   2.724   0.449
 5903SOL     OW18607   0.503   1.973   6.290
 5903SOL    HW118608   0.424   1.976   6.229
 5903SOL    HW218609   0.544   2.065   6.295
 5904SOL     OW18610   1.604   3.430   2.219
 5904SOL    HW118611   1.633   3.468   2.132
 5904SOL    HW218612   1.637   3.336   2.227
 5905SOL     OW18613   6.827   3.673   2.233
 5905SOL    HW118614   6.812   3.656   2.136
 5905SOL    HW218615   6.740   3.670   2.282
 5906SOL     OW18616   0.004   1.080   3.282
 5906SOL    HW118617   6.995   0.998   3.327
 5906SOL    HW218618   6.976   1.100   3.201
 5907SOL     OW18619   2.262   1.139   3.051
 5907SOL    HW118620   2.274   1.045   3.086
 5907SOL    HW218621   2.319   1.201   3.105
 5908SOL     OW18622   0.639   2.845   5.564
 5908SOL    HW118623   0.553   2.819   5.520
 5908SOL    HW218624   0.679   2.766   5.611
 5909SOL     OW18625   6.422   4.868   6.839
 5909SOL    HW118626   6.514   4.858   6.801
 5909SOL    HW218627   6.361   4.905   6.769
 5910SOL     OW18628   1.196   1.204   3.434
 5910SOL    HW118629   1.272   1.267   3.443
 5910SOL    HW218630   1.131   1.218   3.509
 5911SOL     OW18631   6.728   6.097   0.128
 5911SOL    HW118632   6.759   6.092   0.033
 5911SOL    HW218633   6.711   6.005   0.162
 5912SOL     OW18634   0.660   0.692   3.125
 5912SOL    HW118635   0.704   0.616   3.078
 5912SOL    HW218636   0.623   0.757   3.058
 5913SOL     OW18637   6.732   3.012   1.204
 5913SOL    HW118638   6.782   2.936   1.165
 5913SOL    HW218639   6.701   3.073   1.131
 5914SOL     OW18640   1.112   0.148   0.868
 5914SOL    HW118641   1.102   0.242   0.838
 5914SOL    HW218642   1.201   0.136   0.913
 5915SOL     OW18643   3.795   0.405   5.129
 5915SOL    HW118644   3.757   0.374   5.041
 5915SOL    HW218645   3.720   0.417   5.195
 5916SOL     OW18646   1.431   0.218   2.579
 5916SOL    HW118647   1.439   0.290   2.648
 5916SOL    HW218648   1.337   0.214   2.545
 5917SOL     OW18649   3.100   3.136   0.773
 5917SOL    HW118650   3.129   3.060   0.830
 5917SOL    HW218651   3.002   3.153   0.787
 5918SOL     OW18652   3.581   6.832   4.186
 5918SOL    HW118653   3.568   6.813   4.284
 5918SOL    HW218654   3.561   6.749   4.133
 5919SOL     OW18655   3.030   4.001   4.851
 5919SOL    HW118656   2.983   4.071   4.904
 5919SOL    HW218657   3.128   4.021   4.848
 5920SOL     OW18658   1.130   0.848   5.644
 5920SOL    HW118659   1.130   0.937   5.598
 5920SOL    HW218660   1.222   0.810   5.643
 5921SOL     OW18661   2.765   5.397   0.373
 5921SOL    HW118662   2.795   5.472   0.314
 5921SOL    HW218663   2.840   5.333   0.386
 5922SOL     OW18664   5.259   2.338   2.148
 5922SOL    HW118665   5.190   2.302   2.211
 5922SOL    HW218666   5.302   2.418   2.188
 5923SOL     OW18667   5.954   0.706   3.069
 5923SOL    HW118668   5.925   0.611   3.061
 5923SOL    HW218669   5.976   0.742   2.979
 5924SOL     OW18670   6.828   6.696   3.494
 5924SOL    HW118671   6.901   6.758   3.521
 5924SOL    HW218672   6.764   6.684   3.570
 5925SOL     OW18673   4.935   1.358   0.641
 5925SOL    HW118674   4.909   1.348   0.737
 5925SOL    HW218675   5.003   1.289   0.617
 5926SOL     OW18676   5.278   3.525   3.060
 5926SOL    HW118677   5.372   3.524   3.025
 5926SOL    HW218678   5.219   3.472   2.999
 5927SOL     OW18679   0.564   6.410   1.176
 5927SOL    HW118680   0.557   6.474   1.252
 5927SOL    HW218681   0.479   6.412   1.122
 5928SOL     OW18682   3.003   0.301   0.208
 5928SOL    HW118683   3.010   0.209   0.246
 5928SOL    HW218684   2.907   0.329   0.206
 5929SOL     OW18685   1.110   0.317   1.489
 5929SOL    HW118686   1.117   0.417   1.497
 5929SOL    HW218687   1.044   0.295   1.418
 5930SOL     OW18688   0.926   4.114   1.686
 5930SOL    HW118689   1.023   4.113   1.662
 5930SOL    HW218690   0.902   4.201   1.728
 5931SOL     OW18691   4.734   5.846   3.888
 5931SOL    HW118692   4.689   5.896   3.961
 5931SOL    HW218693   4.666   5.812   3.823
 5932SOL     OW18694   3.960   6.097   0.324
 5932SOL    HW118695   3.969   6.169   0.256
 5932SOL    HW218696   3.928   6.136   0.411
 5933SOL     OW18697   6.839   5.737   4.160
 5933SOL    HW118698   6.937   5.727   4.145
 5933SOL    HW218699   6.823   5.804   4.232
 5934SOL     OW18700   3.355   4.239   0.192
 5934SOL    HW118701   3.379   4.292   0.274
 5934SOL    HW218702   3.326   4.301   0.119
 5935SOL     OW18703   1.518   0.393   5.798
 5935SOL    HW118704   1.567   0.402   5.712
 5935SOL    HW218705   1.467   0.307   5.799
 5936SOL     OW18706   3.842   2.919   2.146
 5936SOL    HW118707   3.882   2.831   2.170
 5936SOL    HW218708   3.856   2.937   2.049
 5937SOL     OW18709   0.549   3.015   0.266
 5937SOL    HW118710   0.506   2.939   0.315
 5937SOL    HW218711   0.481   3.086   0.248
 5938SOL     OW18712   0.914   3.260   4.580
 5938SOL    HW118713   0.996   3.317   4.582
 5938SOL    HW218714   0.924   3.185   4.646
 5939SOL     OW18715   4.714   0.946   5.671
 5939SOL    HW118716   4.646   0.896   5.619
 5939SOL    HW218717   4.679   0.964   5.763
 5940SOL     OW18718   5.067   5.293   1.339
 5940SOL    HW118719   5.079   5.194   1.331
 5940SOL    HW218720   4.970   5.316   1.325
 5941SOL     OW18721   0.710   1.677   3.309
 5941SOL    HW118722   0.722   1.746   3.381
 5941SOL    HW218723   0.703   1.722   3.220
 5942SOL     OW18724   5.070   2.628   6.315
 5942SOL    HW118725   5.074   2.698   6.387
 5942SOL    HW218726   5.097   2.540   6.353
 5943SOL     OW18727   2.101   4.974   1.574
 5943SOL    HW118728   2.037   4.917   1.524
 5943SOL    HW218729   2.179   4.997   1.515
 5944SOL     OW18730   6.515   3.921   5.906
 5944SOL    HW118731   6.472   3.913   5.995
 5944SOL    HW218732   6.614   3.911   5.915
 5945SOL     OW18733   6.948   6.534   4.364
 5945SOL    HW118734   6.903   6.446   4.356
 5945SOL    HW218735   6.983   6.561   4.274
 5946SOL     OW18736   2.597   3.074   0.355
 5946SOL    HW118737   2.534   3.111   0.288
 5946SOL    HW218738   2.562   3.091   0.447
 5947SOL     OW18739   3.475   3.130   4.532
 5947SOL    HW118740   3.450   3.079   4.615
 5947SOL    HW218741   3.498   3.224   4.556
 5948SOL     OW18742   4.631   4.163   1.507
 5948SOL    HW118743   4.725   4.140   1.481
 5948SOL    HW218744   4.587   4.083   1.548
 5949SOL     OW18745   0.983   4.211   4.128
 5949SOL    HW118746   1.045   4.201   4.050
 5949SOL    HW218747   0.982   4.127   4.181
 5950SOL     OW18748   2.667   6.591   4.753
 5950SOL    HW118749   2.687   6.686   4.778
 5950SOL    HW218750   2.694   6.531   4.828
 5951SOL     OW18751   6.789   2.881   6.311
 5951SOL    HW118752   6.845   2.946   6.260
 5951SOL    HW218753   6.694   2.885   6.278
 5952SOL     OW18754   3.842   4.240   1.666
 5952SOL    HW118755   3.870   4.181   1.742
 5952SOL    HW218756   3.762   4.293   1.692
 5953SOL     OW18757   6.937   2.560   6.861
 5953SOL    HW118758   7.021   2.614   6.853
 5953SOL    HW218759   6.858   2.622   6.867
 5954SOL     OW18760   1.791   5.014   3.784
 5954SOL    HW118761   1.856   5.042   3.855
 5954SOL    HW218762   1.751   5.096   3.742
 5955SOL     OW18763   3.856   2.845   0.427
 5955SOL    HW118764   3.836   2.786   0.349
 5955SOL    HW218765   3.879   2.936   0.394
 5956SOL     OW18766   4.340   2.716   6.313
 5956SOL    HW118767   4.358   2.812   6.335
 5956SOL    HW218768   4.348   2.702   6.214
 5957SOL     OW18769   6.660   2.071   3.684
 5957SOL    HW118770   6.586   2.047   3.621
 5957SOL    HW218771   6.627   2.067   3.778
 5958SOL     OW18772   2.348   6.047   2.815
 5958SOL    HW118773   2.278   5.976   2.812
 5958SOL    HW218774   2.407   6.032   2.895
 5959SOL     OW18775   5.285   3.921   3.237
 5959SOL    HW118776   5.359   3.958   3.180
 5959SOL    HW218777   5.237   3.996   3.283
 5960SOL     OW18778   5.712   0.253   6.373
 5960SOL    HW118779   5.712   0.353   6.373
 5960SOL    HW218780   5.785   0.220   6.433
 5961SOL     OW18781   3.178   1.738   4.082
 5961SOL    HW118782   3.231   1.785   4.152
 5961SOL    HW218783   3.192   1.783   3.994
 5962SOL     OW18784   4.957   4.115   0.290
 5962SOL    HW118785   4.967   4.157   0.199
 5962SOL    HW218786   4.860   4.105   0.311
 5963SOL     OW18787   1.697   4.231   0.185
 5963SOL    HW118788   1.689   4.171   0.265
 5963SOL    HW218789   1.764   4.192   0.121
 5964SOL     OW18790   1.907   6.952   2.955
 5964SOL    HW118791   1.922   6.853   2.946
 5964SOL    HW218792   1.994   7.000   2.946
 5965SOL     OW18793   2.461   0.525   1.346
 5965SOL    HW118794   2.490   0.454   1.282
 5965SOL    HW218795   2.523   0.603   1.341
 5966SOL     OW18796   3.155   1.702   4.867
 5966SOL    HW118797   3.114   1.611   4.868
 5966SOL    HW218798   3.102   1.763   4.926
 5967SOL     OW18799   4.488   2.243   5.308
 5967SOL    HW118800   4.446   2.271   5.221
 5967SOL    HW218801   4.511   2.146   5.304
 5968SOL     OW18802   6.364   1.964   3.000
 5968SOL    HW118803   6.419   1.936   2.921
 5968SOL    HW218804   6.301   1.890   3.025
 5969SOL     OW18805   5.267   0.045   1.421
 5969SOL    HW118806   5.317   7.002   1.473
 5969SOL    HW218807   5.178   0.008   1.394
 5970SOL     OW18808   6.320   2.760   0.165
 5970SOL    HW118809   6.323   2.859   0.175
 5970SOL    HW218810   6.376   2.717   0.237
 5971SOL     OW18811   6.495   5.175   3.613
 5971SOL    HW118812   6.449   5.092   3.644
 5971SOL    HW218813   6.453   5.207   3.528
 5972SOL     OW18814   5.606   5.066   0.905
 5972SOL    HW118815   5.560   5.002   0.967
 5972SOL    HW218816   5.554   5.073   0.820
 5973SOL     OW18817   3.457   0.916   2.272
 5973SOL    HW118818   3.433   0.995   2.329
 5973SOL    HW218819   3.482   0.839   2.331
 5974SOL     OW18820   5.751   1.059   4.461
 5974SOL    HW118821   5.762   1.091   4.555
 5974SOL    HW218822   5.746   1.138   4.400
 5975SOL     OW18823   4.063   4.948   1.070
 5975SOL    HW118824   3.984   5.008   1.090
 5975SOL    HW218825   4.030   4.856   1.052
 5976SOL     OW18826   1.418   3.366   5.736
 5976SOL    HW118827   1.428   3.269   5.715
 5976SOL    HW218828   1.507   3.412   5.729
 5977SOL     OW18829   0.334   5.668   1.384
 5977SOL    HW118830   0.266   5.604   1.348
 5977SOL    HW218831   0.425   5.626   1.379
 5978SOL     OW18832   2.754   3.852   5.854
 5978SOL    HW118833   2.791   3.762   5.833
 5978SOL    HW218834   2.824   3.922   5.836
 5979SOL     OW18835   5.974   0.150   1.031
 5979SOL    HW118836   5.890   0.204   1.029
 5979SOL    HW218837   6.019   0.155   0.942
 5980SOL     OW18838   3.330   2.520   0.994
 5980SOL    HW118839   3.252   2.457   0.998
 5980SOL    HW218840   3.396   2.494   1.064
 5981SOL     OW18841   3.082   2.835   1.227
 5981SOL    HW118842   2.998   2.794   1.264
 5981SOL    HW218843   3.160   2.803   1.280
 5982SOL     OW18844   5.478   2.564   1.087
 5982SOL    HW118845   5.457   2.625   1.011
 5982SOL    HW218846   5.441   2.473   1.068
 5983SOL     OW18847   6.814   1.153   3.670
 5983SOL    HW118848   6.809   1.236   3.726
 5983SOL    HW218849   6.906   1.116   3.673
 5984SOL     OW18850   6.292   6.185   2.793
 5984SOL    HW118851   6.302   6.092   2.827
 5984SOL    HW218852   6.349   6.247   2.846
 5985SOL     OW18853   6.677   4.175   2.720
 5985SOL    HW118854   6.596   4.127   2.753
 5985SOL    HW218855   6.758   4.136   2.762
 5986SOL     OW18856   4.108   3.299   3.271
 5986SOL    HW118857   4.086   3.347   3.186
 5986SOL    HW218858   4.195   3.251   3.260
 5987SOL     OW18859   0.063   6.224   4.328
 5987SOL    HW118860   0.163   6.225   4.330
 5987SOL    HW218861   0.031   6.263   4.241
 5988SOL     OW18862   1.376   2.214   0.177
 5988SOL    HW118863   1.409   2.123   0.202
 5988SOL    HW218864   1.323   2.252   0.253
 5989SOL     OW18865   2.006   6.382   5.384
 5989SOL    HW118866   1.978   6.478   5.396
 5989SOL    HW218867   1.939   6.323   5.429
 5990SOL     OW18868   2.394   3.981   1.793
 5990SOL    HW118869   2.353   4.028   1.871
 5990SOL    HW218870   2.472   4.033   1.759
 5991SOL     OW18871   5.618   1.125   0.878
 5991SOL    HW118872   5.589   1.030   0.889
 5991SOL    HW218873   5.546   1.186   0.909
 5992SOL     OW18874   2.482   4.700   3.414
 5992SOL    HW118875   2.409   4.768   3.419
 5992SOL    HW218876   2.484   4.646   3.498
 5993SOL     OW18877   5.487   2.696   0.437
 5993SOL    HW118878   5.555   2.748   0.385
 5993SOL    HW218879   5.516   2.601   0.445
 5994SOL     OW18880   6.934   4.478   0.514
 5994SOL    HW118881   6.876   4.417   0.567
 5994SOL    HW218882   6.879   4.554   0.479
 5995SOL     OW18883   5.355   3.326   1.162
 5995SOL    HW118884   5.444   3.285   1.143
 5995SOL    HW218885   5.344   3.409   1.108
 5996SOL     OW18886   2.662   0.649   1.800
 5996SOL    HW118887   2.752   0.609   1.782
 5996SOL    HW218888   2.645   0.649   1.899
 5997SOL     OW18889   6.356   0.132   4.524
 5997SOL    HW118890   6.294   0.117   4.447
 5997SOL    HW218891   6.435   0.185   4.493
 5998SOL     OW18892   6.029   6.083   5.958
 5998SOL    HW118893   6.068   5.995   5.933
 5998SOL    HW218894   6.094   6.133   6.015
 5999SOL     OW18895   5.335   3.572   1.062
 5999SOL    HW118896   5.396   3.639   1.019
 5999SOL    HW218897   5.315   3.600   1.156
 6000SOL     OW18898   1.165   4.734   1.599
 6000SOL    HW118899   1.197   4.765   1.688
 6000SOL    HW218900   1.112   4.806   1.555
 6001SOL     OW18901   6.940   5.951   5.728
 6001SOL    HW118902   6.910   5.978   5.637
 6001SOL    HW218903   6.895   6.009   5.796
 6002SOL     OW18904   5.571   4.496   4.846
 6002SOL    HW118905   5.649   4.491   4.907
 6002SOL    HW218906   5.505   4.562   4.882
 6003SOL     OW18907   2.694   1.644   5.519
 6003SOL    HW118908   2.759   1.601   5.582
 6003SOL    HW218909   2.738   1.723   5.476
 6004SOL     OW18910   5.485   3.164   5.317
 6004SOL    HW118911   5.570   3.209   5.343
 6004SOL    HW218912   5.411   3.195   5.377
 6005SOL     OW18913   4.006   4.190   0.434
 6005SOL    HW118914   3.954   4.204   0.518
 6005SOL    HW218915   4.091   4.142   0.455
 6006SOL     OW18916   3.214   6.228   6.784
 6006SOL    HW118917   3.134   6.276   6.823
 6006SOL    HW218918   3.220   6.250   6.687
 6007SOL     OW18919   2.981   6.427   4.896
 6007SOL    HW118920   2.982   6.386   4.804
 6007SOL    HW218921   2.994   6.356   4.964
 6008SOL     OW18922   2.359   3.745   6.937
 6008SOL    HW118923   2.348   3.677   6.864
 6008SOL    HW218924   2.441   3.799   6.919
 6009SOL     OW18925   2.820   5.723   3.255
 6009SOL    HW118926   2.902   5.670   3.234
 6009SOL    HW218927   2.745   5.661   3.280
 6010SOL     OW18928   6.888   4.977   5.383
 6010SOL    HW118929   6.907   4.882   5.406
 6010SOL    HW218930   6.792   4.987   5.359
 6011SOL     OW18931   5.541   1.624   2.809
 6011SOL    HW118932   5.484   1.581   2.738
 6011SOL    HW218933   5.614   1.677   2.765
 6012SOL     OW18934   6.464   1.141   6.167
 6012SOL    HW118935   6.554   1.184   6.165
 6012SOL    HW218936   6.474   1.042   6.180
 6013SOL     OW18937   5.467   1.323   2.507
 6013SOL    HW118938   5.410   1.340   2.587
 6013SOL    HW218939   5.539   1.257   2.530
 6014SOL     OW18940   3.663   3.373   3.880
 6014SOL    HW118941   3.702   3.313   3.950
 6014SOL    HW218942   3.567   3.392   3.903
 6015SOL     OW18943   6.113   0.004   3.898
 6015SOL    HW118944   6.072   0.061   3.827
 6015SOL    HW218945   6.212   0.001   3.885
 6016SOL     OW18946   4.106   2.169   4.981
 6016SOL    HW118947   4.106   2.263   5.015
 6016SOL    HW218948   4.133   2.107   5.054
 6017SOL     OW18949   1.530   1.963   5.088
 6017SOL    HW118950   1.581   2.031   5.035
 6017SOL    HW218951   1.521   1.994   5.182
 6018SOL     OW18952   2.636   1.608   3.713
 6018SOL    HW118953   2.670   1.518   3.739
 6018SOL    HW218954   2.652   1.672   3.788
 6019SOL     OW18955   6.628   4.273   6.028
 6019SOL    HW118956   6.713   4.319   6.054
 6019SOL    HW218957   6.594   4.220   6.106
 6020SOL     OW18958   0.386   5.571   5.255
 6020SOL    HW118959   0.438   5.632   5.314
 6020SOL    HW218960   0.387   5.606   5.161
 6021SOL     OW18961   5.254   0.037   3.114
 6021SOL    HW118962   5.203   0.097   3.053
 6021SOL    HW218963   5.211   0.037   3.204
 6022SOL     OW18964   6.475   3.110   1.292
 6022SOL    HW118965   6.566   3.076   1.269
 6022SOL    HW218966   6.416   3.033   1.316
 6023SOL     OW18967   4.348   6.597   2.414
 6023SOL    HW118968   4.337   6.664   2.488
 6023SOL    HW218969   4.285   6.521   2.429
 6024SOL     OW18970   0.533   6.096   0.169
 6024SOL    HW118971   0.577   6.185   0.167
 6024SOL    HW218972   0.510   6.067   0.076
 6025SOL     OW18973   3.236   0.489   5.696
 6025SOL    HW118974   3.334   0.473   5.709
 6025SOL    HW218975   3.215   0.585   5.714
 6026SOL     OW18976   5.759   5.684   3.635
 6026SOL    HW118977   5.698   5.653   3.561
 6026SOL    HW218978   5.793   5.775   3.614
 6027SOL     OW18979   5.860   4.690   5.812
 6027SOL    HW118980   5.845   4.603   5.765
 6027SOL    HW218981   5.842   4.679   5.910
 6028SOL     OW18982   6.046   5.739   6.076
 6028SOL    HW118983   6.101   5.745   5.993
 6028SOL    HW218984   6.097   5.691   6.147
 6029SOL     OW18985   3.057   1.909   2.952
 6029SOL    HW118986   3.033   1.982   2.888
 6029SOL    HW218987   3.124   1.848   2.910
 6030SOL     OW18988   5.666   3.071   4.295
 6030SOL    HW118989   5.569   3.077   4.272
 6030SOL    HW218990   5.676   3.038   4.389
 6031SOL     OW18991   0.067   0.001   3.729
 6031SOL    HW118992   0.087   6.949   3.786
 6031SOL    HW218993   0.105   0.084   3.772
 6032SOL     OW18994   3.146   6.927   3.433
 6032SOL    HW118995   3.159   6.879   3.346
 6032SOL    HW218996   3.184   6.872   3.508
 6033SOL     OW18997   1.034   1.579   2.551
 6033SOL    HW118998   0.979   1.623   2.622
 6033SOL    HW218999   1.128   1.568   2.583
 6034SOL     OW19000   0.611   0.786   0.715
 6034SOL    HW119001   0.591   0.743   0.803
 6034SOL    HW219002   0.531   0.836   0.683
 6035SOL     OW19003   2.371   0.664   2.673
 6035SOL    HW119004   2.363   0.724   2.594
 6035SOL    HW219005   2.298   0.684   2.739
 6036SOL     OW19006   6.851   3.307   0.537
 6036SOL    HW119007   6.902   3.364   0.473
 6036SOL    HW219008   6.815   3.364   0.611
 6037SOL     OW19009   4.573   0.845   6.174
 6037SOL    HW119010   4.609   0.789   6.100
 6037SOL    HW219011   4.593   0.801   6.262
 6038SOL     OW19012   1.674   1.281   6.632
 6038SOL    HW119013   1.706   1.188   6.614
 6038SOL    HW219014   1.592   1.276   6.689
 6039SOL     OW19015   3.389   2.890   4.075
 6039SOL    HW119016   3.345   2.890   4.165
 6039SOL    HW219017   3.471   2.833   4.078
 6040SOL     OW19018   0.321   1.985   0.232
 6040SOL    HW119019   0.357   1.975   0.324
 6040SOL    HW219020   0.336   2.079   0.201
 6041SOL     OW19021   0.732   3.107   4.775
 6041SOL    HW119022   0.803   3.039   4.754
 6041SOL    HW219023   0.678   3.125   4.693
 6042SOL     OW19024   2.137   5.974   4.004
 6042SOL    HW119025   2.046   6.014   3.993
 6042SOL    HW219026   2.166   5.981   4.100
 6043SOL     OW19027   2.384   6.033   2.347
 6043SOL    HW119028   2.413   6.122   2.310
 6043SOL    HW219029   2.288   6.038   2.374
 6044SOL     OW19030   6.838   3.009   0.628
 6044SOL    HW119031   6.855   3.108   0.627
 6044SOL    HW219032   6.896   2.966   0.698
 6045SOL     OW19033   5.244   1.367   4.279
 6045SOL    HW119034   5.293   1.445   4.319
 6045SOL    HW219035   5.271   1.283   4.326
 6046SOL     OW19036   3.729   3.687   2.938
 6046SOL    HW119037   3.709   3.592   2.917
 6046SOL    HW219038   3.703   3.745   2.860
 6047SOL     OW19039   0.291   1.214   0.257
 6047SOL    HW119040   0.224   1.167   0.199
 6047SOL    HW219041   0.244   1.283   0.313
 6048SOL     OW19042   5.754   5.476   3.256
 6048SOL    HW119043   5.737   5.404   3.324
 6048SOL    HW219044   5.698   5.459   3.175
 6049SOL     OW19045   4.965   5.385   6.002
 6049SOL    HW119046   5.045   5.342   6.042
 6049SOL    HW219047   4.915   5.318   5.947
 6050SOL     OW19048   2.368   5.249   3.399
 6050SOL    HW119049   2.406   5.334   3.363
 6050SOL    HW219050   2.268   5.249   3.387
 6051SOL     OW19051   0.821   1.302   2.137
 6051SOL    HW119052   0.793   1.282   2.231
 6051SOL    HW219053   0.744   1.339   2.087
 6052SOL     OW19054   5.876   5.763   0.011
 6052SOL    HW119055   5.807   5.699   7.002
 6052SOL    HW219056   5.887   5.839   6.973
 6053SOL     OW19057   3.724   2.179   5.907
 6053SOL    HW119058   3.648   2.200   5.969
 6053SOL    HW219059   3.705   2.092   5.860
 6054SOL     OW19060   4.181   3.566   0.249
 6054SOL    HW119061   4.181   3.467   0.232
 6054SOL    HW219062   4.189   3.583   0.348
 6055SOL     OW19063   3.233   4.387   1.590
 6055SOL    HW119064   3.198   4.389   1.497
 6055SOL    HW219065   3.297   4.462   1.604
 6056SOL     OW19066   5.134   5.997   3.026
 6056SOL    HW119067   5.143   5.956   2.935
 6056SOL    HW219068   5.064   5.949   3.079
 6057SOL     OW19069   5.844   1.307   3.710
 6057SOL    HW119070   5.810   1.327   3.618
 6057SOL    HW219071   5.860   1.393   3.758
 6058SOL     OW19072   6.940   2.313   5.636
 6058SOL    HW119073   6.922   2.259   5.718
 6058SOL    HW219074   0.004   2.355   5.643
 6059SOL     OW19075   3.835   1.959   6.940
 6059SOL    HW119076   3.896   1.941   6.864
 6059SOL    HW219077   3.850   1.890   7.012
 6060SOL     OW19078   1.727   2.291   0.928
 6060SOL    HW119079   1.710   2.311   1.025
 6060SOL    HW219080   1.647   2.318   0.874
 6061SOL     OW19081   2.699   4.303   6.696
 6061SOL    HW119082   2.626   4.236   6.705
 6061SOL    HW219083   2.705   4.357   6.781
 6062SOL     OW19084   2.188   2.001   5.852
 6062SOL    HW119085   2.126   1.924   5.865
 6062SOL    HW219086   2.241   2.016   5.935
 6063SOL     OW19087   4.914   4.147   6.215
 6063SOL    HW119088   4.901   4.124   6.312
 6063SOL    HW219089   4.921   4.062   6.162
 6064SOL     OW19090   5.704   6.187   0.649
 6064SOL    HW119091   5.634   6.131   0.605
 6064SOL    HW219092   5.671   6.280   0.660
 6065SOL     OW19093   2.142   6.023   1.569
 6065SOL    HW119094   2.086   6.019   1.486
 6065SOL    HW219095   2.239   6.023   1.543
 6066SOL     OW19096   5.934   5.887   2.177
 6066SOL    HW119097   5.887   5.940   2.106
 6066SOL    HW219098   6.032   5.884   2.156
 6067SOL     OW19099   0.199   5.467   5.733
 6067SOL    HW119100   0.100   5.472   5.717
 6067SOL    HW219101   0.247   5.459   5.646
 6068SOL     OW19102   4.543   1.765   4.318
 6068SOL    HW119103   4.615   1.774   4.248
 6068SOL    HW219104   4.498   1.853   4.330
 6069SOL     OW19105   0.381   4.766   5.523
 6069SOL    HW119106   0.342   4.794   5.610
 6069SOL    HW219107   0.479   4.784   5.523
 6070SOL     OW19108   2.915   0.822   0.819
 6070SOL    HW119109   2.944   0.911   0.854
 6070SOL    HW219110   2.819   0.826   0.792
 6071SOL     OW19111   5.357   0.570   6.379
 6071SOL    HW119112   5.403   0.492   6.420
 6071SOL    HW219113   5.423   0.623   6.325
 6072SOL     OW19114   0.054   3.055   0.464
 6072SOL    HW119115   7.006   3.074   0.528
 6072SOL    HW219116   0.065   2.956   0.455
 6073SOL     OW19117   4.909   3.875   0.690
 6073SOL    HW119118   4.952   3.896   0.602
 6073SOL    HW219119   4.876   3.781   0.690
 6074SOL     OW19120   1.090   6.154   3.043
 6074SOL    HW119121   0.996   6.121   3.041
 6074SOL    HW219122   1.120   6.172   2.949
 6075SOL     OW19123   6.352   6.867   6.710
 6075SOL    HW119124   6.392   6.914   6.789
 6075SOL    HW219125   6.424   6.848   6.642
 6076SOL     OW19126   0.297   6.701   3.833
 6076SOL    HW119127   0.347   6.784   3.807
 6076SOL    HW219128   0.362   6.631   3.863
 6077SOL     OW19129   4.875   6.128   2.622
 6077SOL    HW119130   4.860   6.202   2.687
 6077SOL    HW219131   4.868   6.040   2.670
 6078SOL     OW19132   5.293   4.629   0.063
 6078SOL    HW119133   5.383   4.671   0.050
 6078SOL    HW219134   5.281   4.554   7.024
 6079SOL     OW19135   2.997   2.037   0.453
 6079SOL    HW119136   2.944   1.959   0.420
 6079SOL    HW219137   3.079   2.004   0.501
 6080SOL     OW19138   0.305   3.095   5.321
 6080SOL    HW119139   0.246   3.055   5.390
 6080SOL    HW219140   0.358   3.170   5.361
 6081SOL     OW19141   2.184   4.207   4.114
 6081SOL    HW119142   2.181   4.299   4.153
 6081SOL    HW219143   2.091   4.172   4.102
 6082SOL     OW19144   5.319   1.254   1.295
 6082SOL    HW119145   5.265   1.336   1.313
 6082SOL    HW219146   5.264   1.173   1.313
 6083SOL     OW19147   5.229   6.657   6.478
 6083SOL    HW119148   5.315   6.692   6.515
 6083SOL    HW219149   5.197   6.718   6.405
 6084SOL     OW19150   6.370   5.455   3.128
 6084SOL    HW119151   6.310   5.431   3.205
 6084SOL    HW219152   6.345   5.400   3.048
 6085SOL     OW19153   0.618   6.685   0.616
 6085SOL    HW119154   0.558   6.695   0.695
 6085SOL    HW219155   0.607   6.594   0.576
 6086SOL     OW19156   3.567   3.439   0.333
 6086SOL    HW119157   3.496   3.395   0.278
 6086SOL    HW219158   3.597   3.377   0.405
 6087SOL     OW19159   4.170   0.235   0.886
 6087SOL    HW119160   4.264   0.201   0.876
 6087SOL    HW219161   4.130   0.198   0.970
 6088SOL     OW19162   4.240   6.092   1.943
 6088SOL    HW119163   4.276   6.159   2.008
 6088SOL    HW219164   4.237   6.002   1.985
 6089SOL     OW19165   6.523   4.526   3.469
 6089SOL    HW119166   6.458   4.601   3.483
 6089SOL    HW219167   6.493   4.470   3.393
 6090SOL     OW19168   3.877   5.929   5.113
 6090SOL    HW119169   3.833   5.867   5.178
 6090SOL    HW219170   3.813   5.951   5.039
 6091SOL     OW19171   0.873   2.587   2.739
 6091SOL    HW119172   0.910   2.630   2.821
 6091SOL    HW219173   0.806   2.518   2.764
 6092SOL     OW19174   2.281   6.910   1.114
 6092SOL    HW119175   2.204   6.865   1.069
 6092SOL    HW219176   2.271   7.009   1.103
 6093SOL     OW19177   2.959   2.800   1.550
 6093SOL    HW119178   2.893   2.830   1.481
 6093SOL    HW219179   2.924   2.718   1.595
 6094SOL     OW19180   1.315   0.263   5.591
 6094SOL    HW119181   1.260   0.347   5.594
 6094SOL    HW219182   1.286   0.202   5.665
 6095SOL     OW19183   5.341   5.051   2.062
 6095SOL    HW119184   5.405   5.072   1.988
 6095SOL    HW219185   5.355   4.957   2.094
 6096SOL     OW19186   4.789   6.186   2.380
 6096SOL    HW119187   4.858   6.220   2.316
 6096SOL    HW219188   4.832   6.165   2.468
 6097SOL     OW19189   2.763   5.312   2.470
 6097SOL    HW119190   2.689   5.299   2.537
 6097SOL    HW219191   2.755   5.403   2.429
 6098SOL     OW19192   5.921   0.858   5.449
 6098SOL    HW119193   5.953   0.914   5.373
 6098SOL    HW219194   5.914   0.914   5.531
 6099SOL     OW19195   3.598   6.815   5.548
 6099SOL    HW119196   3.558   6.906   5.539
 6099SOL    HW219197   3.579   6.761   5.466
 6100SOL     OW19198   6.992   6.046   5.310
 6100SOL    HW119199   0.001   6.136   5.336
 6100SOL    HW219200   6.927   6.015   5.379
 6101SOL     OW19201   0.531   2.777   1.656
 6101SOL    HW119202   0.628   2.760   1.672
 6101SOL    HW219203   0.477   2.711   1.709
 6102SOL     OW19204   3.242   6.921   2.612
 6102SOL    HW119205   3.313   6.975   2.658
 6102SOL    HW219206   3.253   6.825   2.637
 6103SOL     OW19207   5.224   1.185   2.399
 6103SOL    HW119208   5.201   1.255   2.332
 6103SOL    HW219209   5.293   1.220   2.463
 6104SOL     OW19210   6.668   0.742   4.805
 6104SOL    HW119211   6.725   0.692   4.741
 6104SOL    HW219212   6.650   0.834   4.770
 6105SOL     OW19213   3.827   4.484   5.501
 6105SOL    HW119214   3.854   4.404   5.555
 6105SOL    HW219215   3.859   4.473   5.407
 6106SOL     OW19216   6.135   3.901   4.651
 6106SOL    HW119217   6.134   3.805   4.625
 6106SOL    HW219218   6.215   3.946   4.611
 6107SOL     OW19219   5.684   4.751   5.111
 6107SOL    HW119220   5.616   4.800   5.056
 6107SOL    HW219221   5.756   4.716   5.050
 6108SOL     OW19222   3.146   1.045   6.162
 6108SOL    HW119223   3.111   1.008   6.248
 6108SOL    HW219224   3.185   1.136   6.178
 6109SOL     OW19225   0.017   6.666   3.854
 6109SOL    HW119226   7.023   6.568   3.858
 6109SOL    HW219227   0.116   6.678   3.841
 6110SOL     OW19228   1.230   1.714   3.793
 6110SOL    HW119229   1.250   1.748   3.884
 6110SOL    HW219230   1.239   1.615   3.791
 6111SOL     OW19231   2.287   3.363   0.728
 6111SOL    HW119232   2.343   3.438   0.764
 6111SOL    HW219233   2.275   3.375   0.630
 6112SOL     OW19234   4.555   6.617   3.756
 6112SOL    HW119235   4.618   6.603   3.679
 6112SOL    HW219236   4.526   6.712   3.759
 6113SOL     OW19237   2.994   5.692   1.040
 6113SOL    HW119238   2.968   5.767   0.979
 6113SOL    HW219239   3.084   5.657   1.014
 6114SOL     OW19240   4.556   3.362   1.311
 6114SOL    HW119241   4.595   3.405   1.230
 6114SOL    HW219242   4.460   3.390   1.321
 6115SOL     OW19243   6.762   0.669   5.468
 6115SOL    HW119244   6.831   0.740   5.455
 6115SOL    HW219245   6.699   0.668   5.390
 6116SOL     OW19246   6.306   3.316   7.008
 6116SOL    HW119247   6.308   3.413   6.983
 6116SOL    HW219248   6.255   3.305   0.067
 6117SOL     OW19249   2.226   2.498   1.540
 6117SOL    HW119250   2.137   2.457   1.521
 6117SOL    HW219251   2.295   2.453   1.483
 6118SOL     OW19252   5.698   1.062   1.889
 6118SOL    HW119253   5.782   1.009   1.878
 6118SOL    HW219254   5.624   1.002   1.919
 6119SOL     OW19255   0.244   0.816   6.463
 6119SOL    HW119256   0.207   0.739   6.515
 6119SOL    HW219257   0.244   0.898   6.521
 6120SOL     OW19258   2.930   0.604   3.681
 6120SOL    HW119259   2.994   0.600   3.605
 6120SOL    HW219260   2.969   0.559   3.761
 6121SOL     OW19261   2.312   1.663   4.999
 6121SOL    HW119262   2.354   1.693   4.913
 6121SOL    HW219263   2.384   1.644   5.066
 6122SOL     OW19264   4.975   4.725   4.928
 6122SOL    HW119265   5.031   4.807   4.935
 6122SOL    HW219266   4.968   4.682   5.018
 6123SOL     OW19267   6.423   1.140   4.916
 6123SOL    HW119268   6.399   1.237   4.929
 6123SOL    HW219269   6.486   1.112   4.988
 6124SOL     OW19270   2.311   6.178   4.202
 6124SOL    HW119271   2.269   6.090   4.226
 6124SOL    HW219272   2.269   6.250   4.257
 6125SOL     OW19273   3.515   1.291   5.404
 6125SOL    HW119274   3.605   1.259   5.375
 6125SOL    HW219275   3.506   1.282   5.503
 6126SOL     OW19276   6.190   3.139   6.689
 6126SOL    HW119277   6.218   3.054   6.732
 6126SOL    HW219278   6.212   3.136   6.591
 6127SOL     OW19279   5.977   1.906   2.582
 6127SOL    HW119280   5.965   1.868   2.490
 6127SOL    HW219281   5.910   1.979   2.596
 6128SOL     OW19282   5.921   5.672   5.831
 6128SOL    HW119283   5.845   5.736   5.838
 6128SOL    HW219284   5.978   5.677   5.913
 6129SOL     OW19285   2.570   5.614   3.114
 6129SOL    HW119286   2.592   5.524   3.076
 6129SOL    HW219287   2.562   5.607   3.213
 6130SOL     OW19288   5.839   3.189   0.205
 6130SOL    HW119289   5.805   3.128   0.133
 6130SOL    HW219290   5.898   3.138   0.267
 6131SOL     OW19291   6.483   2.633   2.727
 6131SOL    HW119292   6.444   2.616   2.817
 6131SOL    HW219293   6.566   2.579   2.716
 6132SOL     OW19294   4.633   6.381   6.062
 6132SOL    HW119295   4.630   6.296   6.114
 6132SOL    HW219296   4.543   6.399   6.022
 6133SOL     OW19297   0.586   2.400   3.278
 6133SOL    HW119298   0.684   2.391   3.259
 6133SOL    HW219299   0.551   2.482   3.233
 6134SOL     OW19300   0.202   6.579   5.508
 6134SOL    HW119301   0.197   6.489   5.551
 6134SOL    HW219302   0.110   6.612   5.487
 6135SOL     OW19303   6.288   6.533   0.490
 6135SOL    HW119304   6.346   6.569   0.563
 6135SOL    HW219305   6.341   6.524   0.406
 6136SOL     OW19306   1.115   1.930   3.375
 6136SOL    HW119307   1.136   1.885   3.461
 6136SOL    HW219308   1.195   1.980   3.342
 6137SOL     OW19309   6.637   5.127   0.984
 6137SOL    HW119310   6.538   5.141   0.981
 6137SOL    HW219311   6.659   5.038   0.943
 6138SOL     OW19312   5.395   0.759   1.924
 6138SOL    HW119313   5.406   0.789   1.829
 6138SOL    HW219314   5.384   0.660   1.926
 6139SOL     OW19315   1.966   2.115   4.788
 6139SOL    HW119316   2.044   2.141   4.731
 6139SOL    HW219317   1.933   2.196   4.837
 6140SOL     OW19318   2.178   0.127   3.003
 6140SOL    HW119319   2.269   0.163   2.982
 6140SOL    HW219320   2.187   0.042   3.056
 6141SOL     OW19321   1.010   0.924   0.294
 6141SOL    HW119322   1.011   0.948   0.391
 6141SOL    HW219323   0.917   0.929   0.259
 6142SOL     OW19324   0.075   0.368   1.538
 6142SOL    HW119325   0.117   0.358   1.448
 6142SOL    HW219326   7.003   0.385   1.527
 6143SOL     OW19327   0.832   3.520   5.422
 6143SOL    HW119328   0.849   3.505   5.519
 6143SOL    HW219329   0.864   3.442   5.369
 6144SOL     OW19330   3.347   5.527   2.689
 6144SOL    HW119331   3.313   5.620   2.688
 6144SOL    HW219332   3.401   5.511   2.772
 6145SOL     OW19333   4.882   3.345   4.126
 6145SOL    HW119334   4.864   3.276   4.056
 6145SOL    HW219335   4.968   3.393   4.104
 6146SOL     OW19336   5.837   0.199   5.720
 6146SOL    HW119337   5.833   0.252   5.805
 6146SOL    HW219338   5.755   0.143   5.712
 6147SOL     OW19339   1.031   2.076   5.625
 6147SOL    HW119340   1.104   2.046   5.563
 6147SOL    HW219341   1.053   2.166   5.662
 6148SOL     OW19342   3.707   5.041   0.011
 6148SOL    HW119343   3.803   5.017   0.023
 6148SOL    HW219344   3.654   5.007   0.088
 6149SOL     OW19345   3.617   1.879   1.336
 6149SOL    HW119346   3.560   1.961   1.342
 6149SOL    HW219347   3.710   1.901   1.366
 6150SOL     OW19348   0.060   4.643   4.437
 6150SOL    HW119349   0.112   4.601   4.363
 6150SOL    HW219350   0.122   4.674   4.509
 6151SOL     OW19351   3.733   5.173   2.942
 6151SOL    HW119352   3.662   5.135   3.002
 6151SOL    HW219353   3.810   5.110   2.937
 6152SOL     OW19354   1.092   3.592   2.803
 6152SOL    HW119355   1.101   3.525   2.877
 6152SOL    HW219356   1.182   3.627   2.779
 6153SOL     OW19357   4.862   6.199   1.293
 6153SOL    HW119358   4.795   6.165   1.228
 6153SOL    HW219359   4.850   6.153   1.381
 6154SOL     OW19360   4.724   4.208   2.486
 6154SOL    HW119361   4.743   4.304   2.466
 6154SOL    HW219362   4.680   4.166   2.406
 6155SOL     OW19363   1.964   1.116   3.935
 6155SOL    HW119364   1.888   1.117   4.000
 6155SOL    HW219365   1.934   1.072   3.850
 6156SOL     OW19366   5.008   4.218   2.084
 6156SOL    HW119367   4.950   4.158   2.139
 6156SOL    HW219368   4.952   4.291   2.045
 6157SOL     OW19369   0.791   3.099   1.069
 6157SOL    HW119370   0.757   3.061   1.155
 6157SOL    HW219371   0.875   3.052   1.043
 6158SOL     OW19372   2.868   1.388   5.669
 6158SOL    HW119373   2.945   1.435   5.712
 6158SOL    HW219374   2.786   1.402   5.724
 6159SOL     OW19375   5.797   2.636   0.083
 6159SOL    HW119376   5.859   2.569   0.124
 6159SOL    HW219377   5.830   2.661   7.019
 6160SOL     OW19378   0.541   6.967   1.223
 6160SOL    HW119379   0.522   6.882   1.173
 6160SOL    HW219380   0.637   6.968   1.252
 6161SOL     OW19381   4.997   4.271   6.738
 6161SOL    HW119382   4.994   4.371   6.741
 6161SOL    HW219383   5.025   4.241   6.647
 6162SOL     OW19384   6.316   5.998   1.453
 6162SOL    HW119385   6.328   5.905   1.417
 6162SOL    HW219386   6.271   5.993   1.542
 6163SOL     OW19387   6.240   5.973   3.187
 6163SOL    HW119388   6.228   6.071   3.207
 6163SOL    HW219389   6.333   5.946   3.210
 6164SOL     OW19390   3.391   3.846   4.269
 6164SOL    HW119391   3.326   3.849   4.193
 6164SOL    HW219392   3.453   3.769   4.256
 6165SOL     OW19393   3.780   1.044   6.742
 6165SOL    HW119394   3.743   0.984   6.671
 6165SOL    HW219395   3.772   1.139   6.712
 6166SOL     OW19396   2.891   1.838   5.918
 6166SOL    HW119397   2.905   1.762   5.981
 6166SOL    HW219398   2.951   1.914   5.943
 6167SOL     OW19399   1.635   3.390   3.173
 6167SOL    HW119400   1.555   3.438   3.209
 6167SOL    HW219401   1.676   3.443   3.099
 6168SOL     OW19402   0.220   3.811   4.416
 6168SOL    HW119403   0.131   3.809   4.461
 6168SOL    HW219404   0.278   3.881   4.458
 6169SOL     OW19405   2.703   0.644   0.108
 6169SOL    HW119406   2.743   0.564   0.152
 6169SOL    HW219407   2.774   0.691   0.054
 6170SOL     OW19408   2.919   4.586   0.949
 6170SOL    HW119409   2.933   4.683   0.969
 6170SOL    HW219410   2.849   4.549   1.011
 6171SOL     OW19411   2.227   4.385   1.920
 6171SOL    HW119412   2.295   4.408   1.850
 6171SOL    HW219413   2.267   4.403   2.010
 6172SOL     OW19414   3.120   5.320   1.812
 6172SOL    HW119415   3.145   5.390   1.879
 6172SOL    HW219416   3.020   5.308   1.813
 6173SOL     OW19417   1.425   5.543   2.327
 6173SOL    HW119418   1.454   5.527   2.233
 6173SOL    HW219419   1.384   5.635   2.334
 6174SOL     OW19420   5.432   4.262   1.458
 6174SOL    HW119421   5.375   4.322   1.402
 6174SOL    HW219422   5.472   4.191   1.401
 6175SOL     OW19423   5.139   0.310   4.094
 6175SOL    HW119424   5.187   0.229   4.127
 6175SOL    HW219425   5.040   0.296   4.104
 6176SOL     OW19426   4.953   3.218   7.009
 6176SOL    HW119427   5.029   3.213   6.944
 6176SOL    HW219428   4.940   3.312   0.011
 6177SOL     OW19429   6.629   3.045   2.673
 6177SOL    HW119430   6.591   2.978   2.609
 6177SOL    HW219431   6.686   2.999   2.741
 6178SOL     OW19432   5.509   3.533   1.392
 6178SOL    HW119433   5.503   3.539   1.492
 6178SOL    HW219434   5.569   3.457   1.366
 6179SOL     OW19435   0.342   1.910   5.145
 6179SOL    HW119436   0.339   1.810   5.152
 6179SOL    HW219437   0.437   1.940   5.140
 6180SOL     OW19438   3.527   0.272   6.003
 6180SOL    HW119439   3.531   0.360   6.050
 6180SOL    HW219440   3.603   0.215   6.034
 6181SOL     OW19441   4.371   6.035   6.743
 6181SOL    HW119442   4.336   5.983   6.665
 6181SOL    HW219443   4.435   5.977   6.795
 6182SOL     OW19444   4.748   6.914   5.804
 6182SOL    HW119445   4.845   6.935   5.813
 6182SOL    HW219446   4.697   7.000   5.793
 6183SOL     OW19447   3.763   0.620   2.258
 6183SOL    HW119448   3.852   0.584   2.285
 6183SOL    HW219449   3.770   0.664   2.168
 6184SOL     OW19450   5.708   6.986   6.294
 6184SOL    HW119451   5.767   6.962   6.217
 6184SOL    HW219452   5.691   0.058   6.294
 6185SOL     OW19453   1.614   2.883   6.256
 6185SOL    HW119454   1.656   2.820   6.321
 6185SOL    HW219455   1.669   2.888   6.173
 6186SOL     OW19456   5.034   0.606   4.342
 6186SOL    HW119457   5.066   0.538   4.275
 6186SOL    HW219458   5.088   0.598   4.426
 6187SOL     OW19459   3.271   4.938   4.968
 6187SOL    HW119460   3.319   4.909   5.051
 6187SOL    HW219461   3.176   4.908   4.973
 6188SOL     OW19462   3.007   0.096   1.370
 6188SOL    HW119463   3.083   0.032   1.363
 6188SOL    HW219464   2.920   0.047   1.363
 6189SOL     OW19465   4.948   4.863   3.041
 6189SOL    HW119466   4.981   4.864   3.135
 6189SOL    HW219467   4.883   4.938   3.027
 6190SOL     OW19468   4.803   2.691   5.695
 6190SOL    HW119469   4.765   2.625   5.761
 6190SOL    HW219470   4.751   2.686   5.609
 6191SOL     OW19471   6.572   1.521   6.564
 6191SOL    HW119472   6.494   1.550   6.509
 6191SOL    HW219473   6.553   1.539   6.660
 6192SOL     OW19474   3.178   2.296   0.250
 6192SOL    HW119475   3.277   2.289   0.244
 6192SOL    HW219476   3.136   2.215   0.208
 6193SOL     OW19477   6.507   0.065   1.506
 6193SOL    HW119478   6.588   0.123   1.498
 6193SOL    HW219479   6.478   0.062   1.601
 6194SOL     OW19480   2.223   0.652   0.531
 6194SOL    HW119481   2.230   0.735   0.477
 6194SOL    HW219482   2.149   0.595   0.495
 6195SOL     OW19483   2.509   6.728   5.592
 6195SOL    HW119484   2.458   6.646   5.616
 6195SOL    HW219485   2.467   6.808   5.634
 6196SOL     OW19486   0.378   1.135   5.962
 6196SOL    HW119487   0.345   1.114   6.054
 6196SOL    HW219488   0.349   1.063   5.899
 6197SOL     OW19489   2.389   2.885   1.042
 6197SOL    HW119490   2.388   2.785   1.040
 6197SOL    HW219491   2.378   2.920   0.949
 6198SOL     OW19492   3.594   5.164   2.643
 6198SOL    HW119493   3.571   5.245   2.698
 6198SOL    HW219494   3.615   5.088   2.704
 6199SOL     OW19495   0.790   0.619   6.202
 6199SOL    HW119496   0.846   0.536   6.200
 6199SOL    HW219497   0.826   0.683   6.270
 6200SOL     OW19498   3.924   0.869   5.866
 6200SOL    HW119499   3.869   0.808   5.923
 6200SOL    HW219500   3.895   0.861   5.770
 6201SOL     OW19501   1.993   4.532   3.887
 6201SOL    HW119502   1.901   4.531   3.927
 6201SOL    HW219503   2.022   4.627   3.874
 6202SOL     OW19504   2.678   2.636   1.444
 6202SOL    HW119505   2.590   2.642   1.397
 6202SOL    HW219506   2.668   2.670   1.538
 6203SOL     OW19507   5.538   2.177   4.859
 6203SOL    HW119508   5.520   2.232   4.778
 6203SOL    HW219509   5.629   2.136   4.852
 6204SOL     OW19510   1.540   6.573   6.204
 6204SOL    HW119511   1.613   6.595   6.139
 6204SOL    HW219512   1.547   6.634   6.284
 6205SOL     OW19513   5.430   6.154   6.913
 6205SOL    HW119514   5.429   6.238   6.968
 6205SOL    HW219515   5.504   6.160   6.846
 6206SOL     OW19516   5.470   6.734   3.328
 6206SOL    HW119517   5.533   6.689   3.391
 6206SOL    HW219518   5.516   6.752   3.241
 6207SOL     OW19519   2.198   4.142   4.612
 6207SOL    HW119520   2.264   4.137   4.687
 6207SOL    HW219521   2.241   4.185   4.533
 6208SOL     OW19522   5.707   5.702   5.197
 6208SOL    HW119523   5.651   5.626   5.231
 6208SOL    HW219524   5.795   5.701   5.244
 6209SOL     OW19525   2.859   4.942   1.054
 6209SOL    HW119526   2.803   4.901   0.982
 6209SOL    HW219527   2.804   4.953   1.137
 6210SOL     OW19528   6.746   4.982   3.001
 6210SOL    HW119529   6.749   4.884   2.982
 6210SOL    HW219530   6.720   5.031   2.918
 6211SOL     OW19531   2.616   0.579   5.035
 6211SOL    HW119532   2.574   0.490   5.055
 6211SOL    HW219533   2.550   0.637   4.987
 6212SOL     OW19534   6.584   0.239   3.533
 6212SOL    HW119535   6.674   0.270   3.563
 6212SOL    HW219536   6.577   0.140   3.543
 6213SOL     OW19537   6.730   0.390   0.197
 6213SOL    HW119538   6.745   0.335   0.115
 6213SOL    HW219539   6.693   0.479   0.171
 6214SOL     OW19540   5.670   4.722   1.864
 6214SOL    HW119541   5.711   4.631   1.850
 6214SOL    HW219542   5.712   4.765   1.944
 6215SOL     OW19543   2.491   4.849   1.078
 6215SOL    HW119544   2.584   4.874   1.107
 6215SOL    HW219545   2.447   4.930   1.039
 6216SOL     OW19546   6.555   2.058   2.424
 6216SOL    HW119547   6.468   2.024   2.461
 6216SOL    HW219548   6.537   2.112   2.342
 6217SOL     OW19549   5.212   1.748   1.368
 6217SOL    HW119550   5.228   1.764   1.465
 6217SOL    HW219551   5.163   1.826   1.329
 6218SOL     OW19552   4.027   4.900   4.237
 6218SOL    HW119553   4.021   4.884   4.336
 6218SOL    HW219554   4.102   4.847   4.199
 6219SOL     OW19555   0.204   1.249   4.400
 6219SOL    HW119556   0.260   1.302   4.464
 6219SOL    HW219557   0.197   1.297   4.313
 6220SOL     OW19558   1.713   3.489   5.424
 6220SOL    HW119559   1.637   3.550   5.403
 6220SOL    HW219560   1.794   3.518   5.373
 6221SOL     OW19561   4.214   4.836   4.633
 6221SOL    HW119562   4.269   4.901   4.686
 6221SOL    HW219563   4.274   4.771   4.586
 6222SOL     OW19564   0.353   1.547   1.266
 6222SOL    HW119565   0.382   1.523   1.359
 6222SOL    HW219566   0.309   1.636   1.266
 6223SOL     OW19567   4.757   4.195   4.579
 6223SOL    HW119568   4.701   4.244   4.646
 6223SOL    HW219569   4.758   4.097   4.601
 6224SOL     OW19570   2.572   0.228   4.602
 6224SOL    HW119571   2.660   0.234   4.555
 6224SOL    HW219572   2.522   0.313   4.589
 6225SOL     OW19573   4.209   1.882   6.837
 6225SOL    HW119574   4.140   1.900   6.767
 6225SOL    HW219575   4.177   1.917   6.925
 6226SOL     OW19576   6.689   6.649   4.732
 6226SOL    HW119577   6.709   6.646   4.634
 6226SOL    HW219578   6.635   6.730   4.753
 6227SOL     OW19579   3.020   4.475   7.011
 6227SOL    HW119580   2.991   4.560   6.967
 6227SOL    HW219581   3.026   4.402   6.943
 6228SOL     OW19582   6.789   1.949   2.822
 6228SOL    HW119583   6.757   1.917   2.733
 6228SOL    HW219584   6.756   1.888   2.894
 6229SOL     OW19585   1.749   2.494   2.028
 6229SOL    HW119586   1.838   2.533   2.050
 6229SOL    HW219587   1.685   2.513   2.102
 6230SOL     OW19588   2.183   2.244   4.228
 6230SOL    HW119589   2.110   2.219   4.292
 6230SOL    HW219590   2.144   2.266   4.139
 6231SOL     OW19591   6.733   5.558   1.315
 6231SOL    HW119592   6.697   5.625   1.381
 6231SOL    HW219593   6.680   5.473   1.323
 6232SOL     OW19594   0.920   1.410   0.194
 6232SOL    HW119595   0.860   1.483   0.160
 6232SOL    HW219596   0.923   1.335   0.128
 6233SOL     OW19597   4.329   1.385   6.460
 6233SOL    HW119598   4.354   1.355   6.368
 6233SOL    HW219599   4.252   1.331   6.493
 6234SOL     OW19600   1.813   2.525   3.627
 6234SOL    HW119601   1.768   2.590   3.565
 6234SOL    HW219602   1.773   2.534   3.718
 6235SOL     OW19603   1.937   5.832   2.614
 6235SOL    HW119604   1.908   5.883   2.534
 6235SOL    HW219605   1.892   5.868   2.695
 6236SOL     OW19606   6.645   3.970   0.199
 6236SOL    HW119607   6.609   3.953   0.108
 6236SOL    HW219608   6.714   4.043   0.195
 6237SOL     OW19609   4.031   6.186   6.670
 6237SOL    HW119610   4.101   6.120   6.644
 6237SOL    HW219611   4.001   6.168   6.763
 6238SOL     OW19612   5.401   3.781   0.557
 6238SOL    HW119613   5.385   3.875   0.527
 6238SOL    HW219614   5.333   3.721   0.516
 6239SOL     OW19615   2.464   6.952   3.324
 6239SOL    HW119616   2.488   6.952   3.421
 6239SOL    HW219617   2.368   6.925   3.313
 6240SOL     OW19618   1.588   3.570   0.171
 6240SOL    HW119619   1.528   3.631   0.222
 6240SOL    HW219620   1.683   3.587   0.197
 6241SOL     OW19621   5.009   0.124   1.628
 6241SOL    HW119622   5.019   0.068   1.546
 6241SOL    HW219623   4.986   0.218   1.603
 6242SOL     OW19624   4.214   2.293   3.342
 6242SOL    HW119625   4.121   2.263   3.361
 6242SOL    HW219626   4.229   2.383   3.383
 6243SOL     OW19627   5.676   5.391   2.988
 6243SOL    HW119628   5.740   5.319   3.015
 6243SOL    HW219629   5.703   5.429   2.900
 6244SOL     OW19630   1.999   1.935   2.639
 6244SOL    HW119631   2.003   1.869   2.564
 6244SOL    HW219632   2.078   1.996   2.634
 6245SOL     OW19633   2.217   3.850   0.780
 6245SOL    HW119634   2.132   3.885   0.819
 6245SOL    HW219635   2.198   3.815   0.688
 6246SOL     OW19636   4.297   0.424   0.163
 6246SOL    HW119637   4.260   0.348   0.216
 6246SOL    HW219638   4.222   0.475   0.121
 6247SOL     OW19639   6.664   6.327   3.030
 6247SOL    HW119640   6.751   6.364   3.061
 6247SOL    HW219641   6.659   6.330   2.930
 6248SOL     OW19642   1.504   5.834   0.854
 6248SOL    HW119643   1.411   5.846   0.818
 6248SOL    HW219644   1.500   5.796   0.946
 6249SOL     OW19645   6.294   3.986   6.498
 6249SOL    HW119646   6.394   3.994   6.501
 6249SOL    HW219647   6.269   3.890   6.500
 6250SOL     OW19648   6.270   4.889   5.567
 6250SOL    HW119649   6.344   4.853   5.510
 6250SOL    HW219650   6.187   4.835   5.552
 6251SOL     OW19651   4.842   1.553   1.051
 6251SOL    HW119652   4.814   1.648   1.037
 6251SOL    HW219653   4.769   1.502   1.097
 6252SOL     OW19654   2.231   6.082   5.270
 6252SOL    HW119655   2.251   6.007   5.207
 6252SOL    HW219656   2.158   6.054   5.332
 6253SOL     OW19657   2.894   4.033   1.675
 6253SOL    HW119658   2.908   4.131   1.693
 6253SOL    HW219659   2.928   4.012   1.584
 6254SOL     OW19660   5.288   0.342   0.156
 6254SOL    HW119661   5.247   0.266   0.106
 6254SOL    HW219662   5.301   0.315   0.252
 6255SOL     OW19663   6.725   2.701   3.331
 6255SOL    HW119664   6.651   2.682   3.395
 6255SOL    HW219665   6.688   2.751   3.252
 6256SOL     OW19666   3.746   5.323   4.108
 6256SOL    HW119667   3.824   5.354   4.053
 6256SOL    HW219668   3.699   5.248   4.060
 6257SOL     OW19669   4.455   3.074   0.057
 6257SOL    HW119670   4.449   3.081   6.985
 6257SOL    HW219671   4.509   3.150   0.093
 6258SOL     OW19672   4.522   2.430   2.843
 6258SOL    HW119673   4.463   2.404   2.920
 6258SOL    HW219674   4.548   2.526   2.851
 6259SOL     OW19675   2.968   2.173   1.509
 6259SOL    HW119676   3.037   2.198   1.577
 6259SOL    HW219677   2.895   2.242   1.509
 6260SOL     OW19678   3.530   4.261   1.067
 6260SOL    HW119679   3.455   4.200   1.041
 6260SOL    HW219680   3.567   4.305   0.985
 6261SOL     OW19681   4.575   0.183   6.812
 6261SOL    HW119682   4.609   0.268   6.772
 6261SOL    HW219683   4.552   0.119   6.739
 6262SOL     OW19684   0.596   5.875   5.165
 6262SOL    HW119685   0.545   5.837   5.087
 6262SOL    HW219686   0.562   5.967   5.185
 6263SOL     OW19687   6.240   1.021   1.330
 6263SOL    HW119688   6.307   1.092   1.348
 6263SOL    HW219689   6.268   0.936   1.374
 6264SOL     OW19690   2.234   1.512   0.301
 6264SOL    HW119691   2.146   1.547   0.334
 6264SOL    HW219692   2.269   1.574   0.231
 6265SOL     OW19693   5.550   3.649   0.765
 6265SOL    HW119694   5.538   3.697   0.852
 6265SOL    HW219695   5.486   3.686   0.697
 6266SOL     OW19696   2.488   0.280   2.216
 6266SOL    HW119697   2.438   0.231   2.288
 6266SOL    HW219698   2.433   0.357   2.183
 6267SOL     OW19699   2.702   0.231   0.062
 6267SOL    HW119700   2.619   0.276   0.030
 6267SOL    HW219701   2.765   0.218   7.012
 6268SOL     OW19702   2.276   5.823   3.168
 6268SOL    HW119703   2.374   5.802   3.172
 6268SOL    HW219704   2.230   5.756   3.109
 6269SOL     OW19705   5.880   4.448   0.378
 6269SOL    HW119706   5.795   4.397   0.364
 6269SOL    HW219707   5.946   4.425   0.307
 6270SOL     OW19708   0.685   0.834   4.067
 6270SOL    HW119709   0.662   0.855   4.163
 6270SOL    HW219710   0.705   0.737   4.058
 6271SOL     OW19711   6.431   1.568   1.105
 6271SOL    HW119712   6.341   1.598   1.137
 6271SOL    HW219713   6.448   1.475   1.135
 6272SOL     OW19714   1.916   1.859   3.570
 6272SOL    HW119715   1.817   1.847   3.578
 6272SOL    HW219716   1.936   1.954   3.549
 6273SOL     OW19717   4.437   0.821   2.324
 6273SOL    HW119718   4.356   0.877   2.304
 6273SOL    HW219719   4.437   0.798   2.422
 6274SOL     OW19720   2.780   6.535   6.615
 6274SOL    HW119721   2.699   6.543   6.674
 6274SOL    HW219722   2.861   6.568   6.664
 6275SOL     OW19723   2.920   0.762   4.284
 6275SOL    HW119724   2.923   0.831   4.357
 6275SOL    HW219725   2.946   0.805   4.197
 6276SOL     OW19726   1.154   5.335   3.774
 6276SOL    HW119727   1.081   5.268   3.781
 6276SOL    HW219728   1.169   5.378   3.863
 6277SOL     OW19729   5.682   3.409   4.194
 6277SOL    HW119730   5.765   3.464   4.206
 6277SOL    HW219731   5.700   3.314   4.217
 6278SOL     OW19732   4.394   0.643   3.771
 6278SOL    HW119733   4.358   0.567   3.717
 6278SOL    HW219734   4.489   0.623   3.798
 6279SOL     OW19735   4.869   1.928   6.768
 6279SOL    HW119736   4.779   1.915   6.727
 6279SOL    HW219737   4.882   2.025   6.791
 6280SOL     OW19738   1.124   5.194   6.119
 6280SOL    HW119739   1.029   5.177   6.141
 6280SOL    HW219740   1.134   5.288   6.083
 6281SOL     OW19741   3.246   6.567   4.593
 6281SOL    HW119742   3.283   6.500   4.657
 6281SOL    HW219743   3.166   6.528   4.546
 6282SOL     OW19744   0.816   0.178   3.754
 6282SOL    HW119745   0.825   0.185   3.655
 6282SOL    HW219746   0.903   0.204   3.797
 6283SOL     OW19747   1.164   3.442   4.938
 6283SOL    HW119748   1.082   3.497   4.921
 6283SOL    HW219749   1.140   3.360   4.990
 6284SOL     OW19750   2.756   4.534   6.384
 6284SOL    HW119751   2.671   4.503   6.341
 6284SOL    HW219752   2.834   4.487   6.343
 6285SOL     OW19753   1.735   4.749   2.798
 6285SOL    HW119754   1.834   4.743   2.780
 6285SOL    HW219755   1.716   4.716   2.890
 6286SOL     OW19756   6.474   6.308   4.787
 6286SOL    HW119757   6.514   6.391   4.825
 6286SOL    HW219758   6.448   6.246   4.861
 6287SOL     OW19759   3.588   4.927   2.814
 6287SOL    HW119760   3.503   4.875   2.829
 6287SOL    HW219761   3.627   4.953   2.902
 6288SOL     OW19762   5.633   3.224   1.116
 6288SOL    HW119763   5.585   3.143   1.083
 6288SOL    HW219764   5.715   3.240   1.061
 6289SOL     OW19765   1.173   6.697   2.634
 6289SOL    HW119766   1.265   6.737   2.632
 6289SOL    HW219767   1.116   6.744   2.566
 6290SOL     OW19768   6.119   3.987   3.441
 6290SOL    HW119769   6.206   3.936   3.438
 6290SOL    HW219770   6.138   4.085   3.437
 6291SOL     OW19771   3.967   3.659   3.257
 6291SOL    HW119772   4.039   3.679   3.323
 6291SOL    HW219773   3.991   3.699   3.168
 6292SOL     OW19774   0.121   1.204   2.005
 6292SOL    HW119775   0.141   1.297   1.974
 6292SOL    HW219776   0.162   1.188   2.094
 6293SOL     OW19777   5.753   5.165   0.178
 6293SOL    HW119778   5.669   5.150   0.229
 6293SOL    HW219779   5.781   5.261   0.186
 6294SOL     OW19780   3.773   5.661   2.055
 6294SOL    HW119781   3.676   5.637   2.057
 6294SOL    HW219782   3.827   5.584   2.090
 6295SOL     OW19783   0.044   6.055   6.030
 6295SOL    HW119784   0.113   5.993   5.992
 6295SOL    HW219785   6.991   6.001   6.059
 6296SOL     OW19786   6.820   0.731   3.071
 6296SOL    HW119787   6.788   0.814   3.117
 6296SOL    HW219788   6.811   0.653   3.134
 6297SOL     OW19789   5.432   0.849   5.820
 6297SOL    HW119790   5.399   0.844   5.725
 6297SOL    HW219791   5.527   0.879   5.820
 6298SOL     OW19792   0.025   1.860   4.071
 6298SOL    HW119793   0.056   1.953   4.092
 6298SOL    HW219794   6.955   1.863   4.046
 6299SOL     OW19795   6.564   3.041   0.630
 6299SOL    HW119796   6.657   3.011   0.650
 6299SOL    HW219797   6.500   2.968   0.653
 6300SOL     OW19798   5.411   1.562   3.427
 6300SOL    HW119799   5.314   1.539   3.435
 6300SOL    HW219800   5.458   1.536   3.511
 6301SOL     OW19801   3.582   0.760   0.817
 6301SOL    HW119802   3.657   0.776   0.752
 6301SOL    HW219803   3.591   0.668   0.855
 6302SOL     OW19804   6.521   0.654   2.515
 6302SOL    HW119805   6.545   0.751   2.516
 6302SOL    HW219806   6.448   0.638   2.448
 6303SOL     OW19807   2.085   5.855   5.167
 6303SOL    HW119808   2.090   5.881   5.070
 6303SOL    HW219809   2.029   5.922   5.216
 6304SOL     OW19810   4.170   0.969   4.715
 6304SOL    HW119811   4.204   1.027   4.641
 6304SOL    HW219812   4.181   0.873   4.691
 6305SOL     OW19813   5.434   0.971   2.369
 6305SOL    HW119814   5.362   1.035   2.342
 6305SOL    HW219815   5.472   0.999   2.457
 6306SOL     OW19816   6.033   2.797   4.180
 6306SOL    HW119817   5.992   2.851   4.107
 6306SOL    HW219818   6.081   2.718   4.141
 6307SOL     OW19819   2.112   4.774   0.426
 6307SOL    HW119820   2.190   4.788   0.367
 6307SOL    HW219821   2.073   4.683   0.411
 6308SOL     OW19822   3.864   2.649   6.188
 6308SOL    HW119823   3.838   2.587   6.114
 6308SOL    HW219824   3.844   2.606   6.276
 6309SOL     OW19825   5.832   2.146   5.156
 6309SOL    HW119826   5.838   2.225   5.095
 6309SOL    HW219827   5.764   2.082   5.120
 6310SOL     OW19828   0.054   5.216   4.260
 6310SOL    HW119829   7.005   5.182   4.204
 6310SOL    HW219830   0.030   5.307   4.296
 6311SOL     OW19831   6.300   6.757   4.802
 6311SOL    HW119832   6.370   6.737   4.733
 6311SOL    HW219833   6.341   6.814   4.874
 6312SOL     OW19834   5.184   4.406   5.889
 6312SOL    HW119835   5.136   4.362   5.965
 6312SOL    HW219836   5.150   4.500   5.878
 6313SOL     OW19837   2.466   5.111   3.876
 6313SOL    HW119838   2.407   5.112   3.957
 6313SOL    HW219839   2.550   5.162   3.895
 6314SOL     OW19840   1.475   0.482   3.599
 6314SOL    HW119841   1.483   0.581   3.613
 6314SOL    HW219842   1.413   0.464   3.523
 6315SOL     OW19843   2.121   4.018   0.321
 6315SOL    HW119844   2.089   4.100   0.369
 6315SOL    HW219845   2.062   3.941   0.345
 6316SOL     OW19846   4.284   0.907   5.470
 6316SOL    HW119847   4.297   0.875   5.376
 6316SOL    HW219848   4.299   1.005   5.475
 6317SOL     OW19849   6.107   5.242   4.696
 6317SOL    HW119850   6.204   5.231   4.713
 6317SOL    HW219851   6.061   5.270   4.781
 6318SOL     OW19852   2.019   2.163   4.436
 6318SOL    HW119853   1.986   2.257   4.434
 6318SOL    HW219854   2.060   2.145   4.526
 6319SOL     OW19855   0.574   2.092   2.711
 6319SOL    HW119856   0.605   2.109   2.805
 6319SOL    HW219857   0.654   2.072   2.653
 6320SOL     OW19858   0.256   2.187   2.947
 6320SOL    HW119859   0.299   2.238   2.872
 6320SOL    HW219860   0.285   2.091   2.942
 6321SOL     OW19861   2.641   3.760   6.085
 6321SOL    HW119862   2.612   3.679   6.034
 6321SOL    HW219863   2.714   3.806   6.034
 6322SOL     OW19864   2.452   0.586   0.188
 6322SOL    HW119865   2.543   0.623   0.167
 6322SOL    HW219866   2.388   0.661   0.203
 6323SOL     OW19867   3.987   1.761   1.570
 6323SOL    HW119868   4.076   1.767   1.524
 6323SOL    HW219869   3.987   1.820   1.650
 6324SOL     OW19870   3.642   1.837   6.478
 6324SOL    HW119871   3.607   1.828   6.384
 6324SOL    HW219872   3.569   1.868   6.538
 6325SOL     OW19873   1.580   3.012   2.515
 6325SOL    HW119874   1.680   3.012   2.511
 6325SOL    HW219875   1.550   3.069   2.592
 6326SOL     OW19876   4.422   6.600   1.290
 6326SOL    HW119877   4.370   6.567   1.368
 6326SOL    HW219878   4.435   6.699   1.298
 6327SOL     OW19879   3.854   5.660   5.640
 6327SOL    HW119880   3.860   5.569   5.599
 6327SOL    HW219881   3.920   5.667   5.715
 6328SOL     OW19882   2.601   4.572   6.635
 6328SOL    HW119883   2.630   4.570   6.731
 6328SOL    HW219884   2.676   4.542   6.577
 6329SOL     OW19885   0.409   1.704   3.001
 6329SOL    HW119886   0.505   1.730   3.007
 6329SOL    HW219887   0.355   1.759   3.065
 6330SOL     OW19888   3.835   0.124   0.452
 6330SOL    HW119889   3.816   0.108   0.355
 6330SOL    HW219890   3.754   0.165   0.496
 6331SOL     OW19891   5.120   3.307   2.142
 6331SOL    HW119892   5.038   3.251   2.128
 6331SOL    HW219893   5.133   3.366   2.062
 6332SOL     OW19894   4.993   6.345   2.254
 6332SOL    HW119895   5.081   6.297   2.252
 6332SOL    HW219896   5.006   6.439   2.222
 6333SOL     OW19897   2.004   5.101   3.167
 6333SOL    HW119898   2.069   5.037   3.208
 6333SOL    HW219899   1.926   5.050   3.130
 6334SOL     OW19900   2.858   1.669   2.769
 6334SOL    HW119901   2.760   1.680   2.752
 6334SOL    HW219902   2.874   1.659   2.867
 6335SOL     OW19903   0.209   1.511   0.220
 6335SOL    HW119904   0.158   1.592   0.248
 6335SOL    HW219905   0.290   1.537   0.168
 6336SOL     OW19906   0.964   3.860   4.913
 6336SOL    HW119907   0.988   3.903   5.000
 6336SOL    HW219908   0.951   3.762   4.926
 6337SOL     OW19909   0.185   4.936   4.909
 6337SOL    HW119910   0.119   4.871   4.871
 6337SOL    HW219911   0.154   4.965   5.000
 6338SOL     OW19912   3.842   1.245   4.396
 6338SOL    HW119913   3.865   1.173   4.461
 6338SOL    HW219914   3.918   1.259   4.333
 6339SOL     OW19915   0.186   2.700   4.693
 6339SOL    HW119916   0.246   2.709   4.614
 6339SOL    HW219917   0.101   2.655   4.666
 6340SOL     OW19918   2.405   5.825   4.473
 6340SOL    HW119919   2.491   5.774   4.476
 6340SOL    HW219920   2.337   5.773   4.422
 6341SOL     OW19921   6.281   5.329   2.419
 6341SOL    HW119922   6.205   5.314   2.356
 6341SOL    HW219923   6.303   5.426   2.423
 6342SOL     OW19924   1.131   3.533   0.486
 6342SOL    HW119925   1.167   3.533   0.579
 6342SOL    HW219926   1.043   3.582   0.483
 6343SOL     OW19927   4.780   1.456   0.361
 6343SOL    HW119928   4.684   1.429   0.361
 6343SOL    HW219929   4.835   1.383   0.401
 6344SOL     OW19930   6.511   4.607   4.697
 6344SOL    HW119931   6.447   4.681   4.714
 6344SOL    HW219932   6.534   4.562   4.784
 6345SOL     OW19933   2.314   2.332   2.142
 6345SOL    HW119934   2.402   2.287   2.128
 6345SOL    HW219935   2.268   2.342   2.054
 6346SOL     OW19936   0.482   5.386   4.276
 6346SOL    HW119937   0.409   5.328   4.239
 6346SOL    HW219938   0.570   5.360   4.236
 6347SOL     OW19939   3.230   0.263   0.716
 6347SOL    HW119940   3.304   0.207   0.753
 6347SOL    HW219941   3.184   0.311   0.790
 6348SOL     OW19942   0.137   2.367   4.194
 6348SOL    HW119943   0.215   2.319   4.234
 6348SOL    HW219944   0.163   2.403   4.105
 6349SOL     OW19945   1.255   0.994   0.635
 6349SOL    HW119946   1.272   0.895   0.632
 6349SOL    HW219947   1.324   1.041   0.581
 6350SOL     OW19948   0.018   5.484   3.259
 6350SOL    HW119949   6.981   5.560   3.265
 6350SOL    HW219950   6.996   5.401   3.232
 6351SOL     OW19951   6.996   1.679   2.896
 6351SOL    HW119952   6.907   1.652   2.859
 6351SOL    HW219953   0.019   1.733   2.829
 6352SOL     OW19954   0.143   4.831   2.605
 6352SOL    HW119955   0.059   4.840   2.551
 6352SOL    HW219956   0.221   4.861   2.550
 6353SOL     OW19957   0.505   6.360   1.876
 6353SOL    HW119958   0.434   6.290   1.878
 6353SOL    HW219959   0.510   6.405   1.965
 6354SOL     OW19960   0.220   6.847   4.373
 6354SOL    HW119961   0.145   6.845   4.440
 6354SOL    HW219962   0.187   6.808   4.286
 6355SOL     OW19963   1.448   2.476   2.076
 6355SOL    HW119964   1.401   2.564   2.065
 6355SOL    HW219965   1.494   2.451   1.990
 6356SOL     OW19966   3.642   3.622   1.159
 6356SOL    HW119967   3.725   3.678   1.161
 6356SOL    HW219968   3.667   3.525   1.150
 6357SOL     OW19969   5.683   2.455   1.279
 6357SOL    HW119970   5.751   2.401   1.227
 6357SOL    HW219971   5.646   2.526   1.220
 6358SOL     OW19972   0.984   2.930   5.025
 6358SOL    HW119973   1.026   2.851   5.069
 6358SOL    HW219974   0.904   2.959   5.077
 6359SOL     OW19975   6.803   1.354   6.753
 6359SOL    HW119976   6.787   1.447   6.785
 6359SOL    HW219977   6.716   1.312   6.727
 6360SOL     OW19978   2.352   5.537   4.088
 6360SOL    HW119979   2.439   5.575   4.118
 6360SOL    HW219980   2.354   5.524   3.988
 6361SOL     OW19981   3.169   6.628   5.634
 6361SOL    HW119982   3.086   6.661   5.590
 6361SOL    HW219983   3.196   6.692   5.707
 6362SOL     OW19984   6.021   5.220   6.031
 6362SOL    HW119985   6.006   5.258   6.122
 6362SOL    HW219986   5.977   5.131   6.024
 6363SOL     OW19987   0.678   5.649   4.376
 6363SOL    HW119988   0.770   5.671   4.343
 6363SOL    HW219989   0.612   5.669   4.303
 6364SOL     OW19990   2.353   2.507   6.550
 6364SOL    HW119991   2.287   2.477   6.619
 6364SOL    HW219992   2.347   2.607   6.540
 6365SOL     OW19993   4.111   5.343   2.041
 6365SOL    HW119994   4.068   5.383   1.960
 6365SOL    HW219995   4.194   5.294   2.013
 6366SOL     OW19996   0.657   4.533   5.536
 6366SOL    HW119997   0.695   4.625   5.545
 6366SOL    HW219998   0.638   4.513   5.440
 6367SOL     OW19999   5.810   6.264   2.783
 6367SOL    HW120000   5.868   6.231   2.708
 6367SOL    HW220001   5.861   6.330   2.838
 6368SOL     OW20002   3.461   0.861   3.208
 6368SOL    HW120003   3.373   0.858   3.161
 6368SOL    HW220004   3.527   0.803   3.159
 6369SOL     OW20005   2.424   5.253   5.305
 6369SOL    HW120006   2.434   5.154   5.295
 6369SOL    HW220007   2.473   5.284   5.387
 6370SOL     OW20008   5.128   3.033   1.876
 6370SOL    HW120009   5.050   2.989   1.921
 6370SOL    HW220010   5.201   3.049   1.943
 6371SOL     OW20011   4.698   1.341   4.014
 6371SOL    HW120012   4.660   1.250   4.001
 6371SOL    HW220013   4.741   1.372   3.929
 6372SOL     OW20014   2.726   6.886   2.392
 6372SOL    HW120015   2.637   6.872   2.349
 6372SOL    HW220016   2.718   6.869   2.490
 6373SOL     OW20017   3.467   4.811   6.979
 6373SOL    HW120018   3.438   4.747   6.908
 6373SOL    HW220019   3.434   4.903   6.957
 6374SOL     OW20020   3.074   3.120   3.074
 6374SOL    HW120021   3.038   3.167   3.155
 6374SOL    HW220022   3.001   3.111   3.006
 6375SOL     OW20023   1.900   5.834   2.024
 6375SOL    HW120024   1.853   5.922   2.016
 6375SOL    HW220025   1.896   5.804   2.120
 6376SOL     OW20026   0.958   2.092   5.143
 6376SOL    HW120027   0.951   2.174   5.087
 6376SOL    HW220028   1.045   2.094   5.194
 6377SOL     OW20029   1.075   1.967   3.753
 6377SOL    HW120030   1.105   2.062   3.745
 6377SOL    HW220031   1.151   1.911   3.786
 6378SOL     OW20032   4.235   5.550   3.205
 6378SOL    HW120033   4.175   5.556   3.285
 6378SOL    HW220034   4.214   5.467   3.153
 6379SOL     OW20035   2.320   4.689   1.955
 6379SOL    HW120036   2.249   4.723   1.893
 6379SOL    HW220037   2.339   4.759   2.024
 6380SOL     OW20038   1.506   1.258   6.046
 6380SOL    HW120039   1.572   1.301   5.986
 6380SOL    HW220040   1.413   1.277   6.012
 6381SOL     OW20041   3.373   3.619   2.026
 6381SOL    HW120042   3.354   3.699   2.083
 6381SOL    HW220043   3.351   3.641   1.931
 6382SOL     OW20044   1.327   4.858   4.609
 6382SOL    HW120045   1.397   4.898   4.668
 6382SOL    HW220046   1.281   4.931   4.558
 6383SOL     OW20047   3.830   1.720   3.558
 6383SOL    HW120048   3.785   1.659   3.493
 6383SOL    HW220049   3.830   1.678   3.649
 6384SOL     OW20050   6.964   4.500   2.376
 6384SOL    HW120051   6.922   4.504   2.285
 6384SOL    HW220052   6.953   4.588   2.422
 6385SOL     OW20053   1.100   5.606   5.458
 6385SOL    HW120054   1.011   5.649   5.473
 6385SOL    HW220055   1.147   5.652   5.382
 6386SOL     OW20056   2.526   5.215   2.182
 6386SOL    HW120057   2.468   5.135   2.198
 6386SOL    HW220058   2.618   5.196   2.215
 6387SOL     OW20059   6.119   0.687   5.148
 6387SOL    HW120060   6.098   0.767   5.091
 6387SOL    HW220061   6.048   0.677   5.218
 6388SOL     OW20062   1.670   5.210   3.203
 6388SOL    HW120063   1.594   5.171   3.151
 6388SOL    HW220064   1.730   5.136   3.235
 6389SOL     OW20065   1.066   4.379   1.496
 6389SOL    HW120066   1.137   4.416   1.436
 6389SOL    HW220067   1.110   4.334   1.575
 6390SOL     OW20068   0.967   2.768   4.258
 6390SOL    HW120069   0.867   2.772   4.262
 6390SOL    HW220070   1.005   2.787   4.348
 6391SOL     OW20071   3.833   0.655   6.583
 6391SOL    HW120072   3.789   0.737   6.547
 6391SOL    HW220073   3.817   0.649   6.681
 6392SOL     OW20074   1.259   5.994   4.374
 6392SOL    HW120075   1.239   5.914   4.317
 6392SOL    HW220076   1.207   6.073   4.341
 6393SOL     OW20077   5.037   1.796   6.953
 6393SOL    HW120078   5.018   1.840   0.015
 6393SOL    HW220079   4.980   1.838   6.883
 6394SOL     OW20080   3.247   4.781   1.733
 6394SOL    HW120081   3.259   4.854   1.665
 6394SOL    HW220082   3.252   4.820   1.825
 6395SOL     OW20083   5.745   2.240   0.212
 6395SOL    HW120084   5.674   2.304   0.183
 6395SOL    HW220085   5.708   2.176   0.279
 6396SOL     OW20086   6.512   3.390   6.011
 6396SOL    HW120087   6.567   3.463   5.970
 6396SOL    HW220088   6.511   3.402   6.110
 6397SOL     OW20089   5.977   0.973   1.215
 6397SOL    HW120090   5.931   1.059   1.193
 6397SOL    HW220091   6.025   0.981   1.302
 6398SOL     OW20092   3.779   1.329   1.533
 6398SOL    HW120093   3.704   1.271   1.503
 6398SOL    HW220094   3.829   1.363   1.453
 6399SOL     OW20095   1.742   6.464   6.681
 6399SOL    HW120096   1.779   6.435   6.769
 6399SOL    HW220097   1.647   6.492   6.693
 6400SOL     OW20098   2.518   4.957   4.891
 6400SOL    HW120099   2.585   5.022   4.926
 6400SOL    HW220100   2.565   4.876   4.857
 6401SOL     OW20101   0.586   4.828   5.037
 6401SOL    HW120102   0.495   4.787   5.029
 6401SOL    HW220103   0.633   4.822   4.949
 6402SOL     OW20104   1.960   2.649   3.260
 6402SOL    HW120105   2.020   2.721   3.293
 6402SOL    HW220106   2.006   2.598   3.188
 6403SOL     OW20107   1.216   6.675   1.501
 6403SOL    HW120108   1.168   6.762   1.505
 6403SOL    HW220109   1.151   6.601   1.487
 6404SOL     OW20110   5.032   1.166   2.602
 6404SOL    HW120111   5.083   1.210   2.528
 6404SOL    HW220112   4.991   1.081   2.568
 6405SOL     OW20113   3.367   0.750   2.000
 6405SOL    HW120114   3.392   0.711   1.912
 6405SOL    HW220115   3.380   0.849   1.997
 6406SOL     OW20116   2.873   1.953   3.565
 6406SOL    HW120117   2.962   1.918   3.594
 6406SOL    HW220118   2.884   2.009   3.482
 6407SOL     OW20119   4.601   6.063   6.479
 6407SOL    HW120120   4.553   6.142   6.516
 6407SOL    HW220121   4.539   5.985   6.473
 6408SOL     OW20122   5.634   2.408   0.758
 6408SOL    HW120123   5.733   2.399   0.763
 6408SOL    HW220124   5.598   2.427   0.849
 6409SOL     OW20125   0.571   5.262   1.747
 6409SOL    HW120126   0.524   5.306   1.670
 6409SOL    HW220127   0.525   5.176   1.768
 6410SOL     OW20128   0.780   0.970   2.036
 6410SOL    HW120129   0.864   0.978   2.090
 6410SOL    HW220130   0.743   0.877   2.045
 6411SOL     OW20131   1.266   1.439   3.782
 6411SOL    HW120132   1.188   1.377   3.774
 6411SOL    HW220133   1.350   1.385   3.792
 6412SOL     OW20134   5.709   2.576   4.051
 6412SOL    HW120135   5.675   2.591   4.144
 6412SOL    HW220136   5.794   2.522   4.056
 6413SOL     OW20137   0.582   4.897   0.697
 6413SOL    HW120138   0.560   4.853   0.610
 6413SOL    HW220139   0.587   4.996   0.684
 6414SOL     OW20140   6.199   0.385   3.216
 6414SOL    HW120141   6.217   0.287   3.211
 6414SOL    HW220142   6.272   0.435   3.169
 6415SOL     OW20143   1.780   1.323   2.163
 6415SOL    HW120144   1.697   1.300   2.113
 6415SOL    HW220145   1.760   1.331   2.260
 6416SOL     OW20146   2.675   6.628   6.376
 6416SOL    HW120147   2.732   6.581   6.443
 6416SOL    HW220148   2.605   6.566   6.341
 6417SOL     OW20149   0.736   6.256   4.122
 6417SOL    HW120150   0.649   6.268   4.075
 6417SOL    HW220151   0.794   6.336   4.106
 6418SOL     OW20152   6.523   5.430   2.178
 6418SOL    HW120153   6.495   5.524   2.158
 6418SOL    HW220154   6.453   5.367   2.143
 6419SOL     OW20155   2.193   3.702   0.548
 6419SOL    HW120156   2.234   3.621   0.506
 6419SOL    HW220157   2.104   3.721   0.504
 6420SOL     OW20158   0.461   2.793   6.747
 6420SOL    HW120159   0.559   2.795   6.728
 6420SOL    HW220160   0.411   2.799   6.660
 6421SOL     OW20161   5.502   2.107   0.396
 6421SOL    HW120162   5.523   2.200   0.424
 6421SOL    HW220163   5.455   2.060   0.471
 6422SOL     OW20164   6.265   2.434   2.549
 6422SOL    HW120165   6.184   2.379   2.568
 6422SOL    HW220166   6.261   2.518   2.603
 6423SOL     OW20167   5.295   4.024   0.225
 6423SOL    HW120168   5.337   4.007   0.315
 6423SOL    HW220169   5.358   3.994   0.153
 6424SOL     OW20170   6.324   4.557   5.349
 6424SOL    HW120171   6.391   4.627   5.374
 6424SOL    HW220172   6.337   4.476   5.408
 6425SOL     OW20173   0.228   5.370   1.065
 6425SOL    HW120174   0.194   5.310   0.992
 6425SOL    HW220175   0.233   5.464   1.031
 6426SOL     OW20176   6.094   2.855   2.930
 6426SOL    HW120177   6.032   2.908   2.987
 6426SOL    HW220178   6.140   2.916   2.865
 6427SOL     OW20179   0.514   3.214   5.453
 6427SOL    HW120180   0.581   3.153   5.412
 6427SOL    HW220181   0.518   3.207   5.552
 6428SOL     OW20182   6.399   3.419   4.091
 6428SOL    HW120183   6.321   3.478   4.110
 6428SOL    HW220184   6.442   3.392   4.177
 6429SOL     OW20185   0.980   1.392   4.932
 6429SOL    HW120186   0.938   1.330   4.999
 6429SOL    HW220187   1.035   1.460   4.980
 6430SOL     OW20188   6.123   3.268   0.179
 6430SOL    HW120189   6.033   3.265   0.137
 6430SOL    HW220190   6.116   3.301   0.273
 6431SOL     OW20191   6.116   1.448   2.548
 6431SOL    HW120192   6.198   1.429   2.602
 6431SOL    HW220193   6.035   1.434   2.606
 6432SOL     OW20194   6.443   3.782   0.283
 6432SOL    HW120195   6.474   3.875   0.268
 6432SOL    HW220196   6.428   3.767   0.381
 6433SOL     OW20197   2.368   3.749   1.632
 6433SOL    HW120198   2.354   3.831   1.686
 6433SOL    HW220199   2.357   3.770   1.535
 6434SOL     OW20200   1.673   5.399   0.401
 6434SOL    HW120201   1.604   5.327   0.399
 6434SOL    HW220202   1.747   5.372   0.464
 6435SOL     OW20203   5.208   3.383   0.577
 6435SOL    HW120204   5.141   3.437   0.526
 6435SOL    HW220205   5.217   3.420   0.669
 6436SOL     OW20206   2.195   2.385   1.891
 6436SOL    HW120207   2.227   2.359   1.800
 6436SOL    HW220208   2.113   2.442   1.882
 6437SOL     OW20209   0.037   0.558   0.871
 6437SOL    HW120210   0.037   0.527   0.776
 6437SOL    HW220211   6.970   0.557   0.907
 6438SOL     OW20212   0.663   3.465   4.505
 6438SOL    HW120213   0.686   3.512   4.590
 6438SOL    HW220214   0.731   3.393   4.488
 6439SOL     OW20215   0.326   6.388   2.585
 6439SOL    HW120216   0.338   6.328   2.664
 6439SOL    HW220217   0.303   6.480   2.616
 6440SOL     OW20218   0.398   0.657   2.113
 6440SOL    HW120219   0.324   0.723   2.130
 6440SOL    HW220220   0.459   0.694   2.043
 6441SOL     OW20221   4.455   1.182   2.606
 6441SOL    HW120222   4.492   1.274   2.617
 6441SOL    HW220223   4.367   1.176   2.653
 6442SOL     OW20224   3.198   0.546   3.200
 6442SOL    HW120225   3.276   0.495   3.163
 6442SOL    HW220226   3.201   0.640   3.167
 6443SOL     OW20227   2.428   0.729   0.920
 6443SOL    HW120228   2.431   0.788   0.840
 6443SOL    HW220229   2.516   0.683   0.932
 6444SOL     OW20230   0.495   1.568   2.785
 6444SOL    HW120231   0.471   1.631   2.710
 6444SOL    HW220232   0.472   1.610   2.872
 6445SOL     OW20233   3.177   3.949   5.593
 6445SOL    HW120234   3.145   3.858   5.567
 6445SOL    HW220235   3.110   4.018   5.563
 6446SOL     OW20236   0.272   1.444   0.522
 6446SOL    HW120237   0.220   1.485   0.447
 6446SOL    HW220238   0.370   1.452   0.503
 6447SOL     OW20239   1.502   0.798   3.638
 6447SOL    HW120240   1.590   0.802   3.591
 6447SOL    HW220241   1.517   0.809   3.736
 6448SOL     OW20242   6.691   2.416   2.756
 6448SOL    HW120243   6.696   2.442   2.852
 6448SOL    HW220244   6.602   2.374   2.737
 6449SOL     OW20245   4.062   2.744   0.571
 6449SOL    HW120246   3.983   2.757   0.511
 6449SOL    HW220247   4.045   2.788   0.659
 6450SOL     OW20248   6.727   2.756   0.594
 6450SOL    HW120249   6.806   2.702   0.565
 6450SOL    HW220250   6.755   2.852   0.605
 6451SOL     OW20251   2.485   6.608   4.110
 6451SOL    HW120252   2.441   6.698   4.110
 6451SOL    HW220253   2.488   6.572   4.203
 6452SOL     OW20254   3.679   5.947   4.911
 6452SOL    HW120255   3.580   5.949   4.901
 6452SOL    HW220256   3.720   6.017   4.852
 6453SOL     OW20257   1.905   5.292   6.679
 6453SOL    HW120258   1.888   5.198   6.651
 6453SOL    HW220259   1.833   5.322   6.742
 6454SOL     OW20260   3.824   0.678   4.708
 6454SOL    HW120261   3.787   0.762   4.668
 6454SOL    HW220262   3.803   0.676   4.806
 6455SOL     OW20263   6.199   3.490   6.565
 6455SOL    HW120264   6.182   3.461   6.471
 6455SOL    HW220265   6.128   3.452   6.624
 6456SOL     OW20266   6.902   1.539   4.931
 6456SOL    HW120267   6.838   1.598   4.881
 6456SOL    HW220268   6.862   1.517   5.021
 6457SOL     OW20269   6.105   2.736   2.276
 6457SOL    HW120270   6.150   2.649   2.253
 6457SOL    HW220271   6.052   2.767   2.197
 6458SOL     OW20272   0.654   6.267   3.293
 6458SOL    HW120273   0.622   6.192   3.352
 6458SOL    HW220274   0.739   6.304   3.329
 6459SOL     OW20275   5.446   4.295   0.626
 6459SOL    HW120276   5.363   4.345   0.651
 6459SOL    HW220277   5.521   4.321   0.686
 6460SOL     OW20278   3.592   4.913   1.632
 6460SOL    HW120279   3.605   5.001   1.677
 6460SOL    HW220280   3.497   4.905   1.601
 6461SOL     OW20281   3.098   6.344   5.826
 6461SOL    HW120282   3.036   6.291   5.884
 6461SOL    HW220283   3.167   6.284   5.787
 6462SOL     OW20284   2.119   3.584   3.205
 6462SOL    HW120285   2.168   3.657   3.252
 6462SOL    HW220286   2.021   3.596   3.218
 6463SOL     OW20287   1.098   3.627   5.711
 6463SOL    HW120288   1.057   3.709   5.671
 6463SOL    HW220289   1.195   3.624   5.688
 6464SOL     OW20290   1.722   5.170   2.048
 6464SOL    HW120291   1.671   5.233   1.989
 6464SOL    HW220292   1.723   5.206   2.141
 6465SOL     OW20293   6.245   0.758   2.656
 6465SOL    HW120294   6.319   0.719   2.711
 6465SOL    HW220295   6.212   0.690   2.591
 6466SOL     OW20296   6.788   1.703   4.754
 6466SOL    HW120297   6.772   1.800   4.770
 6466SOL    HW220298   6.863   1.692   4.688
 6467SOL     OW20299   3.518   0.813   6.209
 6467SOL    HW120300   3.563   0.883   6.264
 6467SOL    HW220301   3.440   0.776   6.260
 6468SOL     OW20302   5.461   4.065   1.903
 6468SOL    HW120303   5.366   4.076   1.931
 6468SOL    HW220304   5.520   4.060   1.984
 6469SOL     OW20305   5.857   1.066   5.673
 6469SOL    HW120306   5.839   1.161   5.699
 6469SOL    HW220307   5.935   1.031   5.724
 6470SOL     OW20308   6.487   5.736   4.519
 6470SOL    HW120309   6.531   5.719   4.608
 6470SOL    HW220310   6.390   5.712   4.525
 6471SOL     OW20311   6.659   5.913   5.147
 6471SOL    HW120312   6.693   5.980   5.080
 6471SOL    HW220313   6.730   5.845   5.165
 6472SOL     OW20314   1.671   6.593   1.408
 6472SOL    HW120315   1.596   6.658   1.397
 6472SOL    HW220316   1.663   6.520   1.340
 6473SOL     OW20317   2.322   0.678   5.308
 6473SOL    HW120318   2.277   0.591   5.287
 6473SOL    HW220319   2.416   0.675   5.274
 6474SOL     OW20320   2.470   3.411   6.185
 6474SOL    HW120321   2.424   3.429   6.272
 6474SOL    HW220322   2.478   3.312   6.171
 6475SOL     OW20323   4.136   5.203   3.911
 6475SOL    HW120324   4.200   5.239   3.843
 6475SOL    HW220325   4.048   5.183   3.868
 6476SOL     OW20326   5.199   5.116   2.295
 6476SOL    HW120327   5.169   5.024   2.318
 6476SOL    HW220328   5.271   5.111   2.225
 6477SOL     OW20329   6.421   6.548   6.963
 6477SOL    HW120330   6.333   6.580   7.000
 6477SOL    HW220331   6.447   6.463   7.010
 6478SOL     OW20332   5.039   6.043   1.551
 6478SOL    HW120333   5.138   6.036   1.538
 6478SOL    HW220334   5.020   6.093   1.635
 6479SOL     OW20335   3.445   5.937   2.512
 6479SOL    HW120336   3.358   5.906   2.474
 6479SOL    HW220337   3.506   5.966   2.438
 6480SOL     OW20338   2.916   0.890   1.457
 6480SOL    HW120339   2.843   0.920   1.518
 6480SOL    HW220340   2.891   0.913   1.362
 6481SOL     OW20341   4.376   0.817   1.143
 6481SOL    HW120342   4.340   0.735   1.099
 6481SOL    HW220343   4.475   0.822   1.128
 6482SOL     OW20344   6.590   0.069   6.204
 6482SOL    HW120345   6.524   0.099   6.274
 6482SOL    HW220346   6.682   0.074   6.242
 6483SOL     OW20347   2.133   5.757   1.882
 6483SOL    HW120348   2.049   5.801   1.916
 6483SOL    HW220349   2.206   5.825   1.876
 6484SOL     OW20350   4.818   6.584   3.012
 6484SOL    HW120351   4.892   6.626   3.065
 6484SOL    HW220352   4.815   6.625   2.921
 6485SOL     OW20353   0.771   2.923   2.895
 6485SOL    HW120354   0.868   2.937   2.911
 6485SOL    HW220355   0.758   2.843   2.837
 6486SOL     OW20356   1.559   2.553   3.412
 6486SOL    HW120357   1.470   2.599   3.415
 6486SOL    HW220358   1.632   2.621   3.415
 6487SOL     OW20359   5.884   5.051   3.385
 6487SOL    HW120360   5.852   4.975   3.441
 6487SOL    HW220361   5.950   5.018   3.317
 6488SOL     OW20362   3.283   5.204   5.316
 6488SOL    HW120363   3.325   5.225   5.228
 6488SOL    HW220364   3.191   5.167   5.301
 6489SOL     OW20365   2.544   1.830   6.837
 6489SOL    HW120366   2.550   1.744   6.887
 6489SOL    HW220367   2.591   1.902   6.890
 6490SOL     OW20368   5.069   1.953   0.769
 6490SOL    HW120369   5.076   2.050   0.792
 6490SOL    HW220370   5.112   1.898   0.841
 6491SOL     OW20371   5.088   0.616   5.425
 6491SOL    HW120372   5.032   0.566   5.490
 6491SOL    HW220373   5.037   0.696   5.392
 6492SOL     OW20374   6.496   5.654   5.579
 6492SOL    HW120375   6.428   5.610   5.638
 6492SOL    HW220376   6.458   5.664   5.487
 6493SOL     OW20377   1.149   6.826   5.291
 6493SOL    HW120378   1.183   6.881   5.367
 6493SOL    HW220379   1.220   6.762   5.261
 6494SOL     OW20380   0.398   1.169   3.183
 6494SOL    HW120381   0.441   1.103   3.245
 6494SOL    HW220382   0.459   1.189   3.107
 6495SOL     OW20383   5.759   4.456   1.853
 6495SOL    HW120384   5.838   4.403   1.884
 6495SOL    HW220385   5.679   4.396   1.849
 6496SOL     OW20386   0.304   6.255   3.105
 6496SOL    HW120387   0.300   6.317   3.026
 6496SOL    HW220388   0.399   6.231   3.123
 6497SOL     OW20389   0.618   6.174   0.478
 6497SOL    HW120390   0.525   6.198   0.503
 6497SOL    HW220391   0.619   6.084   0.434
 6498SOL     OW20392   1.752   4.495   4.229
 6498SOL    HW120393   1.684   4.528   4.295
 6498SOL    HW220394   1.745   4.396   4.221
 6499SOL     OW20395   6.306   1.305   3.486
 6499SOL    HW120396   6.270   1.313   3.579
 6499SOL    HW220397   6.311   1.209   3.460
 6500SOL     OW20398   6.064   4.813   2.651
 6500SOL    HW120399   5.991   4.866   2.607
 6500SOL    HW220400   6.125   4.775   2.581
 6501SOL     OW20401   6.747   3.779   0.722
 6501SOL    HW120402   6.699   3.818   0.643
 6501SOL    HW220403   6.844   3.770   0.700
 6502SOL     OW20404   0.747   5.145   1.359
 6502SOL    HW120405   0.682   5.121   1.287
 6502SOL    HW220406   0.721   5.099   1.444
 6503SOL     OW20407   4.573   0.079   4.236
 6503SOL    HW120408   4.560   0.159   4.295
 6503SOL    HW220409   4.620   0.007   4.286
 6504SOL     OW20410   1.784   1.582   1.154
 6504SOL    HW120411   1.838   1.593   1.071
 6504SOL    HW220412   1.708   1.519   1.137
 6505SOL     OW20413   5.765   5.824   0.496
 6505SOL    HW120414   5.817   5.883   0.558
 6505SOL    HW220415   5.697   5.773   0.549
 6506SOL     OW20416   2.089   1.291   0.948
 6506SOL    HW120417   2.109   1.195   0.964
 6506SOL    HW220418   2.062   1.305   0.853
 6507SOL     OW20419   2.856   0.770   2.006
 6507SOL    HW120420   2.935   0.733   1.957
 6507SOL    HW220421   2.799   0.695   2.040
 6508SOL     OW20422   1.967   2.035   2.267
 6508SOL    HW120423   2.045   2.086   2.302
 6508SOL    HW220424   1.908   2.095   2.213
 6509SOL     OW20425   1.101   3.253   4.223
 6509SOL    HW120426   1.123   3.329   4.285
 6509SOL    HW220427   1.177   3.239   4.159
 6510SOL     OW20428   6.564   4.917   6.253
 6510SOL    HW120429   6.558   4.903   6.155
 6510SOL    HW220430   6.616   4.843   6.295
 6511SOL     OW20431   6.854   6.613   6.090
 6511SOL    HW120432   6.781   6.586   6.154
 6511SOL    HW220433   6.941   6.620   6.140
 6512SOL     OW20434   5.263   6.110   3.704
 6512SOL    HW120435   5.338   6.091   3.767
 6512SOL    HW220436   5.277   6.199   3.662
 6513SOL     OW20437   1.224   6.800   3.549
 6513SOL    HW120438   1.212   6.800   3.450
 6513SOL    HW220439   1.137   6.822   3.593
 6514SOL     OW20440   3.064   0.242   3.538
 6514SOL    HW120441   3.103   0.333   3.529
 6514SOL    HW220442   3.121   0.175   3.490
 6515SOL     OW20443   0.360   0.648   3.493
 6515SOL    HW120444   0.368   0.746   3.510
 6515SOL    HW220445   0.415   0.624   3.412
 6516SOL     OW20446   1.436   1.251   5.728
 6516SOL    HW120447   1.398   1.198   5.652
 6516SOL    HW220448   1.522   1.293   5.700
 6517SOL     OW20449   2.287   2.154   1.028
 6517SOL    HW120450   2.212   2.104   1.071
 6517SOL    HW220451   2.332   2.212   1.095
 6518SOL     OW20452   5.507   6.614   0.878
 6518SOL    HW120453   5.445   6.660   0.941
 6518SOL    HW220454   5.463   6.603   0.789
 6519SOL     OW20455   1.300   2.132   4.409
 6519SOL    HW120456   1.225   2.082   4.366
 6519SOL    HW220457   1.277   2.229   4.413
 6520SOL     OW20458   5.764   5.611   1.341
 6520SOL    HW120459   5.822   5.580   1.416
 6520SOL    HW220460   5.704   5.537   1.311
 6521SOL     OW20461   1.196   2.118   5.269
 6521SOL    HW120462   1.213   2.043   5.333
 6521SOL    HW220463   1.214   2.205   5.315
 6522SOL     OW20464   2.659   5.435   4.347
 6522SOL    HW120465   2.606   5.373   4.405
 6522SOL    HW220466   2.729   5.480   4.402
 6523SOL     OW20467   1.629   2.635   0.132
 6523SOL    HW120468   1.551   2.695   0.119
 6523SOL    HW220469   1.637   2.610   0.229
 6524SOL     OW20470   4.189   3.043   5.632
 6524SOL    HW120471   4.261   3.029   5.700
 6524SOL    HW220472   4.103   3.008   5.667
 6525SOL     OW20473   0.351   2.624   4.481
 6525SOL    HW120474   0.384   2.652   4.391
 6525SOL    HW220475   0.319   2.530   4.477
 6526SOL     OW20476   1.686   5.421   4.143
 6526SOL    HW120477   1.743   5.478   4.085
 6526SOL    HW220478   1.669   5.468   4.230
 6527SOL     OW20479   2.749   1.380   3.788
 6527SOL    HW120480   2.741   1.288   3.750
 6527SOL    HW220481   2.718   1.379   3.883
 6528SOL     OW20482   0.856   0.366   3.215
 6528SOL    HW120483   0.808   0.375   3.302
 6528SOL    HW220484   0.795   0.395   3.141
 6529SOL     OW20485   6.785   3.087   2.457
 6529SOL    HW120486   6.869   3.036   2.440
 6529SOL    HW220487   6.751   3.066   2.549
 6530SOL     OW20488   0.552   1.506   0.484
 6530SOL    HW120489   0.565   1.439   0.411
 6530SOL    HW220490   0.596   1.592   0.458
 6531SOL     OW20491   5.085   2.464   5.064
 6531SOL    HW120492   5.136   2.378   5.059
 6531SOL    HW220493   5.008   2.455   5.127
 6532SOL     OW20494   0.845   2.246   6.901
 6532SOL    HW120495   0.832   2.206   6.810
 6532SOL    HW220496   0.851   2.346   6.893
 6533SOL     OW20497   4.672   0.590   1.279
 6533SOL    HW120498   4.607   0.616   1.350
 6533SOL    HW220499   4.761   0.633   1.298
 6534SOL     OW20500   2.309   2.750   6.994
 6534SOL    HW120501   2.406   2.774   6.983
 6534SOL    HW220502   2.253   2.816   6.944
 6535SOL     OW20503   1.932   3.569   5.328
 6535SOL    HW120504   1.978   3.480   5.329
 6535SOL    HW220505   1.977   3.629   5.262
 6536SOL     OW20506   6.876   1.908   6.911
 6536SOL    HW120507   6.815   1.922   6.833
 6536SOL    HW220508   6.828   1.932   6.995
 6537SOL     OW20509   0.904   0.548   6.754
 6537SOL    HW120510   0.972   0.545   6.680
 6537SOL    HW220511   0.842   0.471   6.745
 6538SOL     OW20512   2.755   2.485   5.752
 6538SOL    HW120513   2.830   2.455   5.692
 6538SOL    HW220514   2.674   2.506   5.696
 6539SOL     OW20515   3.308   1.651   6.295
 6539SOL    HW120516   3.343   1.631   6.387
 6539SOL    HW220517   3.323   1.572   6.236
 6540SOL     OW20518   3.963   1.890   4.002
 6540SOL    HW120519   4.042   1.845   3.961
 6540SOL    HW220520   3.983   1.913   4.097
 6541SOL     OW20521   2.801   2.584   5.323
 6541SOL    HW120522   2.782   2.567   5.227
 6541SOL    HW220523   2.763   2.673   5.349
 6542SOL     OW20524   5.596   4.068   2.861
 6542SOL    HW120525   5.678   4.117   2.830
 6542SOL    HW220526   5.517   4.128   2.852
 6543SOL     OW20527   1.230   6.141   5.717
 6543SOL    HW120528   1.217   6.052   5.759
 6543SOL    HW220529   1.171   6.209   5.762
 6544SOL     OW20530   0.109   6.052   2.735
 6544SOL    HW120531   0.080   6.089   2.647
 6544SOL    HW220532   0.028   6.027   2.789
 6545SOL     OW20533   6.176   3.346   6.338
 6545SOL    HW120534   6.230   3.269   6.373
 6545SOL    HW220535   6.079   3.325   6.348
 6546SOL     OW20536   3.488   4.433   5.944
 6546SOL    HW120537   3.395   4.405   5.920
 6546SOL    HW220538   3.516   4.386   6.028
 6547SOL     OW20539   4.830   0.467   6.362
 6547SOL    HW120540   4.917   0.483   6.315
 6547SOL    HW220541   4.827   0.373   6.395
 6548SOL     OW20542   5.366   3.692   5.562
 6548SOL    HW120543   5.414   3.780   5.554
 6548SOL    HW220544   5.335   3.680   5.656
 6549SOL     OW20545   2.991   2.185   2.748
 6549SOL    HW120546   2.954   2.247   2.679
 6549SOL    HW220547   3.090   2.179   2.738
 6550SOL     OW20548   0.924   5.218   2.973
 6550SOL    HW120549   1.004   5.262   2.932
 6550SOL    HW220550   0.949   5.183   3.064
 6551SOL     OW20551   3.039   5.165   2.209
 6551SOL    HW120552   3.116   5.194   2.153
 6551SOL    HW220553   3.058   5.074   2.248
 6552SOL     OW20554   4.690   5.070   6.466
 6552SOL    HW120555   4.643   4.995   6.513
 6552SOL    HW220556   4.729   5.133   6.533
 6553SOL     OW20557   6.799   3.361   3.300
 6553SOL    HW120558   6.809   3.441   3.240
 6553SOL    HW220559   6.879   3.301   3.289
 6554SOL     OW20560   6.768   3.624   4.447
 6554SOL    HW120561   6.858   3.590   4.420
 6554SOL    HW220562   6.699   3.557   4.420
 6555SOL     OW20563   0.631   1.189   1.525
 6555SOL    HW120564   0.640   1.266   1.462
 6555SOL    HW220565   0.677   1.109   1.487
 6556SOL     OW20566   3.543   6.993   3.581
 6556SOL    HW120567   3.613   6.943   3.530
 6556SOL    HW220568   3.587   0.030   3.645
 6557SOL     OW20569   5.511   6.107   0.486
 6557SOL    HW120570   5.447   6.183   0.497
 6557SOL    HW220571   5.567   6.123   0.405
 6558SOL     OW20572   0.208   6.276   5.913
 6558SOL    HW120573   0.208   6.343   5.987
 6558SOL    HW220574   0.155   6.196   5.940
 6559SOL     OW20575   3.184   3.240   1.356
 6559SOL    HW120576   3.151   3.188   1.278
 6559SOL    HW220577   3.184   3.182   1.438
 6560SOL     OW20578   4.712   1.800   1.099
 6560SOL    HW120579   4.674   1.882   1.056
 6560SOL    HW220580   4.665   1.783   1.186
 6561SOL     OW20581   3.753   3.938   4.172
 6561SOL    HW120582   3.851   3.929   4.188
 6561SOL    HW220583   3.714   3.848   4.151
 6562SOL     OW20584   6.941   4.401   5.460
 6562SOL    HW120585   6.912   4.364   5.548
 6562SOL    HW220586   6.974   4.326   5.402
 6563SOL     OW20587   0.449   5.372   2.604
 6563SOL    HW120588   0.471   5.421   2.519
 6563SOL    HW220589   0.464   5.433   2.682
 6564SOL     OW20590   1.495   5.345   3.018
 6564SOL    HW120591   1.479   5.414   3.089
 6564SOL    HW220592   1.559   5.382   2.951
 6565SOL     OW20593   6.698   3.321   5.290
 6565SOL    HW120594   6.749   3.336   5.206
 6565SOL    HW220595   6.601   3.338   5.274
 6566SOL     OW20596   4.087   1.500   0.971
 6566SOL    HW120597   4.150   1.466   1.041
 6566SOL    HW220598   4.073   1.428   0.902
 6567SOL     OW20599   6.569   2.593   0.973
 6567SOL    HW120600   6.609   2.562   1.060
 6567SOL    HW220601   6.476   2.626   0.989
 6568SOL     OW20602   4.651   3.740   0.909
 6568SOL    HW120603   4.606   3.825   0.935
 6568SOL    HW220604   4.728   3.759   0.849
 6569SOL     OW20605   0.975   4.770   6.048
 6569SOL    HW120606   0.949   4.678   6.078
 6569SOL    HW220607   1.037   4.810   6.114
 6570SOL     OW20608   6.360   3.917   1.538
 6570SOL    HW120609   6.404   3.884   1.454
 6570SOL    HW220610   6.274   3.869   1.552
 6571SOL     OW20611   2.098   6.260   3.677
 6571SOL    HW120612   2.148   6.346   3.690
 6571SOL    HW220613   2.164   6.185   3.667
 6572SOL     OW20614   1.824   4.199   6.153
 6572SOL    HW120615   1.846   4.175   6.247
 6572SOL    HW220616   1.880   4.143   6.091
 6573SOL     OW20617   1.671   2.015   1.883
 6573SOL    HW120618   1.606   2.031   1.958
 6573SOL    HW220619   1.755   1.973   1.920
 6574SOL     OW20620   1.956   4.576   4.396
 6574SOL    HW120621   1.975   4.594   4.492
 6574SOL    HW220622   1.880   4.633   4.365
 6575SOL     OW20623   2.088   1.607   3.124
 6575SOL    HW120624   2.043   1.662   3.055
 6575SOL    HW220625   2.055   1.633   3.215
 6576SOL     OW20626   0.915   6.484   4.117
 6576SOL    HW120627   0.927   6.463   4.214
 6576SOL    HW220628   1.004   6.506   4.077
 6577SOL     OW20629   0.306   3.514   5.296
 6577SOL    HW120630   0.405   3.519   5.295
 6577SOL    HW220631   0.267   3.606   5.294
 6578SOL     OW20632   6.756   5.290   3.640
 6578SOL    HW120633   6.719   5.371   3.683
 6578SOL    HW220634   6.682   5.235   3.601
 6579SOL     OW20635   0.002   4.387   3.908
 6579SOL    HW120636   0.057   4.464   3.941
 6579SOL    HW220637   0.026   4.367   3.813
 6580SOL     OW20638   5.332   2.861   0.239
 6580SOL    HW120639   5.299   2.892   0.150
 6580SOL    HW220640   5.408   2.920   0.268
 6581SOL     OW20641   2.433   2.465   5.753
 6581SOL    HW120642   2.394   2.474   5.662
 6581SOL    HW220643   2.437   2.555   5.796
 6582SOL     OW20644   6.734   0.206   2.680
 6582SOL    HW120645   6.663   0.163   2.623
 6582SOL    HW220646   6.725   0.306   2.674
 6583SOL     OW20647   6.321   1.320   6.345
 6583SOL    HW120648   6.369   1.256   6.286
 6583SOL    HW220649   6.325   1.412   6.306
 6584SOL     OW20650   5.806   2.521   0.398
 6584SOL    HW120651   5.877   2.517   0.328
 6584SOL    HW220652   5.812   2.608   0.447
 6585SOL     OW20653   2.545   1.288   1.771
 6585SOL    HW120654   2.512   1.374   1.808
 6585SOL    HW220655   2.624   1.257   1.823
 6586SOL     OW20656   6.185   1.627   0.255
 6586SOL    HW120657   6.236   1.546   0.283
 6586SOL    HW220658   6.159   1.679   0.336
 6587SOL     OW20659   2.308   6.265   2.013
 6587SOL    HW120660   2.239   6.222   2.071
 6587SOL    HW220661   2.271   6.349   1.974
 6588SOL     OW20662   2.752   2.033   0.190
 6588SOL    HW120663   2.812   2.107   0.159
 6588SOL    HW220664   2.780   2.004   0.281
 6589SOL     OW20665   5.023   1.779   6.150
 6589SOL    HW120666   5.020   1.766   6.051
 6589SOL    HW220667   5.112   1.816   6.177
 6590SOL     OW20668   6.141   1.378   5.566
 6590SOL    HW120669   6.151   1.299   5.505
 6590SOL    HW220670   6.197   1.454   5.533
 6591SOL     OW20671   5.490   7.008   2.968
 6591SOL    HW120672   5.404   0.027   2.990
 6591SOL    HW220673   5.524   0.015   2.880
 6592SOL     OW20674   6.298   5.719   4.816
 6592SOL    HW120675   6.282   5.788   4.886
 6592SOL    HW220676   6.220   5.715   4.754
 6593SOL     OW20677   5.191   0.847   2.604
 6593SOL    HW120678   5.253   0.916   2.567
 6593SOL    HW220679   5.140   0.805   2.529
 6594SOL     OW20680   5.765   1.032   0.084
 6594SOL    HW120681   5.678   1.080   0.093
 6594SOL    HW220682   5.776   0.998   7.017
 6595SOL     OW20683   2.841   2.919   6.905
 6595SOL    HW120684   2.905   2.874   6.842
 6595SOL    HW220685   2.850   3.018   6.898
 6596SOL     OW20686   3.398   6.499   5.350
 6596SOL    HW120687   3.433   6.410   5.323
 6596SOL    HW220688   3.301   6.505   5.329
 6597SOL     OW20689   0.013   4.242   6.864
 6597SOL    HW120690   7.010   4.182   6.790
 6597SOL    HW220691   0.097   4.207   6.905
 6598SOL     OW20692   2.270   5.898   4.881
 6598SOL    HW120693   2.325   5.833   4.829
 6598SOL    HW220694   2.173   5.875   4.870
 6599SOL     OW20695   4.352   3.126   6.464
 6599SOL    HW120696   4.340   3.221   6.495
 6599SOL    HW220697   4.363   3.125   6.365
 6600SOL     OW20698   4.334   5.020   4.766
 6600SOL    HW120699   4.328   5.055   4.860
 6600SOL    HW220700   4.398   5.076   4.714
 6601SOL     OW20701   0.450   0.593   1.764
 6601SOL    HW120702   0.370   0.533   1.765
 6601SOL    HW220703   0.491   0.593   1.673
 6602SOL     OW20704   6.674   1.470   1.641
 6602SOL    HW120705   6.650   1.504   1.732
 6602SOL    HW220706   6.683   1.370   1.644
 6603SOL     OW20707   2.531   2.037   1.644
 6603SOL    HW120708   2.575   2.041   1.555
 6603SOL    HW220709   2.594   2.001   1.712
 6604SOL     OW20710   4.189   5.871   4.313
 6604SOL    HW120711   4.130   5.792   4.298
 6604SOL    HW220712   4.151   5.951   4.264
 6605SOL     OW20713   4.754   6.345   0.426
 6605SOL    HW120714   4.843   6.300   0.423
 6605SOL    HW220715   4.747   6.411   0.351
 6606SOL     OW20716   0.050   2.211   3.135
 6606SOL    HW120717   0.108   2.194   3.055
 6606SOL    HW220718   7.007   2.139   3.141
 6607SOL     OW20719   1.369   3.058   2.973
 6607SOL    HW120720   1.420   3.141   2.993
 6607SOL    HW220721   1.274   3.069   3.002
 6608SOL     OW20722   5.388   4.670   4.967
 6608SOL    HW120723   5.327   4.677   5.046
 6608SOL    HW220724   5.422   4.761   4.943
 6609SOL     OW20725   5.705   1.964   0.330
 6609SOL    HW120726   5.623   2.016   0.354
 6609SOL    HW220727   5.747   1.926   0.412
 6610SOL     OW20728   4.035   1.320   0.777
 6610SOL    HW120729   3.949   1.310   0.727
 6610SOL    HW220730   4.075   1.230   0.794
 6611SOL     OW20731   5.393   3.191   3.187
 6611SOL    HW120732   5.352   3.140   3.112
 6611SOL    HW220733   5.488   3.212   3.164
 6612SOL     OW20734   1.164   5.904   6.516
 6612SOL    HW120735   1.074   5.916   6.559
 6612SOL    HW220736   1.221   5.983   6.536
 6613SOL     OW20737   5.173   4.845   0.757
 6613SOL    HW120738   5.153   4.757   0.800
 6613SOL    HW220739   5.208   4.908   0.826
 6614SOL     OW20740   5.438   4.597   5.705
 6614SOL    HW120741   5.347   4.587   5.664
 6614SOL    HW220742   5.500   4.531   5.663
 6615SOL     OW20743   0.091   3.433   5.160
 6615SOL    HW120744   0.157   3.455   5.232
 6615SOL    HW220745   0.107   3.492   5.081
 6616SOL     OW20746   4.728   0.770   4.120
 6616SOL    HW120747   4.786   0.841   4.079
 6616SOL    HW220748   4.717   0.695   4.054
 6617SOL     OW20749   4.305   6.941   4.800
 6617SOL    HW120750   4.338   6.894   4.882
 6617SOL    HW220751   4.211   6.970   4.814
 6618SOL     OW20752   6.858   4.936   0.872
 6618SOL    HW120753   6.934   4.987   0.912
 6618SOL    HW220754   6.881   4.839   0.867
 6619SOL     OW20755   0.194   6.347   1.699
 6619SOL    HW120756   0.104   6.370   1.735
 6619SOL    HW220757   0.231   6.269   1.748
 6620SOL     OW20758   4.321   2.971   5.855
 6620SOL    HW120759   4.419   2.988   5.850
 6620SOL    HW220760   4.299   2.931   5.944
 6621SOL     OW20761   2.284   3.460   0.468
 6621SOL    HW120762   2.377   3.478   0.436
 6621SOL    HW220763   2.253   3.372   0.433
 6622SOL     OW20764   6.233   5.491   0.909
 6622SOL    HW120765   6.181   5.443   0.980
 6622SOL    HW220766   6.283   5.567   0.950
 6623SOL     OW20767   3.626   4.103   2.521
 6623SOL    HW120768   3.573   4.150   2.591
 6623SOL    HW220769   3.707   4.062   2.564
 6624SOL     OW20770   4.228   4.756   4.005
 6624SOL    HW120771   4.299   4.720   4.066
 6624SOL    HW220772   4.230   4.856   4.007
 6625SOL     OW20773   5.949   6.874   0.028
 6625SOL    HW120774   6.034   6.927   0.024
 6625SOL    HW220775   5.882   6.923   0.085
 6626SOL     OW20776   2.794   4.728   3.686
 6626SOL    HW120777   2.742   4.736   3.771
 6626SOL    HW220778   2.876   4.784   3.692
 6627SOL     OW20779   1.900   6.774   1.736
 6627SOL    HW120780   1.883   6.871   1.721
 6627SOL    HW220781   1.949   6.761   1.822
 6628SOL     OW20782   3.999   5.718   3.896
 6628SOL    HW120783   4.080   5.682   3.941
 6628SOL    HW220784   4.011   5.716   3.797
 6629SOL     OW20785   3.115   4.081   0.210
 6629SOL    HW120786   3.134   4.161   0.154
 6629SOL    HW220787   3.177   4.081   0.290
 6630SOL     OW20788   3.811   1.302   6.593
 6630SOL    HW120789   3.713   1.305   6.573
 6630SOL    HW220790   3.832   1.365   6.668
 6631SOL     OW20791   4.412   0.242   1.306
 6631SOL    HW120792   4.499   0.246   1.257
 6631SOL    HW220793   4.405   0.321   1.367
 6632SOL     OW20794   6.258   2.497   2.260
 6632SOL    HW120795   6.248   2.417   2.201
 6632SOL    HW220796   6.275   2.468   2.354
 6633SOL     OW20797   1.111   6.175   1.994
 6633SOL    HW120798   1.029   6.121   1.975
 6633SOL    HW220799   1.165   6.183   1.910
 6634SOL     OW20800   6.750   2.533   5.958
 6634SOL    HW120801   6.716   2.617   5.917
 6634SOL    HW220802   6.811   2.555   6.034
 6635SOL     OW20803   4.083   5.082   3.117
 6635SOL    HW120804   4.064   5.026   3.198
 6635SOL    HW220805   4.039   5.042   3.037
 6636SOL     OW20806   1.880   3.697   3.917
 6636SOL    HW120807   1.957   3.737   3.868
 6636SOL    HW220808   1.898   3.601   3.936
 6637SOL     OW20809   6.393   2.826   1.272
 6637SOL    HW120810   6.413   2.785   1.361
 6637SOL    HW220811   6.342   2.761   1.215
 6638SOL     OW20812   1.993   0.341   6.571
 6638SOL    HW120813   1.983   0.243   6.552
 6638SOL    HW220814   1.905   0.380   6.595
 6639SOL     OW20815   4.081   5.901   6.271
 6639SOL    HW120816   4.102   5.971   6.203
 6639SOL    HW220817   4.098   5.810   6.231
 6640SOL     OW20818   5.677   2.820   3.243
 6640SOL    HW120819   5.631   2.839   3.157
 6640SOL    HW220820   5.609   2.810   3.316
 6641SOL     OW20821   2.197   5.297   6.693
 6641SOL    HW120822   2.097   5.304   6.695
 6641SOL    HW220823   2.224   5.204   6.717
 6642SOL     OW20824   6.304   6.209   6.510
 6642SOL    HW120825   6.325   6.170   6.420
 6642SOL    HW220826   6.389   6.230   6.558
 6643SOL     OW20827   3.539   5.655   0.040
 6643SOL    HW120828   3.602   5.635   0.114
 6643SOL    HW220829   3.572   5.733   7.014
 6644SOL     OW20830   0.973   3.687   2.066
 6644SOL    HW120831   1.038   3.650   2.000
 6644SOL    HW220832   0.894   3.626   2.072
 6645SOL     OW20833   6.115   4.872   5.182
 6645SOL    HW120834   6.214   4.876   5.168
 6645SOL    HW220835   6.090   4.782   5.219
 6646SOL     OW20836   1.245   5.888   3.992
 6646SOL    HW120837   1.279   5.809   3.940
 6646SOL    HW220838   1.155   5.866   4.031
 6647SOL     OW20839   4.262   1.755   2.015
 6647SOL    HW120840   4.188   1.811   2.054
 6647SOL    HW220841   4.347   1.807   2.016
 6648SOL     OW20842   4.136   5.577   1.431
 6648SOL    HW120843   4.044   5.540   1.419
 6648SOL    HW220844   4.153   5.648   1.362
 6649SOL     OW20845   4.635   1.530   6.323
 6649SOL    HW120846   4.575   1.610   6.321
 6649SOL    HW220847   4.637   1.493   6.416
 6650SOL     OW20848   3.310   0.897   3.823
 6650SOL    HW120849   3.297   0.801   3.802
 6650SOL    HW220850   3.222   0.942   3.835
 6651SOL     OW20851   0.733   1.810   0.789
 6651SOL    HW120852   0.740   1.907   0.762
 6651SOL    HW220853   0.822   1.766   0.775
 6652SOL     OW20854   0.592   5.172   3.311
 6652SOL    HW120855   0.681   5.204   3.343
 6652SOL    HW220856   0.523   5.188   3.381
 6653SOL     OW20857   3.349   3.368   3.317
 6653SOL    HW120858   3.306   3.278   3.319
 6653SOL    HW220859   3.288   3.434   3.273
 6654SOL     OW20860   1.765   3.549   1.427
 6654SOL    HW120861   1.674   3.589   1.433
 6654SOL    HW220862   1.829   3.618   1.392
 6655SOL     OW20863   1.558   0.818   0.238
 6655SOL    HW120864   1.555   0.760   0.320
 6655SOL    HW220865   1.504   0.900   0.253
 6656SOL     OW20866   6.995   2.791   2.069
 6656SOL    HW120867   6.907   2.839   2.062
 6656SOL    HW220868   6.984   2.697   2.039
 6657SOL     OW20869   3.183   4.873   5.510
 6657SOL    HW120870   3.184   4.844   5.414
 6657SOL    HW220871   3.275   4.866   5.548
 6658SOL     OW20872   6.213   6.854   6.387
 6658SOL    HW120873   6.300   6.818   6.420
 6658SOL    HW220874   6.207   6.842   6.288
 6659SOL     OW20875   1.810   2.682   6.592
 6659SOL    HW120876   1.756   2.625   6.531
 6659SOL    HW220877   1.755   2.709   6.671
 6660SOL     OW20878   0.986   6.680   2.843
 6660SOL    HW120879   1.032   6.667   2.755
 6660SOL    HW220880   0.995   6.776   2.872
 6661SOL     OW20881   6.981   6.388   3.801
 6661SOL    HW120882   6.909   6.321   3.817
 6661SOL    HW220883   6.973   6.424   3.708
 6662SOL     OW20884   1.482   3.945   5.757
 6662SOL    HW120885   1.553   3.990   5.811
 6662SOL    HW220886   1.441   3.871   5.810
 6663SOL     OW20887   0.559   4.999   2.388
 6663SOL    HW120888   0.532   5.059   2.313
 6663SOL    HW220889   0.656   5.013   2.409
 6664SOL     OW20890   6.996   2.178   2.429
 6664SOL    HW120891   6.951   2.117   2.363
 6664SOL    HW220892   6.984   2.142   2.521
 6665SOL     OW20893   2.282   0.458   2.176
 6665SOL    HW120894   2.205   0.423   2.123
 6665SOL    HW220895   2.257   0.463   2.273
 6666SOL     OW20896   5.379   1.254   0.533
 6666SOL    HW120897   5.471   1.227   0.564
 6666SOL    HW220898   5.379   1.350   0.508
 6667SOL     OW20899   5.967   4.989   4.696
 6667SOL    HW120900   5.951   4.973   4.793
 6667SOL    HW220901   6.024   5.070   4.685
 6668SOL     OW20902   6.992   6.211   1.118
 6668SOL    HW120903   0.020   6.236   1.197
 6668SOL    HW220904   7.014   6.273   1.042
 6669SOL     OW20905   1.168   4.994   2.958
 6669SOL    HW120906   1.199   5.087   2.979
 6669SOL    HW220907   1.082   4.977   3.006
 6670SOL     OW20908   4.155   4.609   0.050
 6670SOL    HW120909   4.187   4.622   6.982
 6670SOL    HW220910   4.189   4.684   0.107
 6671SOL     OW20911   0.600   2.695   5.240
 6671SOL    HW120912   0.549   2.659   5.162
 6671SOL    HW220913   0.553   2.775   5.277
 6672SOL     OW20914   0.439   0.406   5.325
 6672SOL    HW120915   0.469   0.389   5.232
 6672SOL    HW220916   0.483   0.342   5.388
 6673SOL     OW20917   4.630   5.855   0.972
 6673SOL    HW120918   4.641   5.932   1.036
 6673SOL    HW220919   4.563   5.879   0.902
 6674SOL     OW20920   0.816   6.960   5.679
 6674SOL    HW120921   0.722   6.932   5.698
 6674SOL    HW220922   0.847   6.919   5.593
 6675SOL     OW20923   0.010   6.456   0.303
 6675SOL    HW120924   6.990   6.376   0.265
 6675SOL    HW220925   0.109   6.441   0.300
 6676SOL     OW20926   0.268   1.957   1.216
 6676SOL    HW120927   0.354   1.969   1.265
 6676SOL    HW220928   0.286   1.927   1.122
 6677SOL     OW20929   0.113   4.672   0.494
 6677SOL    HW120930   0.053   4.593   0.506
 6677SOL    HW220931   0.178   4.654   0.420
 6678SOL     OW20932   0.871   3.179   4.322
 6678SOL    HW120933   0.958   3.199   4.277
 6678SOL    HW220934   0.873   3.216   4.415
 6679SOL     OW20935   1.553   0.600   4.890
 6679SOL    HW120936   1.492   0.679   4.897
 6679SOL    HW220937   1.583   0.573   4.982
 6680SOL     OW20938   2.740   0.702   6.495
 6680SOL    HW120939   2.650   0.745   6.508
 6680SOL    HW220940   2.742   0.655   6.407
 6681SOL     OW20941   5.223   5.968   6.805
 6681SOL    HW120942   5.187   5.914   6.881
 6681SOL    HW220943   5.293   6.032   6.839
 6682SOL     OW20944   6.510   5.285   1.857
 6682SOL    HW120945   6.572   5.211   1.882
 6682SOL    HW220946   6.417   5.262   1.886
 6683SOL     OW20947   5.103   1.657   4.804
 6683SOL    HW120948   5.054   1.685   4.722
 6683SOL    HW220949   5.038   1.649   4.880
 6684SOL     OW20950   1.622   1.758   2.778
 6684SOL    HW120951   1.570   1.768   2.862
 6684SOL    HW220952   1.618   1.844   2.726
 6685SOL     OW20953   5.655   2.865   6.779
 6685SOL    HW120954   5.621   2.842   6.870
 6685SOL    HW220955   5.579   2.871   6.715
 6686SOL     OW20956   6.415   3.727   4.100
 6686SOL    HW120957   6.473   3.779   4.162
 6686SOL    HW220958   6.473   3.677   4.035
 6687SOL     OW20959   0.350   0.881   0.260
 6687SOL    HW120960   0.383   0.890   0.166
 6687SOL    HW220961   0.256   0.914   0.266
 6688SOL     OW20962   0.546   4.888   2.706
 6688SOL    HW120963   0.579   4.982   2.713
 6688SOL    HW220964   0.571   4.837   2.788
 6689SOL     OW20965   4.868   4.719   6.981
 6689SOL    HW120966   4.825   4.722   6.891
 6689SOL    HW220967   4.967   4.707   6.971
 6690SOL     OW20968   0.980   1.694   0.817
 6690SOL    HW120969   1.024   1.747   0.889
 6690SOL    HW220970   0.975   1.598   0.844
 6691SOL     OW20971   1.457   4.969   0.991
 6691SOL    HW120972   1.475   4.884   0.941
 6691SOL    HW220973   1.359   4.991   0.984
 6692SOL     OW20974   4.436   4.048   6.063
 6692SOL    HW120975   4.428   4.142   6.027
 6692SOL    HW220976   4.349   4.001   6.050
 6693SOL     OW20977   4.107   3.581   5.666
 6693SOL    HW120978   4.131   3.506   5.728
 6693SOL    HW220979   4.009   3.575   5.643
 6694SOL     OW20980   2.675   6.046   0.308
 6694SOL    HW120981   2.634   6.137   0.318
 6694SOL    HW220982   2.610   5.977   0.339
 6695SOL     OW20983   1.490   1.684   7.001
 6695SOL    HW120984   1.398   1.664   0.010
 6695SOL    HW220985   1.529   1.760   0.025
 6696SOL     OW20986   1.741   3.114   1.315
 6696SOL    HW120987   1.752   3.095   1.217
 6696SOL    HW220988   1.645   3.136   1.333
 6697SOL     OW20989   5.257   3.442   4.355
 6697SOL    HW120990   5.330   3.459   4.422
 6697SOL    HW220991   5.265   3.508   4.280
 6698SOL     OW20992   2.853   4.111   6.897
 6698SOL    HW120993   2.772   4.111   6.837
 6698SOL    HW220994   2.918   4.180   6.866
 6699SOL     OW20995   1.483   3.421   6.659
 6699SOL    HW120996   1.392   3.456   6.638
 6699SOL    HW220997   1.503   3.342   6.601
 6700SOL     OW20998   0.451   6.414   6.285
 6700SOL    HW120999   0.466   6.513   6.286
 6700SOL    HW221000   0.447   6.382   6.191
 6701SOL     OW21001   0.697   2.491   0.969
 6701SOL    HW121002   0.687   2.391   0.962
 6701SOL    HW221003   0.645   2.523   1.048
 6702SOL     OW21004   1.534   3.294   0.484
 6702SOL    HW121005   1.471   3.270   0.558
 6702SOL    HW221006   1.540   3.394   0.476
 6703SOL     OW21007   0.156   2.239   6.724
 6703SOL    HW121008   0.081   2.305   6.715
 6703SOL    HW221009   0.142   2.164   6.658
 6704SOL     OW21010   5.010   3.137   3.056
 6704SOL    HW121011   4.974   3.048   3.084
 6704SOL    HW221012   5.020   3.196   3.136
 6705SOL     OW21013   6.089   1.284   1.256
 6705SOL    HW121014   6.052   1.266   1.347
 6705SOL    HW221015   6.115   1.197   1.213
 6706SOL     OW21016   1.164   5.986   6.960
 6706SOL    HW121017   1.223   5.991   0.013
 6706SOL    HW221018   1.200   5.919   6.895
 6707SOL     OW21019   1.024   5.237   2.536
 6707SOL    HW121020   0.968   5.172   2.586
 6707SOL    HW221021   0.967   5.312   2.502
 6708SOL     OW21022   1.908   6.294   1.086
 6708SOL    HW121023   1.822   6.326   1.125
 6708SOL    HW221024   1.913   6.194   1.095
 6709SOL     OW21025   5.594   1.766   3.309
 6709SOL    HW121026   5.526   1.700   3.343
 6709SOL    HW221027   5.606   1.753   3.211
 6710SOL     OW21028   1.678   1.942   0.595
 6710SOL    HW121029   1.740   1.903   0.527
 6710SOL    HW221030   1.591   1.893   0.594
 6711SOL     OW21031   5.554   3.718   6.658
 6711SOL    HW121032   5.535   3.765   6.572
 6711SOL    HW221033   5.468   3.689   6.700
 6712SOL     OW21034   3.633   6.378   1.211
 6712SOL    HW121035   3.626   6.344   1.117
 6712SOL    HW221036   3.603   6.474   1.215
 6713SOL     OW21037   1.414   1.677   3.241
 6713SOL    HW121038   1.327   1.645   3.205
 6713SOL    HW221039   1.403   1.704   3.336
 6714SOL     OW21040   6.585   0.480   4.888
 6714SOL    HW121041   6.586   0.467   4.987
 6714SOL    HW221042   6.607   0.574   4.866
 6715SOL     OW21043   6.116   2.388   0.581
 6715SOL    HW121044   6.081   2.316   0.521
 6715SOL    HW221045   6.128   2.472   0.529
 6716SOL     OW21046   3.397   6.195   0.950
 6716SOL    HW121047   3.440   6.114   0.990
 6716SOL    HW221048   3.321   6.225   1.008
 6717SOL     OW21049   4.040   1.067   6.929
 6717SOL    HW121050   4.077   1.159   6.943
 6717SOL    HW221051   3.950   1.073   6.885
 6718SOL     OW21052   3.708   0.170   0.122
 6718SOL    HW121053   3.801   0.201   0.143
 6718SOL    HW221054   3.673   0.222   0.044
 6719SOL     OW21055   0.589   2.049   5.268
 6719SOL    HW121056   0.669   2.064   5.326
 6719SOL    HW221057   0.617   2.053   5.172
 6720SOL     OW21058   1.715   4.627   1.200
 6720SOL    HW121059   1.659   4.691   1.253
 6720SOL    HW221060   1.670   4.538   1.197
 6721SOL     OW21061   0.155   6.061   3.273
 6721SOL    HW121062   0.190   6.130   3.210
 6721SOL    HW221063   0.191   6.078   3.365
 6722SOL     OW21064   4.704   4.920   6.781
 6722SOL    HW121065   4.720   4.823   6.763
 6722SOL    HW221066   4.791   4.967   6.790
 6723SOL     OW21067   4.217   0.881   2.771
 6723SOL    HW121068   4.254   0.963   2.814
 6723SOL    HW221069   4.127   0.900   2.733
 6724SOL     OW21070   3.508   4.480   5.303
 6724SOL    HW121071   3.430   4.417   5.303
 6724SOL    HW221072   3.560   4.470   5.387
 6725SOL     OW21073   0.160   5.503   1.311
 6725SOL    HW121074   0.072   5.494   1.356
 6725SOL    HW221075   0.189   5.414   1.276
 6726SOL     OW21076   2.345   2.894   1.825
 6726SOL    HW121077   2.331   2.829   1.750
 6726SOL    HW221078   2.379   2.981   1.788
 6727SOL     OW21079   3.456   4.255   0.676
 6727SOL    HW121080   3.369   4.302   0.691
 6727SOL    HW221081   3.439   4.161   0.646
 6728SOL     OW21082   4.529   1.732   4.735
 6728SOL    HW121083   4.480   1.659   4.783
 6728SOL    HW221084   4.574   1.695   4.654
 6729SOL     OW21085   4.624   6.182   3.606
 6729SOL    HW121086   4.622   6.085   3.628
 6729SOL    HW221087   4.673   6.196   3.520
 6730SOL     OW21088   1.260   0.270   2.327
 6730SOL    HW121089   1.181   0.289   2.386
 6730SOL    HW221090   1.273   0.347   2.264
 6731SOL     OW21091   1.723   4.104   1.999
 6731SOL    HW121092   1.803   4.053   1.965
 6731SOL    HW221093   1.646   4.090   1.937
 6732SOL     OW21094   2.951   5.678   0.423
 6732SOL    HW121095   2.911   5.750   0.366
 6732SOL    HW221096   2.974   5.599   0.366
 6733SOL     OW21097   6.043   5.719   4.715
 6733SOL    HW121098   6.075   5.695   4.623
 6733SOL    HW221099   5.977   5.794   4.709
 6734SOL     OW21100   2.519   3.545   5.973
 6734SOL    HW121101   2.482   3.499   6.054
 6734SOL    HW221102   2.468   3.515   5.892
 6735SOL     OW21103   0.851   6.633   6.479
 6735SOL    HW121104   0.779   6.563   6.473
 6735SOL    HW221105   0.873   6.667   6.388
 6736SOL     OW21106   2.355   4.375   2.166
 6736SOL    HW121107   2.388   4.285   2.194
 6736SOL    HW221108   2.428   4.425   2.120
 6737SOL     OW21109   1.760   0.002   0.876
 6737SOL    HW121110   1.690   6.967   0.840
 6737SOL    HW221111   1.804   0.051   0.801
 6738SOL     OW21112   4.877   1.422   1.290
 6738SOL    HW121113   4.796   1.372   1.260
 6738SOL    HW221114   4.901   1.492   1.222
 6739SOL     OW21115   4.077   6.779   5.672
 6739SOL    HW121116   3.984   6.792   5.637
 6739SOL    HW221117   4.115   6.694   5.635
 6740SOL     OW21118   5.824   2.652   5.708
 6740SOL    HW121119   5.739   2.610   5.741
 6740SOL    HW221120   5.878   2.683   5.787
 6741SOL     OW21121   0.303   0.250   6.221
 6741SOL    HW121122   0.332   0.275   6.128
 6741SOL    HW221123   0.209   0.219   6.218
 6742SOL     OW21124   6.305   5.925   4.957
 6742SOL    HW121125   6.224   5.985   4.955
 6742SOL    HW221126   6.367   5.956   5.029
 6743SOL     OW21127   5.747   2.145   1.762
 6743SOL    HW121128   5.734   2.058   1.715
 6743SOL    HW221129   5.715   2.137   1.856
 6744SOL     OW21130   4.628   6.825   4.199
 6744SOL    HW121131   4.723   6.852   4.215
 6744SOL    HW221132   4.598   6.763   4.271
 6745SOL     OW21133   0.904   3.381   3.041
 6745SOL    HW121134   0.808   3.362   3.061
 6745SOL    HW221135   0.955   3.391   3.126
 6746SOL     OW21136   6.096   0.886   0.727
 6746SOL    HW121137   6.075   0.945   0.805
 6746SOL    HW221138   6.035   0.908   0.652
 6747SOL     OW21139   4.731   5.729   0.112
 6747SOL    HW121140   4.727   5.642   0.062
 6747SOL    HW221141   4.745   5.803   0.046
 6748SOL     OW21142   0.082   6.444   2.240
 6748SOL    HW121143   0.054   6.512   2.309
 6748SOL    HW221144   0.071   6.484   2.149
 6749SOL     OW21145   2.861   5.781   1.367
 6749SOL    HW121146   2.956   5.810   1.376
 6749SOL    HW221147   2.821   5.824   1.286
 6750SOL     OW21148   2.164   3.014   5.224
 6750SOL    HW121149   2.184   3.050   5.315
 6750SOL    HW221150   2.249   2.998   5.175
 6751SOL     OW21151   3.980   2.241   6.016
 6751SOL    HW121152   3.909   2.222   5.947
 6751SOL    HW221153   3.936   2.263   6.103
 6752SOL     OW21154   6.983   1.753   0.073
 6752SOL    HW121155   6.921   1.763   0.150
 6752SOL    HW221156   6.942   1.792   7.017
 6753SOL     OW21157   6.352   1.126   0.078
 6753SOL    HW121158   6.265   1.176   0.079
 6753SOL    HW221159   6.369   1.092   7.012
 6754SOL     OW21160   4.540   0.751   6.526
 6754SOL    HW121161   4.531   0.691   6.447
 6754SOL    HW221162   4.633   0.745   6.562
 6755SOL     OW21163   5.400   1.782   3.759
 6755SOL    HW121164   5.405   1.690   3.721
 6755SOL    HW221165   5.336   1.837   3.705
 6756SOL     OW21166   4.595   4.371   3.534
 6756SOL    HW121167   4.647   4.291   3.503
 6756SOL    HW221168   4.583   4.366   3.633
 6757SOL     OW21169   5.989   4.751   1.170
 6757SOL    HW121170   6.019   4.805   1.091
 6757SOL    HW221171   6.043   4.777   1.250
 6758SOL     OW21172   6.381   1.596   2.843
 6758SOL    HW121173   6.346   1.504   2.862
 6758SOL    HW221174   6.444   1.623   2.916
 6759SOL     OW21175   1.081   5.168   3.270
 6759SOL    HW121176   1.158   5.108   3.247
 6759SOL    HW221177   1.049   5.148   3.362
 6760SOL     OW21178   6.680   3.782   4.961
 6760SOL    HW121179   6.671   3.881   4.972
 6760SOL    HW221180   6.701   3.741   5.050
 6761SOL     OW21181   6.072   2.607   6.120
 6761SOL    HW121182   6.058   2.599   6.219
 6761SOL    HW221183   6.169   2.627   6.102
 6762SOL     OW21184   0.261   3.897   3.874
 6762SOL    HW121185   0.310   3.902   3.788
 6762SOL    HW221186   0.286   3.813   3.922
 6763SOL     OW21187   6.280   6.870   5.115
 6763SOL    HW121188   6.200   6.925   5.137
 6763SOL    HW221189   6.359   6.929   5.104
 6764SOL     OW21190   1.874   3.525   6.841
 6764SOL    HW121191   1.783   3.518   6.882
 6764SOL    HW221192   1.867   3.507   6.743
 6765SOL     OW21193   4.608   5.071   2.380
 6765SOL    HW121194   4.546   4.995   2.400
 6765SOL    HW221195   4.643   5.110   2.465
 6766SOL     OW21196   2.374   2.325   6.078
 6766SOL    HW121197   2.456   2.369   6.043
 6766SOL    HW221198   2.373   2.229   6.051
 6767SOL     OW21199   0.402   2.713   5.791
 6767SOL    HW121200   0.363   2.621   5.788
 6767SOL    HW221201   0.453   2.730   5.706
 6768SOL     OW21202   6.831   0.734   5.889
 6768SOL    HW121203   6.781   0.811   5.847
 6768SOL    HW221204   6.896   0.697   5.823
 6769SOL     OW21205   0.790   2.368   5.846
 6769SOL    HW121206   0.767   2.276   5.878
 6769SOL    HW221207   0.839   2.362   5.760
 6770SOL     OW21208   0.099   1.679   3.837
 6770SOL    HW121209   0.084   1.630   3.923
 6770SOL    HW221210   0.106   1.777   3.856
 6771SOL     OW21211   6.264   1.939   2.545
 6771SOL    HW121212   6.173   1.947   2.587
 6771SOL    HW221213   6.333   1.936   2.617
 6772SOL     OW21214   0.763   0.678   2.155
 6772SOL    HW121215   0.809   0.590   2.166
 6772SOL    HW221216   0.713   0.679   2.068
 6773SOL     OW21217   1.550   1.049   2.867
 6773SOL    HW121218   1.591   1.109   2.798
 6773SOL    HW221219   1.593   1.066   2.956
 6774SOL     OW21220   4.214   1.213   5.184
 6774SOL    HW121221   4.296   1.257   5.219
 6774SOL    HW221222   4.239   1.148   5.112
 6775SOL     OW21223   1.726   2.055   4.386
 6775SOL    HW121224   1.664   2.107   4.328
 6775SOL    HW221225   1.819   2.089   4.374
 6776SOL     OW21226   3.575   3.866   3.667
 6776SOL    HW121227   3.638   3.847   3.592
 6776SOL    HW221228   3.567   3.965   3.680
 6777SOL     OW21229   0.436   6.973   6.221
 6777SOL    HW121230   0.364   7.022   6.270
 6777SOL    HW221231   0.522   6.982   6.272
 6778SOL     OW21232   6.614   5.955   2.138
 6778SOL    HW121233   6.664   5.938   2.053
 6778SOL    HW221234   6.568   6.044   2.132
 6779SOL     OW21235   5.182   4.761   6.338
 6779SOL    HW121236   5.115   4.800   6.401
 6779SOL    HW221237   5.190   4.663   6.355
 6780SOL     OW21238   4.670   1.099   2.390
 6780SOL    HW121239   4.622   1.149   2.318
 6780SOL    HW221240   4.610   1.087   2.469
 6781SOL     OW21241   5.628   3.206   2.938
 6781SOL    HW121242   5.642   3.229   3.034
 6781SOL    HW221243   5.716   3.211   2.890
 6782SOL     OW21244   0.137   1.706   2.439
 6782SOL    HW121245   0.186   1.633   2.390
 6782SOL    HW221246   0.078   1.666   2.508
 6783SOL     OW21247   0.520   6.498   6.554
 6783SOL    HW121248   0.451   6.463   6.616
 6783SOL    HW221249   0.501   6.465   6.461
 6784SOL     OW21250   1.026   4.945   0.161
 6784SOL    HW121251   0.938   4.930   0.116
 6784SOL    HW221252   1.057   5.038   0.144
 6785SOL     OW21253   5.410   4.482   1.858
 6785SOL    HW121254   5.459   4.424   1.792
 6785SOL    HW221255   5.339   4.534   1.810
 6786SOL     OW21256   6.659   1.808   5.692
 6786SOL    HW121257   6.601   1.822   5.772
 6786SOL    HW221258   6.685   1.898   5.655
 6787SOL     OW21259   4.128   2.242   1.175
 6787SOL    HW121260   4.079   2.285   1.251
 6787SOL    HW221261   4.083   2.157   1.149
 6788SOL     OW21262   1.371   4.178   0.851
 6788SOL    HW121263   1.317   4.099   0.880
 6788SOL    HW221264   1.440   4.149   0.784
 6789SOL     OW21265   5.941   3.572   1.995
 6789SOL    HW121266   5.968   3.495   2.052
 6789SOL    HW221267   5.846   3.562   1.967
 6790SOL     OW21268   0.191   5.333   0.600
 6790SOL    HW121269   0.159   5.270   0.529
 6790SOL    HW221270   0.113   5.381   0.639
 6791SOL     OW21271   2.078   6.482   3.463
 6791SOL    HW121272   2.024   6.481   3.547
 6791SOL    HW221273   2.120   6.392   3.450
 6792SOL     OW21274   3.395   6.082   6.911
 6792SOL    HW121275   3.314   6.127   6.874
 6792SOL    HW221276   3.477   6.127   6.876
 6793SOL     OW21277   2.336   4.102   6.877
 6793SOL    HW121278   2.319   4.102   6.976
 6793SOL    HW221279   2.274   4.038   6.833
 6794SOL     OW21280   4.796   2.400   4.230
 6794SOL    HW121281   4.710   2.353   4.250
 6794SOL    HW221282   4.817   2.392   4.132
 6795SOL     OW21283   0.531   1.094   2.102
 6795SOL    HW121284   0.611   1.065   2.049
 6795SOL    HW221285   0.451   1.041   2.073
 6796SOL     OW21286   6.829   3.310   2.047
 6796SOL    HW121287   6.899   3.249   2.010
 6796SOL    HW221288   6.799   3.373   1.975
 6797SOL     OW21289   1.497   3.536   0.822
 6797SOL    HW121290   1.475   3.528   0.920
 6797SOL    HW221291   1.592   3.509   0.807
 6798SOL     OW21292   4.840   1.609   1.790
 6798SOL    HW121293   4.743   1.605   1.814
 6798SOL    HW221294   4.877   1.517   1.782
 6799SOL     OW21295   5.446   6.738   2.966
 6799SOL    HW121296   5.451   6.836   2.987
 6799SOL    HW221297   5.372   6.722   2.901
 6800SOL     OW21298   6.669   2.887   1.890
 6800SOL    HW121299   6.671   2.979   1.850
 6800SOL    HW221300   6.640   2.893   1.986
 6801SOL     OW21301   2.069   5.213   5.236
 6801SOL    HW121302   2.025   5.199   5.148
 6801SOL    HW221303   2.123   5.297   5.233
 6802SOL     OW21304   2.651   4.476   1.752
 6802SOL    HW121305   2.659   4.377   1.743
 6802SOL    HW221306   2.740   4.514   1.779
 6803SOL     OW21307   6.001   5.168   6.330
 6803SOL    HW121308   6.058   5.239   6.371
 6803SOL    HW221309   5.990   5.093   6.394
 6804SOL     OW21310   3.475   4.995   2.021
 6804SOL    HW121311   3.535   4.918   1.998
 6804SOL    HW221312   3.383   4.961   2.039
 6805SOL     OW21313   0.591   4.072   3.882
 6805SOL    HW121314   0.690   4.084   3.890
 6805SOL    HW221315   0.566   3.983   3.921
 6806SOL     OW21316   6.113   3.810   1.581
 6806SOL    HW121317   6.021   3.843   1.603
 6806SOL    HW221318   6.107   3.717   1.545
 6807SOL     OW21319   3.838   3.111   2.326
 6807SOL    HW121320   3.843   3.027   2.271
 6807SOL    HW221321   3.810   3.187   2.268
 6808SOL     OW21322   3.594   6.249   3.410
 6808SOL    HW121323   3.495   6.232   3.406
 6808SOL    HW221324   3.624   6.293   3.326
 6809SOL     OW21325   5.837   2.755   0.557
 6809SOL    HW121326   5.801   2.724   0.645
 6809SOL    HW221327   5.831   2.854   0.551
 6810SOL     OW21328   3.161   0.137   4.468
 6810SOL    HW121329   3.090   0.116   4.401
 6810SOL    HW221330   3.241   0.174   4.420
 6811SOL     OW21331   6.381   1.469   1.577
 6811SOL    HW121332   6.319   1.486   1.653
 6811SOL    HW221333   6.475   1.490   1.604
 6812SOL     OW21334   3.286   4.311   5.356
 6812SOL    HW121335   3.271   4.353   5.445
 6812SOL    HW221336   3.198   4.295   5.311
 6813SOL     OW21337   0.054   3.547   2.274
 6813SOL    HW121338   6.987   3.580   2.266
 6813SOL    HW221339   0.078   3.496   2.191
 6814SOL     OW21340   4.176   2.408   1.584
 6814SOL    HW121341   4.078   2.416   1.605
 6814SOL    HW221342   4.220   2.496   1.600
 6815SOL     OW21343   1.013   5.829   0.073
 6815SOL    HW121344   0.935   5.885   0.101
 6815SOL    HW221345   1.074   5.883   0.015
 6816SOL     OW21346   5.943   6.361   4.163
 6816SOL    HW121347   5.862   6.356   4.222
 6816SOL    HW221348   5.933   6.299   4.086
 6817SOL     OW21349   5.918   0.699   1.610
 6817SOL    HW121350   5.904   0.646   1.526
 6817SOL    HW221351   5.956   0.789   1.586
 6818SOL     OW21352   6.791   6.896   5.483
 6818SOL    HW121353   6.814   6.804   5.517
 6818SOL    HW221354   6.776   6.957   5.561
 6819SOL     OW21355   5.735   3.863   0.167
 6819SOL    HW121356   5.648   3.814   0.162
 6819SOL    HW221357   5.809   3.805   0.136
 6820SOL     OW21358   2.194   4.139   1.111
 6820SOL    HW121359   2.135   4.134   1.031
 6820SOL    HW221360   2.153   4.089   1.187
 6821SOL     OW21361   2.985   2.723   5.839
 6821SOL    HW121362   3.044   2.761   5.910
 6821SOL    HW221363   3.014   2.630   5.817
 6822SOL     OW21364   6.742   4.262   4.892
 6822SOL    HW121365   6.661   4.311   4.923
 6822SOL    HW221366   6.799   4.323   4.837
 6823SOL     OW21367   6.625   3.116   5.750
 6823SOL    HW121368   6.600   3.150   5.659
 6823SOL    HW221369   6.575   3.169   5.819
 6824SOL     OW21370   0.582   0.297   3.826
 6824SOL    HW121371   0.560   0.379   3.773
 6824SOL    HW221372   0.671   0.261   3.797
 6825SOL     OW21373   4.801   4.517   1.565
 6825SOL    HW121374   4.754   4.456   1.629
 6825SOL    HW221375   4.734   4.561   1.505
 6826SOL     OW21376   5.798   0.963   3.685
 6826SOL    HW121377   5.784   0.888   3.749
 6826SOL    HW221378   5.895   0.967   3.659
 6827SOL     OW21379   5.240   5.116   5.493
 6827SOL    HW121380   5.146   5.141   5.472
 6827SOL    HW221381   5.293   5.197   5.515
 6828SOL     OW21382   2.745   2.258   2.859
 6828SOL    HW121383   2.841   2.242   2.836
 6828SOL    HW221384   2.700   2.302   2.781
 6829SOL     OW21385   5.569   6.648   3.892
 6829SOL    HW121386   5.580   6.747   3.889
 6829SOL    HW221387   5.473   6.624   3.877
 6830SOL     OW21388   3.709   6.722   2.275
 6830SOL    HW121389   3.703   6.622   2.267
 6830SOL    HW221390   3.700   6.763   2.184
 6831SOL     OW21391   2.456   1.155   0.076
 6831SOL    HW121392   2.493   1.144   0.168
 6831SOL    HW221393   2.521   1.119   0.009
 6832SOL     OW21394   3.366   3.656   0.370
 6832SOL    HW121395   3.459   3.619   0.360
 6832SOL    HW221396   3.372   3.754   0.392
 6833SOL     OW21397   4.664   5.134   0.277
 6833SOL    HW121398   4.670   5.115   0.375
 6833SOL    HW221399   4.718   5.067   0.227
 6834SOL     OW21400   6.390   5.379   5.296
 6834SOL    HW121401   6.422   5.289   5.323
 6834SOL    HW221402   6.293   5.389   5.321
 6835SOL     OW21403   3.919   0.306   2.739
 6835SOL    HW121404   3.860   0.387   2.736
 6835SOL    HW221405   3.866   0.229   2.774
 6836SOL     OW21406   0.762   4.665   6.824
 6836SOL    HW121407   0.663   4.656   6.826
 6836SOL    HW221408   0.804   4.576   6.836
 6837SOL     OW21409   6.657   2.520   1.537
 6837SOL    HW121410   6.670   2.598   1.598
 6837SOL    HW221411   6.578   2.466   1.568
 6838SOL     OW21412   1.929   4.404   6.949
 6838SOL    HW121413   1.833   4.413   6.925
 6838SOL    HW221414   1.981   4.480   6.908
 6839SOL     OW21415   5.901   2.260   5.395
 6839SOL    HW121416   5.833   2.269   5.322
 6839SOL    HW221417   5.855   2.238   5.481
 6840SOL     OW21418   3.377   0.051   4.819
 6840SOL    HW121419   3.389   0.039   4.720
 6840SOL    HW221420   3.280   0.067   4.839
 6841SOL     OW21421   4.500   6.263   0.557
 6841SOL    HW121422   4.556   6.343   0.537
 6841SOL    HW221423   4.558   6.186   0.580
 6842SOL     OW21424   0.919   3.415   3.641
 6842SOL    HW121425   0.943   3.509   3.618
 6842SOL    HW221426   0.820   3.405   3.639
 6843SOL     OW21427   4.838   2.900   1.773
 6843SOL    HW121428   4.768   2.944   1.829
 6843SOL    HW221429   4.864   2.960   1.697
 6844SOL     OW21430   3.468   6.881   4.581
 6844SOL    HW121431   3.393   6.879   4.515
 6844SOL    HW221432   3.524   6.799   4.571
 6845SOL     OW21433   3.537   3.862   6.899
 6845SOL    HW121434   3.558   3.765   6.888
 6845SOL    HW221435   3.458   3.873   6.959
 6846SOL     OW21436   3.905   3.021   4.127
 6846SOL    HW121437   3.846   3.013   4.207
 6846SOL    HW221438   3.867   2.965   4.053
 6847SOL     OW21439   5.265   3.409   2.379
 6847SOL    HW121440   5.207   3.372   2.307
 6847SOL    HW221441   5.224   3.491   2.417
 6848SOL     OW21442   0.713   6.080   4.794
 6848SOL    HW121443   0.644   6.113   4.858
 6848SOL    HW221444   0.783   6.029   4.845
 6849SOL     OW21445   3.078   0.059   4.901
 6849SOL    HW121446   2.978   0.058   4.897
 6849SOL    HW221447   3.113   0.135   4.846
 6850SOL     OW21448   6.698   4.017   1.527
 6850SOL    HW121449   6.701   4.097   1.586
 6850SOL    HW221450   6.602   3.992   1.509
 6851SOL     OW21451   1.718   5.792   0.035
 6851SOL    HW121452   1.724   5.878   0.085
 6851SOL    HW221453   1.753   5.718   0.092
 6852SOL     OW21454   6.035   4.794   2.138
 6852SOL    HW121455   5.999   4.707   2.171
 6852SOL    HW221456   6.057   4.785   2.040
 6853SOL     OW21457   6.391   4.181   4.771
 6853SOL    HW121458   6.440   4.243   4.833
 6853SOL    HW221459   6.293   4.195   4.781
 6854SOL     OW21460   6.181   0.982   6.584
 6854SOL    HW121461   6.171   0.886   6.612
 6854SOL    HW221462   6.169   1.041   6.664
 6855SOL     OW21463   3.085   6.887   1.874
 6855SOL    HW121464   3.174   6.912   1.913
 6855SOL    HW221465   3.041   6.968   1.836
 6856SOL     OW21466   0.316   5.820   5.562
 6856SOL    HW121467   0.402   5.808   5.512
 6856SOL    HW221468   0.323   5.774   5.651
 6857SOL     OW21469   4.953   0.322   6.755
 6857SOL    HW121470   5.050   0.340   6.740
 6857SOL    HW221471   4.938   0.296   6.851
 6858SOL     OW21472   3.494   2.783   6.858
 6858SOL    HW121473   3.423   2.745   6.798
 6858SOL    HW221474   3.468   2.876   6.885
 6859SOL     OW21475   4.392   0.712   0.309
 6859SOL    HW121476   4.421   0.674   0.222
 6859SOL    HW221477   4.436   0.801   0.322
 6860SOL     OW21478   4.869   3.472   0.023
 6860SOL    HW121479   4.888   3.521   6.964
 6860SOL    HW221480   4.839   3.537   0.092
 6861SOL     OW21481   6.045   3.676   0.377
 6861SOL    HW121482   6.062   3.723   0.464
 6861SOL    HW221483   6.126   3.623   0.352
 6862SOL     OW21484   2.507   4.560   4.725
 6862SOL    HW121485   2.478   4.517   4.811
 6862SOL    HW221486   2.427   4.574   4.667
 6863SOL     OW21487   1.141   3.283   3.739
 6863SOL    HW121488   1.058   3.339   3.730
 6863SOL    HW221489   1.146   3.217   3.664
 6864SOL     OW21490   3.736   5.582   6.229
 6864SOL    HW121491   3.675   5.661   6.228
 6864SOL    HW221492   3.696   5.507   6.177
 6865SOL     OW21493   0.818   2.977   4.535
 6865SOL    HW121494   0.806   3.057   4.475
 6865SOL    HW221495   0.907   2.935   4.517
 6866SOL     OW21496   0.896   3.926   2.569
 6866SOL    HW121497   0.804   3.903   2.602
 6866SOL    HW221498   0.898   3.918   2.469
 6867SOL     OW21499   2.286   5.635   3.586
 6867SOL    HW121500   2.196   5.601   3.558
 6867SOL    HW221501   2.289   5.735   3.575
 6868SOL     OW21502   2.006   5.810   4.848
 6868SOL    HW121503   2.016   5.714   4.871
 6868SOL    HW221504   1.941   5.820   4.773
 6869SOL     OW21505   0.369   2.888   5.124
 6869SOL    HW121506   0.344   2.933   5.210
 6869SOL    HW221507   0.379   2.957   5.052
 6870SOL     OW21508   5.168   3.667   3.259
 6870SOL    HW121509   5.211   3.757   3.256
 6870SOL    HW221510   5.208   3.609   3.188
 6871SOL     OW21511   4.689   5.847   1.479
 6871SOL    HW121512   4.669   5.793   1.397
 6871SOL    HW221513   4.733   5.789   1.547
 6872SOL     OW21514   3.654   4.376   0.832
 6872SOL    HW121515   3.619   4.463   0.867
 6872SOL    HW221516   3.597   4.345   0.756
 6873SOL     OW21517   5.722   4.598   4.642
 6873SOL    HW121518   5.797   4.534   4.622
 6873SOL    HW221519   5.655   4.553   4.700
 6874SOL     OW21520   0.740   1.855   6.035
 6874SOL    HW121521   0.771   1.806   6.117
 6874SOL    HW221522   0.640   1.855   6.032
 6875SOL     OW21523   4.185   0.696   4.631
 6875SOL    HW121524   4.250   0.625   4.604
 6875SOL    HW221525   4.129   0.663   4.707
 6876SOL     OW21526   3.286   5.874   4.726
 6876SOL    HW121527   3.292   5.971   4.750
 6876SOL    HW221528   3.316   5.860   4.632
 6877SOL     OW21529   1.907   3.442   6.480
 6877SOL    HW121530   1.824   3.396   6.511
 6877SOL    HW221531   1.987   3.395   6.516
 6878SOL     OW21532   1.208   1.347   4.772
 6878SOL    HW121533   1.245   1.256   4.752
 6878SOL    HW221534   1.114   1.337   4.806
 6879SOL     OW21535   6.658   0.651   5.227
 6879SOL    HW121536   6.599   0.729   5.206
 6879SOL    HW221537   6.752   0.672   5.200
 6880SOL     OW21538   1.147   4.251   4.917
 6880SOL    HW121539   1.183   4.231   5.008
 6880SOL    HW221540   1.166   4.173   4.856
 6881SOL     OW21541   5.236   5.734   1.596
 6881SOL    HW121542   5.286   5.712   1.680
 6881SOL    HW221543   5.271   5.820   1.559
 6882SOL     OW21544   2.413   5.784   5.536
 6882SOL    HW121545   2.499   5.831   5.517
 6882SOL    HW221546   2.409   5.699   5.482
 6883SOL     OW21547   3.525   6.244   2.203
 6883SOL    HW121548   3.519   6.241   2.303
 6883SOL    HW221549   3.582   6.321   2.175
 6884SOL     OW21550   1.848   4.780   2.258
 6884SOL    HW121551   1.897   4.867   2.263
 6884SOL    HW221552   1.757   4.792   2.298
 6885SOL     OW21553   4.291   4.767   4.993
 6885SOL    HW121554   4.196   4.782   4.964
 6885SOL    HW221555   4.300   4.676   5.033
 6886SOL     OW21556   5.405   1.149   1.592
 6886SOL    HW121557   5.340   1.092   1.543
 6886SOL    HW221558   5.492   1.100   1.600
 6887SOL     OW21559   6.033   0.886   4.963
 6887SOL    HW121560   6.098   0.933   4.903
 6887SOL    HW221561   5.969   0.833   4.907
 6888SOL     OW21562   5.750   0.086   4.017
 6888SOL    HW121563   5.843   0.048   4.022
 6888SOL    HW221564   5.731   0.138   4.101
 6889SOL     OW21565   2.205   4.028   6.646
 6889SOL    HW121566   2.182   3.942   6.600
 6889SOL    HW221567   2.121   4.069   6.682
 6890SOL     OW21568   1.891   0.327   1.465
 6890SOL    HW121569   1.901   0.293   1.371
 6890SOL    HW221570   1.972   0.380   1.490
 6891SOL     OW21571   4.262   5.466   6.117
 6891SOL    HW121572   4.302   5.537   6.175
 6891SOL    HW221573   4.307   5.379   6.135
 6892SOL     OW21574   3.461   1.660   4.400
 6892SOL    HW121575   3.381   1.705   4.360
 6892SOL    HW221576   3.431   1.602   4.477
 6893SOL     OW21577   4.975   0.015   1.361
 6893SOL    HW121578   4.961   0.082   1.288
 6893SOL    HW221579   4.912   6.965   1.347
 6894SOL     OW21580   5.807   4.747   6.070
 6894SOL    HW121581   5.719   4.788   6.047
 6894SOL    HW221582   5.827   4.762   6.167
 6895SOL     OW21583   4.274   5.467   5.626
 6895SOL    HW121584   4.315   5.498   5.712
 6895SOL    HW221585   4.332   5.494   5.550
 6896SOL     OW21586   4.826   1.697   2.550
 6896SOL    HW121587   4.893   1.767   2.524
 6896SOL    HW221588   4.763   1.682   2.474
 6897SOL     OW21589   3.980   0.620   1.157
 6897SOL    HW121590   3.907   0.645   1.220
 6897SOL    HW221591   3.958   0.652   1.065
 6898SOL     OW21592   4.115   1.605   2.471
 6898SOL    HW121593   4.215   1.607   2.476
 6898SOL    HW221594   4.085   1.630   2.379
 6899SOL     OW21595   5.557   5.612   6.119
 6899SOL    HW121596   5.648   5.645   6.145
 6899SOL    HW221597   5.487   5.675   6.153
 6900SOL     OW21598   4.504   0.215   6.146
 6900SOL    HW121599   4.506   0.180   6.239
 6900SOL    HW221600   4.416   0.259   6.128
 6901SOL     OW21601   2.309   0.811   0.266
 6901SOL    HW121602   2.241   0.862   0.214
 6901SOL    HW221603   2.377   0.874   0.304
 6902SOL     OW21604   6.803   5.637   2.587
 6902SOL    HW121605   6.849   5.641   2.676
 6902SOL    HW221606   6.737   5.561   2.587
 6903SOL     OW21607   5.021   4.382   0.139
 6903SOL    HW121608   5.008   4.476   0.171
 6903SOL    HW221609   5.110   4.349   0.170
 6904SOL     OW21610   0.624   0.547   2.706
 6904SOL    HW121611   0.640   0.449   2.695
 6904SOL    HW221612   0.535   0.562   2.748
 6905SOL     OW21613   3.380   5.462   1.081
 6905SOL    HW121614   3.362   5.392   1.012
 6905SOL    HW221615   3.421   5.542   1.038
 6906SOL     OW21616   6.000   5.876   3.061
 6906SOL    HW121617   6.087   5.903   3.104
 6906SOL    HW221618   5.938   5.955   3.061
 6907SOL     OW21619   3.623   0.456   1.334
 6907SOL    HW121620   3.665   0.547   1.343
 6907SOL    HW221621   3.531   0.466   1.297
 6908SOL     OW21622   5.200   6.769   7.018
 6908SOL    HW121623   5.281   6.736   6.970
 6908SOL    HW221624   5.176   6.861   6.985
 6909SOL     OW21625   2.027   2.142   0.235
 6909SOL    HW121626   1.990   2.180   0.150
 6909SOL    HW221627   2.123   2.118   0.221
 6910SOL     OW21628   5.414   1.301   0.985
 6910SOL    HW121629   5.338   1.329   0.926
 6910SOL    HW221630   5.379   1.280   1.076
 6911SOL     OW21631   4.543   0.294   4.705
 6911SOL    HW121632   4.461   0.285   4.761
 6911SOL    HW221633   4.599   0.370   4.739
 6912SOL     OW21634   4.265   4.836   2.058
 6912SOL    HW121635   4.347   4.893   2.062
 6912SOL    HW221636   4.290   4.744   2.027
 6913SOL     OW21637   4.824   5.900   5.205
 6913SOL    HW121638   4.860   5.984   5.165
 6913SOL    HW221639   4.884   5.869   5.278
 6914SOL     OW21640   6.452   4.794   0.086
 6914SOL    HW121641   6.415   4.708   0.121
 6914SOL    HW221642   6.430   4.803   7.016
 6915SOL     OW21643   0.256   6.528   0.824
 6915SOL    HW121644   0.315   6.608   0.836
 6915SOL    HW221645   0.168   6.557   0.787
 6916SOL     OW21646   6.056   0.697   5.615
 6916SOL    HW121647   5.985   0.713   5.547
 6916SOL    HW221648   6.097   0.607   5.601
 6917SOL     OW21649   4.182   7.025   5.503
 6917SOL    HW121650   4.113   7.026   5.430
 6917SOL    HW221651   4.165   6.947   5.564
 6918SOL     OW21652   2.311   2.417   3.495
 6918SOL    HW121653   2.232   2.450   3.546
 6918SOL    HW221654   2.385   2.484   3.500
 6919SOL     OW21655   1.300   5.675   3.837
 6919SOL    HW121656   1.304   5.578   3.863
 6919SOL    HW221657   1.284   5.682   3.738
 6920SOL     OW21658   5.398   5.903   3.828
 6920SOL    HW121659   5.376   5.885   3.732
 6920SOL    HW221660   5.459   5.832   3.862
 6921SOL     OW21661   1.300   5.530   3.607
 6921SOL    HW121662   1.256   5.446   3.640
 6921SOL    HW221663   1.397   5.513   3.591
 6922SOL     OW21664   2.046   6.630   1.076
 6922SOL    HW121665   2.105   6.660   1.002
 6922SOL    HW221666   1.986   6.557   1.044
 6923SOL     OW21667   4.639   5.449   3.538
 6923SOL    HW121668   4.575   5.448   3.462
 6923SOL    HW221669   4.687   5.361   3.543
 6924SOL     OW21670   6.262   5.945   1.948
 6924SOL    HW121671   6.347   5.940   1.895
 6924SOL    HW221672   6.184   5.949   1.885
 6925SOL     OW21673   4.971   5.152   2.442
 6925SOL    HW121674   5.056   5.141   2.390
 6925SOL    HW221675   4.907   5.208   2.391
 6926SOL     OW21676   2.657   3.701   5.495
 6926SOL    HW121677   2.719   3.774   5.523
 6926SOL    HW221678   2.573   3.707   5.549
 6927SOL     OW21679   3.963   3.873   0.542
 6927SOL    HW121680   3.964   3.919   0.631
 6927SOL    HW221681   3.887   3.908   0.487
 6928SOL     OW21682   6.973   0.646   6.649
 6928SOL    HW121683   6.978   0.711   6.725
 6928SOL    HW221684   6.912   0.683   6.578
 6929SOL     OW21685   3.201   5.505   2.020
 6929SOL    HW121686   3.229   5.557   2.101
 6929SOL    HW221687   3.240   5.414   2.024
 6930SOL     OW21688   0.278   0.462   3.180
 6930SOL    HW121689   0.218   0.520   3.125
 6930SOL    HW221690   0.240   0.369   3.182
 6931SOL     OW21691   2.215   0.191   0.341
 6931SOL    HW121692   2.284   0.248   0.385
 6931SOL    HW221693   2.194   0.228   0.250
 6932SOL     OW21694   2.538   2.549   0.563
 6932SOL    HW121695   2.589   2.602   0.495
 6932SOL    HW221696   2.471   2.491   0.516
 6933SOL     OW21697   2.260   6.169   4.864
 6933SOL    HW121698   2.347   6.218   4.860
 6933SOL    HW221699   2.277   6.070   4.856
 6934SOL     OW21700   5.213   5.196   6.491
 6934SOL    HW121701   5.299   5.248   6.499
 6934SOL    HW221702   5.136   5.258   6.505
 6935SOL     OW21703   4.298   5.809   3.167
 6935SOL    HW121704   4.271   5.713   3.167
 6935SOL    HW221705   4.396   5.816   3.148
 6936SOL     OW21706   0.346   4.574   0.951
 6936SOL    HW121707   0.417   4.641   0.974
 6936SOL    HW221708   0.273   4.619   0.900
 6937SOL     OW21709   4.396   6.151   5.920
 6937SOL    HW121710   4.318   6.181   5.865
 6937SOL    HW221711   4.417   6.055   5.900
 6938SOL     OW21712   6.005   2.893   4.960
 6938SOL    HW121713   5.916   2.901   5.006
 6938SOL    HW221714   5.995   2.835   4.879
 6939SOL     OW21715   6.729   5.016   1.359
 6939SOL    HW121716   6.754   4.919   1.365
 6939SOL    HW221717   6.749   5.061   1.446
 6940SOL     OW21718   4.382   0.519   4.531
 6940SOL    HW121719   4.473   0.538   4.567
 6940SOL    HW221720   4.377   0.549   4.436
 6941SOL     OW21721   3.664   2.878   4.605
 6941SOL    HW121722   3.730   2.907   4.675
 6941SOL    HW221723   3.580   2.846   4.649
 6942SOL     OW21724   5.945   1.558   0.081
 6942SOL    HW121725   5.860   1.611   0.078
 6942SOL    HW221726   6.004   1.593   0.152
 6943SOL     OW21727   6.180   5.356   6.463
 6943SOL    HW121728   6.268   5.310   6.467
 6943SOL    HW221729   6.168   5.413   6.545
 6944SOL     OW21730   1.188   6.768   0.168
 6944SOL    HW121731   1.229   6.779   0.077
 6944SOL    HW221732   1.190   6.672   0.194
 6945SOL     OW21733   4.490   1.764   6.145
 6945SOL    HW121734   4.567   1.828   6.154
 6945SOL    HW221735   4.444   1.755   6.233
 6946SOL     OW21736   6.509   4.298   3.286
 6946SOL    HW121737   6.604   4.326   3.274
 6946SOL    HW221738   6.458   4.315   3.201
 6947SOL     OW21739   3.698   6.697   1.010
 6947SOL    HW121740   3.657   6.710   1.099
 6947SOL    HW221741   3.786   6.650   1.020
 6948SOL     OW21742   3.138   2.464   5.616
 6948SOL    HW121743   3.171   2.407   5.540
 6948SOL    HW221744   3.051   2.505   5.591
 6949SOL     OW21745   5.190   0.622   2.308
 6949SOL    HW121746   5.139   0.702   2.277
 6949SOL    HW221747   5.150   0.588   2.393
 6950SOL     OW21748   3.409   1.391   2.871
 6950SOL    HW121749   3.478   1.464   2.872
 6950SOL    HW221750   3.409   1.345   2.959
 6951SOL     OW21751   4.748   4.856   5.551
 6951SOL    HW121752   4.714   4.885   5.462
 6951SOL    HW221753   4.688   4.785   5.589
 6952SOL     OW21754   0.191   3.760   6.020
 6952SOL    HW121755   0.269   3.802   6.066
 6952SOL    HW221756   0.222   3.716   5.936
 6953SOL     OW21757   4.863   2.447   4.697
 6953SOL    HW121758   4.804   2.525   4.674
 6953SOL    HW221759   4.829   2.366   4.649
 6954SOL     OW21760   0.058   4.665   2.055
 6954SOL    HW121761   0.122   4.590   2.070
 6954SOL    HW221762   6.994   4.639   2.089
 6955SOL     OW21763   6.531   0.401   3.332
 6955SOL    HW121764   6.565   0.490   3.361
 6955SOL    HW221765   6.567   0.330   3.394
 6956SOL     OW21766   2.787   4.199   1.035
 6956SOL    HW121767   2.858   4.180   1.103
 6956SOL    HW221768   2.758   4.114   0.992
 6957SOL     OW21769   0.691   4.537   0.274
 6957SOL    HW121770   0.681   4.442   0.304
 6957SOL    HW221771   0.784   4.550   0.239
 6958SOL     OW21772   2.409   3.962   6.161
 6958SOL    HW121773   2.313   3.939   6.145
 6958SOL    HW221774   2.467   3.890   6.124
 6959SOL     OW21775   3.572   1.181   4.752
 6959SOL    HW121776   3.647   1.183   4.817
 6959SOL    HW221777   3.565   1.269   4.705
 6960SOL     OW21778   0.615   5.647   7.023
 6960SOL    HW121779   0.603   5.720   0.063
 6960SOL    HW221780   0.529   5.598   7.010
 6961SOL     OW21781   6.531   1.413   3.397
 6961SOL    HW121782   6.454   1.368   3.441
 6961SOL    HW221783   6.614   1.360   3.412
 6962SOL     OW21784   3.859   4.037   1.108
 6962SOL    HW121785   3.852   4.123   1.056
 6962SOL    HW221786   3.806   4.045   1.192
 6963SOL     OW21787   6.359   6.179   2.010
 6963SOL    HW121788   6.422   6.166   2.087
 6963SOL    HW221789   6.314   6.092   1.989
 6964SOL     OW21790   3.141   6.015   5.980
 6964SOL    HW121791   3.049   6.041   5.950
 6964SOL    HW221792   3.183   6.090   6.030
 6965SOL     OW21793   6.187   1.816   5.459
 6965SOL    HW121794   6.150   1.774   5.542
 6965SOL    HW221795   6.182   1.916   5.467
 6966SOL     OW21796   5.065   2.230   3.938
 6966SOL    HW121797   5.115   2.151   3.974
 6966SOL    HW221798   5.086   2.311   3.993
 6967SOL     OW21799   2.903   2.539   6.301
 6967SOL    HW121800   2.931   2.597   6.224
 6967SOL    HW221801   2.809   2.509   6.287
 6968SOL     OW21802   4.259   6.960   3.932
 6968SOL    HW121803   4.334   6.895   3.944
 6968SOL    HW221804   4.209   6.938   3.849
 6969SOL     OW21805   3.190   3.547   0.966
 6969SOL    HW121806   3.210   3.498   1.051
 6969SOL    HW221807   3.179   3.481   0.891
 6970SOL     OW21808   5.153   4.212   0.472
 6970SOL    HW121809   5.183   4.123   0.508
 6970SOL    HW221810   5.099   4.198   0.390
 6971SOL     OW21811   6.208   1.685   2.455
 6971SOL    HW121812   6.200   1.616   2.527
 6971SOL    HW221813   6.219   1.776   2.496
 6972SOL     OW21814   5.552   4.881   4.334
 6972SOL    HW121815   5.611   4.926   4.402
 6972SOL    HW221816   5.603   4.870   4.249
 6973SOL     OW21817   1.223   4.710   4.326
 6973SOL    HW121818   1.234   4.713   4.426
 6973SOL    HW221819   1.205   4.616   4.298
 6974SOL     OW21820   3.591   4.242   5.219
 6974SOL    HW121821   3.529   4.178   5.266
 6974SOL    HW221822   3.561   4.335   5.237
 6975SOL     OW21823   3.049   6.880   6.025
 6975SOL    HW121824   3.018   6.795   6.069
 6975SOL    HW221825   3.086   6.942   6.094
 6976SOL     OW21826   1.131   5.897   0.393
 6976SOL    HW121827   1.107   5.918   0.298
 6976SOL    HW221828   1.048   5.871   0.443
 6977SOL     OW21829   4.830   2.850   2.149
 6977SOL    HW121830   4.779   2.930   2.116
 6977SOL    HW221831   4.827   2.847   2.249
 6978SOL     OW21832   4.412   2.139   3.904
 6978SOL    HW121833   4.492   2.152   3.845
 6978SOL    HW221834   4.330   2.132   3.849
 6979SOL     OW21835   0.342   3.661   3.962
 6979SOL    HW121836   0.293   3.663   4.049
 6979SOL    HW221837   0.436   3.692   3.976
 6980SOL     OW21838   4.488   1.277   4.456
 6980SOL    HW121839   4.505   1.235   4.545
 6980SOL    HW221840   4.562   1.253   4.393
 6981SOL     OW21841   3.061   3.444   6.827
 6981SOL    HW121842   3.121   3.385   6.882
 6981SOL    HW221843   2.995   3.387   6.777
 6982SOL     OW21844   0.454   0.041   4.902
 6982SOL    HW121845   0.383   0.106   4.876
 6982SOL    HW221846   0.415   6.995   4.958
 6983SOL     OW21847   6.033   1.307   3.098
 6983SOL    HW121848   6.034   1.260   3.010
 6983SOL    HW221849   6.127   1.331   3.123
 6984SOL     OW21850   1.837   1.374   6.238
 6984SOL    HW121851   1.894   1.292   6.236
 6984SOL    HW221852   1.890   1.451   6.273
 6985SOL     OW21853   4.770   0.028   3.908
 6985SOL    HW121854   4.724   0.075   3.984
 6985SOL    HW221855   4.779   0.091   3.831
 6986SOL     OW21856   1.887   6.627   5.298
 6986SOL    HW121857   1.842   6.667   5.379
 6986SOL    HW221858   1.829   6.641   5.218
 6987SOL     OW21859   6.891   2.941   6.565
 6987SOL    HW121860   6.873   2.922   6.469
 6987SOL    HW221861   6.937   3.030   6.573
 6988SOL     OW21862   5.472   1.809   5.973
 6988SOL    HW121863   5.441   1.714   5.970
 6988SOL    HW221864   5.554   1.815   6.030
 6989SOL     OW21865   2.168   3.196   3.807
 6989SOL    HW121866   2.152   3.289   3.774
 6989SOL    HW221867   2.160   3.132   3.731
 6990SOL     OW21868   3.872   3.519   0.978
 6990SOL    HW121869   3.939   3.461   0.931
 6990SOL    HW221870   3.916   3.562   1.057
 6991SOL     OW21871   4.046   4.682   5.294
 6991SOL    HW121872   4.043   4.751   5.221
 6991SOL    HW221873   3.985   4.606   5.271
 6992SOL     OW21874   6.708   6.642   4.448
 6992SOL    HW121875   6.640   6.631   4.375
 6992SOL    HW221876   6.800   6.630   4.409
 6993SOL     OW21877   0.638   6.860   2.743
 6993SOL    HW121878   0.590   6.933   2.792
 6993SOL    HW221879   0.577   6.819   2.675
 6994SOL     OW21880   1.170   2.310   6.859
 6994SOL    HW121881   1.157   2.354   6.948
 6994SOL    HW221882   1.268   2.305   6.838
 6995SOL     OW21883   0.812   5.257   4.345
 6995SOL    HW121884   0.780   5.350   4.327
 6995SOL    HW221885   0.908   5.249   4.316
 6996SOL     OW21886   1.892   0.180   6.179
 6996SOL    HW121887   1.794   0.183   6.200
 6996SOL    HW221888   1.920   0.085   6.164
 6997SOL     OW21889   4.738   5.156   4.520
 6997SOL    HW121890   4.747   5.168   4.421
 6997SOL    HW221891   4.713   5.062   4.540
 6998SOL     OW21892   3.003   1.866   2.610
 6998SOL    HW121893   2.918   1.908   2.578
 6998SOL    HW221894   2.984   1.810   2.691
 6999SOL     OW21895   5.542   2.387   0.094
 6999SOL    HW121896   5.482   2.307   0.097
 6999SOL    HW221897   5.496   2.465   0.136
 7000SOL     OW21898   6.846   0.276   1.695
 7000SOL    HW121899   6.864   0.374   1.686
 7000SOL    HW221900   6.797   0.259   1.780
 7001SOL     OW21901   3.294   1.593   6.590
 7001SOL    HW121902   3.366   1.629   6.650
 7001SOL    HW221903   3.220   1.554   6.644
 7002SOL     OW21904   2.119   4.990   2.429
 7002SOL    HW121905   2.033   4.983   2.378
 7002SOL    HW221906   2.171   4.905   2.417
 7003SOL     OW21907   1.912   6.417   5.794
 7003SOL    HW121908   1.817   6.446   5.780
 7003SOL    HW221909   1.940   6.357   5.718
 7004SOL     OW21910   1.628   3.966   7.012
 7004SOL    HW121911   1.664   3.913   6.935
 7004SOL    HW221912   1.704   4.005   0.038
 7005SOL     OW21913   6.854   6.789   5.853
 7005SOL    HW121914   6.950   6.804   5.827
 7005SOL    HW221915   6.851   6.737   5.938
 7006SOL     OW21916   4.623   4.848   3.988
 7006SOL    HW121917   4.621   4.793   4.072
 7006SOL    HW221918   4.656   4.792   3.912
 7007SOL     OW21919   4.748   5.287   2.303
 7007SOL    HW121920   4.692   5.210   2.335
 7007SOL    HW221921   4.689   5.365   2.283
 7008SOL     OW21922   1.149   5.444   4.037
 7008SOL    HW121923   1.092   5.371   4.072
 7008SOL    HW221924   1.192   5.493   4.114
 7009SOL     OW21925   6.734   3.944   1.806
 7009SOL    HW121926   6.784   3.879   1.748
 7009SOL    HW221927   6.640   3.911   1.820
 7010SOL     OW21928   5.526   4.833   6.067
 7010SOL    HW121929   5.463   4.897   6.112
 7010SOL    HW221930   5.474   4.755   6.032
 7011SOL     OW21931   0.934   0.996   5.296
 7011SOL    HW121932   1.015   1.055   5.294
 7011SOL    HW221933   0.960   0.904   5.264
 7012SOL     OW21934   1.262   1.040   1.689
 7012SOL    HW121935   1.215   1.063   1.775
 7012SOL    HW221936   1.330   0.969   1.707
 7013SOL     OW21937   6.709   1.995   1.829
 7013SOL    HW121938   6.774   2.070   1.842
 7013SOL    HW221939   6.751   1.909   1.857
 7014SOL     OW21940   2.380   5.250   0.768
 7014SOL    HW121941   2.324   5.331   0.751
 7014SOL    HW221942   2.424   5.221   0.683
 7015SOL     OW21943   4.747   1.953   2.778
 7015SOL    HW121944   4.840   1.936   2.744
 7015SOL    HW221945   4.732   2.052   2.783
 7016SOL     OW21946   4.295   4.373   1.593
 7016SOL    HW121947   4.377   4.400   1.643
 7016SOL    HW221948   4.279   4.275   1.605
 7017SOL     OW21949   5.114   1.572   5.354
 7017SOL    HW121950   5.131   1.670   5.356
 7017SOL    HW221951   5.022   1.554   5.319
 7018SOL     OW21952   0.543   3.079   2.975
 7018SOL    HW121953   0.468   3.108   2.915
 7018SOL    HW221954   0.597   3.008   2.930
 7019SOL     OW21955   1.085   6.165   1.215
 7019SOL    HW121956   0.999   6.148   1.263
 7019SOL    HW221957   1.126   6.249   1.250
 7020SOL     OW21958   0.348   5.631   6.933
 7020SOL    HW121959   0.309   5.722   6.950
 7020SOL    HW221960   0.308   5.565   6.996
 7021SOL     OW21961   3.533   6.859   6.198
 7021SOL    HW121962   3.522   6.951   6.160
 7021SOL    HW221963   3.473   6.795   6.149
 7022SOL     OW21964   4.375   5.487   5.867
 7022SOL    HW121965   4.327   5.483   5.955
 7022SOL    HW221966   4.423   5.401   5.851
 7023SOL     OW21967   4.968   4.126   2.607
 7023SOL    HW121968   4.892   4.132   2.543
 7023SOL    HW221969   4.934   4.133   2.701
 7024SOL     OW21970   6.079   6.812   1.410
 7024SOL    HW121971   6.115   6.905   1.421
 7024SOL    HW221972   5.981   6.812   1.434
 7025SOL     OW21973   2.654   0.222   0.737
 7025SOL    HW121974   2.664   0.228   0.836
 7025SOL    HW221975   2.739   0.188   0.696
 7026SOL     OW21976   3.961   2.018   1.119
 7026SOL    HW121977   3.900   2.029   1.041
 7026SOL    HW221978   3.908   1.987   1.198
 7027SOL     OW21979   5.760   5.882   4.177
 7027SOL    HW121980   5.759   5.876   4.077
 7027SOL    HW221981   5.850   5.912   4.207
 7028SOL     OW21982   2.862   0.529   4.607
 7028SOL    HW121983   2.946   0.576   4.632
 7028SOL    HW221984   2.825   0.569   4.523
 7029SOL     OW21985   4.179   1.155   4.504
 7029SOL    HW121986   4.190   1.188   4.410
 7029SOL    HW221987   4.214   1.224   4.567
 7030SOL     OW21988   1.697   3.163   3.986
 7030SOL    HW121989   1.780   3.216   4.004
 7030SOL    HW221990   1.636   3.215   3.926
 7031SOL     OW21991   1.408   0.935   4.474
 7031SOL    HW121992   1.323   0.889   4.500
 7031SOL    HW221993   1.485   0.872   4.483
 7032SOL     OW21994   6.155   2.385   3.580
 7032SOL    HW121995   6.085   2.355   3.645
 7032SOL    HW221996   6.199   2.306   3.538
 7033SOL     OW21997   1.018   0.146   5.697
 7033SOL    HW121998   1.026   0.188   5.607
 7033SOL    HW221999   0.944   0.079   5.697
 7034SOL     OW22000   0.424   5.244   3.538
 7034SOL    HW122001   0.367   5.312   3.492
 7034SOL    HW222002   0.366   5.169   3.570
 7035SOL     OW22003   6.654   5.081   1.937
 7035SOL    HW122004   6.732   5.031   1.974
 7035SOL    HW222005   6.581   5.017   1.913
 7036SOL     OW22006   5.813   4.884   0.814
 7036SOL    HW122007   5.757   4.952   0.860
 7036SOL    HW222008   5.838   4.918   0.723
 7037SOL     OW22009   1.618   0.281   6.454
 7037SOL    HW122010   1.671   0.357   6.490
 7037SOL    HW222011   1.588   0.223   6.529
 7038SOL     OW22012   2.070   3.163   4.327
 7038SOL    HW122013   2.063   3.156   4.426
 7038SOL    HW222014   2.095   3.256   4.301
 7039SOL     OW22015   3.276   2.222   6.850
 7039SOL    HW122016   3.257   2.147   6.914
 7039SOL    HW222017   3.237   2.200   6.761
 7040SOL     OW22018   5.336   2.778   6.764
 7040SOL    HW122019   5.384   2.839   6.701
 7040SOL    HW222020   5.330   2.822   6.854
 7041SOL     OW22021   2.361   1.562   3.612
 7041SOL    HW122022   2.321   1.637   3.558
 7041SOL    HW222023   2.450   1.591   3.647
 7042SOL     OW22024   1.462   0.773   6.618
 7042SOL    HW122025   1.556   0.771   6.585
 7042SOL    HW222026   1.428   0.679   6.627
 7043SOL     OW22027   1.707   2.221   2.244
 7043SOL    HW122028   1.627   2.182   2.198
 7043SOL    HW222029   1.685   2.242   2.339
 7044SOL     OW22030   6.695   6.486   1.775
 7044SOL    HW122031   6.669   6.500   1.871
 7044SOL    HW222032   6.786   6.445   1.771
 7045SOL     OW22033   6.703   4.978   0.028
 7045SOL    HW122034   6.680   5.075   0.026
 7045SOL    HW222035   6.624   4.925   0.057
 7046SOL     OW22036   3.493   1.803   3.512
 7046SOL    HW122037   3.560   1.746   3.464
 7046SOL    HW222038   3.456   1.871   3.448
 7047SOL     OW22039   1.682   0.115   2.902
 7047SOL    HW122040   1.770   0.074   2.928
 7047SOL    HW222041   1.657   0.084   2.811
 7048SOL     OW22042   6.907   5.852   0.394
 7048SOL    HW122043   6.968   5.925   0.423
 7048SOL    HW222044   6.930   5.767   0.442
 7049SOL     OW22045   2.395   1.208   6.603
 7049SOL    HW122046   2.336   1.137   6.566
 7049SOL    HW222047   2.410   1.192   6.701
 7050SOL     OW22048   4.220   3.848   5.237
 7050SOL    HW122049   4.305   3.889   5.272
 7050SOL    HW222050   4.179   3.792   5.309
 7051SOL     OW22051   6.509   6.770   3.131
 7051SOL    HW122052   6.588   6.763   3.192
 7051SOL    HW222053   6.439   6.828   3.173
 7052SOL     OW22054   0.057   0.076   5.655
 7052SOL    HW122055   0.120   0.148   5.626
 7052SOL    HW222056   0.067   7.023   5.596
 7053SOL     OW22057   6.784   3.750   5.728
 7053SOL    HW122058   6.835   3.784   5.808
 7053SOL    HW222059   6.752   3.828   5.674
 7054SOL     OW22060   6.363   1.659   1.830
 7054SOL    HW122061   6.327   1.742   1.788
 7054SOL    HW222062   6.287   1.597   1.851
 7055SOL     OW22063   4.312   1.266   4.107
 7055SOL    HW122064   4.379   1.331   4.142
 7055SOL    HW222065   4.339   1.173   4.130
 7056SOL     OW22066   4.639   5.341   3.949
 7056SOL    HW122067   4.605   5.398   3.874
 7056SOL    HW222068   4.580   5.351   4.029
 7057SOL     OW22069   6.203   5.748   2.732
 7057SOL    HW122070   6.209   5.648   2.732
 7057SOL    HW222071   6.169   5.779   2.643
 7058SOL     OW22072   6.911   4.430   4.416
 7058SOL    HW122073   6.976   4.505   4.411
 7058SOL    HW222074   6.882   4.404   4.324
 7059SOL     OW22075   1.802   1.521   2.768
 7059SOL    HW122076   1.902   1.525   2.768
 7059SOL    HW222077   1.765   1.613   2.774
 7060SOL     OW22078   2.856   6.649   1.015
 7060SOL    HW122079   2.851   6.635   1.114
 7060SOL    HW222080   2.849   6.560   0.969
 7061SOL     OW22081   0.130   0.585   2.983
 7061SOL    HW122082   0.123   0.666   3.042
 7061SOL    HW222083   0.118   0.613   2.888
 7062SOL     OW22084   6.407   1.249   5.205
 7062SOL    HW122085   6.321   1.202   5.223
 7062SOL    HW222086   6.463   1.249   5.288
 7063SOL     OW22087   2.074   6.629   2.587
 7063SOL    HW122088   2.170   6.605   2.570
 7063SOL    HW222089   2.041   6.686   2.513
 7064SOL     OW22090   3.912   2.743   0.185
 7064SOL    HW122091   4.008   2.769   0.180
 7064SOL    HW222092   3.905   2.648   0.217
 7065SOL     OW22093   3.312   3.837   2.171
 7065SOL    HW122094   3.219   3.871   2.181
 7065SOL    HW222095   3.372   3.885   2.235
 7066SOL     OW22096   2.420   5.274   1.324
 7066SOL    HW122097   2.415   5.328   1.240
 7066SOL    HW222098   2.436   5.335   1.402
 7067SOL     OW22099   0.380   4.431   4.474
 7067SOL    HW122100   0.425   4.447   4.386
 7067SOL    HW222101   0.415   4.496   4.542
 7068SOL     OW22102   0.244   0.356   2.706
 7068SOL    HW122103   0.159   0.392   2.668
 7068SOL    HW222104   0.286   0.425   2.765
 7069SOL     OW22105   1.460   4.932   5.292
 7069SOL    HW122106   1.471   5.016   5.344
 7069SOL    HW222107   1.510   4.858   5.337
 7070SOL     OW22108   5.633   5.315   3.486
 7070SOL    HW122109   5.685   5.266   3.556
 7070SOL    HW222110   5.566   5.375   3.530
 7071SOL     OW22111   2.011   6.872   5.341
 7071SOL    HW122112   2.007   6.892   5.243
 7071SOL    HW222113   1.993   6.775   5.356
 7072SOL     OW22114   0.606   0.203   6.887
 7072SOL    HW122115   0.657   0.269   6.831
 7072SOL    HW222116   0.623   0.222   6.983
 7073SOL     OW22117   1.928   1.934   6.209
 7073SOL    HW122118   1.930   2.030   6.183
 7073SOL    HW222119   2.016   1.891   6.186
 7074SOL     OW22120   3.588   1.379   6.867
 7074SOL    HW122121   3.513   1.440   6.891
 7074SOL    HW222122   3.639   1.354   6.949
 7075SOL     OW22123   0.797   5.814   2.501
 7075SOL    HW122124   0.731   5.846   2.434
 7075SOL    HW222125   0.850   5.891   2.537
 7076SOL     OW22126   3.731   1.669   5.845
 7076SOL    HW122127   3.821   1.643   5.881
 7076SOL    HW222128   3.660   1.618   5.893
 7077SOL     OW22129   1.545   4.988   6.603
 7077SOL    HW122130   1.603   4.967   6.682
 7077SOL    HW222131   1.571   4.929   6.526
 7078SOL     OW22132   6.708   0.810   2.088
 7078SOL    HW122133   6.665   0.885   2.138
 7078SOL    HW222134   6.769   0.759   2.149
 7079SOL     OW22135   5.430   5.814   5.058
 7079SOL    HW122136   5.365   5.824   4.982
 7079SOL    HW222137   5.523   5.813   5.022
 7080SOL     OW22138   5.862   0.446   4.064
 7080SOL    HW122139   5.802   0.388   4.120
 7080SOL    HW222140   5.890   0.526   4.117
 7081SOL     OW22141   5.107   0.684   4.844
 7081SOL    HW122142   5.144   0.591   4.842
 7081SOL    HW222143   5.094   0.712   4.939
 7082SOL     OW22144   5.871   1.257   0.461
 7082SOL    HW122145   5.937   1.316   0.507
 7082SOL    HW222146   5.819   1.311   0.394
 7083SOL     OW22147   3.504   0.408   5.756
 7083SOL    HW122148   3.543   0.495   5.787
 7083SOL    HW222149   3.507   0.342   5.831
 7084SOL     OW22150   6.165   6.011   0.605
 7084SOL    HW122151   6.189   6.108   0.599
 7084SOL    HW222152   6.066   6.002   0.617
 7085SOL     OW22153   3.892   1.439   1.325
 7085SOL    HW122154   3.965   1.444   1.393
 7085SOL    HW222155   3.921   1.485   1.241
 7086SOL     OW22156   1.494   1.079   6.275
 7086SOL    HW122157   1.521   1.156   6.218
 7086SOL    HW222158   1.398   1.091   6.303
 7087SOL     OW22159   2.280   2.727   5.013
 7087SOL    HW122160   2.305   2.819   5.044
 7087SOL    HW222161   2.312   2.713   4.919
 7088SOL     OW22162   0.276   2.300   5.296
 7088SOL    HW122163   0.209   2.228   5.279
 7088SOL    HW222164   0.348   2.264   5.356
 7089SOL     OW22165   3.057   1.909   1.530
 7089SOL    HW122166   3.008   1.996   1.525
 7089SOL    HW222167   3.085   1.893   1.625
 7090SOL     OW22168   2.240   2.220   5.412
 7090SOL    HW122169   2.161   2.196   5.355
 7090SOL    HW222170   2.246   2.158   5.490
 7091SOL     OW22171   6.707   6.743   0.600
 7091SOL    HW122172   6.790   6.690   0.583
 7091SOL    HW222173   6.712   6.829   0.549
 7092SOL     OW22174   2.824   2.123   0.832
 7092SOL    HW122175   2.757   2.159   0.767
 7092SOL    HW222176   2.916   2.155   0.807
 7093SOL     OW22177   4.140   2.985   6.114
 7093SOL    HW122178   4.126   2.961   6.210
 7093SOL    HW222179   4.055   3.023   6.076
 7094SOL     OW22180   6.378   0.923   5.732
 7094SOL    HW122181   6.430   0.840   5.715
 7094SOL    HW222182   6.416   0.998   5.677
 7095SOL     OW22183   0.478   4.064   0.656
 7095SOL    HW122184   0.390   4.086   0.698
 7095SOL    HW222185   0.520   3.989   0.706
 7096SOL     OW22186   4.618   6.898   2.564
 7096SOL    HW122187   4.661   6.831   2.625
 7096SOL    HW222188   4.648   6.990   2.589
 7097SOL     OW22189   1.765   1.526   1.767
 7097SOL    HW122190   1.792   1.435   1.799
 7097SOL    HW222191   1.817   1.595   1.817
 7098SOL     OW22192   1.206   0.646   6.205
 7098SOL    HW122193   1.188   0.568   6.145
 7098SOL    HW222194   1.301   0.643   6.236
 7099SOL     OW22195   6.918   0.973   5.293
 7099SOL    HW122196   6.918   0.942   5.198
 7099SOL    HW222197   6.977   0.914   5.347
 7100SOL     OW22198   5.485   1.666   1.316
 7100SOL    HW122199   5.391   1.697   1.332
 7100SOL    HW222200   5.512   1.604   1.389
 7101SOL     OW22201   1.489   0.522   4.069
 7101SOL    HW122202   1.416   0.589   4.058
 7101SOL    HW222203   1.461   0.452   4.134
 7102SOL     OW22204   4.822   3.075   0.490
 7102SOL    HW122205   4.760   3.012   0.443
 7102SOL    HW222206   4.864   3.136   0.424
 7103SOL     OW22207   2.959   0.046   5.779
 7103SOL    HW122208   2.951   0.142   5.807
 7103SOL    HW222209   3.004   7.020   5.851
 7104SOL     OW22210   0.869   2.666   1.949
 7104SOL    HW122211   0.808   2.598   1.990
 7104SOL    HW222212   0.919   2.713   2.022
 7105SOL     OW22213   2.067   3.720   5.549
 7105SOL    HW122214   2.156   3.692   5.585
 7105SOL    HW222215   2.037   3.656   5.478
 7106SOL     OW22216   3.358   2.806   5.239
 7106SOL    HW122217   3.340   2.809   5.141
 7106SOL    HW222218   3.371   2.712   5.268
 7107SOL     OW22219   1.598   1.652   0.832
 7107SOL    HW122220   1.524   1.585   0.828
 7107SOL    HW222221   1.625   1.677   0.739
 7108SOL     OW22222   4.352   6.622   1.861
 7108SOL    HW122223   4.333   6.719   1.850
 7108SOL    HW222224   4.266   6.572   1.872
 7109SOL     OW22225   4.145   5.912   6.621
 7109SOL    HW122226   4.052   5.926   6.585
 7109SOL    HW222227   4.155   5.818   6.651
 7110SOL     OW22228   3.219   4.890   4.251
 7110SOL    HW122229   3.317   4.871   4.242
 7110SOL    HW222230   3.205   4.989   4.253
 7111SOL     OW22231   1.380   2.773   3.450
 7111SOL    HW122232   1.396   2.772   3.548
 7111SOL    HW222233   1.342   2.862   3.423
 7112SOL     OW22234   1.706   6.407   3.095
 7112SOL    HW122235   1.701   6.475   3.022
 7112SOL    HW222236   1.750   6.447   3.175
 7113SOL     OW22237   3.485   3.380   5.171
 7113SOL    HW122238   3.418   3.313   5.139
 7113SOL    HW222239   3.507   3.362   5.267
 7114SOL     OW22240   3.640   6.657   0.520
 7114SOL    HW122241   3.593   6.665   0.608
 7114SOL    HW222242   3.586   6.600   0.458
 7115SOL     OW22243   3.933   2.159   1.518
 7115SOL    HW122244   3.917   2.237   1.457
 7115SOL    HW222245   4.012   2.178   1.576
 7116SOL     OW22246   6.103   4.053   2.889
 7116SOL    HW122247   6.122   4.045   2.986
 7116SOL    HW222248   6.173   4.004   2.837
 7117SOL     OW22249   6.085   6.736   2.636
 7117SOL    HW122250   6.138   6.807   2.683
 7117SOL    HW222251   6.088   6.752   2.537
 7118SOL     OW22252   6.768   3.063   3.052
 7118SOL    HW122253   6.804   3.010   2.975
 7118SOL    HW222254   6.836   3.129   3.082
 7119SOL     OW22255   1.059   2.029   3.019
 7119SOL    HW122256   1.093   2.104   3.076
 7119SOL    HW222257   1.092   2.041   2.925
 7120SOL     OW22258   4.536   5.834   2.704
 7120SOL    HW122259   4.587   5.872   2.627
 7120SOL    HW222260   4.449   5.882   2.713
 7121SOL     OW22261   2.487   6.601   1.179
 7121SOL    HW122262   2.416   6.573   1.243
 7121SOL    HW222263   2.572   6.617   1.228
 7122SOL     OW22264   6.730   6.573   0.202
 7122SOL    HW122265   6.759   6.586   0.107
 7122SOL    HW222266   6.776   6.494   0.240
 7123SOL     OW22267   2.759   5.577   0.836
 7123SOL    HW122268   2.855   5.589   0.864
 7123SOL    HW222269   2.712   5.665   0.843
 7124SOL     OW22270   0.231   6.126   6.532
 7124SOL    HW122271   0.310   6.084   6.488
 7124SOL    HW222272   0.160   6.143   6.464
 7125SOL     OW22273   0.379   6.426   3.520
 7125SOL    HW122274   0.283   6.433   3.494
 7125SOL    HW222275   0.436   6.467   3.449
 7126SOL     OW22276   1.701   4.058   1.276
 7126SOL    HW122277   1.644   4.107   1.342
 7126SOL    HW222278   1.765   4.123   1.232
 7127SOL     OW22279   2.361   0.394   4.569
 7127SOL    HW122280   2.285   0.407   4.506
 7127SOL    HW222281   2.401   0.483   4.592
 7128SOL     OW22282   3.067   3.725   1.879
 7128SOL    HW122283   3.097   3.796   1.942
 7128SOL    HW222284   2.996   3.761   1.819
 7129SOL     OW22285   2.406   1.795   1.050
 7129SOL    HW122286   2.346   1.844   1.113
 7129SOL    HW222287   2.351   1.742   0.985
 7130SOL     OW22288   2.394   0.267   2.905
 7130SOL    HW122289   2.337   0.262   2.823
 7130SOL    HW222290   2.352   0.329   2.971
 7131SOL     OW22291   3.276   1.537   3.580
 7131SOL    HW122292   3.209   1.575   3.643
 7131SOL    HW222293   3.341   1.608   3.553
 7132SOL     OW22294   3.146   3.998   1.925
 7132SOL    HW122295   3.175   3.998   1.829
 7132SOL    HW222296   3.092   4.080   1.943
 7133SOL     OW22297   6.006   4.306   2.311
 7133SOL    HW122298   6.050   4.241   2.248
 7133SOL    HW222299   6.022   4.277   2.405
 7134SOL     OW22300   5.370   4.775   2.458
 7134SOL    HW122301   5.402   4.681   2.456
 7134SOL    HW222302   5.411   4.826   2.382
 7135SOL     OW22303   0.261   2.099   6.113
 7135SOL    HW122304   0.204   2.173   6.078
 7135SOL    HW222305   0.356   2.116   6.088
 7136SOL     OW22306   1.812   2.124   6.814
 7136SOL    HW122307   1.848   2.181   6.739
 7136SOL    HW222308   1.714   2.141   6.823
 7137SOL     OW22309   4.888   1.952   5.043
 7137SOL    HW122310   4.944   1.992   4.970
 7137SOL    HW222311   4.851   2.024   5.101
 7138SOL     OW22312   2.192   2.486   0.009
 7138SOL    HW122313   2.220   2.470   0.103
 7138SOL    HW222314   2.212   2.581   7.011
 7139SOL     OW22315   2.771   1.383   0.551
 7139SOL    HW122316   2.757   1.338   0.462
 7139SOL    HW222317   2.762   1.482   0.540
 7140SOL     OW22318   6.793   4.064   4.689
 7140SOL    HW122319   6.755   4.114   4.767
 7140SOL    HW222320   6.731   3.989   4.664
 7141SOL     OW22321   0.971   6.794   1.813
 7141SOL    HW122322   0.991   6.847   1.730
 7141SOL    HW222323   0.908   6.720   1.791
 7142SOL     OW22324   3.453   6.598   3.640
 7142SOL    HW122325   3.409   6.554   3.718
 7142SOL    HW222326   3.540   6.552   3.620
 7143SOL     OW22327   2.459   2.238   4.066
 7143SOL    HW122328   2.411   2.303   4.126
 7143SOL    HW222329   2.503   2.168   4.122
 7144SOL     OW22330   1.223   3.077   3.544
 7144SOL    HW122331   1.282   3.125   3.480
 7144SOL    HW222332   1.127   3.088   3.517
 7145SOL     OW22333   4.211   5.875   5.934
 7145SOL    HW122334   4.151   5.797   5.917
 7145SOL    HW222335   4.255   5.902   5.848
 7146SOL     OW22336   3.268   5.218   2.058
 7146SOL    HW122337   3.338   5.264   2.113
 7146SOL    HW222338   3.309   5.143   2.008
 7147SOL     OW22339   0.048   0.994   3.644
 7147SOL    HW122340   0.117   0.967   3.577
 7147SOL    HW222341   0.093   1.028   3.726
 7148SOL     OW22342   0.131   1.508   0.752
 7148SOL    HW122343   0.161   1.513   0.656
 7148SOL    HW222344   0.211   1.506   0.811
 7149SOL     OW22345   0.612   0.751   4.756
 7149SOL    HW122346   0.638   0.818   4.825
 7149SOL    HW222347   0.680   0.750   4.683
 7150SOL     OW22348   6.097   3.716   6.226
 7150SOL    HW122349   6.126   3.677   6.313
 7150SOL    HW222350   5.998   3.733   6.227
 7151SOL     OW22351   2.448   7.024   0.600
 7151SOL    HW122352   2.374   0.058   0.629
 7151SOL    HW222353   2.526   0.007   0.662
 7152SOL     OW22354   1.228   2.391   4.420
 7152SOL    HW122355   1.159   2.381   4.491
 7152SOL    HW222356   1.293   2.462   4.447
 7153SOL     OW22357   4.178   1.960   2.805
 7153SOL    HW122358   4.132   1.895   2.866
 7153SOL    HW222359   4.191   1.918   2.715
 7154SOL     OW22360   3.728   6.535   4.944
 7154SOL    HW122361   3.779   6.542   5.030
 7154SOL    HW222362   3.657   6.605   4.942
 7155SOL     OW22363   2.637   1.637   3.237
 7155SOL    HW122364   2.557   1.589   3.201
 7155SOL    HW222365   2.658   1.602   3.328
 7156SOL     OW22366   1.874   5.713   5.611
 7156SOL    HW122367   1.870   5.634   5.550
 7156SOL    HW222368   1.933   5.692   5.689
 7157SOL     OW22369   5.406   4.051   0.502
 7157SOL    HW122370   5.503   4.029   0.491
 7157SOL    HW222371   5.398   4.142   0.544
 7158SOL     OW22372   4.329   6.933   3.622
 7158SOL    HW122373   4.340   6.881   3.537
 7158SOL    HW222374   4.409   6.917   3.681
 7159SOL     OW22375   0.815   5.443   0.036
 7159SOL    HW122376   0.784   5.388   0.114
 7159SOL    HW222377   0.746   5.512   0.015
 7160SOL     OW22378   6.526   0.489   1.503
 7160SOL    HW122379   6.546   0.391   1.500
 7160SOL    HW222380   6.428   0.502   1.514
 7161SOL     OW22381   4.046   3.855   4.476
 7161SOL    HW122382   4.061   3.932   4.537
 7161SOL    HW222383   3.964   3.805   4.505
 7162SOL     OW22384   3.567   4.972   4.316
 7162SOL    HW122385   3.538   4.937   4.405
 7162SOL    HW222386   3.518   5.057   4.296
 7163SOL     OW22387   1.274   6.433   3.463
 7163SOL    HW122388   1.221   6.424   3.379
 7163SOL    HW222389   1.361   6.476   3.442
 7164SOL     OW22390   2.480   2.153   4.606
 7164SOL    HW122391   2.567   2.172   4.561
 7164SOL    HW222392   2.498   2.107   4.693
 7165SOL     OW22393   4.899   5.787   2.034
 7165SOL    HW122394   4.824   5.733   1.995
 7165SOL    HW222395   4.964   5.811   1.962
 7166SOL     OW22396   3.785   5.987   2.100
 7166SOL    HW122397   3.848   5.918   2.063
 7166SOL    HW222398   3.719   6.013   2.029
 7167SOL     OW22399   5.175   3.524   6.673
 7167SOL    HW122400   5.162   3.511   6.575
 7167SOL    HW222401   5.238   3.454   6.707
 7168SOL     OW22402   0.988   1.577   3.855
 7168SOL    HW122403   0.906   1.621   3.819
 7168SOL    HW222404   1.064   1.643   3.855
 7169SOL     OW22405   2.088   2.721   6.665
 7169SOL    HW122406   1.989   2.723   6.651
 7169SOL    HW222407   2.111   2.771   6.749
 7170SOL     OW22408   5.742   4.531   3.674
 7170SOL    HW122409   5.711   4.468   3.745
 7170SOL    HW222410   5.671   4.598   3.655
 7171SOL     OW22411   3.990   3.634   5.328
 7171SOL    HW122412   3.992   3.577   5.246
 7171SOL    HW222413   3.952   3.582   5.404
 7172SOL     OW22414   0.304   6.531   1.532
 7172SOL    HW122415   0.397   6.534   1.569
 7172SOL    HW222416   0.256   6.452   1.570
 7173SOL     OW22417   6.364   6.402   4.535
 7173SOL    HW122418   6.414   6.355   4.608
 7173SOL    HW222419   6.270   6.417   4.564
 7174SOL     OW22420   1.062   6.164   6.010
 7174SOL    HW122421   1.076   6.135   6.105
 7174SOL    HW222422   1.005   6.097   5.963
 7175SOL     OW22423   6.128   3.821   5.960
 7175SOL    HW122424   6.131   3.737   5.906
 7175SOL    HW222425   6.134   3.799   6.057
 7176SOL     OW22426   0.481   3.027   1.775
 7176SOL    HW122427   0.399   3.010   1.830
 7176SOL    HW222428   0.528   2.940   1.757
 7177SOL     OW22429   0.765   5.274   1.912
 7177SOL    HW122430   0.697   5.283   1.839
 7177SOL    HW222431   0.730   5.212   1.983
 7178SOL     OW22432   6.481   0.978   6.888
 7178SOL    HW122433   6.417   0.902   6.878
 7178SOL    HW222434   6.567   0.956   6.843
 7179SOL     OW22435   1.682   4.450   6.274
 7179SOL    HW122436   1.676   4.522   6.205
 7179SOL    HW222437   1.669   4.361   6.230
 7180SOL     OW22438   6.983   6.825   2.673
 7180SOL    HW122439   7.020   6.792   2.760
 7180SOL    HW222440   6.932   6.752   2.628
 7181SOL     OW22441   5.871   5.885   2.566
 7181SOL    HW122442   5.810   5.861   2.490
 7181SOL    HW222443   5.899   5.981   2.556
 7182SOL     OW22444   4.302   3.335   5.719
 7182SOL    HW122445   4.262   3.287   5.640
 7182SOL    HW222446   4.398   3.307   5.728
 7183SOL     OW22447   1.709   3.548   3.426
 7183SOL    HW122448   1.734   3.583   3.516
 7183SOL    HW222449   1.616   3.512   3.428
 7184SOL     OW22450   2.479   5.892   3.580
 7184SOL    HW122451   2.477   5.847   3.669
 7184SOL    HW222452   2.556   5.956   3.577
 7185SOL     OW22453   4.275   2.694   6.809
 7185SOL    HW122454   4.368   2.656   6.803
 7185SOL    HW222455   4.234   2.667   6.895
 7186SOL     OW22456   0.733   6.587   4.910
 7186SOL    HW122457   0.825   6.547   4.903
 7186SOL    HW222458   0.703   6.584   5.005
 7187SOL     OW22459   1.281   5.745   1.039
 7187SOL    HW122460   1.211   5.733   1.109
 7187SOL    HW222461   1.371   5.752   1.083
 7188SOL     OW22462   5.239   0.042   2.111
 7188SOL    HW122463   5.192   0.019   2.196
 7188SOL    HW222464   5.267   0.138   2.113
 7189SOL     OW22465   6.267   0.878   5.356
 7189SOL    HW122466   6.241   0.783   5.371
 7189SOL    HW222467   6.352   0.882   5.304
 7190SOL     OW22468   4.265   5.051   2.779
 7190SOL    HW122469   4.218   4.968   2.810
 7190SOL    HW222470   4.199   5.114   2.740
 7191SOL     OW22471   0.756   2.921   1.900
 7191SOL    HW122472   0.803   2.833   1.901
 7191SOL    HW222473   0.678   2.919   1.963
 7192SOL     OW22474   3.514   4.413   6.746
 7192SOL    HW122475   3.545   4.325   6.780
 7192SOL    HW222476   3.466   4.401   6.659
 7193SOL     OW22477   5.492   1.482   4.399
 7193SOL    HW122478   5.559   1.538   4.350
 7193SOL    HW222479   5.426   1.541   4.444
 7194SOL     OW22480   3.140   1.585   1.567
 7194SOL    HW122481   3.239   1.581   1.554
 7194SOL    HW222482   3.113   1.678   1.592
 7195SOL     OW22483   0.325   6.369   2.314
 7195SOL    HW122484   0.288   6.385   2.406
 7195SOL    HW222485   0.250   6.352   2.250
 7196SOL     OW22486   3.715   3.320   1.315
 7196SOL    HW122487   3.719   3.301   1.217
 7196SOL    HW222488   3.642   3.265   1.356
 7197SOL     OW22489   1.229   0.960   4.239
 7197SOL    HW122490   1.278   0.918   4.163
 7197SOL    HW222491   1.285   0.956   4.322
 7198SOL     OW22492   0.039   6.673   6.265
 7198SOL    HW122493   0.071   6.675   6.360
 7198SOL    HW222494   0.021   6.766   6.234
 7199SOL     OW22495   6.160   5.864   2.468
 7199SOL    HW122496   6.069   5.880   2.506
 7199SOL    HW222497   6.152   5.853   2.369
 7200SOL     OW22498   1.741   1.886   2.385
 7200SOL    HW122499   1.833   1.923   2.371
 7200SOL    HW222500   1.747   1.796   2.429
 7201SOL     OW22501   2.291   4.661   3.745
 7201SOL    HW122502   2.239   4.738   3.707
 7201SOL    HW222503   2.288   4.664   3.845
 7202SOL     OW22504   3.151   0.355   5.962
 7202SOL    HW122505   3.205   0.433   5.993
 7202SOL    HW222506   3.207   0.297   5.902
 7203SOL     OW22507   5.840   0.214   0.091
 7203SOL    HW122508   5.914   0.215   0.024
 7203SOL    HW222509   5.854   0.139   0.156
 7204SOL     OW22510   6.285   2.139   3.205
 7204SOL    HW122511   6.281   2.233   3.173
 7204SOL    HW222512   6.307   2.078   3.129
 7205SOL     OW22513   1.571   4.485   1.553
 7205SOL    HW122514   1.601   4.487   1.648
 7205SOL    HW222515   1.584   4.576   1.512
 7206SOL     OW22516   6.158   1.487   1.799
 7206SOL    HW122517   6.082   1.483   1.734
 7206SOL    HW222518   6.129   1.450   1.887
 7207SOL     OW22519   4.275   6.916   1.829
 7207SOL    HW122520   4.266   7.005   1.873
 7207SOL    HW222521   4.200   6.903   1.764
 7208SOL     OW22522   2.839   0.541   5.282
 7208SOL    HW122523   2.812   0.591   5.365
 7208SOL    HW222524   2.932   0.506   5.293
 7209SOL     OW22525   2.887   3.622   4.505
 7209SOL    HW122526   2.797   3.606   4.465
 7209SOL    HW222527   2.947   3.661   4.435
 7210SOL     OW22528   4.442   6.788   4.000
 7210SOL    HW122529   4.520   6.787   4.063
 7210SOL    HW222530   4.418   6.693   3.977
 7211SOL     OW22531   0.656   4.831   2.022
 7211SOL    HW122532   0.727   4.888   2.062
 7211SOL    HW222533   0.637   4.754   2.082
 7212SOL     OW22534   4.851   6.305   3.065
 7212SOL    HW122535   4.950   6.300   3.048
 7212SOL    HW222536   4.828   6.397   3.096
 7213SOL     OW22537   5.144   6.393   5.094
 7213SOL    HW122538   5.064   6.367   5.148
 7213SOL    HW222539   5.202   6.312   5.080
 7214SOL     OW22540   1.027   4.834   5.575
 7214SOL    HW122541   0.999   4.797   5.663
 7214SOL    HW222542   1.122   4.864   5.580
 7215SOL     OW22543   1.202   2.980   2.018
 7215SOL    HW122544   1.160   2.949   1.933
 7215SOL    HW222545   1.298   3.001   2.003
 7216SOL     OW22546   3.212   2.103   2.250
 7216SOL    HW122547   3.244   2.112   2.156
 7216SOL    HW222548   3.120   2.141   2.259
 7217SOL     OW22549   0.755   3.507   2.151
 7217SOL    HW122550   0.703   3.589   2.175
 7217SOL    HW222551   0.691   3.437   2.119
 7218SOL     OW22552   6.210   2.666   4.941
 7218SOL    HW122553   6.225   2.654   4.843
 7218SOL    HW222554   6.298   2.670   4.988
 7219SOL     OW22555   3.324   1.255   1.287
 7219SOL    HW122556   3.406   1.197   1.286
 7219SOL    HW222557   3.290   1.261   1.381
 7220SOL     OW22558   6.676   1.805   3.005
 7220SOL    HW122559   6.670   1.894   3.049
 7220SOL    HW222560   6.669   1.733   3.074
 7221SOL     OW22561   6.389   4.036   5.541
 7221SOL    HW122562   6.363   4.024   5.637
 7221SOL    HW222563   6.307   4.034   5.484
 7222SOL     OW22564   6.915   6.959   3.536
 7222SOL    HW122565   6.980   6.978   3.610
 7222SOL    HW222566   6.921   0.004   3.467
 7223SOL     OW22567   4.897   0.633   4.674
 7223SOL    HW122568   4.974   0.655   4.735
 7223SOL    HW222569   4.912   0.675   4.585
 7224SOL     OW22570   5.942   1.499   3.372
 7224SOL    HW122571   6.031   1.538   3.350
 7224SOL    HW222572   5.934   1.408   3.330
 7225SOL     OW22573   2.585   0.461   1.598
 7225SOL    HW122574   2.617   0.533   1.660
 7225SOL    HW222575   2.524   0.501   1.529
 7226SOL     OW22576   6.173   6.592   5.016
 7226SOL    HW122577   6.163   6.688   5.041
 7226SOL    HW222578   6.148   6.580   4.920
 7227SOL     OW22579   6.888   2.256   6.031
 7227SOL    HW122580   6.823   2.332   6.036
 7227SOL    HW222581   6.845   2.174   6.069
 7228SOL     OW22582   2.169   0.900   3.398
 7228SOL    HW122583   2.234   0.966   3.438
 7228SOL    HW222584   2.192   0.885   3.302
 7229SOL     OW22585   0.307   0.104   3.551
 7229SOL    HW122586   0.330   0.077   3.644
 7229SOL    HW222587   0.381   0.159   3.512
 7230SOL     OW22588   6.367   5.633   1.334
 7230SOL    HW122589   6.277   5.676   1.342
 7230SOL    HW222590   6.356   5.533   1.336
 7231SOL     OW22591   5.996   0.982   0.493
 7231SOL    HW122592   5.963   0.928   0.416
 7231SOL    HW222593   5.946   1.068   0.497
 7232SOL     OW22594   3.979   3.917   0.840
 7232SOL    HW122595   3.971   3.931   0.939
 7232SOL    HW222596   4.040   3.839   0.823
 7233SOL     OW22597   0.856   2.101   5.406
 7233SOL    HW122598   0.919   2.088   5.483
 7233SOL    HW222599   0.900   2.157   5.336
 7234SOL     OW22600   4.807   2.028   3.563
 7234SOL    HW122601   4.711   1.998   3.561
 7234SOL    HW222602   4.837   2.038   3.658
 7235SOL     OW22603   5.984   2.873   4.432
 7235SOL    HW122604   6.023   2.865   4.341
 7235SOL    HW222605   5.889   2.842   4.431
 7236SOL     OW22606   1.468   1.806   3.017
 7236SOL    HW122607   1.471   1.905   3.006
 7236SOL    HW222608   1.457   1.782   3.113
 7237SOL     OW22609   5.496   5.050   4.633
 7237SOL    HW122610   5.572   5.000   4.676
 7237SOL    HW222611   5.409   5.015   4.667
 7238SOL     OW22612   1.449   0.188   1.613
 7238SOL    HW122613   1.457   0.094   1.645
 7238SOL    HW222614   1.539   0.232   1.613
 7239SOL     OW22615   4.167   1.631   1.785
 7239SOL    HW122616   4.153   1.703   1.717
 7239SOL    HW222617   4.174   1.671   1.876
 7240SOL     OW22618   2.929   3.590   2.280
 7240SOL    HW122619   3.004   3.557   2.338
 7240SOL    HW222620   2.873   3.513   2.249
 7241SOL     OW22621   4.542   6.794   4.546
 7241SOL    HW122622   4.549   6.886   4.584
 7241SOL    HW222623   4.571   6.727   4.616
 7242SOL     OW22624   6.545   6.061   0.765
 7242SOL    HW122625   6.477   6.118   0.810
 7242SOL    HW222626   6.635   6.079   0.806
 7243SOL     OW22627   0.387   5.483   0.723
 7243SOL    HW122628   0.305   5.433   0.696
 7243SOL    HW222629   0.361   5.559   0.783
 7244SOL     OW22630   5.342   2.380   0.982
 7244SOL    HW122631   5.289   2.445   0.927
 7244SOL    HW222632   5.319   2.287   0.954
 7245SOL     OW22633   6.077   1.853   4.331
 7245SOL    HW122634   6.154   1.864   4.267
 7245SOL    HW222635   6.017   1.932   4.324
 7246SOL     OW22636   0.825   6.088   5.582
 7246SOL    HW122637   0.881   6.138   5.516
 7246SOL    HW222638   0.751   6.041   5.534
 7247SOL     OW22639   3.818   5.688   4.291
 7247SOL    HW122640   3.764   5.608   4.316
 7247SOL    HW222641   3.915   5.663   4.287
 7248SOL     OW22642   2.992   1.011   4.426
 7248SOL    HW122643   3.083   1.036   4.394
 7248SOL    HW222644   2.992   1.005   4.526
 7249SOL     OW22645   4.657   3.585   5.637
 7249SOL    HW122646   4.752   3.553   5.628
 7249SOL    HW222647   4.602   3.512   5.678
 7250SOL     OW22648   2.743   3.374   6.775
 7250SOL    HW122649   2.715   3.423   6.857
 7250SOL    HW222650   2.673   3.384   6.704
 7251SOL     OW22651   5.954   1.019   5.220
 7251SOL    HW122652   5.929   1.113   5.195
 7251SOL    HW222653   5.958   0.962   5.138
 7252SOL     OW22654   4.526   3.360   5.337
 7252SOL    HW122655   4.582   3.420   5.279
 7252SOL    HW222656   4.431   3.391   5.333
 7253SOL     OW22657   5.299   4.948   0.284
 7253SOL    HW122658   5.308   4.897   0.369
 7253SOL    HW222659   5.203   4.971   0.268
 7254SOL     OW22660   5.259   6.768   4.932
 7254SOL    HW122661   5.280   6.698   4.864
 7254SOL    HW222662   5.342   6.816   4.959
 7255SOL     OW22663   3.889   2.942   3.058
 7255SOL    HW122664   3.886   2.942   3.158
 7255SOL    HW222665   3.971   2.991   3.027
 7256SOL     OW22666   3.254   5.685   3.890
 7256SOL    HW122667   3.341   5.728   3.864
 7256SOL    HW222668   3.180   5.724   3.834
 7257SOL     OW22669   6.398   4.735   2.147
 7257SOL    HW122670   6.462   4.726   2.223
 7257SOL    HW222671   6.314   4.684   2.167
 7258SOL     OW22672   2.567   0.398   5.418
 7258SOL    HW122673   2.600   0.476   5.472
 7258SOL    HW222674   2.544   0.323   5.479
 7259SOL     OW22675   3.562   4.152   6.104
 7259SOL    HW122676   3.548   4.198   6.192
 7259SOL    HW222677   3.514   4.065   6.104
 7260SOL     OW22678   4.877   2.314   2.919
 7260SOL    HW122679   4.810   2.273   2.981
 7260SOL    HW222680   4.905   2.245   2.852
 7261SOL     OW22681   2.368   5.056   0.953
 7261SOL    HW122682   2.373   5.144   0.905
 7261SOL    HW222683   2.359   4.983   0.886
 7262SOL     OW22684   6.479   0.606   4.515
 7262SOL    HW122685   6.381   0.616   4.534
 7262SOL    HW222686   6.503   0.509   4.512
 7263SOL     OW22687   5.500   5.278   1.518
 7263SOL    HW122688   5.570   5.341   1.553
 7263SOL    HW222689   5.416   5.329   1.498
 7264SOL     OW22690   0.495   6.373   4.375
 7264SOL    HW122691   0.591   6.397   4.390
 7264SOL    HW222692   0.443   6.455   4.353
 7265SOL     OW22693   4.553   3.540   6.708
 7265SOL    HW122694   4.614   3.600   6.656
 7265SOL    HW222695   4.605   3.461   6.742
 7266SOL     OW22696   4.269   1.471   2.066
 7266SOL    HW122697   4.241   1.565   2.045
 7266SOL    HW222698   4.198   1.407   2.035
 7267SOL     OW22699   5.505   2.360   4.215
 7267SOL    HW122700   5.431   2.303   4.180
 7267SOL    HW222701   5.579   2.363   4.148
 7268SOL     OW22702   3.959   0.280   0.200
 7268SOL    HW122703   4.027   0.238   0.261
 7268SOL    HW222704   4.005   0.313   0.117
 7269SOL     OW22705   1.333   0.550   1.859
 7269SOL    HW122706   1.291   0.464   1.832
 7269SOL    HW222707   1.262   0.619   1.874
 7270SOL     OW22708   3.249   2.070   1.980
 7270SOL    HW122709   3.282   2.136   1.913
 7270SOL    HW222710   3.224   1.985   1.933
 7271SOL     OW22711   5.924   5.442   3.703
 7271SOL    HW122712   5.900   5.537   3.685
 7271SOL    HW222713   5.916   5.423   3.801
 7272SOL     OW22714   5.923   1.820   1.466
 7272SOL    HW122715   5.858   1.826   1.390
 7272SOL    HW222716   5.984   1.742   1.451
 7273SOL     OW22717   5.659   5.454   4.997
 7273SOL    HW122718   5.567   5.420   4.978
 7273SOL    HW222719   5.700   5.489   4.913
 7274SOL     OW22720   5.515   4.702   3.671
 7274SOL    HW122721   5.437   4.749   3.630
 7274SOL    HW222722   5.515   4.716   3.770
 7275SOL     OW22723   6.107   6.795   2.104
 7275SOL    HW122724   6.017   6.753   2.121
 7275SOL    HW222725   6.115   6.877   2.161
 7276SOL     OW22726   3.995   1.813   2.956
 7276SOL    HW122727   3.914   1.846   3.005
 7276SOL    HW222728   3.983   1.717   2.932
 7277SOL     OW22729   6.185   2.138   4.079
 7277SOL    HW122730   6.194   2.062   4.144
 7277SOL    HW222731   6.112   2.117   4.014
 7278SOL     OW22732   4.131   1.771   3.514
 7278SOL    HW122733   4.036   1.747   3.494
 7278SOL    HW222734   4.182   1.688   3.538
 7279SOL     OW22735   3.563   3.657   1.728
 7279SOL    HW122736   3.487   3.698   1.779
 7279SOL    HW222737   3.635   3.725   1.715
 7280SOL     OW22738   6.552   1.559   5.463
 7280SOL    HW122739   6.604   1.623   5.407
 7280SOL    HW222740   6.599   1.545   5.550
 7281SOL     OW22741   3.632   6.356   3.133
 7281SOL    HW122742   3.670   6.341   3.042
 7281SOL    HW222743   3.538   6.322   3.137
 7282SOL     OW22744   0.154   3.724   1.218
 7282SOL    HW122745   0.179   3.649   1.279
 7282SOL    HW222746   0.073   3.699   1.164
 7283SOL     OW22747   3.168   5.891   2.475
 7283SOL    HW122748   3.160   5.925   2.382
 7283SOL    HW222749   3.106   5.942   2.535
 7284SOL     OW22750   0.563   0.190   3.443
 7284SOL    HW122751   0.634   0.258   3.425
 7284SOL    HW222752   0.602   0.098   3.439
 7285SOL     OW22753   5.175   2.626   2.102
 7285SOL    HW122754   5.155   2.531   2.075
 7285SOL    HW222755   5.108   2.687   2.060
 7286SOL     OW22756   6.667   0.990   3.997
 7286SOL    HW122757   6.647   1.031   4.086
 7286SOL    HW222758   6.765   0.974   3.989
 7287SOL     OW22759   3.276   1.848   4.337
 7287SOL    HW122760   3.213   1.840   4.414
 7287SOL    HW222761   3.313   1.941   4.334
 7288SOL     OW22762   3.058   1.826   1.802
 7288SOL    HW122763   2.962   1.851   1.817
 7288SOL    HW222764   3.098   1.792   1.888
 7289SOL     OW22765   6.921   2.248   1.341
 7289SOL    HW122766   6.823   2.238   1.321
 7289SOL    HW222767   6.932   2.304   1.423
 7290SOL     OW22768   3.610   1.833   4.571
 7290SOL    HW122769   3.639   1.785   4.654
 7290SOL    HW222770   3.544   1.777   4.521
 7291SOL     OW22771   0.969   0.996   0.582
 7291SOL    HW122772   1.039   1.024   0.648
 7291SOL    HW222773   0.944   0.900   0.599
 7292SOL     OW22774   3.956   1.258   2.290
 7292SOL    HW122775   3.942   1.195   2.214
 7292SOL    HW222776   4.044   1.305   2.279
 7293SOL     OW22777   6.373   0.762   4.255
 7293SOL    HW122778   6.362   0.859   4.275
 7293SOL    HW222779   6.295   0.711   4.292
 7294SOL     OW22780   3.735   0.114   2.833
 7294SOL    HW122781   3.751   0.027   2.788
 7294SOL    HW222782   3.641   0.117   2.867
 7295SOL     OW22783   5.052   3.604   1.621
 7295SOL    HW122784   5.118   3.530   1.638
 7295SOL    HW222785   4.963   3.579   1.660
 7296SOL     OW22786   3.366   6.638   2.464
 7296SOL    HW122787   3.304   6.607   2.536
 7296SOL    HW222788   3.459   6.608   2.484
 7297SOL     OW22789   3.784   0.081   0.805
 7297SOL    HW122790   3.701   0.103   0.754
 7297SOL    HW222791   3.848   0.034   0.744
 7298SOL     OW22792   4.231   4.830   1.487
 7298SOL    HW122793   4.228   4.865   1.393
 7298SOL    HW222794   4.327   4.819   1.515
 7299SOL     OW22795   0.331   3.169   0.161
 7299SOL    HW122796   0.294   3.252   0.204
 7299SOL    HW222797   0.258   3.101   0.154
 7300SOL     OW22798   0.864   3.835   1.638
 7300SOL    HW122799   0.855   3.932   1.615
 7300SOL    HW222800   0.819   3.817   1.726
 7301SOL     OW22801   4.453   1.650   0.431
 7301SOL    HW122802   4.399   1.721   0.476
 7301SOL    HW222803   4.532   1.693   0.386
 7302SOL     OW22804   5.968   2.032   6.273
 7302SOL    HW122805   6.031   2.038   6.196
 7302SOL    HW222806   6.010   1.976   6.345
 7303SOL     OW22807   3.484   2.107   1.436
 7303SOL    HW122808   3.432   2.172   1.381
 7303SOL    HW222809   3.538   2.157   1.504
 7304SOL     OW22810   2.030   7.018   0.443
 7304SOL    HW122811   1.969   0.007   0.365
 7304SOL    HW222812   2.117   0.037   0.427
 7305SOL     OW22813   6.728   6.893   6.390
 7305SOL    HW122814   6.784   6.976   6.399
 7305SOL    HW222815   6.788   6.814   6.378
 7306SOL     OW22816   1.717   3.595   0.476
 7306SOL    HW122817   1.776   3.595   0.557
 7306SOL    HW222818   1.630   3.638   0.498
 7307SOL     OW22819   3.493   6.268   1.753
 7307SOL    HW122820   3.522   6.354   1.710
 7307SOL    HW222821   3.394   6.262   1.751
 7308SOL     OW22822   3.887   1.566   2.885
 7308SOL    HW122823   3.864   1.502   2.958
 7308SOL    HW222824   3.936   1.517   2.812
 7309SOL     OW22825   2.296   4.660   4.006
 7309SOL    HW122826   2.202   4.669   4.039
 7309SOL    HW222827   2.360   4.678   4.081
 7310SOL     OW22828   3.248   2.990   7.019
 7310SOL    HW122829   3.337   3.034   7.014
 7310SOL    HW222830   3.260   2.892   0.008
 7311SOL     OW22831   1.281   6.571   5.943
 7311SOL    HW122832   1.246   6.664   5.956
 7311SOL    HW222833   1.377   6.567   5.971
 7312SOL     OW22834   6.465   2.036   4.545
 7312SOL    HW122835   6.373   2.012   4.575
 7312SOL    HW222836   6.494   2.120   4.592
 7313SOL     OW22837   3.695   1.004   2.593
 7313SOL    HW122838   3.734   0.928   2.541
 7313SOL    HW222839   3.686   1.084   2.534
 7314SOL     OW22840   2.482   5.742   5.033
 7314SOL    HW122841   2.486   5.730   4.934
 7314SOL    HW222842   2.494   5.839   5.056
 7315SOL     OW22843   2.481   5.546   2.667
 7315SOL    HW122844   2.444   5.578   2.754
 7315SOL    HW222845   2.517   5.624   2.615
 7316SOL     OW22846   3.940   1.176   1.679
 7316SOL    HW122847   3.879   1.247   1.645
 7316SOL    HW222848   3.889   1.114   1.739
 7317SOL     OW22849   6.446   1.674   1.394
 7317SOL    HW122850   6.481   1.592   1.348
 7317SOL    HW222851   6.492   1.755   1.359
 7318SOL     OW22852   5.530   6.373   1.329
 7318SOL    HW122853   5.512   6.317   1.248
 7318SOL    HW222854   5.478   6.458   1.323
 7319SOL     OW22855   4.404   5.933   6.149
 7319SOL    HW122856   4.324   5.910   6.094
 7319SOL    HW222857   4.487   5.902   6.103
 7320SOL     OW22858   1.060   3.051   0.178
 7320SOL    HW122859   1.100   3.024   0.091
 7320SOL    HW222860   0.961   3.039   0.175
 7321SOL     OW22861   2.263   2.554   5.523
 7321SOL    HW122862   2.328   2.506   5.465
 7321SOL    HW222863   2.245   2.645   5.486
 7322SOL     OW22864   1.934   1.795   4.489
 7322SOL    HW122865   1.974   1.796   4.398
 7322SOL    HW222866   1.836   1.813   4.484
 7323SOL     OW22867   2.282   1.937   1.250
 7323SOL    HW122868   2.202   1.877   1.256
 7323SOL    HW222869   2.282   2.000   1.328
 7324SOL     OW22870   4.835   3.908   4.632
 7324SOL    HW122871   4.838   3.842   4.557
 7324SOL    HW222872   4.874   3.867   4.714
 7325SOL     OW22873   3.598   1.042   6.353
 7325SOL    HW122874   3.526   1.100   6.392
 7325SOL    HW222875   3.680   1.098   6.337
 7326SOL     OW22876   3.478   6.372   0.564
 7326SOL    HW122877   3.536   6.297   0.594
 7326SOL    HW222878   3.519   6.417   0.484
 7327SOL     OW22879   1.609   4.226   3.254
 7327SOL    HW122880   1.534   4.269   3.204
 7327SOL    HW222881   1.681   4.199   3.190
 7328SOL     OW22882   4.828   5.066   6.240
 7328SOL    HW122883   4.778   5.057   6.326
 7328SOL    HW222884   4.887   5.146   6.244
 7329SOL     OW22885   2.722   3.699   0.071
 7329SOL    HW122886   2.659   3.732   0.141
 7329SOL    HW222887   2.797   3.764   0.060
 7330SOL     OW22888   2.552   3.520   0.972
 7330SOL    HW122889   2.615   3.584   0.929
 7330SOL    HW222890   2.458   3.545   0.949
 7331SOL     OW22891   4.919   1.379   2.338
 7331SOL    HW122892   5.009   1.348   2.310
 7331SOL    HW222893   4.849   1.336   2.281
 7332SOL     OW22894   2.712   6.905   5.290
 7332SOL    HW122895   2.774   6.826   5.288
 7332SOL    HW222896   2.760   6.984   5.328
 7333SOL     OW22897   6.204   0.962   1.824
 7333SOL    HW122898   6.297   0.927   1.832
 7333SOL    HW222899   6.207   1.062   1.816
 7334SOL     OW22900   1.186   4.594   4.628
 7334SOL    HW122901   1.088   4.611   4.634
 7334SOL    HW222902   1.235   4.681   4.617
 7335SOL     OW22903   0.416   2.840   2.505
 7335SOL    HW122904   0.371   2.753   2.524
 7335SOL    HW222905   0.485   2.858   2.575
 7336SOL     OW22906   2.325   0.420   0.875
 7336SOL    HW122907   2.285   0.492   0.932
 7336SOL    HW222908   2.399   0.459   0.820
 7337SOL     OW22909   3.583   1.613   2.857
 7337SOL    HW122910   3.683   1.613   2.864
 7337SOL    HW222911   3.556   1.670   2.780
 7338SOL     OW22912   5.481   3.449   0.515
 7338SOL    HW122913   5.500   3.500   0.599
 7338SOL    HW222914   5.390   3.407   0.521
 7339SOL     OW22915   6.787   0.039   3.911
 7339SOL    HW122916   6.782   0.119   3.972
 7339SOL    HW222917   6.711   0.043   3.846
 7340SOL     OW22918   2.772   6.603   0.341
 7340SOL    HW122919   2.699   6.612   0.409
 7340SOL    HW222920   2.859   6.583   0.387
 7341SOL     OW22921   6.192   5.555   3.366
 7341SOL    HW122922   6.124   5.484   3.346
 7341SOL    HW222923   6.150   5.645   3.356
 7342SOL     OW22924   0.669   5.469   0.698
 7342SOL    HW122925   0.584   5.486   0.747
 7342SOL    HW222926   0.739   5.531   0.730
 7343SOL     OW22927   6.783   2.769   2.602
 7343SOL    HW122928   6.746   2.722   2.522
 7343SOL    HW222929   6.876   2.801   2.583
 7344SOL     OW22930   2.098   1.171   6.323
 7344SOL    HW122931   2.136   1.115   6.396
 7344SOL    HW222932   2.029   1.119   6.273
 7345SOL     OW22933   1.577   6.913   6.770
 7345SOL    HW122934   1.648   6.960   6.717
 7345SOL    HW222935   1.615   6.886   6.858
 7346SOL     OW22936   3.355   5.205   4.018
 7346SOL    HW122937   3.327   5.301   4.014
 7346SOL    HW222938   3.449   5.196   3.985
 7347SOL     OW22939   6.035   3.203   3.427
 7347SOL    HW122940   5.964   3.134   3.438
 7347SOL    HW222941   5.998   3.293   3.451
 7348SOL     OW22942   5.753   0.595   6.293
 7348SOL    HW122943   5.666   0.633   6.260
 7348SOL    HW222944   5.812   0.574   6.216
 7349SOL     OW22945   3.859   1.931   1.386
 7349SOL    HW122946   3.901   1.877   1.459
 7349SOL    HW222947   3.856   2.027   1.413
 7350SOL     OW22948   1.892   1.218   3.326
 7350SOL    HW122949   1.896   1.318   3.323
 7350SOL    HW222950   1.925   1.181   3.239
 7351SOL     OW22951   5.084   4.688   0.213
 7351SOL    HW122952   5.161   4.642   0.169
 7351SOL    HW222953   5.075   4.781   0.177
 7352SOL     OW22954   6.844   1.162   3.090
 7352SOL    HW122955   6.876   1.242   3.142
 7352SOL    HW222956   6.757   1.131   3.128
 7353SOL     OW22957   5.279   1.916   5.402
 7353SOL    HW122958   5.290   2.015   5.407
 7353SOL    HW222959   5.368   1.872   5.399
 7354SOL     OW22960   5.372   4.175   5.283
 7354SOL    HW122961   5.392   4.272   5.291
 7354SOL    HW222962   5.376   4.147   5.187
 7355SOL     OW22963   6.645   5.867   0.320
 7355SOL    HW122964   6.742   5.868   0.344
 7355SOL    HW222965   6.616   5.773   0.301
 7356SOL     OW22966   6.957   1.554   5.817
 7356SOL    HW122967   6.947   1.653   5.811
 7356SOL    HW222968   7.026   1.522   5.753
 7357SOL     OW22969   0.578   1.565   0.747
 7357SOL    HW122970   0.621   1.656   0.751
 7357SOL    HW222971   0.564   1.540   0.651
 7358SOL     OW22972   3.470   1.024   3.580
 7358SOL    HW122973   3.506   1.100   3.634
 7358SOL    HW222974   3.394   0.981   3.629
 7359SOL     OW22975   3.014   3.797   4.254
 7359SOL    HW122976   3.025   3.726   4.185
 7359SOL    HW222977   3.073   3.776   4.333
 7360SOL     OW22978   1.021   4.305   6.404
 7360SOL    HW122979   1.063   4.292   6.314
 7360SOL    HW222980   0.977   4.395   6.407
 7361SOL     OW22981   4.568   6.882   1.476
 7361SOL    HW122982   4.503   6.953   1.501
 7361SOL    HW222983   4.624   6.858   1.555
 7362SOL     OW22984   1.113   5.540   6.651
 7362SOL    HW122985   1.071   5.466   6.704
 7362SOL    HW222986   1.140   5.506   6.561
 7363SOL     OW22987   4.435   2.188   6.158
 7363SOL    HW122988   4.498   2.260   6.184
 7363SOL    HW222989   4.363   2.226   6.100
 7364SOL     OW22990   5.069   6.868   0.858
 7364SOL    HW122991   5.120   6.784   0.837
 7364SOL    HW222992   5.003   6.849   0.932
 7365SOL     OW22993   4.128   6.810   1.382
 7365SOL    HW122994   4.178   6.893   1.409
 7365SOL    HW222995   4.140   6.794   1.284
 7366SOL     OW22996   2.006   0.537   0.375
 7366SOL    HW122997   1.976   0.625   0.341
 7366SOL    HW222998   1.975   0.524   0.469
 7367SOL     OW22999   4.381   2.984   6.791
 7367SOL    HW123000   4.460   2.977   6.730
 7367SOL    HW223001   4.323   2.903   6.779
 7368SOL     OW23002   3.117   3.031   4.635
 7368SOL    HW123003   3.122   3.103   4.565
 7368SOL    HW223004   3.024   2.993   4.637
 7369SOL     OW23005   6.492   0.671   6.704
 7369SOL    HW123006   6.435   0.693   6.783
 7369SOL    HW223007   6.477   0.740   6.633
 7370SOL     OW23008   0.670   6.075   0.744
 7370SOL    HW123009   0.679   6.090   0.646
 7370SOL    HW223010   0.675   6.164   0.791
 7371SOL     OW23011   1.609   5.208   3.980
 7371SOL    HW123012   1.643   5.221   3.887
 7371SOL    HW223013   1.651   5.275   4.041
 7372SOL     OW23014   3.046   0.346   5.039
 7372SOL    HW123015   3.056   0.247   5.040
 7372SOL    HW223016   3.117   0.387   4.982
 7373SOL     OW23017   3.575   0.867   1.299
 7373SOL    HW123018   3.597   0.931   1.225
 7373SOL    HW223019   3.476   0.857   1.306
 7374SOL     OW23020   2.125   3.339   6.907
 7374SOL    HW123021   2.179   3.378   6.982
 7374SOL    HW223022   2.042   3.393   6.894
 7375SOL     OW23023   2.705   5.994   3.498
 7375SOL    HW123024   2.764   5.922   3.536
 7375SOL    HW223025   2.728   6.008   3.401
 7376SOL     OW23026   3.219   3.960   6.684
 7376SOL    HW123027   3.242   4.017   6.763
 7376SOL    HW223028   3.119   3.952   6.677
 7377SOL     OW23029   6.468   5.915   1.788
 7377SOL    HW123030   6.563   5.946   1.793
 7377SOL    HW223031   6.459   5.849   1.714
 7378SOL     OW23032   0.637   2.028   5.638
 7378SOL    HW123033   0.603   1.940   5.607
 7378SOL    HW223034   0.705   2.063   5.573
 7379SOL     OW23035   4.170   0.181   0.354
 7379SOL    HW123036   4.267   0.157   0.348
 7379SOL    HW223037   4.152   0.227   0.442
 7380SOL     OW23038   6.569   2.623   6.430
 7380SOL    HW123039   6.656   2.650   6.471
 7380SOL    HW223040   6.509   2.702   6.424
 7381SOL     OW23041   5.401   2.164   0.148
 7381SOL    HW123042   5.343   2.092   0.110
 7381SOL    HW223043   5.443   2.133   0.233
 7382SOL     OW23044   1.018   5.224   4.186
 7382SOL    HW123045   1.045   5.129   4.200
 7382SOL    HW223046   0.944   5.229   4.120
 7383SOL     OW23047   1.640   4.202   2.575
 7383SOL    HW123048   1.724   4.175   2.623
 7383SOL    HW223049   1.591   4.270   2.629
 7384SOL     OW23050   6.118   1.868   1.090
 7384SOL    HW123051   6.166   1.827   1.013
 7384SOL    HW223052   6.094   1.797   1.156
 7385SOL     OW23053   5.520   0.436   1.888
 7385SOL    HW123054   5.582   0.439   1.810
 7385SOL    HW223055   5.538   0.352   1.941
 7386SOL     OW23056   6.694   1.518   5.710
 7386SOL    HW123057   6.786   1.490   5.740
 7386SOL    HW223058   6.690   1.617   5.704
 7387SOL     OW23059   4.758   6.208   3.352
 7387SOL    HW123060   4.706   6.178   3.273
 7387SOL    HW223061   4.844   6.250   3.322
 7388SOL     OW23062   5.062   4.020   4.970
 7388SOL    HW123063   4.974   3.990   5.008
 7388SOL    HW223064   5.047   4.065   4.882
 7389SOL     OW23065   1.125   3.188   5.035
 7389SOL    HW123066   1.095   3.092   5.041
 7389SOL    HW223067   1.196   3.205   5.104
 7390SOL     OW23068   4.487   6.975   6.992
 7390SOL    HW123069   4.498   6.951   0.062
 7390SOL    HW223070   4.512   0.044   6.977
 7391SOL     OW23071   0.413   5.156   0.077
 7391SOL    HW123072   0.392   5.078   0.136
 7391SOL    HW223073   0.512   5.167   0.069
 7392SOL     OW23074   1.940   4.777   1.980
 7392SOL    HW123075   1.931   4.763   2.078
 7392SOL    HW223076   1.859   4.824   1.945
 7393SOL     OW23077   1.084   3.741   0.181
 7393SOL    HW123078   1.010   3.753   0.247
 7393SOL    HW223079   1.116   3.646   0.184
 7394SOL     OW23080   2.289   3.068   6.474
 7394SOL    HW123081   2.365   3.043   6.533
 7394SOL    HW223082   2.208   3.088   6.531
 7395SOL     OW23083   2.617   0.959   6.940
 7395SOL    HW123084   2.608   1.019   6.860
 7395SOL    HW223085   2.587   0.867   6.916
 7396SOL     OW23086   6.981   0.081   2.720
 7396SOL    HW123087   6.980   7.014   2.683
 7396SOL    HW223088   6.900   0.130   2.689
 7397SOL     OW23089   6.105   4.170   4.309
 7397SOL    HW123090   6.187   4.193   4.362
 7397SOL    HW223091   6.059   4.092   4.351
 7398SOL     OW23092   4.484   6.097   2.782
 7398SOL    HW123093   4.452   6.096   2.876
 7398SOL    HW223094   4.584   6.090   2.780
 7399SOL     OW23095   5.294   5.507   4.083
 7399SOL    HW123096   5.274   5.451   4.163
 7399SOL    HW223097   5.380   5.555   4.096
 7400SOL     OW23098   2.594   4.050   6.742
 7400SOL    HW123099   2.598   3.954   6.770
 7400SOL    HW223100   2.501   4.085   6.757
 7401SOL     OW23101   5.942   3.117   4.268
 7401SOL    HW123102   5.843   3.104   4.270
 7401SOL    HW223103   5.986   3.045   4.321
 7402SOL     OW23104   1.906   6.130   4.755
 7402SOL    HW123105   1.981   6.189   4.788
 7402SOL    HW223106   1.873   6.074   4.830
 7403SOL     OW23107   2.425   3.186   1.705
 7403SOL    HW123108   2.405   3.273   1.748
 7403SOL    HW223109   2.368   3.175   1.624
 7404SOL     OW23110   1.270   2.602   2.919
 7404SOL    HW123111   1.346   2.539   2.936
 7404SOL    HW223112   1.305   2.695   2.908
 7405SOL     OW23113   3.394   4.668   6.066
 7405SOL    HW123114   3.418   4.584   6.017
 7405SOL    HW223115   3.474   4.702   6.115
 7406SOL     OW23116   0.359   6.100   2.790
 7406SOL    HW123117   0.268   6.086   2.751
 7406SOL    HW223118   0.375   6.034   2.863
 7407SOL     OW23119   3.129   1.557   5.639
 7407SOL    HW123120   3.165   1.480   5.691
 7407SOL    HW223121   3.197   1.589   5.574
 7408SOL     OW23122   1.245   3.432   5.281
 7408SOL    HW123123   1.272   3.337   5.297
 7408SOL    HW223124   1.297   3.469   5.204
 7409SOL     OW23125   2.590   6.815   4.489
 7409SOL    HW123126   2.583   6.765   4.575
 7409SOL    HW223127   2.549   6.760   4.416
 7410SOL     OW23128   5.105   5.735   5.678
 7410SOL    HW123129   5.024   5.792   5.688
 7410SOL    HW223130   5.134   5.701   5.768
 7411SOL     OW23131   5.603   3.810   5.702
 7411SOL    HW123132   5.701   3.797   5.710
 7411SOL    HW223133   5.585   3.901   5.665
 7412SOL     OW23134   1.659   1.155   0.198
 7412SOL    HW123135   1.730   1.226   0.196
 7412SOL    HW223136   1.630   1.140   0.292
 7413SOL     OW23137   7.015   3.453   3.932
 7413SOL    HW123138   6.929   3.502   3.948
 7413SOL    HW223139   0.037   3.496   3.856
 7414SOL     OW23140   0.427   5.368   1.520
 7414SOL    HW123141   0.470   5.421   1.447
 7414SOL    HW223142   0.426   5.271   1.495
 7415SOL     OW23143   3.181   1.274   2.732
 7415SOL    HW123144   3.259   1.315   2.778
 7415SOL    HW223145   3.186   1.294   2.634
 7416SOL     OW23146   6.616   6.923   3.441
 7416SOL    HW123147   6.625   6.903   3.538
 7416SOL    HW223148   6.680   6.866   3.389
 7417SOL     OW23149   0.013   5.082   1.071
 7417SOL    HW123150   0.006   5.162   1.011
 7417SOL    HW223151   0.088   5.024   1.041
 7418SOL     OW23152   1.430   3.775   0.270
 7418SOL    HW123153   1.389   3.800   0.358
 7418SOL    HW223154   1.401   3.840   0.200
 7419SOL     OW23155   6.229   2.482   5.645
 7419SOL    HW123156   6.134   2.488   5.614
 7419SOL    HW223157   6.231   2.485   5.745
 7420SOL     OW23158   6.674   5.680   2.002
 7420SOL    HW123159   6.727   5.755   1.963
 7420SOL    HW223160   6.715   5.650   2.088
 7421SOL     OW23161   3.995   1.923   1.787
 7421SOL    HW123162   4.026   2.018   1.776
 7421SOL    HW223163   3.959   1.911   1.879
 7422SOL     OW23164   0.784   1.854   1.336
 7422SOL    HW123165   0.829   1.939   1.365
 7422SOL    HW223166   0.849   1.798   1.284
 7423SOL     OW23167   2.816   4.185   0.688
 7423SOL    HW123168   2.732   4.222   0.648
 7423SOL    HW223169   2.792   4.117   0.757
 7424SOL     OW23170   5.022   0.478   3.579
 7424SOL    HW123171   5.037   0.570   3.617
 7424SOL    HW223172   5.002   0.415   3.654
 7425SOL     OW23173   3.372   0.191   4.311
 7425SOL    HW123174   3.404   0.171   4.218
 7425SOL    HW223175   3.360   0.289   4.322
 7426SOL     OW23176   0.202   0.605   6.623
 7426SOL    HW123177   0.242   0.628   6.712
 7426SOL    HW223178   0.104   0.624   6.625
 7427SOL     OW23179   5.539   4.925   4.942
 7427SOL    HW123180   5.493   5.013   4.943
 7427SOL    HW223181   5.606   4.922   4.867
 7428SOL     OW23182   4.945   0.988   5.050
 7428SOL    HW123183   4.975   0.895   5.025
 7428SOL    HW223184   5.017   1.053   5.026
 7429SOL     OW23185   6.198   6.173   3.852
 7429SOL    HW123186   6.210   6.122   3.937
 7429SOL    HW223187   6.211   6.271   3.870
 7430SOL     OW23188   0.380   3.942   4.170
 7430SOL    HW123189   0.393   4.041   4.164
 7430SOL    HW223190   0.284   3.922   4.191
 7431SOL     OW23191   0.175   3.940   2.562
 7431SOL    HW123192   0.240   4.013   2.579
 7431SOL    HW223193   0.208   3.855   2.601
 7432SOL     OW23194   1.809   6.257   5.512
 7432SOL    HW123195   1.715   6.291   5.510
 7432SOL    HW223196   1.810   6.163   5.546
 7433SOL     OW23197   0.257   6.961   0.904
 7433SOL    HW123198   0.191   7.013   0.849
 7433SOL    HW223199   0.212   6.931   0.989
 7434SOL     OW23200   4.721   6.552   0.243
 7434SOL    HW123201   4.624   6.571   0.259
 7434SOL    HW223202   4.729   6.479   0.175
 7435SOL     OW23203   1.375   5.095   0.415
 7435SOL    HW123204   1.289   5.046   0.428
 7435SOL    HW223205   1.452   5.035   0.439
 7436SOL     OW23206   4.829   3.824   6.765
 7436SOL    HW123207   4.784   3.844   6.677
 7436SOL    HW223208   4.825   3.905   6.823
 7437SOL     OW23209   0.230   6.272   5.278
 7437SOL    HW123210   0.209   6.326   5.359
 7437SOL    HW223211   0.171   6.302   5.203
 7438SOL     OW23212   5.813   3.736   0.764
 7438SOL    HW123213   5.719   3.725   0.732
 7438SOL    HW223214   5.876   3.720   0.688
 7439SOL     OW23215   1.400   6.753   2.998
 7439SOL    HW123216   1.493   6.724   2.974
 7439SOL    HW223217   1.388   6.849   2.973
 7440SOL     OW23218   0.782   1.169   4.023
 7440SOL    HW123219   0.685   1.169   4.048
 7440SOL    HW223220   0.793   1.122   3.936
 7441SOL     OW23221   6.392   0.089   4.009
 7441SOL    HW123222   6.437   0.099   3.920
 7441SOL    HW223223   6.461   0.080   4.081
 7442SOL     OW23224   1.721   0.713   6.459
 7442SOL    HW123225   1.806   0.752   6.425
 7442SOL    HW223226   1.645   0.739   6.399
 7443SOL     OW23227   6.930   2.154   1.918
 7443SOL    HW123228   7.004   2.197   1.970
 7443SOL    HW223229   6.888   2.222   1.858
 7444SOL     OW23230   0.661   2.705   4.894
 7444SOL    HW123231   0.708   2.753   4.968
 7444SOL    HW223232   0.706   2.726   4.807
 7445SOL     OW23233   6.109   2.888   1.825
 7445SOL    HW123234   6.097   2.812   1.761
 7445SOL    HW223235   6.168   2.957   1.784
 7446SOL     OW23236   5.515   4.036   3.127
 7446SOL    HW123237   5.594   4.025   3.187
 7446SOL    HW223238   5.545   4.040   3.032
 7447SOL     OW23239   0.713   3.947   6.635
 7447SOL    HW123240   0.792   3.968   6.579
 7447SOL    HW223241   0.634   4.000   6.604
 7448SOL     OW23242   0.644   0.820   6.066
 7448SOL    HW123243   0.700   0.747   6.106
 7448SOL    HW223244   0.556   0.783   6.037
 7449SOL     OW23245   3.944   0.558   1.829
 7449SOL    HW123246   3.957   0.623   1.905
 7449SOL    HW223247   4.033   0.520   1.804
 7450SOL     OW23248   3.573   1.768   1.595
 7450SOL    HW123249   3.603   1.746   1.502
 7450SOL    HW223250   3.495   1.829   1.592
 7451SOL     OW23251   1.003   0.550   2.646
 7451SOL    HW123252   1.082   0.598   2.609
 7451SOL    HW223253   0.921   0.605   2.631
 7452SOL     OW23254   1.414   5.824   3.495
 7452SOL    HW123255   1.410   5.909   3.547
 7452SOL    HW223256   1.471   5.758   3.544
 7453SOL     OW23257   6.612   4.630   4.992
 7453SOL    HW123258   6.518   4.606   5.018
 7453SOL    HW223259   6.632   4.723   5.021
 7454SOL     OW23260   1.494   2.901   0.128
 7454SOL    HW123261   1.458   2.960   0.055
 7454SOL    HW223262   1.492   2.951   0.214
 7455SOL     OW23263   4.624   0.172   0.520
 7455SOL    HW123264   4.593   0.229   0.596
 7455SOL    HW223265   4.723   0.177   0.512
 7456SOL     OW23266   1.262   4.033   6.317
 7456SOL    HW123267   1.164   4.018   6.309
 7456SOL    HW223268   1.309   3.993   6.238
 7457SOL     OW23269   0.102   6.221   6.217
 7457SOL    HW123270   0.078   6.157   6.144
 7457SOL    HW223271   0.158   6.295   6.179
 7458SOL     OW23272   3.004   0.539   1.217
 7458SOL    HW123273   3.026   0.603   1.291
 7458SOL    HW223274   2.905   0.529   1.209
 7459SOL     OW23275   3.539   5.965   4.084
 7459SOL    HW123276   3.485   6.032   4.033
 7459SOL    HW223277   3.587   6.011   4.159
 7460SOL     OW23278   0.643   5.332   6.866
 7460SOL    HW123279   0.667   5.430   6.864
 7460SOL    HW223280   0.642   5.296   6.773
 7461SOL     OW23281   4.341   0.745   4.016
 7461SOL    HW123282   4.394   0.706   3.940
 7461SOL    HW223283   4.249   0.766   3.984
 7462SOL     OW23284   2.371   1.705   3.960
 7462SOL    HW123285   2.390   1.707   4.059
 7462SOL    HW223286   2.450   1.739   3.910
 7463SOL     OW23287   3.913   3.994   2.336
 7463SOL    HW123288   3.952   3.949   2.416
 7463SOL    HW223289   3.866   4.078   2.365
 7464SOL     OW23290   4.760   5.959   6.972
 7464SOL    HW123291   4.784   6.000   0.033
 7464SOL    HW223292   4.785   6.021   6.898
 7465SOL     OW23293   3.997   1.195   2.927
 7465SOL    HW123294   4.062   1.148   2.987
 7465SOL    HW223295   4.045   1.228   2.846
 7466SOL     OW23296   6.276   0.253   0.270
 7466SOL    HW123297   6.301   0.316   0.344
 7466SOL    HW223298   6.352   0.192   0.251
 7467SOL     OW23299   4.708   2.524   0.849
 7467SOL    HW123300   4.728   2.429   0.875
 7467SOL    HW223301   4.787   2.581   0.871
 7468SOL     OW23302   5.517   4.300   4.111
 7468SOL    HW123303   5.502   4.206   4.142
 7468SOL    HW223304   5.528   4.360   4.191
 7469SOL     OW23305   5.094   1.436   1.943
 7469SOL    HW123306   4.998   1.416   1.925
 7469SOL    HW223307   5.137   1.473   1.861
 7470SOL     OW23308   0.365   3.195   3.322
 7470SOL    HW123309   0.313   3.241   3.395
 7470SOL    HW223310   0.301   3.159   3.254
 7471SOL     OW23311   6.374   4.915   5.072
 7471SOL    HW123312   6.421   4.962   4.998
 7471SOL    HW223313   6.438   4.897   5.147
 7472SOL     OW23314   4.160   5.333   3.041
 7472SOL    HW123315   4.108   5.267   3.095
 7472SOL    HW223316   4.101   5.374   2.971
 7473SOL     OW23317   1.285   2.455   6.011
 7473SOL    HW123318   1.379   2.486   6.030
 7473SOL    HW223319   1.239   2.433   6.097
 7474SOL     OW23320   2.843   1.254   2.546
 7474SOL    HW123321   2.888   1.336   2.510
 7474SOL    HW223322   2.848   1.255   2.646
 7475SOL     OW23323   4.772   0.722   6.004
 7475SOL    HW123324   4.841   0.678   5.946
 7475SOL    HW223325   4.809   0.733   6.097
 7476SOL     OW23326   2.279   6.665   4.870
 7476SOL    HW123327   2.263   6.706   4.960
 7476SOL    HW223328   2.263   6.734   4.799
 7477SOL     OW23329   4.893   4.275   4.336
 7477SOL    HW123330   4.842   4.255   4.420
 7477SOL    HW223331   4.943   4.361   4.347
 7478SOL     OW23332   0.710   4.586   1.726
 7478SOL    HW123333   0.642   4.659   1.735
 7478SOL    HW223334   0.774   4.609   1.653
 7479SOL     OW23335   3.516   0.570   4.920
 7479SOL    HW123336   3.612   0.542   4.926
 7479SOL    HW223337   3.460   0.508   4.975
 7480SOL     OW23338   6.065   5.317   0.305
 7480SOL    HW123339   6.103   5.274   0.224
 7480SOL    HW223340   6.041   5.247   0.372
 7481SOL     OW23341   6.300   6.299   0.252
 7481SOL    HW123342   6.323   6.226   0.317
 7481SOL    HW223343   6.361   6.377   0.267
 7482SOL     OW23344   5.082   6.955   4.650
 7482SOL    HW123345   5.178   6.983   4.660
 7482SOL    HW223346   5.022   0.005   4.673
 7483SOL     OW23347   3.497   0.489   6.774
 7483SOL    HW123348   3.497   0.395   6.739
 7483SOL    HW223349   3.590   0.524   6.778
 7484SOL     OW23350   3.222   6.947   1.372
 7484SOL    HW123351   3.285   6.979   1.301
 7484SOL    HW223352   3.268   6.879   1.429
 7485SOL     OW23353   0.869   6.377   5.253
 7485SOL    HW123354   0.915   6.462   5.229
 7485SOL    HW223355   0.782   6.399   5.299
 7486SOL     OW23356   1.449   2.273   5.134
 7486SOL    HW123357   1.379   2.207   5.158
 7486SOL    HW223358   1.442   2.353   5.194
 7487SOL     OW23359   3.344   4.909   3.096
 7487SOL    HW123360   3.277   4.890   3.168
 7487SOL    HW223361   3.302   4.896   3.007
 7488SOL     OW23362   4.487   1.029   5.109
 7488SOL    HW123363   4.402   1.071   5.078
 7488SOL    HW223364   4.530   0.979   5.033
 7489SOL     OW23365   6.897   3.436   3.627
 7489SOL    HW123366   6.945   3.522   3.642
 7489SOL    HW223367   6.956   3.360   3.654
 7490SOL     OW23368   5.708   6.862   3.123
 7490SOL    HW123369   5.652   6.940   3.095
 7490SOL    HW223370   5.799   6.895   3.150
 7491SOL     OW23371   0.342   0.274   0.707
 7491SOL    HW123372   0.309   0.365   0.682
 7491SOL    HW223373   0.264   0.213   0.722
 7492SOL     OW23374   2.800   1.903   3.213
 7492SOL    HW123375   2.715   1.856   3.236
 7492SOL    HW223376   2.872   1.876   3.277
 7493SOL     OW23377   5.286   5.014   6.308
 7493SOL    HW123378   5.268   5.084   6.378
 7493SOL    HW223379   5.256   4.925   6.341
 7494SOL     OW23380   5.068   1.770   1.602
 7494SOL    HW123381   5.066   1.671   1.616
 7494SOL    HW223382   4.988   1.798   1.549
 7495SOL     OW23383   0.928   1.768   3.014
 7495SOL    HW123384   0.956   1.697   3.078
 7495SOL    HW223385   0.978   1.852   3.033
 7496SOL     OW23386   0.344   5.679   5.793
 7496SOL    HW123387   0.432   5.642   5.821
 7496SOL    HW223388   0.277   5.606   5.787
 7497SOL     OW23389   1.847   5.164   2.555
 7497SOL    HW123390   1.804   5.075   2.566
 7497SOL    HW223391   1.932   5.167   2.607
 7498SOL     OW23392   5.673   1.893   4.529
 7498SOL    HW123393   5.718   1.933   4.609
 7498SOL    HW223394   5.577   1.921   4.528
 7499SOL     OW23395   3.598   5.156   3.505
 7499SOL    HW123396   3.697   5.144   3.499
 7499SOL    HW223397   3.578   5.247   3.543
 7500SOL     OW23398   4.616   3.819   1.663
 7500SOL    HW123399   4.526   3.859   1.678
 7500SOL    HW223400   4.682   3.859   1.727
 7501SOL     OW23401   0.641   4.653   4.269
 7501SOL    HW123402   0.720   4.603   4.304
 7501SOL    HW223403   0.571   4.588   4.240
 7502SOL     OW23404   1.605   2.089   3.679
 7502SOL    HW123405   1.668   2.136   3.741
 7502SOL    HW223406   1.587   2.147   3.600
 7503SOL     OW23407   2.571   2.493   6.975
 7503SOL    HW123408   2.549   2.396   6.969
 7503SOL    HW223409   2.534   2.541   6.895
 7504SOL     OW23410   4.600   5.750   4.363
 7504SOL    HW123411   4.615   5.847   4.376
 7504SOL    HW223412   4.546   5.735   4.280
 7505SOL     OW23413   1.908   1.262   4.273
 7505SOL    HW123414   1.876   1.356   4.284
 7505SOL    HW223415   2.003   1.263   4.241
 7506SOL     OW23416   4.179   0.758   3.163
 7506SOL    HW123417   4.270   0.767   3.203
 7506SOL    HW223418   4.183   0.698   3.084
 7507SOL     OW23419   1.947   0.267   5.478
 7507SOL    HW123420   2.042   0.237   5.478
 7507SOL    HW223421   1.944   0.367   5.490
 7508SOL     OW23422   5.497   5.584   3.123
 7508SOL    HW123423   5.411   5.535   3.138
 7508SOL    HW223424   5.537   5.555   3.037
 7509SOL     OW23425   4.063   4.346   6.219
 7509SOL    HW123426   4.021   4.321   6.306
 7509SOL    HW223427   3.998   4.400   6.165
 7510SOL     OW23428   3.784   3.583   4.743
 7510SOL    HW123429   3.851   3.551   4.677
 7510SOL    HW223430   3.827   3.649   4.805
 7511SOL     OW23431   1.301   1.618   2.603
 7511SOL    HW123432   1.323   1.527   2.567
 7511SOL    HW223433   1.284   1.612   2.701
 7512SOL     OW23434   2.122   3.298   2.352
 7512SOL    HW123435   2.193   3.358   2.316
 7512SOL    HW223436   2.034   3.347   2.354
 7513SOL     OW23437   1.731   3.217   6.557
 7513SOL    HW123438   1.776   3.146   6.611
 7513SOL    HW223439   1.650   3.178   6.513
 7514SOL     OW23440   3.263   5.540   3.400
 7514SOL    HW123441   3.247   5.466   3.465
 7514SOL    HW223442   3.315   5.505   3.323
 7515SOL     OW23443   0.247   4.715   2.809
 7515SOL    HW123444   0.191   4.635   2.830
 7515SOL    HW223445   0.207   4.764   2.731
 7516SOL     OW23446   1.890   3.046   1.555
 7516SOL    HW123447   1.936   2.975   1.502
 7516SOL    HW223448   1.857   3.117   1.493
 7517SOL     OW23449   0.527   5.099   2.003
 7517SOL    HW123450   0.536   4.999   2.009
 7517SOL    HW223451   0.507   5.137   2.093
 7518SOL     OW23452   5.205   4.178   3.091
 7518SOL    HW123453   5.214   4.173   3.190
 7518SOL    HW223454   5.161   4.265   3.066
 7519SOL     OW23455   1.963   0.051   4.646
 7519SOL    HW123456   1.880   0.038   4.700
 7519SOL    HW223457   1.949   0.128   4.584
 7520SOL     OW23458   2.420   6.854   4.035
 7520SOL    HW123459   2.418   6.947   4.071
 7520SOL    HW223460   2.468   6.853   3.948
 7521SOL     OW23461   4.629   3.135   5.421
 7521SOL    HW123462   4.604   3.227   5.390
 7521SOL    HW223463   4.553   3.073   5.404
 7522SOL     OW23464   2.035   6.825   2.367
 7522SOL    HW123465   1.956   6.877   2.336
 7522SOL    HW223466   2.106   6.888   2.398
 7523SOL     OW23467   6.641   6.324   6.249
 7523SOL    HW123468   6.604   6.239   6.209
 7523SOL    HW223469   6.597   6.342   6.336
 7524SOL     OW23470   6.493   1.217   4.676
 7524SOL    HW123471   6.435   1.195   4.598
 7524SOL    HW223472   6.451   1.181   4.760
 7525SOL     OW23473   0.403   0.622   0.870
 7525SOL    HW123474   0.344   0.688   0.915
 7525SOL    HW223475   0.416   0.542   0.929
 7526SOL     OW23476   3.668   3.339   5.651
 7526SOL    HW123477   3.635   3.258   5.699
 7526SOL    HW223478   3.649   3.421   5.705
 7527SOL     OW23479   3.656   6.450   2.087
 7527SOL    HW123480   3.715   6.472   2.009
 7527SOL    HW223481   3.596   6.527   2.107
 7528SOL     OW23482   5.968   3.317   6.732
 7528SOL    HW123483   5.995   3.384   6.801
 7528SOL    HW223484   6.048   3.263   6.705
 7529SOL     OW23485   2.222   0.090   4.743
 7529SOL    HW123486   2.280   0.080   4.661
 7529SOL    HW223487   2.126   0.085   4.717
 7530SOL     OW23488   6.816   2.897   2.839
 7530SOL    HW123489   6.872   2.839   2.898
 7530SOL    HW223490   6.793   2.847   2.755
 7531SOL     OW23491   2.373   1.767   4.211
 7531SOL    HW123492   2.387   1.855   4.257
 7531SOL    HW223493   2.276   1.744   4.212
 7532SOL     OW23494   4.882   4.886   2.142
 7532SOL    HW123495   4.809   4.818   2.148
 7532SOL    HW223496   4.861   4.962   2.203
 7533SOL     OW23497   3.343   0.729   4.796
 7533SOL    HW123498   3.421   0.683   4.838
 7533SOL    HW223499   3.376   0.797   4.731
 7534SOL     OW23500   4.594   6.923   3.740
 7534SOL    HW123501   4.659   6.927   3.816
 7534SOL    HW223502   4.632   6.865   3.667
 7535SOL     OW23503   3.088   4.760   0.460
 7535SOL    HW123504   3.101   4.805   0.372
 7535SOL    HW223505   3.087   4.661   0.448
 7536SOL     OW23506   4.607   5.890   5.993
 7536SOL    HW123507   4.644   5.982   5.982
 7536SOL    HW223508   4.575   5.856   5.904
 7537SOL     OW23509   1.988   4.793   5.307
 7537SOL    HW123510   1.904   4.847   5.299
 7537SOL    HW223511   1.972   4.700   5.274
 7538SOL     OW23512   3.553   4.133   4.965
 7538SOL    HW123513   3.470   4.100   4.919
 7538SOL    HW223514   3.530   4.163   5.058
 7539SOL     OW23515   0.826   2.229   4.893
 7539SOL    HW123516   0.797   2.300   4.828
 7539SOL    HW223517   0.926   2.223   4.892
 7540SOL     OW23518   2.459   1.032   0.351
 7540SOL    HW123519   2.533   1.036   0.418
 7540SOL    HW223520   2.392   1.104   0.370
 7541SOL     OW23521   6.785   2.615   5.386
 7541SOL    HW123522   6.814   2.646   5.296
 7541SOL    HW223523   6.741   2.525   5.378
 7542SOL     OW23524   1.685   0.441   5.579
 7542SOL    HW123525   1.703   0.538   5.590
 7542SOL    HW223526   1.705   0.414   5.485
 7543SOL     OW23527   2.600   2.408   1.027
 7543SOL    HW123528   2.622   2.339   1.096
 7543SOL    HW223529   2.575   2.494   1.072
 7544SOL     OW23530   1.302   1.910   2.573
 7544SOL    HW123531   1.211   1.949   2.574
 7544SOL    HW223532   1.296   1.810   2.567
 7545SOL     OW23533   4.010   0.571   3.480
 7545SOL    HW123534   3.986   0.483   3.522
 7545SOL    HW223535   3.959   0.644   3.526
 7546SOL     OW23536   5.277   0.195   5.438
 7546SOL    HW123537   5.236   0.105   5.421
 7546SOL    HW223538   5.376   0.189   5.421
 7547SOL     OW23539   2.719   0.396   0.281
 7547SOL    HW123540   2.624   0.419   0.304
 7547SOL    HW223541   2.719   0.339   0.198
 7548SOL     OW23542   1.970   3.289   1.329
 7548SOL    HW123543   1.951   3.194   1.304
 7548SOL    HW223544   1.922   3.311   1.414
 7549SOL     OW23545   5.601   0.404   2.446
 7549SOL    HW123546   5.628   0.495   2.416
 7549SOL    HW223547   5.585   0.346   2.366
 7550SOL     OW23548   1.234   5.661   0.733
 7550SOL    HW123549   1.262   5.577   0.780
 7550SOL    HW223550   1.177   5.716   0.794
 7551SOL     OW23551   5.421   3.578   6.449
 7551SOL    HW123552   5.471   3.525   6.517
 7551SOL    HW223553   5.460   3.562   6.358
 7552SOL     OW23554   3.867   5.870   4.079
 7552SOL    HW123555   3.925   5.808   4.027
 7552SOL    HW223556   3.831   5.822   4.160
 7553SOL     OW23557   4.056   3.845   5.798
 7553SOL    HW123558   4.079   3.755   5.758
 7553SOL    HW223559   3.959   3.847   5.822
 7554SOL     OW23560   0.106   1.301   1.244
 7554SOL    HW123561   0.163   1.345   1.174
 7554SOL    HW223562   0.040   1.367   1.280
 7555SOL     OW23563   1.585   5.968   5.800
 7555SOL    HW123564   1.528   5.912   5.860
 7555SOL    HW223565   1.677   5.973   5.837
 7556SOL     OW23566   6.734   4.054   3.497
 7556SOL    HW123567   6.644   4.086   3.526
 7556SOL    HW223568   6.723   3.979   3.432
 7557SOL     OW23569   4.062   3.871   0.281
 7557SOL    HW123570   3.995   3.843   0.213
 7557SOL    HW223571   4.040   3.828   0.369
 7558SOL     OW23572   1.763   2.716   3.436
 7558SOL    HW123573   1.831   2.684   3.370
 7558SOL    HW223574   1.759   2.816   3.432
 7559SOL     OW23575   0.440   4.697   0.145
 7559SOL    HW123576   0.520   4.675   0.201
 7559SOL    HW223577   0.454   4.662   0.052
 7560SOL     OW23578   4.716   0.643   5.245
 7560SOL    HW123579   4.644   0.585   5.284
 7560SOL    HW223580   4.806   0.605   5.267
 7561SOL     OW23581   0.528   4.064   0.401
 7561SOL    HW123582   0.507   4.064   0.499
 7561SOL    HW223583   0.454   4.018   0.352
 7562SOL     OW23584   4.679   6.197   4.718
 7562SOL    HW123585   4.721   6.260   4.783
 7562SOL    HW223586   4.667   6.108   4.761
 7563SOL     OW23587   2.383   1.245   4.033
 7563SOL    HW123588   2.469   1.269   4.078
 7563SOL    HW223589   2.402   1.210   3.941
 7564SOL     OW23590   6.177   5.681   4.022
 7564SOL    HW123591   6.264   5.646   3.988
 7564SOL    HW223592   6.103   5.618   3.996
 7565SOL     OW23593   4.753   5.523   6.916
 7565SOL    HW123594   4.807   5.589   6.863
 7565SOL    HW223595   4.697   5.468   6.855
 7566SOL     OW23596   1.613   5.855   4.377
 7566SOL    HW123597   1.563   5.843   4.463
 7566SOL    HW223598   1.640   5.951   4.367
 7567SOL     OW23599   2.221   3.219   0.388
 7567SOL    HW123600   2.145   3.195   0.328
 7567SOL    HW223601   2.267   3.136   0.418
 7568SOL     OW23602   3.898   4.950   2.939
 7568SOL    HW123603   3.959   4.898   2.879
 7568SOL    HW223604   3.827   4.889   2.975
 7569SOL     OW23605   3.877   0.130   2.367
 7569SOL    HW123606   3.939   0.183   2.309
 7569SOL    HW223607   3.884   0.033   2.345
 7570SOL     OW23608   5.724   4.874   4.712
 7570SOL    HW123609   5.808   4.919   4.682
 7570SOL    HW223610   5.732   4.775   4.697
 7571SOL     OW23611   6.259   3.954   0.479
 7571SOL    HW123612   6.339   3.928   0.533
 7571SOL    HW223613   6.177   3.919   0.523
 7572SOL     OW23614   6.693   1.633   3.220
 7572SOL    HW123615   6.774   1.625   3.279
 7572SOL    HW223616   6.615   1.588   3.264
 7573SOL     OW23617   3.906   5.138   4.722
 7573SOL    HW123618   3.852   5.209   4.768
 7573SOL    HW223619   3.846   5.061   4.698
 7574SOL     OW23620   4.718   6.021   2.111
 7574SOL    HW123621   4.677   6.080   2.180
 7574SOL    HW223622   4.789   6.071   2.062
 7575SOL     OW23623   4.766   2.950   5.079
 7575SOL    HW123624   4.800   3.000   4.999
 7575SOL    HW223625   4.800   2.994   5.162
 7576SOL     OW23626   6.977   3.559   1.904
 7576SOL    HW123627   0.010   3.479   1.892
 7576SOL    HW223628   6.971   3.609   1.818
 7577SOL     OW23629   4.669   1.634   4.527
 7577SOL    HW123630   4.663   1.706   4.458
 7577SOL    HW223631   4.620   1.553   4.494
 7578SOL     OW23632   2.427   5.720   4.765
 7578SOL    HW123633   2.476   5.756   4.687
 7578SOL    HW223634   2.393   5.628   4.744
 7579SOL     OW23635   4.480   2.373   4.068
 7579SOL    HW123636   4.506   2.349   4.162
 7579SOL    HW223637   4.424   2.300   4.029
 7580SOL     OW23638   1.997   3.450   2.119
 7580SOL    HW123639   2.065   3.509   2.077
 7580SOL    HW223640   1.981   3.370   2.060
 7581SOL     OW23641   5.209   0.729   0.853
 7581SOL    HW123642   5.156   0.644   0.844
 7581SOL    HW223643   5.303   0.707   0.881
 7582SOL     OW23644   3.482   2.523   1.205
 7582SOL    HW123645   3.564   2.491   1.254
 7582SOL    HW223646   3.485   2.622   1.196
 7583SOL     OW23647   6.725   4.443   3.240
 7583SOL    HW123648   6.747   4.440   3.143
 7583SOL    HW223649   6.791   4.388   3.291
 7584SOL     OW23650   2.390   1.844   2.044
 7584SOL    HW123651   2.462   1.859   2.111
 7584SOL    HW223652   2.393   1.917   1.975
 7585SOL     OW23653   2.073   4.565   6.777
 7585SOL    HW123654   2.105   4.609   6.694
 7585SOL    HW223655   2.135   4.490   6.802
 7586SOL     OW23656   1.756   2.117   3.252
 7586SOL    HW123657   1.730   2.200   3.302
 7586SOL    HW223658   1.845   2.130   3.209
 7587SOL     OW23659   2.286   1.202   5.629
 7587SOL    HW123660   2.330   1.148   5.557
 7587SOL    HW223661   2.308   1.298   5.616
 7588SOL     OW23662   0.647   4.328   1.750
 7588SOL    HW123663   0.658   4.427   1.750
 7588SOL    HW223664   0.688   4.290   1.833
 7589SOL     OW23665   4.857   6.167   6.232
 7589SOL    HW123666   4.856   6.077   6.276
 7589SOL    HW223667   4.874   6.156   6.134
 7590SOL     OW23668   1.437   0.971   5.897
 7590SOL    HW123669   1.488   1.037   5.952
 7590SOL    HW223670   1.342   0.968   5.928
 7591SOL     OW23671   6.349   5.843   6.769
 7591SOL    HW123672   6.278   5.869   6.704
 7591SOL    HW223673   6.336   5.895   6.854
 7592SOL     OW23674   4.293   5.183   6.172
 7592SOL    HW123675   4.283   5.134   6.258
 7592SOL    HW223676   4.279   5.120   6.096
 7593SOL     OW23677   5.918   4.038   0.488
 7593SOL    HW123678   5.822   4.060   0.505
 7593SOL    HW223679   5.971   4.052   0.572
 7594SOL     OW23680   1.091   6.887   4.124
 7594SOL    HW123681   1.147   6.853   4.199
 7594SOL    HW223682   1.099   6.987   4.119
 7595SOL     OW23683   6.439   2.937   6.630
 7595SOL    HW123684   6.378   2.923   6.707
 7595SOL    HW223685   6.503   3.011   6.651
 7596SOL     OW23686   4.890   5.465   2.106
 7596SOL    HW123687   4.810   5.500   2.058
 7596SOL    HW223688   4.870   5.373   2.141
 7597SOL     OW23689   2.151   5.750   1.613
 7597SOL    HW123690   2.131   5.736   1.710
 7597SOL    HW223691   2.164   5.848   1.596
 7598SOL     OW23692   6.285   1.151   2.636
 7598SOL    HW123693   6.275   1.099   2.551
 7598SOL    HW223694   6.336   1.235   2.619
 7599SOL     OW23695   5.860   3.154   2.116
 7599SOL    HW123696   5.810   3.238   2.094
 7599SOL    HW223697   5.856   3.092   2.038
 7600SOL     OW23698   2.333   2.452   3.058
 7600SOL    HW123699   2.395   2.522   3.094
 7600SOL    HW223700   2.377   2.362   3.064
 7601SOL     OW23701   2.212   0.658   5.688
 7601SOL    HW123702   2.236   0.577   5.742
 7601SOL    HW223703   2.243   0.646   5.594
 7602SOL     OW23704   2.106   3.328   5.249
 7602SOL    HW123705   2.204   3.322   5.230
 7602SOL    HW223706   2.055   3.288   5.173
 7603SOL     OW23707   6.634   1.136   2.118
 7603SOL    HW123708   6.691   1.138   2.037
 7603SOL    HW223709   6.673   1.196   2.188
 7604SOL     OW23710   5.145   5.587   6.742
 7604SOL    HW123711   5.229   5.637   6.721
 7604SOL    HW223712   5.129   5.517   6.673
 7605SOL     OW23713   5.828   3.734   6.270
 7605SOL    HW123714   5.772   3.815   6.285
 7605SOL    HW223715   5.794   3.659   6.326
 7606SOL     OW23716   5.647   1.869   3.849
 7606SOL    HW123717   5.637   1.818   3.934
 7606SOL    HW223718   5.566   1.855   3.792
 7607SOL     OW23719   4.994   0.018   6.025
 7607SOL    HW123720   4.925   0.091   6.027
 7607SOL    HW223721   5.034   0.013   5.934
 7608SOL     OW23722   3.421   3.406   4.669
 7608SOL    HW123723   3.334   3.408   4.718
 7608SOL    HW223724   3.418   3.470   4.593
 7609SOL     OW23725   1.418   2.934   3.235
 7609SOL    HW123726   1.444   2.942   3.139
 7609SOL    HW223727   1.454   2.849   3.272
 7610SOL     OW23728   5.609   0.514   2.142
 7610SOL    HW123729   5.604   0.565   2.057
 7610SOL    HW223730   5.551   0.558   2.211
 7611SOL     OW23731   1.977   1.919   1.554
 7611SOL    HW123732   2.064   1.872   1.564
 7611SOL    HW223733   1.905   1.866   1.600
 7612SOL     OW23734   4.451   1.982   2.926
 7612SOL    HW123735   4.364   1.967   2.881
 7612SOL    HW223736   4.518   2.016   2.860
 7613SOL     OW23737   6.039   0.577   2.579
 7613SOL    HW123738   6.014   0.491   2.535
 7613SOL    HW223739   5.970   0.647   2.557
 7614SOL     OW23740   4.545   0.955   0.318
 7614SOL    HW123741   4.462   1.011   0.321
 7614SOL    HW223742   4.582   0.946   0.411
 7615SOL     OW23743   3.828   4.695   5.694
 7615SOL    HW123744   3.828   4.651   5.605
 7615SOL    HW223745   3.845   4.793   5.683
 7616SOL     OW23746   0.431   5.393   3.075
 7616SOL    HW123747   0.493   5.325   3.038
 7616SOL    HW223748   0.338   5.374   3.043
 7617SOL     OW23749   3.337   5.812   3.473
 7617SOL    HW123750   3.339   5.713   3.458
 7617SOL    HW223751   3.346   5.859   3.385
 7618SOL     OW23752   2.271   1.907   0.496
 7618SOL    HW123753   2.176   1.929   0.474
 7618SOL    HW223754   2.329   1.985   0.472
 7619SOL     OW23755   5.905   3.256   6.318
 7619SOL    HW123756   5.873   3.294   6.231
 7619SOL    HW223757   5.896   3.157   6.316
 7620SOL     OW23758   3.255   5.953   1.541
 7620SOL    HW123759   3.208   5.931   1.455
 7620SOL    HW223760   3.350   5.975   1.522
 7621SOL     OW23761   2.013   2.469   0.543
 7621SOL    HW123762   1.961   2.526   0.479
 7621SOL    HW223763   2.015   2.513   0.633
 7622SOL     OW23764   4.603   2.164   1.497
 7622SOL    HW123765   4.507   2.184   1.519
 7622SOL    HW223766   4.633   2.221   1.420
 7623SOL     OW23767   6.370   6.284   5.318
 7623SOL    HW123768   6.275   6.304   5.344
 7623SOL    HW223769   6.371   6.219   5.243
 7624SOL     OW23770   0.393   0.619   4.796
 7624SOL    HW123771   0.466   0.685   4.781
 7624SOL    HW223772   0.322   0.631   4.726
 7625SOL     OW23773   3.188   5.605   0.855
 7625SOL    HW123774   3.266   5.549   0.826
 7625SOL    HW223775   3.137   5.635   0.774
 7626SOL     OW23776   2.617   4.298   5.430
 7626SOL    HW123777   2.619   4.371   5.362
 7626SOL    HW223778   2.689   4.314   5.497
 7627SOL     OW23779   6.968   0.993   0.616
 7627SOL    HW123780   0.000   0.918   0.585
 7627SOL    HW223781   6.998   1.078   0.574
 7628SOL     OW23782   4.769   1.572   1.507
 7628SOL    HW123783   4.810   1.612   1.589
 7628SOL    HW223784   4.829   1.502   1.470
 7629SOL     OW23785   6.147   5.841   3.423
 7629SOL    HW123786   6.176   5.863   3.330
 7629SOL    HW223787   6.191   5.903   3.487
 7630SOL     OW23788   6.545   1.520   2.134
 7630SOL    HW123789   6.481   1.569   2.193
 7630SOL    HW223790   6.636   1.521   2.176
 7631SOL     OW23791   1.238   0.836   3.627
 7631SOL    HW123792   1.337   0.825   3.621
 7631SOL    HW223793   1.216   0.900   3.701
 7632SOL     OW23794   4.343   0.638   4.978
 7632SOL    HW123795   4.251   0.623   4.941
 7632SOL    HW223796   4.345   0.724   5.029
 7633SOL     OW23797   6.235   3.961   6.932
 7633SOL    HW123798   6.236   3.869   6.894
 7633SOL    HW223799   6.145   3.982   6.969
 7634SOL     OW23800   1.170   2.507   2.536
 7634SOL    HW123801   1.138   2.552   2.453
 7634SOL    HW223802   1.102   2.521   2.609
 7635SOL     OW23803   2.711   4.811   6.098
 7635SOL    HW123804   2.737   4.825   6.194
 7635SOL    HW223805   2.687   4.899   6.056
 7636SOL     OW23806   1.284   0.442   3.396
 7636SOL    HW123807   1.297   0.376   3.323
 7636SOL    HW223808   1.193   0.432   3.436
 7637SOL     OW23809   2.739   6.308   3.950
 7637SOL    HW123810   2.691   6.274   3.868
 7637SOL    HW223811   2.749   6.407   3.944
 7638SOL     OW23812   4.318   4.606   1.859
 7638SOL    HW123813   4.255   4.530   1.842
 7638SOL    HW223814   4.397   4.573   1.911
 7639SOL     OW23815   0.370   1.664   4.408
 7639SOL    HW123816   0.459   1.659   4.362
 7639SOL    HW223817   0.378   1.722   4.489
 7640SOL     OW23818   2.571   3.003   5.776
 7640SOL    HW123819   2.497   2.980   5.712
 7640SOL    HW223820   2.582   3.102   5.782
 7641SOL     OW23821   6.138   3.087   3.197
 7641SOL    HW123822   6.067   3.054   3.135
 7641SOL    HW223823   6.097   3.147   3.265
 7642SOL     OW23824   1.570   2.004   2.583
 7642SOL    HW123825   1.617   1.978   2.498
 7642SOL    HW223826   1.473   1.982   2.576
 7643SOL     OW23827   5.674   3.669   3.449
 7643SOL    HW123828   5.613   3.747   3.435
 7643SOL    HW223829   5.765   3.703   3.475
 7644SOL     OW23830   6.552   3.034   3.821
 7644SOL    HW123831   6.472   2.975   3.830
 7644SOL    HW223832   6.575   3.074   3.910
 7645SOL     OW23833   3.439   2.720   0.332
 7645SOL    HW123834   3.361   2.660   0.344
 7645SOL    HW223835   3.459   2.768   0.417
 7646SOL     OW23836   0.705   0.044   2.010
 7646SOL    HW123837   0.666   0.136   2.013
 7646SOL    HW223838   0.709   0.006   2.102
 7647SOL     OW23839   2.029   4.982   0.115
 7647SOL    HW123840   2.108   4.940   0.160
 7647SOL    HW223841   2.021   5.077   0.143
 7648SOL     OW23842   3.197   1.215   3.702
 7648SOL    HW123843   3.297   1.211   3.706
 7648SOL    HW223844   3.166   1.199   3.609
 7649SOL     OW23845   2.741   1.454   0.968
 7649SOL    HW123846   2.763   1.374   1.025
 7649SOL    HW223847   2.725   1.533   1.027
 7650SOL     OW23848   6.308   4.931   0.492
 7650SOL    HW123849   6.338   4.938   0.587
 7650SOL    HW223850   6.339   4.844   0.454
 7651SOL     OW23851   5.545   2.123   6.197
 7651SOL    HW123852   5.524   2.138   6.101
 7651SOL    HW223853   5.469   2.153   6.254
 7652SOL     OW23854   1.325   3.310   3.102
 7652SOL    HW123855   1.356   3.402   3.075
 7652SOL    HW223856   1.239   3.317   3.152
 7653SOL     OW23857   4.809   2.450   2.269
 7653SOL    HW123858   4.723   2.441   2.219
 7653SOL    HW223859   4.833   2.547   2.277
 7654SOL     OW23860   5.291   3.948   4.780
 7654SOL    HW123861   5.251   3.965   4.690
 7654SOL    HW223862   5.267   4.024   4.842
 7655SOL     OW23863   4.891   5.184   5.542
 7655SOL    HW123864   4.940   5.137   5.468
 7655SOL    HW223865   4.793   5.175   5.528
 7656SOL     OW23866   0.920   0.467   4.911
 7656SOL    HW123867   0.893   0.381   4.954
 7656SOL    HW223868   1.019   0.480   4.920
 7657SOL     OW23869   4.296   1.987   3.427
 7657SOL    HW123870   4.285   2.009   3.330
 7657SOL    HW223871   4.220   1.928   3.456
 7658SOL     OW23872   4.264   0.447   5.798
 7658SOL    HW123873   4.227   0.532   5.835
 7658SOL    HW223874   4.191   0.393   5.757
 7659SOL     OW23875   5.202   6.204   6.502
 7659SOL    HW123876   5.239   6.112   6.517
 7659SOL    HW223877   5.268   6.272   6.533
 7660SOL     OW23878   5.449   5.214   3.744
 7660SOL    HW123879   5.480   5.167   3.827
 7660SOL    HW223880   5.435   5.147   3.671
 7661SOL     OW23881   6.356   3.316   4.399
 7661SOL    HW123882   6.350   3.242   4.332
 7661SOL    HW223883   6.302   3.394   4.367
 7662SOL     OW23884   6.479   5.265   3.365
 7662SOL    HW123885   6.489   5.212   3.281
 7662SOL    HW223886   6.515   5.357   3.351
 7663SOL     OW23887   0.348   6.220   0.526
 7663SOL    HW123888   0.339   6.319   0.540
 7663SOL    HW223889   0.355   6.175   0.615
 7664SOL     OW23890   3.554   5.557   5.078
 7664SOL    HW123891   3.512   5.618   5.011
 7664SOL    HW223892   3.650   5.581   5.089
 7665SOL     OW23893   2.346   5.785   3.937
 7665SOL    HW123894   2.261   5.832   3.958
 7665SOL    HW223895   2.326   5.696   3.896
 7666SOL     OW23896   1.732   0.379   2.117
 7666SOL    HW123897   1.805   0.447   2.120
 7666SOL    HW223898   1.697   0.363   2.209
 7667SOL     OW23899   5.802   6.691   5.449
 7667SOL    HW123900   5.895   6.714   5.420
 7667SOL    HW223901   5.788   6.593   5.439
 7668SOL     OW23902   2.805   3.799   1.763
 7668SOL    HW123903   2.794   3.892   1.730
 7668SOL    HW223904   2.750   3.737   1.706
 7669SOL     OW23905   4.545   6.533   4.949
 7669SOL    HW123906   4.637   6.496   4.963
 7669SOL    HW223907   4.477   6.460   4.965
 7670SOL     OW23908   1.651   5.669   0.393
 7670SOL    HW123909   1.641   5.708   0.484
 7670SOL    HW223910   1.668   5.571   0.401
 7671SOL     OW23911   5.224   2.071   4.659
 7671SOL    HW123912   5.139   2.021   4.645
 7671SOL    HW223913   5.283   2.022   4.723
 7672SOL     OW23914   6.607   0.332   2.099
 7672SOL    HW123915   6.568   0.417   2.062
 7672SOL    HW223916   6.651   0.351   2.187
 7673SOL     OW23917   0.591   3.630   0.187
 7673SOL    HW123918   0.665   3.602   0.126
 7673SOL    HW223919   0.628   3.680   0.265
 7674SOL     OW23920   5.762   0.462   5.441
 7674SOL    HW123921   5.836   0.395   5.436
 7674SOL    HW223922   5.766   0.522   5.361
 7675SOL     OW23923   4.853   0.122   3.109
 7675SOL    HW123924   4.875   0.138   3.013
 7675SOL    HW223925   4.926   0.159   3.167
 7676SOL     OW23926   1.210   0.338   1.151
 7676SOL    HW123927   1.123   0.357   1.196
 7676SOL    HW223928   1.218   0.394   1.068
 7677SOL     OW23929   1.461   2.793   2.914
 7677SOL    HW123930   1.446   2.892   2.914
 7677SOL    HW223931   1.538   2.771   2.854
 7678SOL     OW23932   5.403   6.570   6.000
 7678SOL    HW123933   5.478   6.506   5.982
 7678SOL    HW223934   5.316   6.520   5.997
 7679SOL     OW23935   1.510   5.182   4.534
 7679SOL    HW123936   1.583   5.132   4.489
 7679SOL    HW223937   1.531   5.280   4.534
 7680SOL     OW23938   5.076   0.719   0.007
 7680SOL    HW123939   5.079   0.649   6.961
 7680SOL    HW223940   5.089   0.809   6.993
 7681SOL     OW23941   3.079   2.107   6.627
 7681SOL    HW123942   3.015   2.054   6.572
 7681SOL    HW223943   3.036   2.194   6.653
 7682SOL     OW23944   2.977   0.031   0.729
 7682SOL    HW123945   3.017   6.967   0.738
 7682SOL    HW223946   2.926   0.037   0.644
 7683SOL     OW23947   6.813   2.919   3.458
 7683SOL    HW123948   6.790   2.929   3.555
 7683SOL    HW223949   6.811   2.822   3.433
 7684SOL     OW23950   3.982   2.067   5.626
 7684SOL    HW123951   4.027   2.138   5.574
 7684SOL    HW223952   3.886   2.062   5.599
 7685SOL     OW23953   4.090   3.919   1.196
 7685SOL    HW123954   3.996   3.950   1.188
 7685SOL    HW223955   4.145   3.989   1.242
 7686SOL     OW23956   3.076   1.066   3.103
 7686SOL    HW123957   3.003   1.031   3.045
 7686SOL    HW223958   3.102   1.158   3.074
 7687SOL     OW23959   4.581   3.853   5.781
 7687SOL    HW123960   4.584   3.765   5.734
 7687SOL    HW223961   4.491   3.895   5.767
 7688SOL     OW23962   6.442   0.469   3.076
 7688SOL    HW123963   6.493   0.460   3.162
 7688SOL    HW223964   6.435   0.379   3.033
 7689SOL     OW23965   3.605   6.204   4.612
 7689SOL    HW123966   3.572   6.285   4.661
 7689SOL    HW223967   3.560   6.198   4.524
 7690SOL     OW23968   0.837   5.430   2.467
 7690SOL    HW123969   0.803   5.438   2.561
 7690SOL    HW223970   0.874   5.519   2.438
 7691SOL     OW23971   6.169   3.942   5.713
 7691SOL    HW123972   6.144   4.038   5.728
 7691SOL    HW223973   6.128   3.885   5.785
 7692SOL     OW23974   1.835   6.800   1.089
 7692SOL    HW123975   1.866   6.895   1.088
 7692SOL    HW223976   1.909   6.741   1.121
 7693SOL     OW23977   5.451   1.756   0.702
 7693SOL    HW123978   5.434   1.753   0.801
 7693SOL    HW223979   5.409   1.837   0.663
 7694SOL     OW23980   5.581   5.104   3.338
 7694SOL    HW123981   5.591   5.195   3.377
 7694SOL    HW223982   5.666   5.053   3.349
 7695SOL     OW23983   4.796   0.587   6.641
 7695SOL    HW123984   4.791   0.519   6.714
 7695SOL    HW223985   4.747   0.554   6.560
 7696SOL     OW23986   1.190   4.084   5.643
 7696SOL    HW123987   1.268   4.145   5.626
 7696SOL    HW223988   1.218   4.011   5.706
 7697SOL     OW23989   4.770   1.296   2.105
 7697SOL    HW123990   4.817   1.208   2.094
 7697SOL    HW223991   4.717   1.316   2.022
 7698SOL     OW23992   6.950   2.832   5.808
 7698SOL    HW123993   6.947   2.824   5.708
 7698SOL    HW223994   6.859   2.856   5.842
 7699SOL     OW23995   3.196   4.116   0.517
 7699SOL    HW123996   3.140   4.188   0.476
 7699SOL    HW223997   3.155   4.087   0.603
 7700SOL     OW23998   5.608   6.506   4.151
 7700SOL    HW123999   5.673   6.573   4.186
 7700SOL    HW224000   5.579   6.532   4.059
 7701SOL     OW24001   6.668   2.378   5.326
 7701SOL    HW124002   6.571   2.391   5.343
 7701SOL    HW224003   6.681   2.303   5.261
 7702SOL     OW24004   1.867   6.256   6.576
 7702SOL    HW124005   1.819   6.338   6.609
 7702SOL    HW224006   1.965   6.268   6.588
 7703SOL     OW24007   0.392   2.422   5.728
 7703SOL    HW124008   0.420   2.351   5.664
 7703SOL    HW224009   0.448   2.417   5.810
 7704SOL     OW24010   2.507   4.159   1.355
 7704SOL    HW124011   2.572   4.092   1.319
 7704SOL    HW224012   2.416   4.116   1.363
 7705SOL     OW24013   3.976   4.006   4.840
 7705SOL    HW124014   3.904   4.071   4.815
 7705SOL    HW224015   4.018   4.035   4.926
 7706SOL     OW24016   6.549   0.629   5.628
 7706SOL    HW124017   6.620   0.625   5.558
 7706SOL    HW224018   6.464   0.663   5.588
 7707SOL     OW24019   6.886   5.874   6.775
 7707SOL    HW124020   6.787   5.869   6.762
 7707SOL    HW224021   6.918   5.791   6.819
 7708SOL     OW24022   5.211   1.346   5.182
 7708SOL    HW124023   5.209   1.428   5.240
 7708SOL    HW224024   5.122   1.334   5.139
 7709SOL     OW24025   3.930   2.450   1.697
 7709SOL    HW124026   3.843   2.426   1.740
 7709SOL    HW224027   3.938   2.550   1.692
 7710SOL     OW24028   2.701   2.046   6.932
 7710SOL    HW124029   2.787   2.075   6.890
 7710SOL    HW224030   2.702   2.070   0.003
 7711SOL     OW24031   4.424   5.637   4.542
 7711SOL    HW124032   4.495   5.678   4.484
 7711SOL    HW224033   4.461   5.557   4.589
 7712SOL     OW24034   5.186   4.496   6.438
 7712SOL    HW124035   5.119   4.459   6.502
 7712SOL    HW224036   5.238   4.421   6.397
 7713SOL     OW24037   0.383   5.738   6.277
 7713SOL    HW124038   0.367   5.806   6.205
 7713SOL    HW224039   0.362   5.778   6.366
 7714SOL     OW24040   5.005   4.217   4.747
 7714SOL    HW124041   4.994   4.315   4.762
 7714SOL    HW224042   4.920   4.180   4.710
 7715SOL     OW24043   3.954   2.205   1.868
 7715SOL    HW124044   3.962   2.283   1.805
 7715SOL    HW224045   3.868   2.212   1.918
 7716SOL     OW24046   4.201   2.330   4.501
 7716SOL    HW124047   4.250   2.413   4.475
 7716SOL    HW224048   4.226   2.304   4.595
 7717SOL     OW24049   3.073   0.210   6.513
 7717SOL    HW124050   3.098   0.261   6.595
 7717SOL    HW224051   3.003   0.260   6.462
 7718SOL     OW24052   2.511   6.324   3.769
 7718SOL    HW124053   2.458   6.239   3.769
 7718SOL    HW224054   2.467   6.392   3.826
 7719SOL     OW24055   5.811   2.806   5.440
 7719SOL    HW124056   5.824   2.732   5.373
 7719SOL    HW224057   5.835   2.773   5.531
 7720SOL     OW24058   5.767   6.139   1.719
 7720SOL    HW124059   5.830   6.213   1.695
 7720SOL    HW224060   5.773   6.067   1.650
 7721SOL     OW24061   1.104   4.245   2.933
 7721SOL    HW124062   1.179   4.264   2.869
 7721SOL    HW224063   1.138   4.255   3.027
 7722SOL     OW24064   0.808   6.171   4.402
 7722SOL    HW124065   0.883   6.233   4.424
 7722SOL    HW224066   0.761   6.202   4.319
 7723SOL     OW24067   6.840   1.689   0.349
 7723SOL    HW124068   6.854   1.670   0.446
 7723SOL    HW224069   6.765   1.632   0.314
 7724SOL     OW24070   2.502   6.204   6.823
 7724SOL    HW124071   2.586   6.184   6.873
 7724SOL    HW224072   2.425   6.159   6.867
 7725SOL     OW24073   4.934   3.712   4.452
 7725SOL    HW124074   5.018   3.742   4.496
 7725SOL    HW224075   4.946   3.618   4.417
 7726SOL     OW24076   5.267   4.697   3.240
 7726SOL    HW124077   5.255   4.792   3.271
 7726SOL    HW224078   5.251   4.692   3.141
 7727SOL     OW24079   5.771   3.341   2.377
 7727SOL    HW124080   5.695   3.333   2.313
 7727SOL    HW224081   5.766   3.269   2.445
 7728SOL     OW24082   2.025   2.716   2.879
 7728SOL    HW124083   2.123   2.721   2.897
 7728SOL    HW224084   1.992   2.624   2.898
 7729SOL     OW24085   4.913   2.312   6.540
 7729SOL    HW124086   4.915   2.244   6.467
 7729SOL    HW224087   5.001   2.359   6.545
 7730SOL     OW24088   4.710   0.068   2.283
 7730SOL    HW124089   4.751   0.004   2.348
 7730SOL    HW224090   4.724   0.034   2.190
 7731SOL     OW24091   0.057   1.559   4.078
 7731SOL    HW124092   0.026   1.610   4.158
 7731SOL    HW224093   0.031   1.463   4.088
 7732SOL     OW24094   3.894   4.824   0.647
 7732SOL    HW124095   3.822   4.827   0.578
 7732SOL    HW224096   3.964   4.892   0.626
 7733SOL     OW24097   3.015   5.909   0.605
 7733SOL    HW124098   3.000   5.821   0.561
 7733SOL    HW224099   3.109   5.938   0.589
 7734SOL     OW24100   1.721   3.191   2.249
 7734SOL    HW124101   1.642   3.130   2.252
 7734SOL    HW224102   1.794   3.154   2.306
 7735SOL     OW24103   5.199   4.644   0.973
 7735SOL    HW124104   5.141   4.664   1.051
 7735SOL    HW224105   5.289   4.685   0.987
 7736SOL     OW24106   6.017   4.424   6.349
 7736SOL    HW124107   5.974   4.462   6.267
 7736SOL    HW224108   6.008   4.490   6.424
 7737SOL     OW24109   4.651   2.533   0.306
 7737SOL    HW124110   4.607   2.533   0.397
 7737SOL    HW224111   4.659   2.627   0.274
 7738SOL     OW24112   2.129   4.781   6.935
 7738SOL    HW124113   2.075   4.814   7.012
 7738SOL    HW224114   2.068   4.738   6.868
 7739SOL     OW24115   5.193   3.938   2.641
 7739SOL    HW124116   5.234   3.900   2.558
 7739SOL    HW224117   5.122   4.004   2.616
 7740SOL     OW24118   0.222   6.161   3.535
 7740SOL    HW124119   0.315   6.197   3.532
 7740SOL    HW224120   0.202   6.126   3.626
 7741SOL     OW24121   3.215   5.504   4.268
 7741SOL    HW124122   3.234   5.412   4.303
 7741SOL    HW224123   3.263   5.517   4.181
 7742SOL     OW24124   0.078   0.572   4.397
 7742SOL    HW124125   0.021   0.525   4.331
 7742SOL    HW224126   0.174   0.552   4.379
 7743SOL     OW24127   4.878   3.192   2.186
 7743SOL    HW124128   4.802   3.216   2.247
 7743SOL    HW224129   4.841   3.154   2.101
 7744SOL     OW24130   0.238   6.682   4.958
 7744SOL    HW124131   0.300   6.618   4.911
 7744SOL    HW224132   0.144   6.665   4.929
 7745SOL     OW24133   5.317   3.275   5.487
 7745SOL    HW124134   5.233   3.273   5.433
 7745SOL    HW224135   5.301   3.321   5.573
 7746SOL     OW24136   2.060   0.641   6.662
 7746SOL    HW124137   2.018   0.624   6.751
 7746SOL    HW224138   2.085   0.553   6.620
 7747SOL     OW24139   4.631   5.044   0.553
 7747SOL    HW124140   4.593   4.955   0.577
 7747SOL    HW224141   4.682   5.081   0.631
 7748SOL     OW24142   2.307   3.608   6.701
 7748SOL    HW124143   2.255   3.686   6.667
 7748SOL    HW224144   2.290   3.528   6.644
 7749SOL     OW24145   5.938   2.976   6.320
 7749SOL    HW124146   5.884   2.982   6.404
 7749SOL    HW224147   5.945   2.881   6.292
 7750SOL     OW24148   4.568   5.595   2.337
 7750SOL    HW124149   4.624   5.677   2.320
 7750SOL    HW224150   4.565   5.578   2.436
 7751SOL     OW24151   0.881   2.749   0.981
 7751SOL    HW124152   0.818   2.675   1.006
 7751SOL    HW224153   0.923   2.786   1.064
 7752SOL     OW24154   3.835   1.361   3.075
 7752SOL    HW124155   3.820   1.321   3.165
 7752SOL    HW224156   3.890   1.299   3.019
 7753SOL     OW24157   3.927   0.840   5.293
 7753SOL    HW124158   3.845   0.882   5.252
 7753SOL    HW224159   3.902   0.753   5.335
 7754SOL     OW24160   4.947   5.660   1.542
 7754SOL    HW124161   4.936   5.631   1.447
 7754SOL    HW224162   5.043   5.682   1.560
 7755SOL     OW24163   0.264   4.836   5.780
 7755SOL    HW124164   0.262   4.900   5.857
 7755SOL    HW224165   0.178   4.843   5.728
 7756SOL     OW24166   2.220   4.112   2.221
 7756SOL    HW124167   2.144   4.156   2.270
 7756SOL    HW224168   2.241   4.025   2.265
 7757SOL     OW24169   0.211   4.307   0.426
 7757SOL    HW124170   0.241   4.399   0.399
 7757SOL    HW224171   0.250   4.284   0.515
 7758SOL     OW24172   0.860   1.102   5.814
 7758SOL    HW124173   0.802   1.026   5.785
 7758SOL    HW224174   0.888   1.155   5.734
 7759SOL     OW24175   3.757   1.445   2.288
 7759SOL    HW124176   3.828   1.376   2.299
 7759SOL    HW224177   3.782   1.508   2.215
 7760SOL     OW24178   4.680   2.783   0.141
 7760SOL    HW124179   4.699   2.711   0.073
 7760SOL    HW224180   4.685   2.872   0.096
 7761SOL     OW24181   5.455   5.259   3.053
 7761SOL    HW124182   5.493   5.169   3.031
 7761SOL    HW224183   5.530   5.325   3.065
 7762SOL     OW24184   4.821   1.885   1.551
 7762SOL    HW124185   4.841   1.966   1.607
 7762SOL    HW224186   4.723   1.868   1.551
 7763SOL     OW24187   1.953   0.683   3.125
 7763SOL    HW124188   1.976   0.594   3.163
 7763SOL    HW224189   1.902   0.736   3.193
 7764SOL     OW24190   3.969   5.122   5.520
 7764SOL    HW124191   3.955   5.167   5.432
 7764SOL    HW224192   3.897   5.055   5.535
 7765SOL     OW24193   5.605   3.990   4.491
 7765SOL    HW124194   5.688   4.009   4.438
 7765SOL    HW224195   5.592   4.062   4.559
 7766SOL     OW24196   6.680   2.266   6.708
 7766SOL    HW124197   6.698   2.168   6.705
 7766SOL    HW224198   6.630   2.294   6.626
 7767SOL     OW24199   4.449   0.131   3.894
 7767SOL    HW124200   4.505   0.115   3.813
 7767SOL    HW224201   4.405   0.045   3.922
 7768SOL     OW24202   3.034   5.780   4.077
 7768SOL    HW124203   3.004   5.699   4.128
 7768SOL    HW224204   3.117   5.758   4.026
 7769SOL     OW24205   3.561   2.478   0.021
 7769SOL    HW124206   3.502   2.536   6.992
 7769SOL    HW224207   3.528   2.383   0.016
 7770SOL     OW24208   1.029   3.691   3.603
 7770SOL    HW124209   1.001   3.768   3.660
 7770SOL    HW224210   0.988   3.701   3.512
 7771SOL     OW24211   1.033   3.948   5.143
 7771SOL    HW124212   1.116   3.921   5.193
 7771SOL    HW224213   0.993   4.029   5.186
 7772SOL     OW24214   5.509   5.933   1.695
 7772SOL    HW124215   5.470   5.875   1.766
 7772SOL    HW224216   5.438   5.964   1.633
 7773SOL     OW24217   2.701   0.088   6.649
 7773SOL    HW124218   2.632   0.107   6.718
 7773SOL    HW224219   2.704   7.016   6.631
 7774SOL     OW24220   5.237   1.258   2.927
 7774SOL    HW124221   5.259   1.248   3.024
 7774SOL    HW224222   5.145   1.295   2.917
 7775SOL     OW24223   3.320   1.658   0.688
 7775SOL    HW124224   3.385   1.602   0.636
 7775SOL    HW224225   3.244   1.601   0.719
 7776SOL     OW24226   3.476   1.225   3.783
 7776SOL    HW124227   3.549   1.293   3.775
 7776SOL    HW224228   3.468   1.195   3.878
 7777SOL     OW24229   5.188   5.117   3.067
 7777SOL    HW124230   5.148   5.160   3.148
 7777SOL    HW224231   5.142   5.150   2.985
 7778SOL     OW24232   1.563   4.006   2.387
 7778SOL    HW124233   1.590   4.059   2.467
 7778SOL    HW224234   1.641   4.000   2.324
 7779SOL     OW24235   3.507   0.072   2.611
 7779SOL    HW124236   3.537   7.024   2.551
 7779SOL    HW224237   3.571   0.148   2.603
 7780SOL     OW24238   6.409   5.622   3.878
 7780SOL    HW124239   6.414   5.532   3.835
 7780SOL    HW224240   6.453   5.618   3.968
 7781SOL     OW24241   2.253   2.655   0.948
 7781SOL    HW124242   2.174   2.616   0.902
 7781SOL    HW224243   2.308   2.582   0.988
 7782SOL     OW24244   5.987   3.992   4.056
 7782SOL    HW124245   5.894   4.000   4.019
 7782SOL    HW224246   6.053   4.017   3.984
 7783SOL     OW24247   1.173   6.200   3.972
 7783SOL    HW124248   1.171   6.185   4.071
 7783SOL    HW224249   1.173   6.111   3.926
 7784SOL     OW24250   1.550   2.580   3.087
 7784SOL    HW124251   1.512   2.654   3.031
 7784SOL    HW224252   1.637   2.611   3.127
 7785SOL     OW24253   6.652   6.372   2.778
 7785SOL    HW124254   6.661   6.295   2.714
 7785SOL    HW224255   6.585   6.437   2.743
 7786SOL     OW24256   5.397   1.156   6.480
 7786SOL    HW124257   5.491   1.188   6.489
 7786SOL    HW224258   5.349   1.211   6.412
 7787SOL     OW24259   1.281   2.855   0.866
 7787SOL    HW124260   1.304   2.839   0.770
 7787SOL    HW224261   1.348   2.808   0.924
 7788SOL     OW24262   0.932   3.883   2.292
 7788SOL    HW124263   0.852   3.861   2.236
 7788SOL    HW224264   0.982   3.958   2.249
 7789SOL     OW24265   3.292   0.745   5.854
 7789SOL    HW124266   3.295   0.664   5.913
 7789SOL    HW224267   3.224   0.809   5.890
 7790SOL     OW24268   4.262   5.287   4.362
 7790SOL    HW124269   4.341   5.267   4.420
 7790SOL    HW224270   4.180   5.246   4.402
 7791SOL     OW24271   2.862   6.444   1.758
 7791SOL    HW124272   2.798   6.497   1.814
 7791SOL    HW224273   2.873   6.353   1.797
 7792SOL     OW24274   1.376   0.695   2.327
 7792SOL    HW124275   1.382   0.760   2.251
 7792SOL    HW224276   1.374   0.602   2.291
 7793SOL     OW24277   4.784   1.924   0.747
 7793SOL    HW124278   4.782   1.895   0.652
 7793SOL    HW224279   4.878   1.933   0.778
 7794SOL     OW24280   1.406   0.911   2.658
 7794SOL    HW124281   1.320   0.950   2.625
 7794SOL    HW224282   1.433   0.958   2.742
 7795SOL     OW24283   3.941   3.662   1.204
 7795SOL    HW124284   3.940   3.633   1.300
 7795SOL    HW224285   3.989   3.749   1.196
 7796SOL     OW24286   4.241   1.370   0.566
 7796SOL    HW124287   4.186   1.361   0.650
 7796SOL    HW224288   4.194   1.431   0.503
 7797SOL     OW24289   1.207   6.206   2.795
 7797SOL    HW124290   1.264   6.254   2.861
 7797SOL    HW224291   1.220   6.246   2.704
 7798SOL     OW24292   1.502   3.287   1.079
 7798SOL    HW124293   1.521   3.264   1.175
 7798SOL    HW224294   1.587   3.283   1.027
 7799SOL     OW24295   2.235   6.477   3.752
 7799SOL    HW124296   2.293   6.476   3.834
 7799SOL    HW224297   2.209   6.571   3.731
 7800SOL     OW24298   1.368   1.043   2.389
 7800SOL    HW124299   1.451   0.996   2.418
 7800SOL    HW224300   1.304   1.049   2.466
 7801SOL     OW24301   1.962   2.195   0.859
 7801SOL    HW124302   1.998   2.179   0.951
 7801SOL    HW224303   1.872   2.239   0.866
 7802SOL     OW24304   5.951   5.167   3.962
 7802SOL    HW124305   5.880   5.228   3.927
 7802SOL    HW224306   5.929   5.073   3.938
 7803SOL     OW24307   3.111   2.204   6.298
 7803SOL    HW124308   3.087   2.201   6.395
 7803SOL    HW224309   3.028   2.201   6.243
 7804SOL     OW24310   2.771   1.504   5.206
 7804SOL    HW124311   2.720   1.418   5.207
 7804SOL    HW224312   2.869   1.485   5.203
 7805SOL     OW24313   5.516   2.807   0.013
 7805SOL    HW124314   5.437   2.834   0.068
 7805SOL    HW224315   5.563   2.731   0.058
 7806SOL     OW24316   6.093   2.108   5.187
 7806SOL    HW124317   6.129   2.015   5.189
 7806SOL    HW224318   5.993   2.105   5.179
 7807SOL     OW24319   1.983   5.416   5.812
 7807SOL    HW124320   1.947   5.369   5.732
 7807SOL    HW224321   1.925   5.396   5.891
 7808SOL     OW24322   0.242   3.162   4.410
 7808SOL    HW124323   0.270   3.252   4.376
 7808SOL    HW224324   0.222   3.101   4.333
 7809SOL     OW24325   4.253   6.659   2.801
 7809SOL    HW124326   4.219   6.734   2.745
 7809SOL    HW224327   4.206   6.574   2.775
 7810SOL     OW24328   1.958   6.691   5.875
 7810SOL    HW124329   1.923   6.757   5.809
 7810SOL    HW224330   1.969   6.602   5.830
 7811SOL     OW24331   1.341   5.641   3.322
 7811SOL    HW124332   1.422   5.593   3.288
 7811SOL    HW224333   1.370   5.714   3.385
 7812SOL     OW24334   2.919   1.086   5.598
 7812SOL    HW124335   2.859   1.077   5.519
 7812SOL    HW224336   2.909   1.178   5.637
 7813SOL     OW24337   5.575   1.477   0.872
 7813SOL    HW124338   5.535   1.398   0.918
 7813SOL    HW224339   5.610   1.450   0.783
 7814SOL     OW24340   6.432   2.845   1.583
 7814SOL    HW124341   6.512   2.788   1.601
 7814SOL    HW224342   6.450   2.939   1.613
 7815SOL     OW24343   4.440   5.174   3.473
 7815SOL    HW124344   4.539   5.173   3.487
 7815SOL    HW224345   4.419   5.125   3.389
 7816SOL     OW24346   1.173   1.365   5.272
 7816SOL    HW124347   1.196   1.446   5.218
 7816SOL    HW224348   1.113   1.392   5.348
 7817SOL     OW24349   4.122   1.604   6.366
 7817SOL    HW124350   4.170   1.543   6.304
 7817SOL    HW224351   4.182   1.629   6.442
 7818SOL     OW24352   5.531   1.273   3.037
 7818SOL    HW124353   5.521   1.358   3.088
 7818SOL    HW224354   5.461   1.269   2.965
 7819SOL     OW24355   2.392   2.760   4.516
 7819SOL    HW124356   2.479   2.800   4.488
 7819SOL    HW224357   2.348   2.717   4.438
 7820SOL     OW24358   1.806   1.202   5.954
 7820SOL    HW124359   1.773   1.171   6.043
 7820SOL    HW224360   1.765   1.290   5.932
 7821SOL     OW24361   3.754   6.033   0.090
 7821SOL    HW124362   3.662   6.067   0.110
 7821SOL    HW224363   3.804   6.021   0.175
 7822SOL     OW24364   0.795   1.388   4.721
 7822SOL    HW124365   0.824   1.431   4.635
 7822SOL    HW224366   0.867   1.398   4.789
 7823SOL     OW24367   2.817   2.840   5.683
 7823SOL    HW124368   2.740   2.888   5.724
 7823SOL    HW224369   2.870   2.795   5.755
 7824SOL     OW24370   5.701   4.030   2.400
 7824SOL    HW124371   5.754   3.994   2.323
 7824SOL    HW224372   5.742   4.000   2.486
 7825SOL     OW24373   3.525   2.866   3.095
 7825SOL    HW124374   3.583   2.791   3.126
 7825SOL    HW224375   3.504   2.926   3.173
 7826SOL     OW24376   6.459   7.014   1.067
 7826SOL    HW124377   6.448   6.919   1.095
 7826SOL    HW224378   6.468   7.019   0.968
 7827SOL     OW24379   4.777   3.600   0.357
 7827SOL    HW124380   4.678   3.589   0.363
 7827SOL    HW224381   4.798   3.690   0.321
 7828SOL     OW24382   1.187   6.510   0.295
 7828SOL    HW124383   1.116   6.471   0.354
 7828SOL    HW224384   1.190   6.461   0.208
 7829SOL     OW24385   3.523   3.863   2.778
 7829SOL    HW124386   3.479   3.948   2.750
 7829SOL    HW224387   3.592   3.837   2.710
 7830SOL     OW24388   6.714   3.932   0.479
 7830SOL    HW124389   6.781   4.004   0.493
 7830SOL    HW224390   6.697   3.920   0.381
 7831SOL     OW24391   1.978   1.970   0.458
 7831SOL    HW124392   1.996   2.050   0.400
 7831SOL    HW224393   1.977   1.998   0.553
 7832SOL     OW24394   3.381   2.734   6.208
 7832SOL    HW124395   3.336   2.733   6.119
 7832SOL    HW224396   3.395   2.640   6.240
 7833SOL     OW24397   6.674   6.880   1.978
 7833SOL    HW124398   6.670   6.877   1.878
 7833SOL    HW224399   6.611   6.950   2.012
 7834SOL     OW24400   5.639   1.228   1.294
 7834SOL    HW124401   5.544   1.259   1.301
 7834SOL    HW224402   5.660   1.166   1.369
 7835SOL     OW24403   2.445   2.060   4.306
 7835SOL    HW124404   2.454   2.075   4.404
 7835SOL    HW224405   2.353   2.087   4.276
 7836SOL     OW24406   2.213   0.890   6.687
 7836SOL    HW124407   2.161   0.805   6.683
 7836SOL    HW224408   2.153   0.965   6.714
 7837SOL     OW24409   6.089   6.314   2.143
 7837SOL    HW124410   6.123   6.286   2.053
 7837SOL    HW224411   5.989   6.305   2.144
 7838SOL     OW24412   3.565   5.455   3.930
 7838SOL    HW124413   3.597   5.411   4.014
 7838SOL    HW224414   3.563   5.554   3.944
 7839SOL     OW24415   6.759   4.923   3.582
 7839SOL    HW124416   6.854   4.945   3.559
 7839SOL    HW224417   6.737   4.961   3.671
 7840SOL     OW24418   4.619   2.880   6.076
 7840SOL    HW124419   4.622   2.792   6.028
 7840SOL    HW224420   4.623   2.954   6.009
 7841SOL     OW24421   1.080   2.326   5.637
 7841SOL    HW124422   1.033   2.359   5.556
 7841SOL    HW224423   1.089   2.401   5.703
 7842SOL     OW24424   2.312   1.028   2.788
 7842SOL    HW124425   2.236   0.965   2.772
 7842SOL    HW224426   2.289   1.089   2.863
 7843SOL     OW24427   0.052   2.317   2.121
 7843SOL    HW124428   0.016   2.307   2.214
 7843SOL    HW224429   0.152   2.317   2.124
 7844SOL     OW24430   4.358   2.439   3.607
 7844SOL    HW124431   4.350   2.515   3.672
 7844SOL    HW224432   4.308   2.360   3.643
 7845SOL     OW24433   0.223   0.754   4.551
 7845SOL    HW124434   0.317   0.722   4.542
 7845SOL    HW224435   0.161   0.687   4.511
 7846SOL     OW24436   4.649   0.761   2.163
 7846SOL    HW124437   4.571   0.797   2.214
 7846SOL    HW224438   4.706   0.707   2.225
 7847SOL     OW24439   0.177   6.926   6.836
 7847SOL    HW124440   0.121   7.009   6.833
 7847SOL    HW224441   0.272   6.950   6.852
 7848SOL     OW24442   3.855   3.824   1.456
 7848SOL    HW124443   3.954   3.835   1.463
 7848SOL    HW224444   3.832   3.727   1.463
 7849SOL     OW24445   5.033   4.209   5.183
 7849SOL    HW124446   5.027   4.190   5.281
 7849SOL    HW224447   5.034   4.123   5.133
 7850SOL     OW24448   0.433   2.901   4.747
 7850SOL    HW124449   0.420   2.922   4.650
 7850SOL    HW224450   0.478   2.812   4.757
 7851SOL     OW24451   3.555   6.659   0.772
 7851SOL    HW124452   3.606   6.682   0.855
 7851SOL    HW224453   3.463   6.630   0.796
 7852SOL     OW24454   2.868   7.011   0.477
 7852SOL    HW124455   2.827   6.933   0.525
 7852SOL    HW224456   2.796   0.047   0.447
 7853SOL     OW24457   1.798   1.840   0.311
 7853SOL    HW124458   1.878   1.880   0.356
 7853SOL    HW224459   1.772   1.895   0.232
 7854SOL     OW24460   4.135   3.409   4.197
 7854SOL    HW124461   4.205   3.398   4.127
 7854SOL    HW224462   4.048   3.432   4.154
 7855SOL     OW24463   2.829   0.240   4.490
 7855SOL    HW124464   2.921   0.231   4.529
 7855SOL    HW224465   2.823   0.325   4.437
 7856SOL     OW24466   3.009   3.004   0.138
 7856SOL    HW124467   2.931   3.003   0.076
 7856SOL    HW224468   3.093   2.988   0.087
 7857SOL     OW24469   0.367   3.086   4.937
 7857SOL    HW124470   0.398   3.178   4.913
 7857SOL    HW224471   0.399   3.021   4.868
 7858SOL     OW24472   5.147   3.352   2.874
 7858SOL    HW124473   5.165   3.257   2.900
 7858SOL    HW224474   5.062   3.356   2.820
 7859SOL     OW24475   0.461   6.761   0.841
 7859SOL    HW124476   0.391   6.831   0.831
 7859SOL    HW224477   0.481   6.748   0.938
 7860SOL     OW24478   4.783   6.455   1.324
 7860SOL    HW124479   4.790   6.493   1.232
 7860SOL    HW224480   4.829   6.366   1.327
 7861SOL     OW24481   5.937   3.684   0.083
 7861SOL    HW124482   5.980   3.684   0.173
 7861SOL    HW224483   5.865   3.615   0.080
 7862SOL     OW24484   3.021   4.614   1.642
 7862SOL    HW124485   2.959   4.602   1.720
 7862SOL    HW224486   3.091   4.682   1.666
 7863SOL     OW24487   4.184   6.098   2.544
 7863SOL    HW124488   4.232   6.073   2.460
 7863SOL    HW224489   4.207   6.033   2.616
 7864SOL     OW24490   1.140   5.357   5.373
 7864SOL    HW124491   1.051   5.314   5.389
 7864SOL    HW224492   1.131   5.456   5.384
 7865SOL     OW24493   4.462   0.714   3.300
 7865SOL    HW124494   4.399   0.737   3.375
 7865SOL    HW224495   4.534   0.783   3.295
 7866SOL     OW24496   2.626   1.957   5.853
 7866SOL    HW124497   2.710   1.903   5.848
 7866SOL    HW224498   2.645   2.050   5.821
 7867SOL     OW24499   5.893   3.616   1.341
 7867SOL    HW124500   5.822   3.606   1.272
 7867SOL    HW224501   5.883   3.544   1.410
 7868SOL     OW24502   4.462   6.980   0.661
 7868SOL    HW124503   4.447   7.025   0.749
 7868SOL    HW224504   4.510   0.015   0.599
 7869SOL     OW24505   6.394   1.550   4.011
 7869SOL    HW124506   6.308   1.516   4.047
 7869SOL    HW224507   6.380   1.642   3.973
 7870SOL     OW24508   6.824   0.510   3.219
 7870SOL    HW124509   6.816   0.464   3.307
 7870SOL    HW224510   6.792   0.448   3.147
 7871SOL     OW24511   5.390   3.114   4.256
 7871SOL    HW124512   5.373   3.030   4.205
 7871SOL    HW224513   5.384   3.193   4.195
 7872SOL     OW24514   6.870   4.340   4.147
 7872SOL    HW124515   6.934   4.358   4.073
 7872SOL    HW224516   6.808   4.266   4.121
 7873SOL     OW24517   0.031   5.475   4.370
 7873SOL    HW124518   0.124   5.480   4.335
 7873SOL    HW224519   0.020   5.540   4.446
 7874SOL     OW24520   5.893   7.022   0.258
 7874SOL    HW124521   5.975   7.020   0.315
 7874SOL    HW224522   5.812   7.023   0.316
 7875SOL     OW24523   5.035   3.451   0.334
 7875SOL    HW124524   5.007   3.357   0.315
 7875SOL    HW224525   4.955   3.505   0.362
 7876SOL     OW24526   0.635   1.735   5.054
 7876SOL    HW124527   0.703   1.745   4.981
 7876SOL    HW224528   0.578   1.655   5.036
 7877SOL     OW24529   6.154   3.832   2.353
 7877SOL    HW124530   6.198   3.920   2.368
 7877SOL    HW224531   6.055   3.842   2.362
 7878SOL     OW24532   3.705   4.004   1.342
 7878SOL    HW124533   3.745   3.914   1.358
 7878SOL    HW224534   3.613   4.007   1.382
 7879SOL     OW24535   6.883   1.080   4.893
 7879SOL    HW124536   6.921   1.104   4.803
 7879SOL    HW224537   6.934   1.129   4.964
 7880SOL     OW24538   1.670   5.950   6.555
 7880SOL    HW124539   1.664   5.861   6.601
 7880SOL    HW224540   1.766   5.969   6.534
 7881SOL     OW24541   0.979   5.381   4.862
 7881SOL    HW124542   1.041   5.389   4.941
 7881SOL    HW224543   0.924   5.298   4.872
 7882SOL     OW24544   1.586   4.763   1.409
 7882SOL    HW124545   1.487   4.762   1.400
 7882SOL    HW224546   1.614   4.842   1.464
 7883SOL     OW24547   3.176   1.833   2.152
 7883SOL    HW124548   3.200   1.921   2.191
 7883SOL    HW224549   3.258   1.784   2.124
 7884SOL     OW24550   1.092   2.668   4.931
 7884SOL    HW124551   1.014   2.621   4.973
 7884SOL    HW224552   1.177   2.623   4.959
 7885SOL     OW24553   6.294   5.607   2.392
 7885SOL    HW124554   6.234   5.682   2.419
 7885SOL    HW224555   6.389   5.636   2.401
 7886SOL     OW24556   4.134   4.797   2.847
 7886SOL    HW124557   4.157   4.760   2.757
 7886SOL    HW224558   4.185   4.749   2.918
 7887SOL     OW24559   0.606   3.311   0.798
 7887SOL    HW124560   0.631   3.367   0.877
 7887SOL    HW224561   0.659   3.226   0.799
 7888SOL     OW24562   6.642   1.720   5.263
 7888SOL    HW124563   6.574   1.686   5.198
 7888SOL    HW224564   6.647   1.820   5.257
 7889SOL     OW24565   5.112   5.230   0.406
 7889SOL    HW124566   5.065   5.155   0.360
 7889SOL    HW224567   5.118   5.211   0.504
 7890SOL     OW24568   2.299   2.851   2.849
 7890SOL    HW124569   2.251   2.937   2.833
 7890SOL    HW224570   2.386   2.852   2.799
 7891SOL     OW24571   6.519   1.473   4.441
 7891SOL    HW124572   6.454   1.548   4.447
 7891SOL    HW224573   6.469   1.388   4.419
 7892SOL     OW24574   1.469   2.236   4.619
 7892SOL    HW124575   1.479   2.326   4.578
 7892SOL    HW224576   1.444   2.170   4.548
 7893SOL     OW24577   6.173   6.279   1.475
 7893SOL    HW124578   6.164   6.378   1.459
 7893SOL    HW224579   6.258   6.246   1.435
 7894SOL     OW24580   3.289   0.737   6.418
 7894SOL    HW124581   3.252   0.830   6.418
 7894SOL    HW224582   3.215   0.671   6.416
 7895SOL     OW24583   5.929   6.306   3.213
 7895SOL    HW124584   5.883   6.217   3.211
 7895SOL    HW224585   6.028   6.292   3.219
 7896SOL     OW24586   2.453   1.692   0.458
 7896SOL    HW124587   2.386   1.765   0.465
 7896SOL    HW224588   2.407   1.603   0.460
 7897SOL     OW24589   4.651   1.250   1.253
 7897SOL    HW124590   4.598   1.168   1.230
 7897SOL    HW224591   4.607   1.330   1.213
 7898SOL     OW24592   4.760   6.025   2.967
 7898SOL    HW124593   4.702   5.970   3.027
 7898SOL    HW224594   4.796   6.103   3.018
 7899SOL     OW24595   6.159   4.339   2.866
 7899SOL    HW124596   6.127   4.245   2.876
 7899SOL    HW224597   6.124   4.394   2.941
 7900SOL     OW24598   0.246   3.375   0.333
 7900SOL    HW124599   0.152   3.388   0.366
 7900SOL    HW224600   0.285   3.464   0.309
 7901SOL     OW24601   0.290   2.478   6.989
 7901SOL    HW124602   0.196   2.455   6.964
 7901SOL    HW224603   0.301   2.470   0.062
 7902SOL     OW24604   1.593   0.352   1.056
 7902SOL    HW124605   1.543   0.387   0.976
 7902SOL    HW224606   1.528   0.325   1.127
 7903SOL     OW24607   3.071   1.783   5.313
 7903SOL    HW124608   3.009   1.813   5.386
 7903SOL    HW224609   3.148   1.733   5.354
 7904SOL     OW24610   4.946   3.303   2.690
 7904SOL    HW124611   4.913   3.391   2.656
 7904SOL    HW224612   4.976   3.247   2.613
 7905SOL     OW24613   6.232   1.925   1.382
 7905SOL    HW124614   6.260   1.853   1.445
 7905SOL    HW224615   6.135   1.948   1.398
 7906SOL     OW24616   0.356   5.826   6.579
 7906SOL    HW124617   0.260   5.837   6.602
 7906SOL    HW224618   0.394   5.750   6.631
 7907SOL     OW24619   5.993   6.192   3.562
 7907SOL    HW124620   5.932   6.116   3.541
 7907SOL    HW224621   5.945   6.278   3.548
 7908SOL     OW24622   1.966   0.459   6.167
 7908SOL    HW124623   2.002   0.365   6.168
 7908SOL    HW224624   1.872   0.458   6.133
 7909SOL     OW24625   6.731   3.474   1.541
 7909SOL    HW124626   6.815   3.442   1.496
 7909SOL    HW224627   6.654   3.462   1.478
 7910SOL     OW24628   1.842   4.846   4.999
 7910SOL    HW124629   1.759   4.843   5.054
 7910SOL    HW224630   1.857   4.756   4.957
 7911SOL     OW24631   5.862   4.321   5.941
 7911SOL    HW124632   5.841   4.359   5.851
 7911SOL    HW224633   5.961   4.304   5.948
 7912SOL     OW24634   5.820   5.867   0.881
 7912SOL    HW124635   5.899   5.811   0.854
 7912SOL    HW224636   5.851   5.938   0.945
 7913SOL     OW24637   1.274   4.955   6.521
 7913SOL    HW124638   1.297   4.901   6.440
 7913SOL    HW224639   1.357   4.969   6.576
 7914SOL     OW24640   0.896   0.143   4.931
 7914SOL    HW124641   0.821   0.105   4.985
 7914SOL    HW224642   0.981   0.139   4.985
 7915SOL     OW24643   2.766   5.118   2.266
 7915SOL    HW124644   2.846   5.140   2.209
 7915SOL    HW224645   2.760   5.183   2.341
 7916SOL     OW24646   1.038   0.223   3.925
 7916SOL    HW124647   1.121   0.185   3.884
 7916SOL    HW224648   1.030   0.190   4.020
 7917SOL     OW24649   4.986   2.101   2.769
 7917SOL    HW124650   5.067   2.109   2.827
 7917SOL    HW224651   5.001   2.151   2.683
 7918SOL     OW24652   1.848   3.097   2.845
 7918SOL    HW124653   1.888   3.042   2.918
 7918SOL    HW224654   1.893   3.074   2.758
 7919SOL     OW24655   0.985   6.608   5.167
 7919SOL    HW124656   0.983   6.586   5.070
 7919SOL    HW224657   1.017   6.702   5.179
 7920SOL     OW24658   5.227   0.096   0.855
 7920SOL    HW124659   5.209   0.107   0.757
 7920SOL    HW224660   5.241   7.026   0.876
 7921SOL     OW24661   5.337   3.084   0.568
 7921SOL    HW124662   5.330   3.183   0.556
 7921SOL    HW224663   5.247   3.043   0.552
 7922SOL     OW24664   2.092   0.057   2.636
 7922SOL    HW124665   2.148   7.006   2.664
 7922SOL    HW224666   2.126   0.141   2.678
 7923SOL     OW24667   4.593   0.836   0.573
 7923SOL    HW124668   4.608   0.890   0.655
 7923SOL    HW224669   4.507   0.784   0.582
 7924SOL     OW24670   5.762   6.141   0.345
 7924SOL    HW124671   5.852   6.099   0.350
 7924SOL    HW224672   5.763   6.230   0.390
 7925SOL     OW24673   1.300   4.589   6.137
 7925SOL    HW124674   1.325   4.585   6.040
 7925SOL    HW224675   1.264   4.500   6.165
 7926SOL     OW24676   5.068   5.851   5.349
 7926SOL    HW124677   5.060   5.791   5.429
 7926SOL    HW224678   5.114   5.802   5.275
 7927SOL     OW24679   4.698   0.334   3.265
 7927SOL    HW124680   4.635   0.311   3.339
 7927SOL    HW224681   4.702   0.258   3.200
 7928SOL     OW24682   5.810   2.183   4.035
 7928SOL    HW124683   5.750   2.175   3.956
 7928SOL    HW224684   5.858   2.271   4.031
 7929SOL     OW24685   4.713   4.072   5.913
 7929SOL    HW124686   4.681   3.985   5.875
 7929SOL    HW224687   4.653   4.099   5.988
 7930SOL     OW24688   4.280   5.811   0.118
 7930SOL    HW124689   4.243   5.744   0.183
 7930SOL    HW224690   4.371   5.839   0.149
 7931SOL     OW24691   5.136   1.162   0.630
 7931SOL    HW124692   5.229   1.190   0.605
 7931SOL    HW224693   5.112   1.078   0.581
 7932SOL     OW24694   1.112   3.586   1.101
 7932SOL    HW124695   1.037   3.559   1.162
 7932SOL    HW224696   1.155   3.669   1.136
 7933SOL     OW24697   1.212   1.808   0.108
 7933SOL    HW124698   1.141   1.863   0.150
 7933SOL    HW224699   1.259   1.861   0.038
 7934SOL     OW24700   6.769   5.350   0.956
 7934SOL    HW124701   6.682   5.394   0.979
 7934SOL    HW224702   6.754   5.252   0.941
 7935SOL     OW24703   6.600   2.844   3.142
 7935SOL    HW124704   6.517   2.899   3.154
 7935SOL    HW224705   6.677   2.903   3.119
 7936SOL     OW24706   2.562   6.430   3.071
 7936SOL    HW124707   2.509   6.464   3.149
 7936SOL    HW224708   2.659   6.436   3.091
 7937SOL     OW24709   4.268   1.389   1.158
 7937SOL    HW124710   4.304   1.430   1.242
 7937SOL    HW224711   4.325   1.310   1.132
 7938SOL     OW24712   2.205   6.918   3.141
 7938SOL    HW124713   2.167   6.850   3.204
 7938SOL    HW224714   2.246   6.871   3.063
 7939SOL     OW24715   1.756   0.405   2.536
 7939SOL    HW124716   1.697   0.452   2.601
 7939SOL    HW224717   1.699   0.362   2.465
 7940SOL     OW24718   6.055   1.803   5.201
 7940SOL    HW124719   6.077   1.776   5.294
 7940SOL    HW224720   6.125   1.768   5.138
 7941SOL     OW24721   3.388   6.942   0.803
 7941SOL    HW124722   3.338   6.943   0.717
 7941SOL    HW224723   3.403   6.848   0.832
 7942SOL     OW24724   1.204   4.271   1.131
 7942SOL    HW124725   1.137   4.328   1.084
 7942SOL    HW224726   1.209   4.182   1.087
 7943SOL     OW24727   1.690   5.695   6.646
 7943SOL    HW124728   1.630   5.635   6.593
 7943SOL    HW224729   1.643   5.722   6.730
 7944SOL     OW24730   1.508   1.863   1.432
 7944SOL    HW124731   1.459   1.920   1.498
 7944SOL    HW224732   1.581   1.813   1.478
 7945SOL     OW24733   6.147   3.045   2.745
 7945SOL    HW124734   6.213   3.015   2.677
 7945SOL    HW224735   6.175   3.133   2.783
 7946SOL     OW24736   4.255   1.444   6.133
 7946SOL    HW124737   4.319   1.376   6.097
 7946SOL    HW224738   4.235   1.511   6.063
 7947SOL     OW24739   0.223   3.431   6.201
 7947SOL    HW124740   0.279   3.356   6.237
 7947SOL    HW224741   0.195   3.409   6.108
 7948SOL     OW24742   1.350   5.770   0.508
 7948SOL    HW124743   1.300   5.752   0.592
 7948SOL    HW224744   1.289   5.812   0.441
 7949SOL     OW24745   2.868   5.682   5.591
 7949SOL    HW124746   2.948   5.731   5.557
 7949SOL    HW224747   2.896   5.592   5.625
 7950SOL     OW24748   6.636   3.876   5.504
 7950SOL    HW124749   6.592   3.794   5.467
 7950SOL    HW224750   6.566   3.939   5.536
 7951SOL     OW24751   4.147   0.090   2.756
 7951SOL    HW124752   4.065   0.145   2.737
 7951SOL    HW224753   4.181   0.110   2.847
 7952SOL     OW24754   7.020   3.221   5.384
 7952SOL    HW124755   6.974   3.287   5.325
 7952SOL    HW224756   0.074   3.185   5.337
 7953SOL     OW24757   1.616   0.105   0.439
 7953SOL    HW124758   1.678   0.105   0.517
 7953SOL    HW224759   1.588   0.199   0.418
 7954SOL     OW24760   3.699   3.095   0.271
 7954SOL    HW124761   3.684   3.011   0.219
 7954SOL    HW224762   3.615   3.120   0.319
 7955SOL     OW24763   0.259   1.122   6.864
 7955SOL    HW124764   0.233   1.058   6.792
 7955SOL    HW224765   0.337   1.086   6.914
 7956SOL     OW24766   0.467   0.369   0.431
 7956SOL    HW124767   0.463   0.469   0.418
 7956SOL    HW224768   0.410   0.343   0.508
 7957SOL     OW24769   5.353   1.319   5.808
 7957SOL    HW124770   5.356   1.307   5.709
 7957SOL    HW224771   5.321   1.234   5.851
 7958SOL     OW24772   4.933   2.183   6.867
 7958SOL    HW124773   5.026   2.198   6.837
 7958SOL    HW224774   4.870   2.241   6.815
 7959SOL     OW24775   4.815   2.993   7.021
 7959SOL    HW124776   4.789   2.984   6.925
 7959SOL    HW224777   4.856   3.082   0.011
 7960SOL     OW24778   1.037   1.862   5.039
 7960SOL    HW124779   1.003   1.925   5.109
 7960SOL    HW224780   1.128   1.891   5.010
 7961SOL     OW24781   5.974   0.319   0.335
 7961SOL    HW124782   5.900   0.252   0.326
 7961SOL    HW224783   6.050   0.293   0.276
 7962SOL     OW24784   5.877   6.553   4.619
 7962SOL    HW124785   5.865   6.584   4.713
 7962SOL    HW224786   5.788   6.533   4.579
 7963SOL     OW24787   5.840   6.112   3.000
 7963SOL    HW124788   5.849   6.168   2.918
 7963SOL    HW224789   5.766   6.047   2.989
 7964SOL     OW24790   6.686   3.721   1.621
 7964SOL    HW124791   6.679   3.622   1.604
 7964SOL    HW224792   6.607   3.752   1.673
 7965SOL     OW24793   4.990   1.969   6.383
 7965SOL    HW124794   4.989   1.880   6.337
 7965SOL    HW224795   4.896   1.995   6.407
 7966SOL     OW24796   5.823   3.193   5.275
 7966SOL    HW124797   5.824   3.140   5.360
 7966SOL    HW224798   5.870   3.280   5.289
 7967SOL     OW24799   1.574   4.224   1.035
 7967SOL    HW124800   1.557   4.237   1.132
 7967SOL    HW224801   1.489   4.233   0.984
 7968SOL     OW24802   2.207   2.812   3.696
 7968SOL    HW124803   2.243   2.846   3.783
 7968SOL    HW224804   2.110   2.837   3.688
 7969SOL     OW24805   3.078   4.627   6.294
 7969SOL    HW124806   3.039   4.601   6.382
 7969SOL    HW224807   3.107   4.544   6.245
 7970SOL     OW24808   6.211   2.936   3.578
 7970SOL    HW124809   6.185   2.945   3.482
 7970SOL    HW224810   6.226   2.839   3.599
 7971SOL     OW24811   3.475   0.699   6.585
 7971SOL    HW124812   3.413   0.710   6.506
 7971SOL    HW224813   3.457   0.611   6.628
 7972SOL     OW24814   4.169   3.551   4.459
 7972SOL    HW124815   4.180   3.650   4.471
 7972SOL    HW224816   4.198   3.526   4.367
 7973SOL     OW24817   0.014   5.185   2.162
 7973SOL    HW124818   7.001   5.249   2.228
 7973SOL    HW224819   7.010   5.209   2.070
 7974SOL     OW24820   0.635   3.686   4.926
 7974SOL    HW124821   0.723   3.644   4.945
 7974SOL    HW224822   0.562   3.621   4.948
 7975SOL     OW24823   4.246   6.967   6.895
 7975SOL    HW124824   4.219   0.036   6.912
 7975SOL    HW224825   4.339   6.952   6.929
 7976SOL     OW24826   0.858   0.447   0.663
 7976SOL    HW124827   0.886   0.388   0.588
 7976SOL    HW224828   0.769   0.418   0.697
 7977SOL     OW24829   4.981   5.415   2.560
 7977SOL    HW124830   4.951   5.322   2.537
 7977SOL    HW224831   4.965   5.474   2.481
 7978SOL     OW24832   0.171   4.152   1.585
 7978SOL    HW124833   0.231   4.117   1.656
 7978SOL    HW224834   0.110   4.079   1.553
 7979SOL     OW24835   2.917   2.327   5.415
 7979SOL    HW124836   2.872   2.397   5.360
 7979SOL    HW224837   2.881   2.237   5.391
 7980SOL     OW24838   3.663   5.336   1.953
 7980SOL    HW124839   3.667   5.287   2.041
 7980SOL    HW224840   3.605   5.285   1.889
 7981SOL     OW24841   1.372   3.279   4.510
 7981SOL    HW124842   1.275   3.285   4.534
 7981SOL    HW224843   1.422   3.353   4.556
 7982SOL     OW24844   6.757   0.700   0.164
 7982SOL    HW124845   6.778   0.749   0.249
 7982SOL    HW224846   6.665   0.723   0.134
 7983SOL     OW24847   3.425   1.245   1.758
 7983SOL    HW124848   3.367   1.249   1.677
 7983SOL    HW224849   3.418   1.154   1.800
 7984SOL     OW24850   6.322   2.682   2.979
 7984SOL    HW124851   6.249   2.747   2.959
 7984SOL    HW224852   6.353   2.694   3.073
 7985SOL     OW24853   2.962   3.331   5.478
 7985SOL    HW124854   3.025   3.265   5.518
 7985SOL    HW224855   2.872   3.289   5.464
 7986SOL     OW24856   3.557   0.846   3.915
 7986SOL    HW124857   3.598   0.919   3.970
 7986SOL    HW224858   3.473   0.878   3.873
 7987SOL     OW24859   1.243   3.006   6.422
 7987SOL    HW124860   1.144   2.994   6.417
 7987SOL    HW224861   1.284   2.984   6.334
 7988SOL     OW24862   6.252   0.577   1.424
 7988SOL    HW124863   6.158   0.585   1.390
 7988SOL    HW224864   6.312   0.638   1.373
 7989SOL     OW24865   0.564   4.818   1.772
 7989SOL    HW124866   0.583   4.824   1.870
 7989SOL    HW224867   0.466   4.810   1.757
 7990SOL     OW24868   4.283   5.080   5.082
 7990SOL    HW124869   4.301   5.098   5.179
 7990SOL    HW224870   4.301   4.983   5.062
 7991SOL     OW24871   5.259   0.626   4.509
 7991SOL    HW124872   5.301   0.600   4.596
 7991SOL    HW224873   5.327   0.672   4.452
 7992SOL     OW24874   2.206   0.747   7.020
 7992SOL    HW124875   2.283   0.728   6.958
 7992SOL    HW224876   2.187   0.665   0.047
 7993SOL     OW24877   6.476   6.610   0.663
 7993SOL    HW124878   6.511   6.592   0.754
 7993SOL    HW224879   6.540   6.666   0.612
 7994SOL     OW24880   0.482   1.037   4.726
 7994SOL    HW124881   0.443   1.058   4.636
 7994SOL    HW224882   0.509   0.941   4.729
 7995SOL     OW24883   0.639   5.754   1.583
 7995SOL    HW124884   0.718   5.763   1.643
 7995SOL    HW224885   0.556   5.778   1.633
 7996SOL     OW24886   2.134   6.758   3.743
 7996SOL    HW124887   2.175   6.848   3.725
 7996SOL    HW224888   2.047   6.770   3.792
 7997SOL     OW24889   2.269   1.608   5.902
 7997SOL    HW124890   2.259   1.574   5.995
 7997SOL    HW224891   2.198   1.676   5.884
 7998SOL     OW24892   1.727   0.952   1.362
 7998SOL    HW124893   1.825   0.969   1.372
 7998SOL    HW224894   1.679   1.039   1.350
 7999SOL     OW24895   0.375   0.583   2.801
 7999SOL    HW124896   0.400   0.670   2.757
 7999SOL    HW224897   0.310   0.601   2.875
 8000SOL     OW24898   4.103   5.912   0.666
 8000SOL    HW124899   4.184   5.928   0.610
 8000SOL    HW224900   4.091   5.813   0.681
 8001SOL     OW24901   5.177   4.180   1.574
 8001SOL    HW124902   5.156   4.277   1.589
 8001SOL    HW224903   5.260   4.173   1.518
 8002SOL     OW24904   1.218   0.484   4.896
 8002SOL    HW124905   1.249   0.441   4.811
 8002SOL    HW224906   1.267   0.570   4.909
 8003SOL     OW24907   2.565   5.581   3.363
 8003SOL    HW124908   2.486   5.618   3.411
 8003SOL    HW224909   2.632   5.548   3.429
 8004SOL     OW24910   1.970   3.269   3.986
 8004SOL    HW124911   2.036   3.243   3.917
 8004SOL    HW224912   2.015   3.325   4.056
 8005SOL     OW24913   2.976   0.099   4.275
 8005SOL    HW124914   2.990   0.030   4.204
 8005SOL    HW224915   2.878   0.109   4.293
 8006SOL     OW24916   4.691   5.358   6.077
 8006SOL    HW124917   4.688   5.298   6.157
 8006SOL    HW224918   4.775   5.412   6.078
 8007SOL     OW24919   6.815   0.562   0.974
 8007SOL    HW124920   6.745   0.513   1.027
 8007SOL    HW224921   6.770   0.624   0.910
 8008SOL     OW24922   4.972   4.645   0.789
 8008SOL    HW124923   4.943   4.596   0.707
 8008SOL    HW224924   4.989   4.580   0.863
 8009SOL     OW24925   6.778   1.193   1.631
 8009SOL    HW124926   6.856   1.239   1.588
 8009SOL    HW224927   6.793   1.189   1.730
 8010SOL     OW24928   3.295   0.567   6.061
 8010SOL    HW124929   3.379   0.549   6.113
 8010SOL    HW224930   3.216   0.563   6.122
 8011SOL     OW24931   3.740   2.145   2.672
 8011SOL    HW124932   3.678   2.103   2.606
 8011SOL    HW224933   3.827   2.166   2.627
 8012SOL     OW24934   6.444   0.738   4.965
 8012SOL    HW124935   6.409   0.648   4.993
 8012SOL    HW224936   6.527   0.726   4.912
 8013SOL     OW24937   3.819   0.317   3.299
 8013SOL    HW124938   3.886   0.352   3.234
 8013SOL    HW224939   3.864   0.292   3.384
 8014SOL     OW24940   2.344   2.760   3.462
 8014SOL    HW124941   2.282   2.819   3.410
 8014SOL    HW224942   2.341   2.786   3.558
 8015SOL     OW24943   3.236   6.162   4.690
 8015SOL    HW124944   3.146   6.120   4.697
 8015SOL    HW224945   3.261   6.173   4.594
 8016SOL     OW24946   3.285   2.743   5.582
 8016SOL    HW124947   3.264   2.671   5.517
 8016SOL    HW224948   3.205   2.803   5.592
 8017SOL     OW24949   5.916   6.253   1.430
 8017SOL    HW124950   5.849   6.271   1.501
 8017SOL    HW224951   6.008   6.274   1.464
 8018SOL     OW24952   2.883   3.541   0.931
 8018SOL    HW124953   2.818   3.591   0.874
 8018SOL    HW224954   2.974   3.547   0.890
 8019SOL     OW24955   2.505   3.806   0.631
 8019SOL    HW124956   2.408   3.781   0.628
 8019SOL    HW224957   2.525   3.872   0.559
 8020SOL     OW24958   0.272   0.214   6.963
 8020SOL    HW124959   0.313   0.197   0.027
 8020SOL    HW224960   0.335   0.267   6.908
 8021SOL     OW24961   0.841   3.203   0.529
 8021SOL    HW124962   0.808   3.175   0.619
 8021SOL    HW224963   0.861   3.121   0.474
 8022SOL     OW24964   4.289   0.311   2.332
 8022SOL    HW124965   4.199   0.336   2.369
 8022SOL    HW224966   4.303   0.360   2.246
 8023SOL     OW24967   3.980   5.068   2.261
 8023SOL    HW124968   4.012   4.982   2.301
 8023SOL    HW224969   4.029   5.144   2.303
 8024SOL     OW24970   2.397   0.993   6.173
 8024SOL    HW124971   2.371   1.041   6.090
 8024SOL    HW224972   2.422   1.059   6.244
 8025SOL     OW24973   0.843   6.696   1.368
 8025SOL    HW124974   0.893   6.671   1.284
 8025SOL    HW224975   0.897   6.668   1.448
 8026SOL     OW24976   0.655   6.912   6.376
 8026SOL    HW124977   0.694   6.998   6.410
 8026SOL    HW224978   0.618   6.860   6.453
 8027SOL     OW24979   4.547   0.122   6.438
 8027SOL    HW124980   4.582   0.029   6.444
 8027SOL    HW224981   4.620   0.186   6.464
 8028SOL     OW24982   3.680   5.970   6.544
 8028SOL    HW124983   3.705   6.062   6.573
 8028SOL    HW224984   3.763   5.921   6.514
 8029SOL     OW24985   0.596   6.826   1.871
 8029SOL    HW124986   0.553   6.777   1.947
 8029SOL    HW224987   0.620   6.918   1.901
 8030SOL     OW24988   0.699   3.986   1.368
 8030SOL    HW124989   0.640   3.967   1.447
 8030SOL    HW224990   0.786   4.024   1.400
 8031SOL     OW24991   6.759   0.372   2.986
 8031SOL    HW124992   6.841   0.380   2.928
 8031SOL    HW224993   6.696   0.307   2.945
 8032SOL     OW24994   0.278   3.095   0.980
 8032SOL    HW124995   0.315   3.176   1.026
 8032SOL    HW224996   0.229   3.124   0.897
 8033SOL     OW24997   3.551   4.418   1.476
 8033SOL    HW124998   3.480   4.484   1.500
 8033SOL    HW224999   3.619   4.415   1.549
 8034SOL     OW25000   0.905   0.638   5.524
 8034SOL    HW125001   0.932   0.724   5.567
 8034SOL    HW225002   0.829   0.597   5.575
 8035SOL     OW25003   5.961   6.982   4.598
 8035SOL    HW125004   5.987   6.938   4.512
 8035SOL    HW225005   6.040   0.005   4.635
 8036SOL     OW25006   4.774   4.120   3.739
 8036SOL    HW125007   4.823   4.070   3.668
 8036SOL    HW225008   4.788   4.075   3.827
 8037SOL     OW25009   2.547   1.830   6.391
 8037SOL    HW125010   2.574   1.793   6.302
 8037SOL    HW225011   2.573   1.767   6.464
 8038SOL     OW25012   6.410   5.648   1.964
 8038SOL    HW125013   6.508   5.665   1.970
 8038SOL    HW225014   6.370   5.706   1.893
 8039SOL     OW25015   2.092   2.542   5.012
 8039SOL    HW125016   2.165   2.610   5.019
 8039SOL    HW225017   2.055   2.523   5.102
 8040SOL     OW25018   1.113   6.356   5.840
 8040SOL    HW125019   1.092   6.304   5.922
 8040SOL    HW225020   1.176   6.431   5.863
 8041SOL     OW25021   2.899   1.283   2.811
 8041SOL    HW125022   2.992   1.317   2.794
 8041SOL    HW225023   2.884   1.277   2.909
 8042SOL     OW25024   3.772   3.906   5.821
 8042SOL    HW125025   3.768   4.005   5.807
 8042SOL    HW225026   3.715   3.881   5.899
 8043SOL     OW25027   5.214   4.967   6.831
 8043SOL    HW125028   5.310   4.958   6.804
 8043SOL    HW225029   5.209   5.009   6.922
 8044SOL     OW25030   1.091   2.947   1.623
 8044SOL    HW125031   1.103   2.993   1.534
 8044SOL    HW225032   1.023   2.996   1.677
 8045SOL     OW25033   5.907   3.453   5.311
 8045SOL    HW125034   5.809   3.468   5.301
 8045SOL    HW225035   5.953   3.542   5.320
 8046SOL     OW25036   0.328   4.078   0.889
 8046SOL    HW125037   0.369   4.000   0.936
 8046SOL    HW225038   0.341   4.161   0.944
 8047SOL     OW25039   3.282   6.550   6.759
 8047SOL    HW125040   3.189   6.589   6.758
 8047SOL    HW225041   3.295   6.494   6.677
 8048SOL     OW25042   4.370   1.661   6.697
 8048SOL    HW125043   4.456   1.628   6.734
 8048SOL    HW225044   4.327   1.724   6.761
 8049SOL     OW25045   1.959   1.290   1.227
 8049SOL    HW125046   1.996   1.319   1.139
 8049SOL    HW225047   1.884   1.226   1.212
 8050SOL     OW25048   0.015   5.555   6.028
 8050SOL    HW125049   0.017   5.615   5.948
 8050SOL    HW225050   0.106   5.553   6.070
 8051SOL     OW25051   4.347   6.330   2.692
 8051SOL    HW125052   4.382   6.244   2.729
 8051SOL    HW225053   4.408   6.363   2.620
 8052SOL     OW25054   3.165   1.330   3.059
 8052SOL    HW125055   3.180   1.409   3.001
 8052SOL    HW225056   3.164   1.359   3.155
 8053SOL     OW25057   0.958   2.513   6.061
 8053SOL    HW125058   0.931   2.532   5.967
 8053SOL    HW225059   0.878   2.483   6.114
 8054SOL     OW25060   5.036   3.663   5.348
 8054SOL    HW125061   5.064   3.693   5.439
 8054SOL    HW225062   5.117   3.630   5.298
 8055SOL     OW25063   6.640   0.145   6.829
 8055SOL    HW125064   6.680   0.209   6.894
 8055SOL    HW225065   6.598   0.195   6.753
 8056SOL     OW25066   2.637   2.061   3.707
 8056SOL    HW125067   2.705   2.067   3.635
 8056SOL    HW225068   2.663   1.990   3.772
 8057SOL     OW25069   2.959   2.099   2.144
 8057SOL    HW125070   3.037   2.063   2.092
 8057SOL    HW225071   2.937   2.191   2.110
 8058SOL     OW25072   3.820   6.272   1.581
 8058SOL    HW125073   3.750   6.310   1.641
 8058SOL    HW225074   3.831   6.174   1.599
 8059SOL     OW25075   3.941   2.934   5.695
 8059SOL    HW125076   3.843   2.955   5.696
 8059SOL    HW225077   3.954   2.835   5.687
 8060SOL     OW25078   0.592   1.060   5.500
 8060SOL    HW125079   0.687   1.036   5.519
 8060SOL    HW225080   0.558   1.121   5.572
 8061SOL     OW25081   6.939   0.851   1.599
 8061SOL    HW125082   6.944   0.839   1.500
 8061SOL    HW225083   0.004   0.841   1.639
 8062SOL     OW25084   4.221   5.076   5.896
 8062SOL    HW125085   4.229   5.140   5.820
 8062SOL    HW225086   4.298   5.012   5.894
 8063SOL     OW25087   2.287   4.762   3.105
 8063SOL    HW125088   2.295   4.740   3.202
 8063SOL    HW225089   2.325   4.853   3.087
 8064SOL     OW25090   6.938   2.909   0.862
 8064SOL    HW125091   7.005   2.943   0.928
 8064SOL    HW225092   6.941   2.809   0.859
 8065SOL     OW25093   4.765   0.282   6.572
 8065SOL    HW125094   4.838   0.295   6.639
 8065SOL    HW225095   4.696   0.354   6.584
 8066SOL     OW25096   0.402   0.455   5.780
 8066SOL    HW125097   0.355   0.379   5.824
 8066SOL    HW225098   0.397   0.445   5.681
 8067SOL     OW25099   5.037   0.835   4.195
 8067SOL    HW125100   5.124   0.873   4.164
 8067SOL    HW225101   5.054   0.766   4.265
 8068SOL     OW25102   6.695   4.290   1.590
 8068SOL    HW125103   6.600   4.271   1.617
 8068SOL    HW225104   6.715   4.387   1.604
 8069SOL     OW25105   1.629   2.539   2.305
 8069SOL    HW125106   1.533   2.548   2.277
 8069SOL    HW225107   1.639   2.458   2.364
 8070SOL     OW25108   4.895   3.782   1.464
 8070SOL    HW125109   4.817   3.733   1.426
 8070SOL    HW225110   4.954   3.718   1.514
 8071SOL     OW25111   2.903   0.398   5.901
 8071SOL    HW125112   2.883   0.489   5.866
 8071SOL    HW225113   3.001   0.390   5.919
 8072SOL     OW25114   2.355   2.033   5.652
 8072SOL    HW125115   2.293   2.012   5.727
 8072SOL    HW225116   2.434   2.083   5.687
 8073SOL     OW25117   5.458   0.364   6.508
 8073SOL    HW125118   5.445   0.326   6.599
 8073SOL    HW225119   5.478   0.291   6.443
 8074SOL     OW25120   6.439   0.674   0.848
 8074SOL    HW125121   6.441   0.631   0.938
 8074SOL    HW225122   6.532   0.698   0.821
 8075SOL     OW25123   0.292   0.411   1.365
 8075SOL    HW125124   0.360   0.338   1.373
 8075SOL    HW225125   0.238   0.397   1.283
 8076SOL     OW25126   6.489   6.232   0.470
 8076SOL    HW125127   6.561   6.225   0.539
 8076SOL    HW225128   6.477   6.143   0.426
 8077SOL     OW25129   5.744   4.298   1.065
 8077SOL    HW125130   5.753   4.217   1.122
 8077SOL    HW225131   5.750   4.380   1.121
 8078SOL     OW25132   6.415   1.286   2.047
 8078SOL    HW125133   6.459   1.375   2.059
 8078SOL    HW225134   6.479   1.213   2.070
 8079SOL     OW25135   0.392   0.930   7.016
 8079SOL    HW125136   0.329   0.860   6.984
 8079SOL    HW225137   0.477   0.924   6.964
 8080SOL     OW25138   1.130   4.104   3.916
 8080SOL    HW125139   1.210   4.110   3.857
 8080SOL    HW225140   1.093   4.011   3.914
 8081SOL     OW25141   6.148   0.451   5.599
 8081SOL    HW125142   6.092   0.389   5.545
 8081SOL    HW225143   6.141   0.427   5.696
 8082SOL     OW25144   4.301   2.246   4.768
 8082SOL    HW125145   4.348   2.159   4.757
 8082SOL    HW225146   4.230   2.237   4.838
 8083SOL     OW25147   6.363   2.811   4.389
 8083SOL    HW125148   6.401   2.837   4.478
 8083SOL    HW225149   6.353   2.893   4.332
 8084SOL     OW25150   5.271   1.670   6.485
 8084SOL    HW125151   5.258   1.769   6.485
 8084SOL    HW225152   5.364   1.649   6.514
 8085SOL     OW25153   1.668   6.128   4.248
 8085SOL    HW125154   1.759   6.133   4.206
 8085SOL    HW225155   1.598   6.143   4.178
 8086SOL     OW25156   6.991   2.510   2.396
 8086SOL    HW125157   7.019   2.449   2.470
 8086SOL    HW225158   6.897   2.539   2.410
 8087SOL     OW25159   6.716   0.924   6.709
 8087SOL    HW125160   6.695   0.864   6.632
 8087SOL    HW225161   6.788   0.989   6.682
 8088SOL     OW25162   0.143   6.841   5.262
 8088SOL    HW125163   0.213   6.770   5.269
 8088SOL    HW225164   0.178   6.917   5.207
 8089SOL     OW25165   6.308   1.517   6.985
 8089SOL    HW125166   6.270   1.441   0.011
 8089SOL    HW225167   6.307   1.600   0.014
 8090SOL     OW25168   4.397   2.313   5.047
 8090SOL    HW125169   4.460   2.390   5.049
 8090SOL    HW225170   4.304   2.345   5.058
 8091SOL     OW25171   0.301   3.818   4.818
 8091SOL    HW125172   0.380   3.876   4.840
 8091SOL    HW225173   0.314   3.777   4.728
 8092SOL     OW25174   4.691   0.201   5.752
 8092SOL    HW125175   4.631   0.145   5.810
 8092SOL    HW225176   4.712   0.287   5.799
 8093SOL     OW25177   3.072   6.628   3.525
 8093SOL    HW125178   3.082   6.704   3.590
 8093SOL    HW225179   3.159   6.613   3.479
 8094SOL     OW25180   2.226   3.924   4.315
 8094SOL    HW125181   2.233   4.005   4.256
 8094SOL    HW225182   2.141   3.929   4.368
 8095SOL     OW25183   1.105   5.452   5.094
 8095SOL    HW125184   1.171   5.526   5.083
 8095SOL    HW225185   1.129   5.398   5.174
 8096SOL     OW25186   0.510   5.066   1.182
 8096SOL    HW125187   0.545   5.113   1.100
 8096SOL    HW225188   0.420   5.103   1.206
 8097SOL     OW25189   4.595   6.395   6.958
 8097SOL    HW125190   4.617   6.365   6.865
 8097SOL    HW225191   4.558   6.318   7.010
 8098SOL     OW25192   2.712   6.023   4.681
 8098SOL    HW125193   2.685   5.930   4.706
 8098SOL    HW225194   2.810   6.025   4.661
 8099SOL     OW25195   2.287   4.262   2.635
 8099SOL    HW125196   2.282   4.325   2.713
 8099SOL    HW225197   2.366   4.285   2.579
 8100SOL     OW25198   0.047   0.168   0.433
 8100SOL    HW125199   0.038   0.266   0.415
 8100SOL    HW225200   7.024   0.116   0.364
 8101SOL     OW25201   2.035   5.598   0.527
 8101SOL    HW125202   2.029   5.689   0.569
 8101SOL    HW225203   2.092   5.603   0.445
 8102SOL     OW25204   0.842   4.481   4.340
 8102SOL    HW125205   0.909   4.418   4.299
 8102SOL    HW225206   0.827   4.455   4.435
 8103SOL     OW25207   4.504   0.886   1.588
 8103SOL    HW125208   4.542   0.976   1.613
 8103SOL    HW225209   4.471   0.840   1.670
 8104SOL     OW25210   0.925   5.426   6.815
 8104SOL    HW125211   0.900   5.439   6.911
 8104SOL    HW225212   0.874   5.491   6.758
 8105SOL     OW25213   7.021   6.971   3.049
 8105SOL    HW125214   6.937   6.919   3.038
 8105SOL    HW225215   0.061   6.916   3.099
 8106SOL     OW25216   2.719   6.858   6.239
 8106SOL    HW125217   2.661   6.872   6.159
 8106SOL    HW225218   2.691   6.774   6.286
 8107SOL     OW25219   0.947   6.802   0.043
 8107SOL    HW125220   0.952   6.891   7.025
 8107SOL    HW225221   1.024   6.791   0.106
 8108SOL     OW25222   1.723   1.217   0.652
 8108SOL    HW125223   1.636   1.251   0.689
 8108SOL    HW225224   1.704   1.144   0.586
 8109SOL     OW25225   0.046   3.359   2.495
 8109SOL    HW125226   7.000   3.309   2.448
 8109SOL    HW225227   0.101   3.409   2.428
 8110SOL     OW25228   4.390   4.414   0.457
 8110SOL    HW125229   4.468   4.352   0.470
 8110SOL    HW225230   4.358   4.407   0.362
 8111SOL     OW25231   5.959   1.781   2.332
 8111SOL    HW125232   5.948   1.839   2.252
 8111SOL    HW225233   6.047   1.733   2.326
 8112SOL     OW25234   2.083   5.171   6.293
 8112SOL    HW125235   2.006   5.129   6.246
 8112SOL    HW225236   2.134   5.230   6.230
 8113SOL     OW25237   5.011   5.296   6.820
 8113SOL    HW125238   5.105   5.322   6.798
 8113SOL    HW225239   5.010   5.229   6.894
 8114SOL     OW25240   2.080   3.525   2.759
 8114SOL    HW125241   2.039   3.580   2.687
 8114SOL    HW225242   2.179   3.523   2.748
 8115SOL     OW25243   2.216   1.799   6.188
 8115SOL    HW125244   2.245   1.703   6.187
 8115SOL    HW225245   2.270   1.849   6.256
 8116SOL     OW25246   4.190   3.282   2.183
 8116SOL    HW125247   4.269   3.221   2.182
 8116SOL    HW225248   4.179   3.324   2.093
 8117SOL     OW25249   1.361   0.106   4.051
 8117SOL    HW125250   1.349   0.066   3.960
 8117SOL    HW225251   1.322   0.046   4.120
 8118SOL     OW25252   6.526   2.489   6.823
 8118SOL    HW125253   6.608   2.444   6.786
 8118SOL    HW225254   6.447   2.430   6.809
 8119SOL     OW25255   5.042   5.735   6.227
 8119SOL    HW125256   5.070   5.751   6.133
 8119SOL    HW225257   5.123   5.737   6.286
 8120SOL     OW25258   2.342   6.286   2.630
 8120SOL    HW125259   2.359   6.222   2.706
 8120SOL    HW225260   2.245   6.281   2.604
 8121SOL     OW25261   2.390   2.588   2.772
 8121SOL    HW125262   2.359   2.679   2.799
 8121SOL    HW225263   2.409   2.534   2.854
 8122SOL     OW25264   0.664   4.713   1.441
 8122SOL    HW125265   0.660   4.808   1.472
 8122SOL    HW225266   0.756   4.693   1.406
 8123SOL     OW25267   6.855   1.643   6.626
 8123SOL    HW125268   6.899   1.680   6.545
 8123SOL    HW225269   6.757   1.629   6.607
 8124SOL     OW25270   6.633   6.337   5.574
 8124SOL    HW125271   6.608   6.416   5.630
 8124SOL    HW225272   6.552   6.280   5.557
 8125SOL     OW25273   1.119   5.835   1.810
 8125SOL    HW125274   1.065   5.900   1.863
 8125SOL    HW225275   1.164   5.882   1.734
 8126SOL     OW25276   3.458   5.504   4.714
 8126SOL    HW125277   3.553   5.476   4.710
 8126SOL    HW225278   3.415   5.492   4.624
 8127SOL     OW25279   3.661   1.639   6.144
 8127SOL    HW125280   3.608   1.723   6.144
 8127SOL    HW225281   3.759   1.660   6.138
 8128SOL     OW25282   3.227   3.459   1.223
 8128SOL    HW125283   3.298   3.513   1.268
 8128SOL    HW225284   3.227   3.366   1.261
 8129SOL     OW25285   0.458   2.487   3.582
 8129SOL    HW125286   0.426   2.405   3.630
 8129SOL    HW225287   0.555   2.475   3.559
 8130SOL     OW25288   6.832   6.112   6.877
 8130SOL    HW125289   6.867   6.020   6.862
 8130SOL    HW225290   6.908   6.177   6.876
 8131SOL     OW25291   1.497   2.167   1.198
 8131SOL    HW125292   1.474   2.189   1.293
 8131SOL    HW225293   1.592   2.136   1.194
 8132SOL     OW25294   6.300   1.612   4.504
 8132SOL    HW125295   6.278   1.670   4.582
 8132SOL    HW225296   6.223   1.551   4.485
 8133SOL     OW25297   3.629   5.367   1.539
 8133SOL    HW125298   3.689   5.287   1.542
 8133SOL    HW225299   3.567   5.365   1.617
 8134SOL     OW25300   5.923   2.329   6.210
 8134SOL    HW125301   5.974   2.377   6.138
 8134SOL    HW225302   5.960   2.237   6.221
 8135SOL     OW25303   2.506   6.364   1.840
 8135SOL    HW125304   2.473   6.310   1.917
 8135SOL    HW225305   2.576   6.428   1.873
 8136SOL     OW25306   4.661   4.617   2.435
 8136SOL    HW125307   4.650   4.683   2.362
 8136SOL    HW225308   4.697   4.531   2.398
 8137SOL     OW25309   4.584   1.364   6.072
 8137SOL    HW125310   4.561   1.451   6.117
 8137SOL    HW225311   4.673   1.373   6.026
 8138SOL     OW25312   5.517   0.955   2.104
 8138SOL    HW125313   5.479   0.949   2.197
 8138SOL    HW225314   5.485   0.877   2.050
 8139SOL     OW25315   0.608   1.387   3.859
 8139SOL    HW125316   0.679   1.373   3.929
 8139SOL    HW225317   0.520   1.354   3.894
 8140SOL     OW25318   5.133   2.693   3.364
 8140SOL    HW125319   5.162   2.604   3.330
 8140SOL    HW225320   5.205   2.761   3.345
 8141SOL     OW25321   6.272   3.690   3.769
 8141SOL    HW125322   6.199   3.625   3.747
 8141SOL    HW225323   6.346   3.642   3.817
 8142SOL     OW25324   7.005   6.728   0.181
 8142SOL    HW125325   6.978   6.633   0.197
 8142SOL    HW225326   6.990   6.751   0.085
 8143SOL     OW25327   6.194   2.921   5.433
 8143SOL    HW125328   6.188   2.826   5.464
 8143SOL    HW225329   6.217   2.923   5.335
 8144SOL     OW25330   4.910   6.340   6.868
 8144SOL    HW125331   4.888   6.436   6.851
 8144SOL    HW225332   4.836   6.283   6.834
 8145SOL     OW25333   4.412   6.350   3.536
 8145SOL    HW125334   4.476   6.369   3.462
 8145SOL    HW225335   4.459   6.300   3.609
 8146SOL     OW25336   3.660   1.728   4.224
 8146SOL    HW125337   3.646   1.813   4.173
 8146SOL    HW225338   3.585   1.714   4.288
 8147SOL     OW25339   5.289   1.294   3.258
 8147SOL    HW125340   5.231   1.342   3.325
 8147SOL    HW225341   5.369   1.349   3.237
 8148SOL     OW25342   0.107   4.468   2.882
 8148SOL    HW125343   0.047   4.448   2.804
 8148SOL    HW225344   0.059   4.528   2.946
 8149SOL     OW25345   3.573   5.369   3.676
 8149SOL    HW125346   3.600   5.443   3.614
 8149SOL    HW225347   3.571   5.402   3.770
 8150SOL     OW25348   1.263   6.544   1.045
 8150SOL    HW125349   1.277   6.462   0.990
 8150SOL    HW225350   1.297   6.624   0.996
 8151SOL     OW25351   0.407   1.354   4.591
 8151SOL    HW125352   0.474   1.321   4.525
 8151SOL    HW225353   0.438   1.440   4.631
 8152SOL     OW25354   0.902   0.686   3.499
 8152SOL    HW125355   0.944   0.695   3.409
 8152SOL    HW225356   0.917   0.770   3.551
 8153SOL     OW25357   1.903   6.469   0.172
 8153SOL    HW125358   1.962   6.523   0.111
 8153SOL    HW225359   1.932   6.482   0.267
 8154SOL     OW25360   2.080   6.494   3.059
 8154SOL    HW125361   2.174   6.482   3.027
 8154SOL    HW225362   2.040   6.404   3.077
 8155SOL     OW25363   3.037   3.757   4.701
 8155SOL    HW125364   3.017   3.830   4.766
 8155SOL    HW225365   2.951   3.724   4.661
 8156SOL     OW25366   0.230   0.276   5.528
 8156SOL    HW125367   0.311   0.334   5.522
 8156SOL    HW225368   0.251   0.186   5.490
 8157SOL     OW25369   5.723   1.917   6.820
 8157SOL    HW125370   5.707   1.958   6.730
 8157SOL    HW225371   5.801   1.854   6.814
 8158SOL     OW25372   1.206   5.444   2.647
 8158SOL    HW125373   1.168   5.370   2.591
 8158SOL    HW225374   1.227   5.522   2.588
 8159SOL     OW25375   0.537   5.807   0.679
 8159SOL    HW125376   0.532   5.752   0.762
 8159SOL    HW225377   0.568   5.900   0.703
 8160SOL     OW25378   4.577   1.919   1.815
 8160SOL    HW125379   4.633   1.896   1.895
 8160SOL    HW225380   4.541   2.011   1.825
 8161SOL     OW25381   4.124   3.168   1.472
 8161SOL    HW125382   4.026   3.150   1.465
 8161SOL    HW225383   4.174   3.095   1.425
 8162SOL     OW25384   6.060   0.715   2.171
 8162SOL    HW125385   5.979   0.768   2.148
 8162SOL    HW225386   6.038   0.650   2.243
 8163SOL     OW25387   2.015   3.121   5.721
 8163SOL    HW125388   2.022   3.099   5.818
 8163SOL    HW225389   1.956   3.201   5.710
 8164SOL     OW25390   4.637   3.556   1.604
 8164SOL    HW125391   4.636   3.654   1.622
 8164SOL    HW225392   4.557   3.514   1.647
 8165SOL     OW25393   1.696   4.467   1.784
 8165SOL    HW125394   1.709   4.369   1.770
 8165SOL    HW225395   1.786   4.511   1.794
 8166SOL     OW25396   3.809   6.917   1.391
 8166SOL    HW125397   3.718   6.945   1.359
 8166SOL    HW225398   3.829   6.824   1.360
 8167SOL     OW25399   5.272   2.681   4.664
 8167SOL    HW125400   5.211   2.742   4.715
 8167SOL    HW225401   5.223   2.598   4.638
 8168SOL     OW25402   2.741   2.045   2.507
 8168SOL    HW125403   2.644   2.042   2.480
 8168SOL    HW225404   2.760   2.133   2.551
 8169SOL     OW25405   5.304   4.095   5.018
 8169SOL    HW125406   5.217   4.046   5.017
 8169SOL    HW225407   5.298   4.176   4.960
 8170SOL     OW25408   1.985   5.072   3.942
 8170SOL    HW125409   1.946   5.126   4.016
 8170SOL    HW225410   2.076   5.108   3.920
 8171SOL     OW25411   1.816   1.056   6.725
 8171SOL    HW125412   1.906   1.054   6.682
 8171SOL    HW225413   1.792   0.965   6.758
 8172SOL     OW25414   0.648   5.929   1.380
 8172SOL    HW125415   0.569   5.915   1.320
 8172SOL    HW225416   0.646   5.863   1.455
 8173SOL     OW25417   6.402   3.401   0.367
 8173SOL    HW125418   6.445   3.317   0.398
 8173SOL    HW225419   6.303   3.394   0.378
 8174SOL     OW25420   5.206   6.573   2.513
 8174SOL    HW125421   5.225   6.654   2.459
 8174SOL    HW225422   5.271   6.501   2.489
 8175SOL     OW25423   1.938   2.706   4.043
 8175SOL    HW125424   2.034   2.698   4.014
 8175SOL    HW225425   1.895   2.782   3.994
 8176SOL     OW25426   3.756   5.882   3.313
 8176SOL    HW125427   3.814   5.949   3.360
 8176SOL    HW225428   3.684   5.851   3.375
 8177SOL     OW25429   1.728   6.256   6.042
 8177SOL    HW125430   1.723   6.328   5.973
 8177SOL    HW225431   1.639   6.247   6.088
 8178SOL     OW25432   2.450   6.474   5.752
 8178SOL    HW125433   2.401   6.390   5.730
 8178SOL    HW225434   2.462   6.482   5.851
 8179SOL     OW25435   3.917   0.520   0.355
 8179SOL    HW125436   3.896   0.532   0.452
 8179SOL    HW225437   3.925   0.422   0.334
 8180SOL     OW25438   4.952   4.565   5.128
 8180SOL    HW125439   4.913   4.583   5.219
 8180SOL    HW225440   5.048   4.538   5.138
 8181SOL     OW25441   2.510   2.335   2.382
 8181SOL    HW125442   2.596   2.294   2.351
 8181SOL    HW225443   2.497   2.423   2.337
 8182SOL     OW25444   5.403   2.724   5.631
 8182SOL    HW125445   5.444   2.811   5.601
 8182SOL    HW225446   5.308   2.719   5.600
 8183SOL     OW25447   2.081   3.084   3.490
 8183SOL    HW125448   2.176   3.091   3.520
 8183SOL    HW225449   2.071   3.004   3.431
 8184SOL     OW25450   6.139   5.796   4.253
 8184SOL    HW125451   6.182   5.885   4.239
 8184SOL    HW225452   6.147   5.742   4.169
 8185SOL     OW25453   1.083   2.415   2.892
 8185SOL    HW125454   0.985   2.436   2.884
 8185SOL    HW225455   1.134   2.501   2.896
 8186SOL     OW25456   4.406   4.183   6.867
 8186SOL    HW125457   4.475   4.159   6.798
 8186SOL    HW225458   4.367   4.272   6.846
 8187SOL     OW25459   2.051   1.784   5.841
 8187SOL    HW125460   2.010   1.697   5.869
 8187SOL    HW225461   2.006   1.816   5.757
 8188SOL     OW25462   4.801   2.968   2.569
 8188SOL    HW125463   4.815   2.967   2.668
 8188SOL    HW225464   4.861   3.037   2.528
 8189SOL     OW25465   6.634   5.125   2.787
 8189SOL    HW125466   6.548   5.132   2.737
 8189SOL    HW225467   6.700   5.189   2.748
 8190SOL     OW25468   6.200   3.535   2.336
 8190SOL    HW125469   6.179   3.624   2.297
 8190SOL    HW225470   6.125   3.472   2.319
 8191SOL     OW25471   6.032   5.163   1.513
 8191SOL    HW125472   6.049   5.245   1.459
 8191SOL    HW225473   6.096   5.160   1.590
 8192SOL     OW25474   1.443   2.489   0.993
 8192SOL    HW125475   1.415   2.470   0.899
 8192SOL    HW225476   1.430   2.407   1.049
 8193SOL     OW25477   3.849   6.969   5.593
 8193SOL    HW125478   3.846   7.014   5.682
 8193SOL    HW225479   3.775   6.903   5.586
 8194SOL     OW25480   2.073   0.929   2.734
 8194SOL    HW125481   2.015   0.895   2.807
 8194SOL    HW225482   2.066   1.029   2.729
 8195SOL     OW25483   5.488   1.343   1.793
 8195SOL    HW125484   5.575   1.392   1.799
 8195SOL    HW225485   5.460   1.337   1.697
 8196SOL     OW25486   1.787   1.312   0.894
 8196SOL    HW125487   1.833   1.396   0.922
 8196SOL    HW225488   1.791   1.302   0.794
 8197SOL     OW25489   0.777   6.943   0.719
 8197SOL    HW125490   0.734   6.871   0.665
 8197SOL    HW225491   0.740   0.006   0.691
 8198SOL     OW25492   3.500   0.684   2.824
 8198SOL    HW125493   3.512   0.610   2.757
 8198SOL    HW225494   3.434   0.655   2.893
 8199SOL     OW25495   5.770   4.893   1.174
 8199SOL    HW125496   5.794   4.951   1.252
 8199SOL    HW225497   5.847   4.832   1.153
 8200SOL     OW25498   4.179   3.576   1.791
 8200SOL    HW125499   4.255   3.532   1.744
 8200SOL    HW225500   4.123   3.626   1.725
 8201SOL     OW25501   0.736   1.355   5.346
 8201SOL    HW125502   0.819   1.304   5.370
 8201SOL    HW225503   0.752   1.453   5.357
 8202SOL     OW25504   1.834   3.492   4.727
 8202SOL    HW125505   1.918   3.545   4.721
 8202SOL    HW225506   1.822   3.438   4.644
 8203SOL     OW25507   6.328   4.623   6.790
 8203SOL    HW125508   6.358   4.598   6.698
 8203SOL    HW225509   6.353   4.718   6.810
 8204SOL     OW25510   3.615   0.345   0.593
 8204SOL    HW125511   3.532   0.378   0.549
 8204SOL    HW225512   3.602   0.249   0.620
 8205SOL     OW25513   4.425   6.468   3.271
 8205SOL    HW125514   4.343   6.490   3.218
 8205SOL    HW225515   4.497   6.534   3.250
 8206SOL     OW25516   3.691   1.764   4.827
 8206SOL    HW125517   3.645   1.675   4.838
 8206SOL    HW225518   3.789   1.749   4.815
 8207SOL     OW25519   2.935   6.072   6.904
 8207SOL    HW125520   3.008   6.030   6.958
 8207SOL    HW225521   2.972   6.151   6.854
 8208SOL     OW25522   2.017   5.911   0.550
 8208SOL    HW125523   1.984   5.999   0.585
 8208SOL    HW225524   2.117   5.910   0.551
 8209SOL     OW25525   0.621   5.418   5.509
 8209SOL    HW125526   0.573   5.379   5.430
 8209SOL    HW225527   0.570   5.397   5.592
 8210SOL     OW25528   2.195   0.997   0.668
 8210SOL    HW125529   2.233   0.987   0.576
 8210SOL    HW225530   2.098   1.022   0.661
 8211SOL     OW25531   3.507   4.163   3.694
 8211SOL    HW125532   3.534   4.149   3.789
 8211SOL    HW225533   3.408   4.174   3.689
 8212SOL     OW25534   4.493   4.884   6.549
 8212SOL    HW125535   4.420   4.827   6.511
 8212SOL    HW225536   4.507   4.861   6.645
 8213SOL     OW25537   4.636   4.355   1.719
 8213SOL    HW125538   4.590   4.320   1.800
 8213SOL    HW225539   4.627   4.290   1.644
 8214SOL     OW25540   3.857   5.492   3.633
 8214SOL    HW125541   3.768   5.530   3.607
 8214SOL    HW225542   3.872   5.504   3.731
 8215SOL     OW25543   2.681   6.348   6.272
 8215SOL    HW125544   2.601   6.384   6.321
 8215SOL    HW225545   2.718   6.269   6.321
 8216SOL     OW25546   5.053   5.200   0.686
 8216SOL    HW125547   5.036   5.290   0.727
 8216SOL    HW225548   4.979   5.138   0.710
 8217SOL     OW25549   3.337   6.554   3.385
 8217SOL    HW125550   3.404   6.524   3.453
 8217SOL    HW225551   3.285   6.476   3.352
 8218SOL     OW25552   1.729   6.769   4.132
 8218SOL    HW125553   1.742   6.858   4.176
 8218SOL    HW225554   1.632   6.754   4.114
 8219SOL     OW25555   3.910   3.103   3.258
 8219SOL    HW125556   3.831   3.151   3.217
 8219SOL    HW225557   3.978   3.171   3.286
 8220SOL     OW25558   4.353   3.915   5.599
 8220SOL    HW125559   4.339   4.003   5.644
 8220SOL    HW225560   4.391   3.930   5.507
 8221SOL     OW25561   6.666   3.839   3.925
 8221SOL    HW125562   6.632   3.772   3.858
 8221SOL    HW225563   6.677   3.794   4.014
 8222SOL     OW25564   5.485   2.631   6.090
 8222SOL    HW125565   5.562   2.575   6.120
 8222SOL    HW225566   5.400   2.587   6.118
 8223SOL     OW25567   1.259   6.218   5.461
 8223SOL    HW125568   1.299   6.222   5.552
 8223SOL    HW225569   1.163   6.242   5.465
 8224SOL     OW25570   5.799   0.894   5.992
 8224SOL    HW125571   5.760   0.886   5.901
 8224SOL    HW225572   5.748   0.962   6.045
 8225SOL     OW25573   6.065   2.762   0.238
 8225SOL    HW125574   6.142   2.736   0.180
 8225SOL    HW225575   6.064   2.704   0.320
 8226SOL     OW25576   4.289   1.356   6.847
 8226SOL    HW125577   4.252   1.411   6.772
 8226SOL    HW225578   4.336   1.276   6.810
 8227SOL     OW25579   5.175   3.635   2.457
 8227SOL    HW125580   5.104   3.631   2.387
 8227SOL    HW225581   5.249   3.695   2.426
 8228SOL     OW25582   2.928   1.313   4.662
 8228SOL    HW125583   2.999   1.242   4.660
 8228SOL    HW225584   2.937   1.371   4.581
 8229SOL     OW25585   3.915   4.621   0.866
 8229SOL    HW125586   3.906   4.683   0.789
 8229SOL    HW225587   3.828   4.618   0.917
 8230SOL     OW25588   6.123   0.740   6.214
 8230SOL    HW125589   6.102   0.755   6.117
 8230SOL    HW225590   6.042   0.762   6.268
 8231SOL     OW25591   3.393   1.693   2.061
 8231SOL    HW125592   3.456   1.756   2.014
 8231SOL    HW225593   3.348   1.635   1.993
 8232SOL     OW25594   4.247   6.587   3.515
 8232SOL    HW125595   4.172   6.538   3.471
 8232SOL    HW225596   4.316   6.522   3.548
 8233SOL     OW25597   2.580   1.385   6.201
 8233SOL    HW125598   2.570   1.359   6.297
 8233SOL    HW225599   2.677   1.399   6.180
 8234SOL     OW25600   1.102   2.680   7.013
 8234SOL    HW125601   1.087   2.722   6.923
 8234SOL    HW225602   1.029   2.707   0.049
 8235SOL     OW25603   0.487   6.694   1.101
 8235SOL    HW125604   0.388   6.687   1.109
 8235SOL    HW225605   0.529   6.663   1.186
 8236SOL     OW25606   0.878   0.311   1.020
 8236SOL    HW125607   0.820   0.232   0.998
 8236SOL    HW225608   0.954   0.316   0.955
 8237SOL     OW25609   4.192   5.220   5.628
 8237SOL    HW125610   4.218   5.316   5.624
 8237SOL    HW225611   4.100   5.208   5.591
 8238SOL     OW25612   6.477   5.276   0.198
 8238SOL    HW125613   6.450   5.180   0.194
 8238SOL    HW225614   6.462   5.311   0.291
 8239SOL     OW25615   4.964   1.972   4.650
 8239SOL    HW125616   4.900   2.044   4.623
 8239SOL    HW225617   4.934   1.931   4.736
 8240SOL     OW25618   3.468   3.647   4.912
 8240SOL    HW125619   3.413   3.647   4.996
 8240SOL    HW225620   3.531   3.724   4.915
 8241SOL     OW25621   0.840   3.001   5.755
 8241SOL    HW125622   0.808   2.954   5.672
 8241SOL    HW225623   0.925   3.050   5.735
 8242SOL     OW25624   0.271   2.605   3.427
 8242SOL    HW125625   0.226   2.556   3.352
 8242SOL    HW225626   0.354   2.557   3.454
 8243SOL     OW25627   1.116   6.194   3.556
 8243SOL    HW125628   1.156   6.158   3.641
 8243SOL    HW225629   1.180   6.257   3.513
 8244SOL     OW25630   5.524   0.926   3.670
 8244SOL    HW125631   5.605   0.975   3.637
 8244SOL    HW225632   5.485   0.872   3.596
 8245SOL     OW25633   5.318   3.776   2.209
 8245SOL    HW125634   5.393   3.714   2.232
 8245SOL    HW225635   5.347   3.870   2.225
 8246SOL     OW25636   2.071   4.307   6.501
 8246SOL    HW125637   2.115   4.391   6.471
 8246SOL    HW225638   2.092   4.290   6.597
 8247SOL     OW25639   1.980   4.568   3.541
 8247SOL    HW125640   1.908   4.619   3.494
 8247SOL    HW225641   2.004   4.616   3.626
 8248SOL     OW25642   6.884   6.065   2.815
 8248SOL    HW125643   6.847   5.999   2.748
 8248SOL    HW225644   6.847   6.044   2.906
 8249SOL     OW25645   2.879   0.731   6.132
 8249SOL    HW125646   2.847   0.801   6.195
 8249SOL    HW225647   2.898   0.772   6.043
 8250SOL     OW25648   1.307   1.659   0.296
 8250SOL    HW125649   1.400   1.693   0.306
 8250SOL    HW225650   1.266   1.698   0.213
 8251SOL     OW25651   1.336   2.012   6.201
 8251SOL    HW125652   1.333   1.920   6.239
 8251SOL    HW225653   1.269   2.021   6.128
 8252SOL     OW25654   0.542   1.990   6.776
 8252SOL    HW125655   0.522   1.954   6.685
 8252SOL    HW225656   0.458   2.029   6.815
 8253SOL     OW25657   6.353   4.811   5.802
 8253SOL    HW125658   6.340   4.855   5.713
 8253SOL    HW225659   6.269   4.763   5.828
 8254SOL     OW25660   5.444   4.898   6.702
 8254SOL    HW125661   5.540   4.888   6.729
 8254SOL    HW225662   5.418   4.821   6.643
 8255SOL     OW25663   1.446   6.842   5.919
 8255SOL    HW125664   1.349   6.846   5.945
 8255SOL    HW225665   1.502   6.860   6.000
 8256SOL     OW25666   1.457   5.885   3.105
 8256SOL    HW125667   1.515   5.877   3.185
 8256SOL    HW225668   1.407   5.800   3.091
 8257SOL     OW25669   4.794   4.035   3.483
 8257SOL    HW125670   4.753   4.097   3.416
 8257SOL    HW225671   4.733   3.957   3.498
 8258SOL     OW25672   0.520   3.622   4.261
 8258SOL    HW125673   0.581   3.613   4.339
 8258SOL    HW225674   0.464   3.704   4.272
 8259SOL     OW25675   5.383   2.888   4.088
 8259SOL    HW125676   5.301   2.850   4.045
 8259SOL    HW225677   5.441   2.929   4.018
 8260SOL     OW25678   4.615   2.383   6.334
 8260SOL    HW125679   4.558   2.432   6.400
 8260SOL    HW225680   4.656   2.303   6.379
 8261SOL     OW25681   5.863   2.242   2.930
 8261SOL    HW125682   5.780   2.235   2.875
 8261SOL    HW225683   5.861   2.326   2.984
 8262SOL     OW25684   4.869   3.851   1.947
 8262SOL    HW125685   4.922   3.867   1.864
 8262SOL    HW225686   4.885   3.758   1.979
 8263SOL     OW25687   6.062   1.379   6.835
 8263SOL    HW125688   6.060   1.399   6.933
 8263SOL    HW225689   6.106   1.455   6.786
 8264SOL     OW25690   3.136   1.011   1.581
 8264SOL    HW125691   3.098   1.039   1.670
 8264SOL    HW225692   3.062   0.994   1.517
 8265SOL     OW25693   4.423   5.567   0.453
 8265SOL    HW125694   4.443   5.642   0.391
 8265SOL    HW225695   4.476   5.486   0.427
 8266SOL     OW25696   4.577   2.326   3.505
 8266SOL    HW125697   4.494   2.336   3.560
 8266SOL    HW225698   4.558   2.267   3.426
 8267SOL     OW25699   2.032   3.132   3.137
 8267SOL    HW125700   2.067   3.199   3.072
 8267SOL    HW225701   1.961   3.174   3.194
 8268SOL     OW25702   2.841   5.015   1.593
 8268SOL    HW125703   2.833   4.919   1.616
 8268SOL    HW225704   2.785   5.070   1.656
 8269SOL     OW25705   6.974   1.341   4.230
 8269SOL    HW125706   6.892   1.379   4.273
 8269SOL    HW225707   6.982   1.244   4.254
 8270SOL     OW25708   3.794   4.343   0.268
 8270SOL    HW125709   3.829   4.363   0.359
 8270SOL    HW225710   3.776   4.245   0.260
 8271SOL     OW25711   3.177   0.003   5.591
 8271SOL    HW125712   3.143   0.097   5.592
 8271SOL    HW225713   3.215   7.007   5.681
 8272SOL     OW25714   0.851   0.432   2.184
 8272SOL    HW125715   0.900   0.379   2.115
 8272SOL    HW225716   0.897   0.423   2.272
 8273SOL     OW25717   4.564   6.705   5.898
 8273SOL    HW125718   4.627   6.782   5.886
 8273SOL    HW225719   4.533   6.702   5.993
 8274SOL     OW25720   5.670   6.545   3.589
 8274SOL    HW125721   5.683   6.638   3.622
 8274SOL    HW225722   5.692   6.481   3.663
 8275SOL     OW25723   4.789   0.803   4.413
 8275SOL    HW125724   4.690   0.809   4.409
 8275SOL    HW225725   4.825   0.777   4.323
 8276SOL     OW25726   5.807   2.745   1.061
 8276SOL    HW125727   5.891   2.800   1.062
 8276SOL    HW225728   5.767   2.744   1.153
 8277SOL     OW25729   1.506   6.991   1.807
 8277SOL    HW125730   1.546   6.904   1.779
 8277SOL    HW225731   1.467   6.983   1.898
 8278SOL     OW25732   1.496   0.516   1.328
 8278SOL    HW125733   1.492   0.420   1.356
 8278SOL    HW225734   1.574   0.530   1.266
 8279SOL     OW25735   5.751   5.062   5.520
 8279SOL    HW125736   5.791   4.974   5.494
 8279SOL    HW225737   5.653   5.051   5.533
 8280SOL     OW25738   6.281   4.232   6.942
 8280SOL    HW125739   6.292   4.136   6.915
 8280SOL    HW225740   6.366   4.281   6.924
 8281SOL     OW25741   3.005   4.717   6.554
 8281SOL    HW125742   3.054   4.798   6.522
 8281SOL    HW225743   2.913   4.715   6.514
 8282SOL     OW25744   4.153   2.614   1.041
 8282SOL    HW125745   4.118   2.707   1.046
 8282SOL    HW225746   4.253   2.615   1.036
 8283SOL     OW25747   0.779   0.919   3.283
 8283SOL    HW125748   0.875   0.897   3.304
 8283SOL    HW225749   0.741   0.848   3.225
 8284SOL     OW25750   5.121   2.199   1.621
 8284SOL    HW125751   5.161   2.275   1.671
 8284SOL    HW225752   5.023   2.193   1.642
 8285SOL     OW25753   0.621   4.752   0.420
 8285SOL    HW125754   0.703   4.810   0.420
 8285SOL    HW225755   0.636   4.674   0.359
 8286SOL     OW25756   6.330   1.664   6.459
 8286SOL    HW125757   6.362   1.669   6.364
 8286SOL    HW225758   6.255   1.727   6.473
 8287SOL     OW25759   0.521   0.538   3.279
 8287SOL    HW125760   0.554   0.608   3.216
 8287SOL    HW225761   0.439   0.495   3.241
 8288SOL     OW25762   2.952   6.973   2.206
 8288SOL    HW125763   3.050   6.955   2.218
 8288SOL    HW225764   2.901   6.931   2.281
 8289SOL     OW25765   6.125   0.018   0.410
 8289SOL    HW125766   6.181   0.100   0.395
 8289SOL    HW225767   6.184   6.964   0.416
 8290SOL     OW25768   4.986   2.742   1.942
 8290SOL    HW125769   4.944   2.762   2.030
 8290SOL    HW225770   4.926   2.772   1.868
 8291SOL     OW25771   5.497   5.649   5.471
 8291SOL    HW125772   5.437   5.727   5.492
 8291SOL    HW225773   5.555   5.629   5.550
 8292SOL     OW25774   6.799   3.651   5.214
 8292SOL    HW125775   6.864   3.636   5.288
 8292SOL    HW225776   6.721   3.704   5.249
 8293SOL     OW25777   2.565   5.661   4.258
 8293SOL    HW125778   2.656   5.703   4.250
 8293SOL    HW225779   2.570   5.583   4.320
 8294SOL     OW25780   6.895   3.181   6.319
 8294SOL    HW125781   6.951   3.167   6.401
 8294SOL    HW225782   6.916   3.109   6.252
 8295SOL     OW25783   4.342   5.043   1.717
 8295SOL    HW125784   4.363   4.974   1.648
 8295SOL    HW225785   4.243   5.060   1.717
 8296SOL     OW25786   3.580   0.450   2.171
 8296SOL    HW125787   3.628   0.515   2.230
 8296SOL    HW225788   3.647   0.396   2.119
 8297SOL     OW25789   5.559   4.277   1.748
 8297SOL    HW125790   5.547   4.192   1.799
 8297SOL    HW225791   5.512   4.271   1.661
 8298SOL     OW25792   7.001   6.916   0.830
 8298SOL    HW125793   6.913   6.888   0.868
 8298SOL    HW225794   6.997   7.012   0.802
 8299SOL     OW25795   0.919   2.707   6.505
 8299SOL    HW125796   0.961   2.672   6.588
 8299SOL    HW225797   0.977   2.684   6.426
 8300SOL     OW25798   4.982   5.569   3.620
 8300SOL    HW125799   5.037   5.490   3.594
 8300SOL    HW225800   4.950   5.558   3.714
 8301SOL     OW25801   6.449   5.358   0.482
 8301SOL    HW125802   6.503   5.314   0.553
 8301SOL    HW225803   6.392   5.430   0.522
 8302SOL     OW25804   3.744   6.601   5.928
 8302SOL    HW125805   3.684   6.615   5.849
 8302SOL    HW225806   3.691   6.567   6.005
 8303SOL     OW25807   1.351   5.140   3.710
 8303SOL    HW125808   1.343   5.092   3.797
 8303SOL    HW225809   1.298   5.225   3.713
 8304SOL     OW25810   5.469   3.015   3.478
 8304SOL    HW125811   5.561   3.022   3.516
 8304SOL    HW225812   5.443   3.103   3.436
 8305SOL     OW25813   4.332   6.693   5.332
 8305SOL    HW125814   4.386   6.777   5.342
 8305SOL    HW225815   4.260   6.708   5.265
 8306SOL     OW25816   4.861   1.036   4.144
 8306SOL    HW125817   4.915   1.064   4.064
 8306SOL    HW225818   4.914   0.973   4.199
 8307SOL     OW25819   6.956   4.935   4.313
 8307SOL    HW125820   6.873   4.880   4.325
 8307SOL    HW225821   6.988   4.967   4.402
 8308SOL     OW25822   1.998   5.224   0.229
 8308SOL    HW125823   1.947   5.288   0.171
 8308SOL    HW225824   1.970   5.236   0.324
 8309SOL     OW25825   6.517   4.618   2.812
 8309SOL    HW125826   6.489   4.522   2.814
 8309SOL    HW225827   6.436   4.676   2.821
 8310SOL     OW25828   1.482   6.246   3.282
 8310SOL    HW125829   1.402   6.211   3.330
 8310SOL    HW225830   1.461   6.255   3.185
 8311SOL     OW25831   4.949   6.426   1.699
 8311SOL    HW125832   4.904   6.424   1.788
 8311SOL    HW225833   4.919   6.506   1.647
 8312SOL     OW25834   6.293   1.444   0.438
 8312SOL    HW125835   6.369   1.379   0.436
 8312SOL    HW225836   6.214   1.402   0.483
 8313SOL     OW25837   4.800   2.605   6.269
 8313SOL    HW125838   4.757   2.524   6.307
 8313SOL    HW225839   4.898   2.604   6.290
 8314SOL     OW25840   4.883   5.669   4.102
 8314SOL    HW125841   4.930   5.624   4.026
 8314SOL    HW225842   4.821   5.739   4.067
 8315SOL     OW25843   3.233   2.469   6.945
 8315SOL    HW125844   3.278   2.382   6.927
 8315SOL    HW225845   3.264   2.538   6.879
 8316SOL     OW25846   1.610   1.316   4.586
 8316SOL    HW125847   1.606   1.412   4.613
 8316SOL    HW225848   1.581   1.306   4.491
 8317SOL     OW25849   1.247   1.762   5.814
 8317SOL    HW125850   1.149   1.767   5.795
 8317SOL    HW225851   1.291   1.847   5.786
 8318SOL     OW25852   4.269   6.507   5.562
 8318SOL    HW125853   4.321   6.578   5.514
 8318SOL    HW225854   4.331   6.452   5.617
 8319SOL     OW25855   2.616   5.805   6.771
 8319SOL    HW125856   2.695   5.820   6.713
 8319SOL    HW225857   2.608   5.880   6.837
 8320SOL     OW25858   3.922   4.953   5.749
 8320SOL    HW125859   3.952   4.955   5.844
 8320SOL    HW225860   3.945   5.039   5.704
 8321SOL     OW25861   0.243   0.537   0.651
 8321SOL    HW125862   0.281   0.585   0.573
 8321SOL    HW225863   0.261   0.589   0.735
 8322SOL     OW25864   1.985   1.001   1.677
 8322SOL    HW125865   2.022   0.948   1.754
 8322SOL    HW225866   2.044   1.079   1.659
 8323SOL     OW25867   5.569   5.347   6.735
 8323SOL    HW125868   5.522   5.364   6.649
 8323SOL    HW225869   5.649   5.289   6.720
 8324SOL     OW25870   5.523   6.220   6.122
 8324SOL    HW125871   5.516   6.269   6.209
 8324SOL    HW225872   5.550   6.285   6.050
 8325SOL     OW25873   1.443   6.516   4.700
 8325SOL    HW125874   1.403   6.425   4.701
 8325SOL    HW225875   1.429   6.558   4.610
 8326SOL     OW25876   2.120   2.032   6.702
 8326SOL    HW125877   2.075   1.967   6.641
 8326SOL    HW225878   2.116   2.124   6.661
 8327SOL     OW25879   0.490   6.153   4.961
 8327SOL    HW125880   0.467   6.144   5.058
 8327SOL    HW225881   0.448   6.235   4.924
 8328SOL     OW25882   1.301   0.289   0.643
 8328SOL    HW125883   1.306   0.338   0.556
 8328SOL    HW225884   1.206   0.288   0.675
 8329SOL     OW25885   1.754   2.655   5.051
 8329SOL    HW125886   1.811   2.679   4.972
 8329SOL    HW225887   1.811   2.615   5.122
 8330SOL     OW25888   3.035   0.037   0.258
 8330SOL    HW125889   2.980   0.013   0.338
 8330SOL    HW225890   3.126   7.022   0.266
 8331SOL     OW25891   2.247   2.188   6.455
 8331SOL    HW125892   2.192   2.236   6.387
 8331SOL    HW225893   2.341   2.222   6.453
 8332SOL     OW25894   5.538   3.781   1.003
 8332SOL    HW125895   5.482   3.857   0.970
 8332SOL    HW225896   5.561   3.796   1.099
 8333SOL     OW25897   3.154   4.294   6.317
 8333SOL    HW125898   3.095   4.291   6.398
 8333SOL    HW225899   3.098   4.282   6.235
 8334SOL     OW25900   3.311   2.557   5.306
 8334SOL    HW125901   3.236   2.509   5.261
 8334SOL    HW225902   3.379   2.490   5.338
 8335SOL     OW25903   5.443   3.766   6.159
 8335SOL    HW125904   5.474   3.671   6.159
 8335SOL    HW225905   5.491   3.816   6.087
 8336SOL     OW25906   1.050   4.693   3.907
 8336SOL    HW125907   1.065   4.773   3.965
 8336SOL    HW225908   1.118   4.623   3.929
 8337SOL     OW25909   6.557   0.568   4.181
 8337SOL    HW125910   6.493   0.615   4.243
 8337SOL    HW225911   6.505   0.520   4.110
 8338SOL     OW25912   2.197   5.908   1.288
 8338SOL    HW125913   2.209   5.884   1.192
 8338SOL    HW225914   2.221   5.830   1.345
 8339SOL     OW25915   6.511   0.591   2.047
 8339SOL    HW125916   6.582   0.662   2.048
 8339SOL    HW225917   6.430   0.624   2.095
 8340SOL     OW25918   6.153   2.602   6.744
 8340SOL    HW125919   6.083   2.537   6.772
 8340SOL    HW225920   6.219   2.613   6.818
 8341SOL     OW25921   3.391   0.238   0.984
 8341SOL    HW125922   3.351   0.312   1.039
 8341SOL    HW225923   3.484   0.220   1.015
 8342SOL     OW25924   4.797   1.002   0.878
 8342SOL    HW125925   4.865   1.073   0.897
 8342SOL    HW225926   4.844   0.918   0.851
 8343SOL     OW25927   4.877   5.898   2.764
 8343SOL    HW125928   4.973   5.881   2.785
 8343SOL    HW225929   4.835   5.949   2.839
 8344SOL     OW25930   2.536   4.488   6.231
 8344SOL    HW125931   2.554   4.537   6.145
 8344SOL    HW225932   2.462   4.533   6.280
 8345SOL     OW25933   6.235   0.143   4.284
 8345SOL    HW125934   6.177   0.221   4.261
 8345SOL    HW225935   6.266   0.099   4.199
 8346SOL     OW25936   6.148   4.092   3.739
 8346SOL    HW125937   6.206   4.172   3.719
 8346SOL    HW225938   6.067   4.094   3.681
 8347SOL     OW25939   1.372   1.850   6.628
 8347SOL    HW125940   1.387   1.751   6.634
 8347SOL    HW225941   1.446   1.897   6.675
 8348SOL     OW25942   3.236   5.860   1.035
 8348SOL    HW125943   3.326   5.899   1.018
 8348SOL    HW225944   3.215   5.792   0.966
 8349SOL     OW25945   4.601   5.631   1.309
 8349SOL    HW125946   4.551   5.590   1.233
 8349SOL    HW225947   4.557   5.607   1.395
 8350SOL     OW25948   1.935   0.603   6.895
 8350SOL    HW125949   1.994   0.621   6.974
 8350SOL    HW225950   1.849   0.562   6.927
 8351SOL     OW25951   6.974   2.742   3.049
 8351SOL    HW125952   6.965   2.746   3.148
 8351SOL    HW225953   0.041   2.765   3.024
 8352SOL     OW25954   3.245   6.410   6.527
 8352SOL    HW125955   3.280   6.322   6.495
 8352SOL    HW225956   3.193   6.454   6.453
 8353SOL     OW25957   0.616   5.722   2.696
 8353SOL    HW125958   0.652   5.633   2.723
 8353SOL    HW225959   0.688   5.776   2.653
 8354SOL     OW25960   4.639   2.200   3.772
 8354SOL    HW125961   4.627   2.236   3.680
 8354SOL    HW225962   4.734   2.174   3.786
 8355SOL     OW25963   3.197   5.385   6.117
 8355SOL    HW125964   3.190   5.287   6.102
 8355SOL    HW225965   3.260   5.403   6.193
 8356SOL     OW25966   2.832   3.800   1.405
 8356SOL    HW125967   2.901   3.736   1.370
 8356SOL    HW225968   2.765   3.749   1.459
 8357SOL     OW25969   2.981   6.891   4.610
 8357SOL    HW125970   3.048   6.966   4.613
 8357SOL    HW225971   3.027   6.806   4.587
 8358SOL     OW25972   0.067   0.078   4.515
 8358SOL    HW125973   0.017   0.147   4.568
 8358SOL    HW225974   0.150   0.052   4.565
 8359SOL     OW25975   5.054   1.834   5.265
 8359SOL    HW125976   5.138   1.882   5.290
 8359SOL    HW225977   5.011   1.880   5.187
 8360SOL     OW25978   3.361   0.437   1.859
 8360SOL    HW125979   3.363   0.367   1.787
 8360SOL    HW225980   3.424   0.511   1.834
 8361SOL     OW25981   5.085   1.135   0.212
 8361SOL    HW125982   5.098   1.234   0.220
 8361SOL    HW225983   4.989   1.113   0.233
 8362SOL     OW25984   0.991   3.913   1.181
 8362SOL    HW125985   1.047   3.857   1.242
 8362SOL    HW225986   0.934   3.974   1.235
 8363SOL     OW25987   2.034   2.117   1.165
 8363SOL    HW125988   2.025   2.127   1.264
 8363SOL    HW225989   2.008   2.025   1.138
 8364SOL     OW25990   0.220   1.564   3.628
 8364SOL    HW125991   0.169   1.612   3.699
 8364SOL    HW225992   0.194   1.468   3.627
 8365SOL     OW25993   2.013   2.788   1.485
 8365SOL    HW125994   2.077   2.712   1.489
 8365SOL    HW225995   1.925   2.760   1.523
 8366SOL     OW25996   5.328   5.735   1.878
 8366SOL    HW125997   5.272   5.680   1.940
 8366SOL    HW225998   5.397   5.785   1.930
 8367SOL     OW25999   1.971   4.163   3.298
 8367SOL    HW126000   1.954   4.201   3.389
 8367SOL    HW226001   2.069   4.165   3.278
 8368SOL     OW26002   0.148   3.690   6.268
 8368SOL    HW126003   0.159   3.591   6.259
 8368SOL    HW226004   0.136   3.730   6.177
 8369SOL     OW26005   1.199   0.225   0.318
 8369SOL    HW126006   1.234   0.133   0.331
 8369SOL    HW226007   1.229   0.260   0.229
 8370SOL     OW26008   3.235   3.103   0.542
 8370SOL    HW126009   3.200   3.023   0.493
 8370SOL    HW226010   3.189   3.111   0.630
 8371SOL     OW26011   2.888   3.876   5.507
 8371SOL    HW126012   2.909   3.973   5.510
 8371SOL    HW226013   2.952   3.826   5.566
 8372SOL     OW26014   1.353   0.026   2.211
 8372SOL    HW126015   1.336   0.117   2.248
 8372SOL    HW226016   1.444   0.023   2.169
 8373SOL     OW26017   5.564   1.078   4.084
 8373SOL    HW126018   5.580   1.142   4.009
 8373SOL    HW226019   5.495   1.011   4.057
 8374SOL     OW26020   0.784   1.874   3.478
 8374SOL    HW126021   0.835   1.955   3.448
 8374SOL    HW226022   0.721   1.900   3.551
 8375SOL     OW26023   1.412   2.521   5.284
 8375SOL    HW126024   1.485   2.509   5.352
 8375SOL    HW226025   1.444   2.583   5.212
 8376SOL     OW26026   0.895   1.862   4.436
 8376SOL    HW126027   0.898   1.853   4.337
 8376SOL    HW226028   0.838   1.789   4.474
 8377SOL     OW26029   3.217   5.524   1.281
 8377SOL    HW126030   3.129   5.487   1.252
 8377SOL    HW226031   3.286   5.505   1.211
 8378SOL     OW26032   4.465   5.234   4.540
 8378SOL    HW126033   4.559   5.223   4.508
 8378SOL    HW226034   4.459   5.316   4.597
 8379SOL     OW26035   6.005   2.747   2.027
 8379SOL    HW126036   6.036   2.656   1.998
 8379SOL    HW226037   6.042   2.816   1.965
 8380SOL     OW26038   1.182   5.702   2.521
 8380SOL    HW126039   1.126   5.702   2.604
 8380SOL    HW226040   1.234   5.787   2.517
 8381SOL     OW26041   1.253   2.042   2.818
 8381SOL    HW126042   1.194   2.101   2.762
 8381SOL    HW226043   1.298   1.975   2.759
 8382SOL     OW26044   0.742   6.687   1.690
 8382SOL    HW126045   0.682   6.725   1.761
 8382SOL    HW226046   0.760   6.758   1.621
 8383SOL     OW26047   2.469   0.117   5.201
 8383SOL    HW126048   2.515   0.075   5.280
 8383SOL    HW226049   2.373   0.132   5.223
 8384SOL     OW26050   0.200   3.279   3.572
 8384SOL    HW126051   0.107   3.243   3.577
 8384SOL    HW226052   0.198   3.369   3.528
 8385SOL     OW26053   4.555   2.446   2.157
 8385SOL    HW126054   4.481   2.431   2.222
 8385SOL    HW226055   4.520   2.493   2.076
 8386SOL     OW26056   0.309   5.511   1.757
 8386SOL    HW126057   0.363   5.466   1.687
 8386SOL    HW226058   0.232   5.559   1.715
 8387SOL     OW26059   0.546   2.051   3.588
 8387SOL    HW126060   0.631   2.095   3.616
 8387SOL    HW226061   0.535   2.060   3.489
 8388SOL     OW26062   3.806   5.731   1.547
 8388SOL    HW126063   3.791   5.655   1.483
 8388SOL    HW226064   3.842   5.695   1.633
 8389SOL     OW26065   1.499   2.655   4.609
 8389SOL    HW126066   1.543   2.585   4.553
 8389SOL    HW226067   1.476   2.734   4.553
 8390SOL     OW26068   2.881   0.349   6.362
 8390SOL    HW126069   2.878   0.271   6.300
 8390SOL    HW226070   2.796   0.401   6.353
 8391SOL     OW26071   4.508   6.401   1.091
 8391SOL    HW126072   4.521   6.462   1.012
 8391SOL    HW226073   4.489   6.456   1.172
 8392SOL     OW26074   4.123   5.462   0.495
 8392SOL    HW126075   4.099   5.422   0.406
 8392SOL    HW226076   4.166   5.392   0.552
 8393SOL     OW26077   1.274   5.817   2.036
 8393SOL    HW126078   1.214   5.805   1.957
 8393SOL    HW226079   1.369   5.797   2.008
 8394SOL     OW26080   1.395   1.358   3.416
 8394SOL    HW126081   1.388   1.454   3.443
 8394SOL    HW226082   1.430   1.353   3.322
 8395SOL     OW26083   1.801   5.805   6.269
 8395SOL    HW126084   1.703   5.800   6.250
 8395SOL    HW226085   1.823   5.893   6.310
 8396SOL     OW26086   4.434   2.605   1.027
 8396SOL    HW126087   4.526   2.619   1.062
 8396SOL    HW226088   4.435   2.610   0.927
 8397SOL     OW26089   1.186   4.508   3.336
 8397SOL    HW126090   1.104   4.521   3.391
 8397SOL    HW226091   1.256   4.573   3.364
 8398SOL     OW26092   5.520   1.588   6.604
 8398SOL    HW126093   5.512   1.494   6.638
 8398SOL    HW226094   5.541   1.650   6.680
 8399SOL     OW26095   5.789   6.426   5.458
 8399SOL    HW126096   5.791   6.407   5.359
 8399SOL    HW226097   5.723   6.366   5.502
 8400SOL     OW26098   6.223   6.420   4.031
 8400SOL    HW126099   6.301   6.439   4.091
 8400SOL    HW226100   6.139   6.427   4.085
 8401SOL     OW26101   2.883   3.668   5.178
 8401SOL    HW126102   2.819   3.745   5.176
 8401SOL    HW226103   2.974   3.701   5.202
 8402SOL     OW26104   5.112   0.733   5.094
 8402SOL    HW126105   5.126   0.793   5.173
 8402SOL    HW226106   5.118   0.638   5.122
 8403SOL     OW26107   0.751   2.645   5.724
 8403SOL    HW126108   0.684   2.571   5.733
 8403SOL    HW226109   0.765   2.688   5.813
 8404SOL     OW26110   4.518   5.260   5.858
 8404SOL    HW126111   4.582   5.313   5.914
 8404SOL    HW226112   4.566   5.181   5.820
 8405SOL     OW26113   1.604   2.327   5.402
 8405SOL    HW126114   1.509   2.297   5.417
 8405SOL    HW226115   1.646   2.350   5.489
 8406SOL     OW26116   5.705   3.262   1.749
 8406SOL    HW126117   5.623   3.211   1.774
 8406SOL    HW226118   5.756   3.212   1.679
 8407SOL     OW26119   4.896   3.753   2.745
 8407SOL    HW126120   4.889   3.726   2.841
 8407SOL    HW226121   4.989   3.785   2.726
 8408SOL     OW26122   4.875   3.967   3.956
 8408SOL    HW126123   4.858   3.997   4.050
 8408SOL    HW226124   4.970   3.986   3.931
 8409SOL     OW26125   1.464   1.556   4.015
 8409SOL    HW126126   1.559   1.545   3.986
 8409SOL    HW226127   1.444   1.654   4.027
 8410SOL     OW26128   2.110   5.162   2.620
 8410SOL    HW126129   2.096   5.114   2.533
 8410SOL    HW226130   2.172   5.238   2.607
 8411SOL     OW26131   1.832   3.255   3.317
 8411SOL    HW126132   1.751   3.295   3.275
 8411SOL    HW226133   1.868   3.316   3.387
 8412SOL     OW26134   6.340   2.871   2.158
 8412SOL    HW126135   6.254   2.836   2.194
 8412SOL    HW226136   6.321   2.935   2.084
 8413SOL     OW26137   2.084   5.105   0.985
 8413SOL    HW126138   2.183   5.097   0.977
 8413SOL    HW226139   2.062   5.171   1.057
 8414SOL     OW26140   5.600   0.657   3.951
 8414SOL    HW126141   5.684   0.691   3.910
 8414SOL    HW226142   5.603   0.557   3.955
 8415SOL     OW26143   6.979   4.698   1.125
 8415SOL    HW126144   0.010   4.759   1.072
 8415SOL    HW226145   7.023   4.676   1.212
 8416SOL     OW26146   4.486   4.544   2.677
 8416SOL    HW126147   4.538   4.538   2.591
 8416SOL    HW226148   4.540   4.591   2.746
 8417SOL     OW26149   1.358   5.288   0.235
 8417SOL    HW126150   1.369   5.225   0.312
 8417SOL    HW226151   1.309   5.369   0.265
 8418SOL     OW26152   5.744   5.495   2.744
 8418SOL    HW126153   5.810   5.570   2.748
 8418SOL    HW226154   5.664   5.523   2.691
 8419SOL     OW26155   4.134   0.893   3.958
 8419SOL    HW126156   4.166   0.983   3.986
 8419SOL    HW226157   4.072   0.857   4.028
 8420SOL     OW26158   4.347   1.855   5.434
 8420SOL    HW126159   4.439   1.878   5.403
 8420SOL    HW226160   4.281   1.877   5.363
 8421SOL     OW26161   0.464   1.165   1.059
 8421SOL    HW126162   0.493   1.188   0.966
 8421SOL    HW226163   0.539   1.120   1.107
 8422SOL     OW26164   2.838   0.325   1.669
 8422SOL    HW126165   2.845   0.372   1.756
 8422SOL    HW226166   2.746   0.337   1.631
 8423SOL     OW26167   2.354   3.783   1.359
 8423SOL    HW126168   2.286   3.717   1.327
 8423SOL    HW226169   2.426   3.793   1.291
 8424SOL     OW26170   2.760   2.373   1.535
 8424SOL    HW126171   2.771   2.353   1.632
 8424SOL    HW226172   2.742   2.471   1.523
 8425SOL     OW26173   0.411   4.552   6.109
 8425SOL    HW126174   0.408   4.548   6.009
 8425SOL    HW226175   0.481   4.490   6.143
 8426SOL     OW26176   3.525   3.334   2.452
 8426SOL    HW126177   3.455   3.278   2.408
 8426SOL    HW226178   3.499   3.430   2.450
 8427SOL     OW26179   1.700   2.462   6.933
 8427SOL    HW126180   1.797   2.471   6.913
 8427SOL    HW226181   1.682   2.492   0.000
 8428SOL     OW26182   6.426   3.803   0.664
 8428SOL    HW126183   6.391   3.828   0.755
 8428SOL    HW226184   6.456   3.707   0.666
 8429SOL     OW26185   1.834   6.538   3.298
 8429SOL    HW126186   1.934   6.538   3.306
 8429SOL    HW226187   1.795   6.594   3.370
 8430SOL     OW26188   4.380   5.396   2.389
 8430SOL    HW126189   4.463   5.445   2.363
 8430SOL    HW226190   4.398   5.343   2.473
 8431SOL     OW26191   3.117   3.495   2.475
 8431SOL    HW126192   3.051   3.523   2.545
 8431SOL    HW226193   3.130   3.396   2.480
 8432SOL     OW26194   4.431   6.609   6.920
 8432SOL    HW126195   4.389   6.555   6.847
 8432SOL    HW226196   4.513   6.563   6.953
 8433SOL     OW26197   0.211   1.309   3.642
 8433SOL    HW126198   0.227   1.228   3.698
 8433SOL    HW226199   0.210   1.283   3.546
 8434SOL     OW26200   5.695   6.900   6.558
 8434SOL    HW126201   5.732   6.917   6.466
 8434SOL    HW226202   5.767   6.915   6.626
 8435SOL     OW26203   4.915   2.640   1.012
 8435SOL    HW126204   4.960   2.573   1.071
 8435SOL    HW226205   4.979   2.670   0.941
 8436SOL     OW26206   2.979   4.325   1.675
 8436SOL    HW126207   2.933   4.383   1.742
 8436SOL    HW226208   3.071   4.360   1.657
 8437SOL     OW26209   0.132   2.229   1.227
 8437SOL    HW126210   0.051   2.252   1.280
 8437SOL    HW226211   0.159   2.135   1.247
 8438SOL     OW26212   2.145   5.328   1.127
 8438SOL    HW126213   2.245   5.319   1.122
 8438SOL    HW226214   2.116   5.405   1.070
 8439SOL     OW26215   5.402   0.853   1.485
 8439SOL    HW126216   5.473   0.822   1.423
 8439SOL    HW226217   5.367   0.776   1.537
 8440SOL     OW26218   1.272   3.318   3.983
 8440SOL    HW126219   1.224   3.296   3.898
 8440SOL    HW226220   1.243   3.408   4.015
 8441SOL     OW26221   4.279   6.012   1.455
 8441SOL    HW126222   4.277   5.978   1.549
 8441SOL    HW226223   4.209   6.081   1.443
 8442SOL     OW26224   2.579   2.369   0.759
 8442SOL    HW126225   2.571   2.453   0.705
 8442SOL    HW226226   2.593   2.393   0.855
 8443SOL     OW26227   0.189   1.729   1.396
 8443SOL    HW126228   0.203   1.790   1.318
 8443SOL    HW226229   0.106   1.674   1.381
 8444SOL     OW26230   4.903   1.899   3.321
 8444SOL    HW126231   4.907   1.980   3.263
 8444SOL    HW226232   4.881   1.926   3.415
 8445SOL     OW26233   5.174   5.540   2.038
 8445SOL    HW126234   5.193   5.453   1.991
 8445SOL    HW226235   5.081   5.537   2.075
 8446SOL     OW26236   6.560   3.721   3.092
 8446SOL    HW126237   6.525   3.662   3.020
 8446SOL    HW226238   6.518   3.696   3.179
 8447SOL     OW26239   4.800   4.317   0.732
 8447SOL    HW126240   4.875   4.340   0.670
 8447SOL    HW226241   4.817   4.229   0.776
 8448SOL     OW26242   1.660   4.143   5.774
 8448SOL    HW126243   1.672   4.101   5.864
 8448SOL    HW226244   1.742   4.129   5.719
 8449SOL     OW26245   1.274   0.863   5.159
 8449SOL    HW126246   1.201   0.810   5.200
 8449SOL    HW226247   1.240   0.954   5.136
 8450SOL     OW26248   2.002   5.444   0.945
 8450SOL    HW126249   2.065   5.416   0.873
 8450SOL    HW226250   1.915   5.397   0.934
 8451SOL     OW26251   3.151   3.550   0.511
 8451SOL    HW126252   3.227   3.595   0.465
 8451SOL    HW226253   3.185   3.494   0.586
 8452SOL     OW26254   0.282   5.976   1.637
 8452SOL    HW126255   0.298   5.963   1.540
 8452SOL    HW226256   0.350   5.925   1.690
 8453SOL     OW26257   6.780   4.888   5.078
 8453SOL    HW126258   6.832   4.974   5.080
 8453SOL    HW226259   6.838   4.814   5.110
 8454SOL     OW26260   2.381   0.264   4.916
 8454SOL    HW126261   2.443   0.200   4.962
 8454SOL    HW226262   2.352   0.225   4.829
 8455SOL     OW26263   6.097   3.250   0.683
 8455SOL    HW126264   6.180   3.258   0.738
 8455SOL    HW226265   6.037   3.179   0.722
 8456SOL     OW26266   5.439   5.023   3.561
 8456SOL    HW126267   5.486   5.056   3.479
 8456SOL    HW226268   5.375   4.950   3.536
 8457SOL     OW26269   6.585   6.571   5.741
 8457SOL    HW126270   6.556   6.659   5.702
 8457SOL    HW226271   6.530   6.552   5.822
 8458SOL     OW26272   1.310   1.837   1.206
 8458SOL    HW126273   1.358   1.859   1.291
 8458SOL    HW226274   1.378   1.823   1.133
 8459SOL     OW26275   2.562   5.117   3.513
 8459SOL    HW126276   2.613   5.176   3.575
 8459SOL    HW226277   2.492   5.170   3.465
 8460SOL     OW26278   3.419   1.518   1.532
 8460SOL    HW126279   3.471   1.559   1.458
 8460SOL    HW226280   3.425   1.576   1.613
 8461SOL     OW26281   5.503   4.276   3.275
 8461SOL    HW126282   5.483   4.367   3.238
 8461SOL    HW226283   5.507   4.210   3.199
 8462SOL     OW26284   1.786   4.102   0.798
 8462SOL    HW126285   1.781   4.202   0.803
 8462SOL    HW226286   1.705   4.066   0.752
 8463SOL     OW26287   0.164   6.995   1.179
 8463SOL    HW126288   0.079   7.000   1.230
 8463SOL    HW226289   0.239   6.975   1.241
 8464SOL     OW26290   6.850   2.651   6.523
 8464SOL    HW126291   6.840   2.739   6.475
 8464SOL    HW226292   6.856   2.667   6.621
 8465SOL     OW26293   5.235   4.414   0.819
 8465SOL    HW126294   5.277   4.378   0.902
 8465SOL    HW226295   5.185   4.498   0.841
 8466SOL     OW26296   0.445   1.422   5.512
 8466SOL    HW126297   0.381   1.458   5.445
 8466SOL    HW226298   0.514   1.366   5.466
 8467SOL     OW26299   3.228   1.244   0.673
 8467SOL    HW126300   3.150   1.244   0.736
 8467SOL    HW226301   3.246   1.150   0.644
 8468SOL     OW26302   5.652   4.034   0.406
 8468SOL    HW126303   5.645   4.126   0.366
 8468SOL    HW226304   5.694   3.972   0.340
 8469SOL     OW26305   3.797   2.876   5.073
 8469SOL    HW126306   3.766   2.862   4.980
 8469SOL    HW226307   3.765   2.801   5.131
 8470SOL     OW26308   1.488   5.685   1.468
 8470SOL    HW126309   1.541   5.647   1.544
 8470SOL    HW226310   1.393   5.696   1.495
 8471SOL     OW26311   4.241   1.486   3.515
 8471SOL    HW126312   4.219   1.400   3.470
 8471SOL    HW226313   4.318   1.530   3.469
 8472SOL     OW26314   5.642   1.742   6.402
 8472SOL    HW126315   5.681   1.822   6.447
 8472SOL    HW226316   5.574   1.699   6.462
 8473SOL     OW26317   4.942   5.206   5.796
 8473SOL    HW126318   5.030   5.241   5.827
 8473SOL    HW226319   4.950   5.173   5.702
 8474SOL     OW26320   3.152   3.688   5.497
 8474SOL    HW126321   3.245   3.651   5.504
 8474SOL    HW226322   3.086   3.620   5.531
 8475SOL     OW26323   0.066   2.520   2.857
 8475SOL    HW126324   0.001   2.557   2.923
 8475SOL    HW226325   0.020   2.454   2.798
 8476SOL     OW26326   6.458   1.003   2.292
 8476SOL    HW126327   6.530   1.046   2.238
 8476SOL    HW226328   6.390   1.072   2.317
 8477SOL     OW26329   5.597   0.437   0.899
 8477SOL    HW126330   5.580   0.342   0.872
 8477SOL    HW226331   5.629   0.489   0.820
 8478SOL     OW26332   1.224   6.642   6.283
 8478SOL    HW126333   1.312   6.671   6.247
 8478SOL    HW226334   1.232   6.623   6.381
 8479SOL     OW26335   0.899   2.737   0.141
 8479SOL    HW126336   0.870   2.756   0.234
 8479SOL    HW226337   0.834   2.777   0.076
 8480SOL     OW26338   3.038   4.324   1.135
 8480SOL    HW126339   3.009   4.399   1.076
 8480SOL    HW226340   2.975   4.316   1.212
 8481SOL     OW26341   4.823   3.116   2.851
 8481SOL    HW126342   4.814   3.199   2.795
 8481SOL    HW226343   4.886   3.134   2.926
 8482SOL     OW26344   4.673   0.459   5.976
 8482SOL    HW126345   4.602   0.463   5.906
 8482SOL    HW226346   4.721   0.547   5.980
 8483SOL     OW26347   4.023   4.915   3.691
 8483SOL    HW126348   4.015   4.833   3.635
 8483SOL    HW226349   4.013   4.891   3.788
 8484SOL     OW26350   6.518   6.555   5.291
 8484SOL    HW126351   6.617   6.541   5.293
 8484SOL    HW226352   6.471   6.467   5.286
 8485SOL     OW26353   4.251   0.554   5.499
 8485SOL    HW126354   4.296   0.505   5.573
 8485SOL    HW226355   4.155   0.569   5.522
 8486SOL     OW26356   5.317   2.287   4.540
 8486SOL    HW126357   5.262   2.227   4.598
 8486SOL    HW226358   5.414   2.268   4.557
 8487SOL     OW26359   6.727   2.001   6.684
 8487SOL    HW126360   6.631   1.992   6.657
 8487SOL    HW226361   6.785   1.990   6.604
 8488SOL     OW26362   3.784   4.932   2.558
 8488SOL    HW126363   3.725   4.915   2.479
 8488SOL    HW226364   3.736   4.903   2.641
 8489SOL     OW26365   6.472   1.943   2.154
 8489SOL    HW126366   6.484   2.042   2.152
 8489SOL    HW226367   6.551   1.899   2.111
 8490SOL     OW26368   3.262   6.878   0.541
 8490SOL    HW126369   3.201   6.927   0.478
 8490SOL    HW226370   3.352   6.868   0.500
 8491SOL     OW26371   3.459   5.383   2.172
 8491SOL    HW126372   3.446   5.418   2.264
 8491SOL    HW226373   3.498   5.455   2.114
 8492SOL     OW26374   5.919   6.239   3.928
 8492SOL    HW126375   5.879   6.274   3.844
 8492SOL    HW226376   5.992   6.173   3.907
 8493SOL     OW26377   5.313   0.394   5.616
 8493SOL    HW126378   5.351   0.362   5.703
 8493SOL    HW226379   5.293   0.316   5.557
 8494SOL     OW26380   0.203   3.294   2.128
 8494SOL    HW126381   0.279   3.359   2.124
 8494SOL    HW226382   0.214   3.235   2.208
 8495SOL     OW26383   5.639   6.003   5.770
 8495SOL    HW126384   5.691   6.012   5.685
 8495SOL    HW226385   5.638   5.908   5.799
 8496SOL     OW26386   4.555   1.803   2.626
 8496SOL    HW126387   4.571   1.815   2.528
 8496SOL    HW226388   4.636   1.834   2.676
 8497SOL     OW26389   6.262   0.934   2.463
 8497SOL    HW126390   6.346   0.927   2.409
 8497SOL    HW226391   6.269   0.875   2.543
 8498SOL     OW26392   4.381   6.304   4.057
 8498SOL    HW126393   4.320   6.346   4.124
 8498SOL    HW226394   4.363   6.205   4.054
 8499SOL     OW26395   6.356   0.127   4.978
 8499SOL    HW126396   6.282   0.170   5.029
 8499SOL    HW226397   6.439   0.127   5.034
 8500SOL     OW26398   1.426   0.496   6.652
 8500SOL    HW126399   1.340   0.455   6.683
 8500SOL    HW226400   1.490   0.424   6.626
 8501SOL     OW26401   3.412   1.108   5.058
 8501SOL    HW126402   3.348   1.037   5.030
 8501SOL    HW226403   3.368   1.198   5.048
 8502SOL     OW26404   6.773   2.906   0.214
 8502SOL    HW126405   6.768   2.834   0.283
 8502SOL    HW226406   6.805   2.991   0.255
 8503SOL     OW26407   4.735   2.412   5.871
 8503SOL    HW126408   4.650   2.364   5.853
 8503SOL    HW226409   4.771   2.384   5.960
 8504SOL     OW26410   1.312   0.212   3.244
 8504SOL    HW126411   1.229   0.242   3.197
 8504SOL    HW226412   1.298   0.120   3.281
 8505SOL     OW26413   5.730   2.042   2.591
 8505SOL    HW126414   5.670   2.053   2.513
 8505SOL    HW226415   5.714   2.116   2.657
 8506SOL     OW26416   1.803   0.739   5.538
 8506SOL    HW126417   1.720   0.782   5.574
 8506SOL    HW226418   1.859   0.708   5.615
 8507SOL     OW26419   4.332   4.450   5.841
 8507SOL    HW126420   4.281   4.523   5.795
 8507SOL    HW226421   4.269   4.375   5.865
 8508SOL     OW26422   3.788   0.758   6.153
 8508SOL    HW126423   3.814   0.678   6.098
 8508SOL    HW226424   3.696   0.745   6.188
 8509SOL     OW26425   4.997   2.367   2.022
 8509SOL    HW126426   4.920   2.387   2.083
 8509SOL    HW226427   5.034   2.277   2.044
 8510SOL     OW26428   1.087   2.174   4.869
 8510SOL    HW126429   1.149   2.248   4.846
 8510SOL    HW226430   1.109   2.093   4.813
 8511SOL     OW26431   5.600   2.332   3.894
 8511SOL    HW126432   5.645   2.418   3.917
 8511SOL    HW226433   5.528   2.349   3.827
 8512SOL     OW26434   1.833   6.851   5.685
 8512SOL    HW126435   1.740   6.814   5.681
 8512SOL    HW226436   1.843   6.924   5.617
 8513SOL     OW26437   4.344   5.286   0.006
 8513SOL    HW126438   4.252   5.251   7.016
 8513SOL    HW226439   4.407   5.246   6.966
 8514SOL     OW26440   3.442   5.712   4.886
 8514SOL    HW126441   3.393   5.780   4.832
 8514SOL    HW226442   3.448   5.627   4.834
 8515SOL     OW26443   5.508   2.830   2.080
 8515SOL    HW126444   5.524   2.854   1.984
 8515SOL    HW226445   5.454   2.746   2.085
 8516SOL     OW26446   7.018   1.587   1.711
 8516SOL    HW126447   6.966   1.619   1.632
 8516SOL    HW226448   0.089   1.593   1.692
 8517SOL     OW26449   1.576   3.770   5.067
 8517SOL    HW126450   1.579   3.823   5.151
 8517SOL    HW226451   1.504   3.702   5.073
 8518SOL     OW26452   3.016   6.046   1.064
 8518SOL    HW126453   3.063   6.100   1.134
 8518SOL    HW226454   3.062   5.958   1.053
 8519SOL     OW26455   2.702   5.294   3.653
 8519SOL    HW126456   2.648   5.344   3.721
 8519SOL    HW226457   2.761   5.228   3.699
 8520SOL     OW26458   3.543   6.375   6.740
 8520SOL    HW126459   3.579   6.288   6.773
 8520SOL    HW226460   3.449   6.387   6.774
 8521SOL     OW26461   1.583   1.374   2.397
 8521SOL    HW126462   1.645   1.301   2.425
 8521SOL    HW226463   1.610   1.460   2.442
 8522SOL     OW26464   1.944   6.689   4.877
 8522SOL    HW126465   1.876   6.681   4.804
 8522SOL    HW226466   1.990   6.601   4.889
 8523SOL     OW26467   1.834   6.303   6.890
 8523SOL    HW126468   1.920   6.341   6.925
 8523SOL    HW226469   1.855   6.221   6.836
 8524SOL     OW26470   1.583   1.628   0.330
 8524SOL    HW126471   1.593   1.566   0.252
 8524SOL    HW226472   1.660   1.692   0.332
 8525SOL     OW26473   5.119   4.169   4.193
 8525SOL    HW126474   5.131   4.076   4.228
 8525SOL    HW226475   5.046   4.214   4.244
 8526SOL     OW26476   0.892   3.375   1.871
 8526SOL    HW126477   0.801   3.418   1.867
 8526SOL    HW226478   0.919   3.366   1.967
 8527SOL     OW26479   4.567   0.250   4.456
 8527SOL    HW126480   4.559   0.261   4.555
 8527SOL    HW226481   4.607   0.332   4.416
 8528SOL     OW26482   5.478   0.891   0.285
 8528SOL    HW126483   5.467   0.990   0.297
 8528SOL    HW226484   5.401   0.844   0.328
 8529SOL     OW26485   0.232   6.961   5.014
 8529SOL    HW126486   0.235   6.861   5.004
 8529SOL    HW226487   0.155   6.997   4.962
 8530SOL     OW26488   1.927   4.903   6.300
 8530SOL    HW126489   1.927   4.803   6.309
 8530SOL    HW226490   1.994   4.930   6.231
 8531SOL     OW26491   4.082   5.106   1.760
 8531SOL    HW126492   4.066   5.055   1.844
 8531SOL    HW226493   4.043   5.198   1.769
 8532SOL     OW26494   1.580   4.132   0.416
 8532SOL    HW126495   1.590   4.049   0.471
 8532SOL    HW226496   1.491   4.130   0.370
 8533SOL     OW26497   3.573   6.639   5.741
 8533SOL    HW126498   3.528   6.564   5.692
 8533SOL    HW226499   3.585   6.716   5.679
 8534SOL     OW26500   2.119   2.138   0.662
 8534SOL    HW126501   2.215   2.134   0.691
 8534SOL    HW226502   2.062   2.163   0.741
 8535SOL     OW26503   0.816   3.344   6.049
 8535SOL    HW126504   0.880   3.365   6.122
 8535SOL    HW226505   0.768   3.259   6.070
 8536SOL     OW26506   6.130   0.303   6.193
 8536SOL    HW126507   6.172   0.218   6.161
 8536SOL    HW226508   6.072   0.341   6.122
 8537SOL     OW26509   4.446   6.194   3.199
 8537SOL    HW126510   4.378   6.197   3.125
 8537SOL    HW226511   4.459   6.286   3.235
 8538SOL     OW26512   4.761   0.329   5.048
 8538SOL    HW126513   4.803   0.326   5.138
 8538SOL    HW226514   4.678   0.385   5.051
 8539SOL     OW26515   0.823   3.035   3.240
 8539SOL    HW126516   0.762   3.051   3.162
 8539SOL    HW226517   0.777   3.064   3.324
 8540SOL     OW26518   4.758   6.373   6.411
 8540SOL    HW126519   4.835   6.359   6.473
 8540SOL    HW226520   4.759   6.303   6.340
 8541SOL     OW26521   2.642   6.073   5.851
 8541SOL    HW126522   2.576   6.088   5.778
 8541SOL    HW226523   2.691   5.987   5.835
 8542SOL     OW26524   1.756   4.903   6.036
 8542SOL    HW126525   1.709   4.815   6.036
 8542SOL    HW226526   1.694   4.974   6.069
 8543SOL     OW26527   3.468   2.001   5.401
 8543SOL    HW126528   3.495   1.917   5.354
 8543SOL    HW226529   3.463   2.076   5.334
 8544SOL     OW26530   5.544   3.842   5.386
 8544SOL    HW126531   5.583   3.878   5.302
 8544SOL    HW226532   5.491   3.759   5.366
 8545SOL     OW26533   2.668   0.526   6.299
 8545SOL    HW126534   2.676   0.531   6.199
 8545SOL    HW226535   2.574   0.504   6.324
 8546SOL     OW26536   3.075   1.180   3.414
 8546SOL    HW126537   3.167   1.176   3.376
 8546SOL    HW226538   3.034   1.089   3.410
 8547SOL     OW26539   5.894   6.443   5.717
 8547SOL    HW126540   5.980   6.404   5.749
 8547SOL    HW226541   5.885   6.430   5.619
 8548SOL     OW26542   1.343   4.258   4.368
 8548SOL    HW126543   1.285   4.177   4.370
 8548SOL    HW226544   1.391   4.267   4.455
 8549SOL     OW26545   2.636   0.481   3.754
 8549SOL    HW126546   2.701   0.557   3.754
 8549SOL    HW226547   2.600   0.468   3.846
 8550SOL     OW26548   0.242   3.900   5.052
 8550SOL    HW126549   0.254   3.877   4.956
 8550SOL    HW226550   0.169   3.967   5.062
 8551SOL     OW26551   4.056   1.628   4.392
 8551SOL    HW126552   4.066   1.565   4.315
 8551SOL    HW226553   3.962   1.625   4.426
 8552SOL     OW26554   4.122   1.956   2.178
 8552SOL    HW126555   4.052   2.025   2.193
 8552SOL    HW226556   4.212   2.001   2.170
 8553SOL     OW26557   5.220   3.695   0.373
 8553SOL    HW126558   5.179   3.607   0.347
 8553SOL    HW226559   5.156   3.769   0.353
 8554SOL     OW26560   1.164   1.118   6.744
 8554SOL    HW126561   1.196   1.137   6.837
 8554SOL    HW226562   1.150   1.205   6.696
 8555SOL     OW26563   3.332   1.951   3.339
 8555SOL    HW126564   3.258   1.896   3.300
 8555SOL    HW226565   3.379   2.000   3.266
 8556SOL     OW26566   0.264   4.604   5.327
 8556SOL    HW126567   0.314   4.673   5.379
 8556SOL    HW226568   0.166   4.627   5.327
 8557SOL     OW26569   6.355   0.756   0.612
 8557SOL    HW126570   6.265   0.798   0.622
 8557SOL    HW226571   6.386   0.722   0.700
 8558SOL     OW26572   2.882   6.507   3.369
 8558SOL    HW126573   2.917   6.581   3.426
 8558SOL    HW226574   2.804   6.464   3.415
 8559SOL     OW26575   0.960   3.178   3.492
 8559SOL    HW126576   0.889   3.131   3.545
 8559SOL    HW226577   0.955   3.276   3.510
 8560SOL     OW26578   3.439   4.081   1.429
 8560SOL    HW126579   3.355   4.060   1.378
 8560SOL    HW226580   3.423   4.065   1.526
 8561SOL     OW26581   4.025   0.637   2.075
 8561SOL    HW126582   4.121   0.666   2.071
 8561SOL    HW226583   3.970   0.709   2.118
 8562SOL     OW26584   5.502   2.597   6.583
 8562SOL    HW126585   5.416   2.629   6.622
 8562SOL    HW226586   5.561   2.562   6.656
 8563SOL     OW26587   1.225   4.554   2.817
 8563SOL    HW126588   1.303   4.610   2.790
 8563SOL    HW226589   1.174   4.599   2.890
 8564SOL     OW26590   3.849   6.817   6.994
 8564SOL    HW126591   3.850   6.766   0.053
 8564SOL    HW226592   3.938   6.807   6.949
 8565SOL     OW26593   0.983   5.447   1.540
 8565SOL    HW126594   0.962   5.457   1.637
 8565SOL    HW226595   1.004   5.352   1.520
 8566SOL     OW26596   3.315   1.139   3.281
 8566SOL    HW126597   3.353   1.047   3.291
 8566SOL    HW226598   3.379   1.195   3.228
 8567SOL     OW26599   1.900   2.819   0.996
 8567SOL    HW126600   1.878   2.721   0.994
 8567SOL    HW226601   1.953   2.840   1.078
 8568SOL     OW26602   5.655   6.579   5.769
 8568SOL    HW126603   5.747   6.542   5.754
 8568SOL    HW226604   5.652   6.674   5.736
 8569SOL     OW26605   5.076   1.482   6.551
 8569SOL    HW126606   5.128   1.562   6.522
 8569SOL    HW226607   5.062   1.421   6.473
 8570SOL     OW26608   1.471   1.840   3.604
 8570SOL    HW126609   1.504   1.853   3.698
 8570SOL    HW226610   1.515   1.906   3.544
 8571SOL     OW26611   1.092   0.882   3.403
 8571SOL    HW126612   1.062   0.974   3.426
 8571SOL    HW226613   1.145   0.844   3.479
 8572SOL     OW26614   2.906   3.562   5.561
 8572SOL    HW126615   2.938   3.474   5.527
 8572SOL    HW226616   2.829   3.593   5.505
 8573SOL     OW26617   1.530   5.762   6.221
 8573SOL    HW126618   1.476   5.820   6.161
 8573SOL    HW226619   1.471   5.722   6.292
 8574SOL     OW26620   5.648   1.544   5.450
 8574SOL    HW126621   5.555   1.544   5.414
 8574SOL    HW226622   5.678   1.450   5.466
 8575SOL     OW26623   2.671   6.201   4.496
 8575SOL    HW126624   2.656   6.145   4.415
 8575SOL    HW226625   2.711   6.145   4.569
 8576SOL     OW26626   1.605   3.285   5.207
 8576SOL    HW126627   1.645   3.239   5.127
 8576SOL    HW226628   1.661   3.364   5.232
 8577SOL     OW26629   1.605   0.711   0.530
 8577SOL    HW126630   1.678   0.778   0.545
 8577SOL    HW226631   1.622   0.630   0.587
 8578SOL     OW26632   1.189   0.478   5.940
 8578SOL    HW126633   1.146   0.568   5.933
 8578SOL    HW226634   1.119   0.407   5.925
 8579SOL     OW26635   3.813   6.907   2.064
 8579SOL    HW126636   3.859   6.942   2.146
 8579SOL    HW226637   3.747   6.975   2.032
 8580SOL     OW26638   2.283   0.588   1.814
 8580SOL    HW126639   2.222   0.527   1.762
 8580SOL    HW226640   2.331   0.534   1.883
 8581SOL     OW26641   4.053   3.850   2.559
 8581SOL    HW126642   4.063   3.781   2.488
 8581SOL    HW226643   4.100   3.820   2.642
 8582SOL     OW26644   4.565   5.729   5.763
 8582SOL    HW126645   4.520   5.767   5.682
 8582SOL    HW226646   4.547   5.631   5.768
 8583SOL     OW26647   3.510   6.910   3.232
 8583SOL    HW126648   3.569   6.990   3.237
 8583SOL    HW226649   3.551   6.835   3.283
 8584SOL     OW26650   6.152   2.301   4.996
 8584SOL    HW126651   6.101   2.383   5.025
 8584SOL    HW226652   6.144   2.231   5.067
 8585SOL     OW26653   5.024   2.263   2.528
 8585SOL    HW126654   5.061   2.350   2.561
 8585SOL    HW226655   4.925   2.270   2.519
 8586SOL     OW26656   6.764   6.471   5.347
 8586SOL    HW126657   6.783   6.397   5.283
 8586SOL    HW226658   6.735   6.433   5.435
 8587SOL     OW26659   6.815   1.210   0.731
 8587SOL    HW126660   6.852   1.122   0.701
 8587SOL    HW226661   6.880   1.253   0.794
 8588SOL     OW26662   1.681   1.366   5.567
 8588SOL    HW126663   1.618   1.444   5.570
 8588SOL    HW226664   1.739   1.373   5.487
 8589SOL     OW26665   5.873   2.740   6.863
 8589SOL    HW126666   5.968   2.770   6.858
 8589SOL    HW226667   5.816   2.799   6.806
 8590SOL     OW26668   1.442   1.328   3.138
 8590SOL    HW126669   1.503   1.388   3.086
 8590SOL    HW226670   1.349   1.337   3.102
 8591SOL     OW26671   1.408   4.085   5.324
 8591SOL    HW126672   1.414   4.097   5.423
 8591SOL    HW226673   1.491   4.041   5.291
 8592SOL     OW26674   0.365   2.037   4.853
 8592SOL    HW126675   0.358   1.995   4.944
 8592SOL    HW226676   0.349   2.135   4.860
 8593SOL     OW26677   6.550   1.244   0.570
 8593SOL    HW126678   6.480   1.241   0.640
 8593SOL    HW226679   6.628   1.188   0.598
 8594SOL     OW26680   6.086   4.222   6.094
 8594SOL    HW126681   6.150   4.160   6.140
 8594SOL    HW226682   5.994   4.209   6.132
 8595SOL     OW26683   5.513   6.114   2.482
 8595SOL    HW126684   5.573   6.076   2.552
 8595SOL    HW226685   5.458   6.188   2.522
 8596SOL     OW26686   0.067   1.792   5.677
 8596SOL    HW126687   0.066   1.823   5.772
 8596SOL    HW226688   0.116   1.705   5.670
 8597SOL     OW26689   6.288   2.262   5.874
 8597SOL    HW126690   6.199   2.224   5.848
 8597SOL    HW226691   6.358   2.230   5.810
 8598SOL     OW26692   7.017   0.757   6.129
 8598SOL    HW126693   6.981   0.779   6.039
 8598SOL    HW226694   7.013   0.838   6.188
 8599SOL     OW26695   5.672   3.928   5.147
 8599SOL    HW126696   5.620   3.961   5.068
 8599SOL    HW226697   5.770   3.945   5.132
 8600SOL     OW26698   4.175   2.707   1.329
 8600SOL    HW126699   4.142   2.705   1.234
 8600SOL    HW226700   4.244   2.635   1.342
 8601SOL     OW26701   4.901   5.589   2.364
 8601SOL    HW126702   4.941   5.548   2.282
 8601SOL    HW226703   4.849   5.671   2.338
 8602SOL     OW26704   2.226   6.509   5.231
 8602SOL    HW126705   2.169   6.471   5.303
 8602SOL    HW226706   2.295   6.441   5.205
 8603SOL     OW26707   0.799   1.073   6.659
 8603SOL    HW126708   0.862   1.148   6.678
 8603SOL    HW226709   0.849   0.986   6.661
 8604SOL     OW26710   1.355   5.390   6.285
 8604SOL    HW126711   1.307   5.311   6.324
 8604SOL    HW226712   1.453   5.377   6.292
 8605SOL     OW26713   6.244   4.481   3.900
 8605SOL    HW126714   6.243   4.444   3.993
 8605SOL    HW226715   6.151   4.484   3.864
 8606SOL     OW26716   1.137   0.280   6.345
 8606SOL    HW126717   1.208   0.284   6.275
 8606SOL    HW226718   1.051   0.313   6.308
 8607SOL     OW26719   2.734   3.006   1.437
 8607SOL    HW126720   2.712   3.103   1.431
 8607SOL    HW226721   2.694   2.968   1.520
 8608SOL     OW26722   2.362   5.913   1.820
 8608SOL    HW126723   2.436   5.949   1.763
 8608SOL    HW226724   2.383   5.932   1.916
 8609SOL     OW26725   5.602   2.281   4.618
 8609SOL    HW126726   5.669   2.238   4.558
 8609SOL    HW226727   5.646   2.353   4.671
 8610SOL     OW26728   6.902   5.298   2.367
 8610SOL    HW126729   6.936   5.251   2.449
 8610SOL    HW226730   6.803   5.282   2.358
 8611SOL     OW26731   1.872   1.554   5.263
 8611SOL    HW126732   1.782   1.594   5.247
 8611SOL    HW226733   1.938   1.592   5.198
 8612SOL     OW26734   3.353   3.097   5.522
 8612SOL    HW126735   3.274   3.050   5.484
 8612SOL    HW226736   3.435   3.073   5.471
 8613SOL     OW26737   3.062   3.301   3.596
 8613SOL    HW126738   3.047   3.214   3.643
 8613SOL    HW226739   3.140   3.349   3.637
 8614SOL     OW26740   0.505   2.554   4.008
 8614SOL    HW126741   0.597   2.591   4.020
 8614SOL    HW226742   0.437   2.625   4.028
 8615SOL     OW26743   4.042   1.091   5.356
 8615SOL    HW126744   4.101   1.130   5.286
 8615SOL    HW226745   4.022   0.996   5.334
 8616SOL     OW26746   5.989   4.211   5.598
 8616SOL    HW126747   5.931   4.160   5.661
 8616SOL    HW226748   6.071   4.242   5.646
 8617SOL     OW26749   1.085   6.778   3.231
 8617SOL    HW126750   1.169   6.726   3.245
 8617SOL    HW226751   1.006   6.717   3.240
 8618SOL     OW26752   6.100   4.470   0.558
 8618SOL    HW126753   6.140   4.384   0.592
 8618SOL    HW226754   6.024   4.449   0.496
 8619SOL     OW26755   5.277   5.521   6.970
 8619SOL    HW126756   5.233   5.543   6.884
 8619SOL    HW226757   5.331   5.599   7.001
 8620SOL     OW26758   1.432   6.700   3.678
 8620SOL    HW126759   1.505   6.674   3.614
 8620SOL    HW226760   1.345   6.701   3.629
 8621SOL     OW26761   6.139   3.515   1.510
 8621SOL    HW126762   6.042   3.497   1.529
 8621SOL    HW226763   6.185   3.542   1.594
 8622SOL     OW26764   1.013   5.870   1.461
 8622SOL    HW126765   1.040   5.896   1.554
 8622SOL    HW226766   0.941   5.932   1.429
 8623SOL     OW26767   2.284   2.011   3.292
 8623SOL    HW126768   2.275   1.936   3.357
 8623SOL    HW226769   2.225   2.087   3.319
 8624SOL     OW26770   3.409   3.630   5.198
 8624SOL    HW126771   3.442   3.536   5.197
 8624SOL    HW226772   3.311   3.631   5.218
 8625SOL     OW26773   4.386   3.122   6.195
 8625SOL    HW126774   4.371   3.194   6.128
 8625SOL    HW226775   4.335   3.041   6.169
 8626SOL     OW26776   4.979   1.940   1.304
 8626SOL    HW126777   4.935   1.900   1.385
 8626SOL    HW226778   4.932   1.907   1.222
 8627SOL     OW26779   0.788   0.055   3.042
 8627SOL    HW126780   0.768   0.148   3.074
 8627SOL    HW226781   0.712   7.021   3.066
 8628SOL     OW26782   1.329   6.805   0.963
 8628SOL    HW126783   1.298   6.900   0.958
 8628SOL    HW226784   1.384   6.792   1.045
 8629SOL     OW26785   6.900   0.546   4.573
 8629SOL    HW126786   6.974   0.574   4.512
 8629SOL    HW226787   6.933   0.541   4.667
 8630SOL     OW26788   5.237   2.808   1.520
 8630SOL    HW126789   5.270   2.787   1.428
 8630SOL    HW226790   5.196   2.899   1.521
 8631SOL     OW26791   1.575   6.208   6.509
 8631SOL    HW126792   1.597   6.111   6.511
 8631SOL    HW226793   1.657   6.261   6.530
 8632SOL     OW26794   6.268   6.008   4.103
 8632SOL    HW126795   6.203   5.955   4.049
 8632SOL    HW226796   6.357   5.963   4.103
 8633SOL     OW26797   6.572   3.178   5.484
 8633SOL    HW126798   6.635   3.247   5.449
 8633SOL    HW226799   6.478   3.203   5.459
 8634SOL     OW26800   5.208   5.004   6.047
 8634SOL    HW126801   5.111   5.017   6.066
 8634SOL    HW226802   5.258   4.998   6.134
 8635SOL     OW26803   5.188   2.267   6.142
 8635SOL    HW126804   5.254   2.253   6.068
 8635SOL    HW226805   5.099   2.231   6.114
 8636SOL     OW26806   4.019   6.102   1.200
 8636SOL    HW126807   3.965   6.186   1.206
 8636SOL    HW226808   4.058   6.094   1.108
 8637SOL     OW26809   2.841   2.331   0.344
 8637SOL    HW126810   2.887   2.419   0.347
 8637SOL    HW226811   2.897   2.265   0.295
 8638SOL     OW26812   5.094   2.829   4.804
 8638SOL    HW126813   5.031   2.906   4.804
 8638SOL    HW226814   5.046   2.747   4.838
 8639SOL     OW26815   3.135   4.458   0.465
 8639SOL    HW126816   3.175   4.480   0.376
 8639SOL    HW226817   3.036   4.467   0.461
 8640SOL     OW26818   3.868   2.415   6.786
 8640SOL    HW126819   3.789   2.436   6.729
 8640SOL    HW226820   3.875   2.482   6.859
 8641SOL     OW26821   3.205   4.958   3.535
 8641SOL    HW126822   3.220   5.010   3.452
 8641SOL    HW226823   3.284   4.969   3.596
 8642SOL     OW26824   2.277   6.087   3.174
 8642SOL    HW126825   2.369   6.097   3.136
 8642SOL    HW226826   2.242   5.996   3.152
 8643SOL     OW26827   3.903   6.671   1.354
 8643SOL    HW126828   3.991   6.718   1.353
 8643SOL    HW226829   3.915   6.578   1.389
 8644SOL     OW26830   5.875   2.417   6.473
 8644SOL    HW126831   5.884   2.380   6.380
 8644SOL    HW226832   5.806   2.364   6.523
 8645SOL     OW26833   4.810   4.816   2.571
 8645SOL    HW126834   4.746   4.753   2.527
 8645SOL    HW226835   4.901   4.805   2.529
 8646SOL     OW26836   6.960   1.823   5.016
 8646SOL    HW126837   6.881   1.876   4.985
 8646SOL    HW226838   7.020   1.805   4.938
 8647SOL     OW26839   1.568   4.829   1.683
 8647SOL    HW126840   1.642   4.887   1.716
 8647SOL    HW226841   1.505   4.883   1.627
 8648SOL     OW26842   5.391   5.285   6.936
 8648SOL    HW126843   5.349   5.367   6.973
 8648SOL    HW226844   5.458   5.310   6.867
 8649SOL     OW26845   5.605   2.194   1.985
 8649SOL    HW126846   5.530   2.206   1.919
 8649SOL    HW226847   5.568   2.164   2.073
 8650SOL     OW26848   1.974   0.944   5.426
 8650SOL    HW126849   1.997   1.026   5.480
 8650SOL    HW226850   1.899   0.895   5.471
 8651SOL     OW26851   4.541   2.199   1.862
 8651SOL    HW126852   4.466   2.262   1.844
 8651SOL    HW226853   4.552   2.186   1.961
 8652SOL     OW26854   6.506   2.102   4.233
 8652SOL    HW126855   6.423   2.084   4.286
 8652SOL    HW226856   6.586   2.075   4.287
 8653SOL     OW26857   5.704   0.594   0.719
 8653SOL    HW126858   5.654   0.679   0.704
 8653SOL    HW226859   5.802   0.613   0.727
 8654SOL     OW26860   0.643   4.768   2.986
 8654SOL    HW126861   0.698   4.822   3.050
 8654SOL    HW226862   0.669   4.672   2.992
 8655SOL     OW26863   1.383   0.059   5.090
 8655SOL    HW126864   1.453   0.073   5.021
 8655SOL    HW226865   1.385   6.990   5.120
 8656SOL     OW26866   4.341   5.931   1.071
 8656SOL    HW126867   4.403   5.952   1.147
 8656SOL    HW226868   4.354   5.999   0.999
 8657SOL     OW26869   3.410   1.522   2.523
 8657SOL    HW126870   3.443   1.604   2.477
 8657SOL    HW226871   3.486   1.459   2.538
 8658SOL     OW26872   6.265   3.925   0.925
 8658SOL    HW126873   6.248   3.859   0.999
 8658SOL    HW226874   6.226   4.014   0.950
 8659SOL     OW26875   3.610   0.367   2.977
 8659SOL    HW126876   3.563   0.282   2.955
 8659SOL    HW226877   3.601   0.386   3.075
 8660SOL     OW26878   6.982   3.763   1.626
 8660SOL    HW126879   6.885   3.740   1.614
 8660SOL    HW226880   7.000   3.852   1.585
 8661SOL     OW26881   6.483   3.886   2.214
 8661SOL    HW126882   6.477   3.791   2.244
 8661SOL    HW226883   6.570   3.925   2.244
 8662SOL     OW26884   1.594   2.322   2.953
 8662SOL    HW126885   1.688   2.323   2.917
 8662SOL    HW226886   1.575   2.410   2.996
 8663SOL     OW26887   3.302   4.883   2.814
 8663SOL    HW126888   3.287   4.913   2.720
 8663SOL    HW226889   3.214   4.854   2.853
 8664SOL     OW26890   3.141   6.235   4.058
 8664SOL    HW126891   3.058   6.180   4.063
 8664SOL    HW226892   3.120   6.325   4.019
 8665SOL     OW26893   6.774   3.698   6.499
 8665SOL    HW126894   6.799   3.626   6.564
 8665SOL    HW226895   6.850   3.763   6.489
 8666SOL     OW26896   5.172   0.473   2.914
 8666SOL    HW126897   5.136   0.557   2.955
 8666SOL    HW226898   5.264   0.456   2.949
 8667SOL     OW26899   5.298   2.197   1.914
 8667SOL    HW126900   5.241   2.231   1.840
 8667SOL    HW226901   5.285   2.253   1.995
 8668SOL     OW26902   3.982   2.146   3.695
 8668SOL    HW126903   3.942   2.201   3.769
 8668SOL    HW226904   3.915   2.079   3.663
 8669SOL     OW26905   0.495   6.244   6.012
 8669SOL    HW126906   0.458   6.302   5.939
 8669SOL    HW226907   0.595   6.247   6.009
 8670SOL     OW26908   0.295   5.421   5.476
 8670SOL    HW126909   0.332   5.333   5.506
 8670SOL    HW226910   0.360   5.466   5.416
 8671SOL     OW26911   6.949   3.032   3.950
 8671SOL    HW126912   6.982   3.096   4.020
 8671SOL    HW226913   7.025   3.006   3.890
 8672SOL     OW26914   6.487   1.341   2.537
 8672SOL    HW126915   6.529   1.385   2.616
 8672SOL    HW226916   6.558   1.308   2.475
 8673SOL     OW26917   0.992   1.088   1.590
 8673SOL    HW126918   0.921   1.035   1.636
 8673SOL    HW226919   1.080   1.043   1.602
 8674SOL     OW26920   0.177   3.592   3.766
 8674SOL    HW126921   0.231   3.616   3.847
 8674SOL    HW226922   0.237   3.588   3.686
 8675SOL     OW26923   4.556   2.530   5.086
 8675SOL    HW126924   4.562   2.597   5.160
 8675SOL    HW226925   4.601   2.568   5.004
 8676SOL     OW26926   4.711   2.303   0.581
 8676SOL    HW126927   4.646   2.375   0.559
 8676SOL    HW226928   4.762   2.328   0.663
 8677SOL     OW26929   2.879   0.748   6.934
 8677SOL    HW126930   2.895   0.703   6.846
 8677SOL    HW226931   2.848   0.842   6.918
 8678SOL     OW26932   3.171   1.845   0.227
 8678SOL    HW126933   3.258   1.864   0.273
 8678SOL    HW226934   3.115   1.786   0.285
 8679SOL     OW26935   1.571   2.098   6.570
 8679SOL    HW126936   1.601   2.004   6.554
 8679SOL    HW226937   1.579   2.151   6.486
 8680SOL     OW26938   6.943   0.253   1.209
 8680SOL    HW126939   6.877   0.321   1.242
 8680SOL    HW226940   7.009   0.298   1.150
 8681SOL     OW26941   5.383   5.468   0.867
 8681SOL    HW126942   5.403   5.445   0.772
 8681SOL    HW226943   5.288   5.498   0.875
 8682SOL     OW26944   1.965   1.121   3.043
 8682SOL    HW126945   1.936   1.216   3.038
 8682SOL    HW226946   2.064   1.117   3.056
 8683SOL     OW26947   2.643   4.636   3.945
 8683SOL    HW126948   2.576   4.659   4.015
 8683SOL    HW226949   2.615   4.553   3.898
 8684SOL     OW26950   2.398   4.350   3.188
 8684SOL    HW126951   2.468   4.421   3.196
 8684SOL    HW226952   2.330   4.362   3.261
 8685SOL     OW26953   5.449   3.515   5.370
 8685SOL    HW126954   5.403   3.427   5.381
 8685SOL    HW226955   5.412   3.580   5.436
 8686SOL     OW26956   1.368   4.772   3.052
 8686SOL    HW126957   1.357   4.871   3.042
 8686SOL    HW226958   1.279   4.728   3.051
 8687SOL     OW26959   5.575   4.354   5.656
 8687SOL    HW126960   5.565   4.278   5.591
 8687SOL    HW226961   5.527   4.332   5.741
 8688SOL     OW26962   0.687   4.219   5.231
 8688SOL    HW126963   0.659   4.314   5.221
 8688SOL    HW226964   0.613   4.159   5.199
 8689SOL     OW26965   4.821   3.366   0.736
 8689SOL    HW126966   4.765   3.295   0.692
 8689SOL    HW226967   4.804   3.366   0.834
 8690SOL     OW26968   1.675   2.297   2.491
 8690SOL    HW126969   1.575   2.299   2.481
 8690SOL    HW226970   1.699   2.257   2.579
 8691SOL     OW26971   3.359   1.510   6.936
 8691SOL    HW126972   3.320   1.497   0.001
 8691SOL    HW226973   3.299   1.569   6.882
 8692SOL     OW26974   5.421   1.978   4.418
 8692SOL    HW126975   5.462   2.040   4.351
 8692SOL    HW226976   5.346   2.024   4.465
 8693SOL     OW26977   0.697   0.363   5.907
 8693SOL    HW126978   0.643   0.279   5.903
 8693SOL    HW226979   0.640   0.437   5.944
 8694SOL     OW26980   4.524   3.670   5.344
 8694SOL    HW126981   4.488   3.636   5.257
 8694SOL    HW226982   4.451   3.670   5.412
 8695SOL     OW26983   4.092   4.617   1.262
 8695SOL    HW126984   4.104   4.580   1.170
 8695SOL    HW226985   3.998   4.650   1.273
 8696SOL     OW26986   2.969   6.356   6.829
 8696SOL    HW126987   2.918   6.359   6.915
 8696SOL    HW226988   2.908   6.330   6.755
 8697SOL     OW26989   1.494   3.099   4.784
 8697SOL    HW126990   1.424   3.027   4.779
 8697SOL    HW226991   1.538   3.109   4.695
 8698SOL     OW26992   5.683   4.115   0.066
 8698SOL    HW126993   5.740   4.189   0.102
 8698SOL    HW226994   5.715   4.028   0.103
 8699SOL     OW26995   2.643   2.226   1.314
 8699SOL    HW126996   2.690   2.296   1.368
 8699SOL    HW226997   2.641   2.140   1.366
 8700SOL     OW26998   0.112   1.653   4.507
 8700SOL    HW126999   0.038   1.664   4.440
 8700SOL    HW227000   0.198   1.639   4.459
 8701SOL     OW27001   1.968   2.839   6.400
 8701SOL    HW127002   2.004   2.782   6.327
 8701SOL    HW227003   1.915   2.782   6.463
 8702SOL     OW27004   5.497   4.057   1.252
 8702SOL    HW127005   5.426   4.004   1.299
 8702SOL    HW227006   5.456   4.106   1.175
 8703SOL     OW27007   2.222   5.513   1.869
 8703SOL    HW127008   2.186   5.606   1.882
 8703SOL    HW227009   2.151   5.446   1.893
 8704SOL     OW27010   6.024   0.980   3.519
 8704SOL    HW127011   6.116   1.018   3.504
 8704SOL    HW227012   6.029   0.880   3.517
 8705SOL     OW27013   3.595   2.224   0.142
 8705SOL    HW127014   3.665   2.260   0.081
 8705SOL    HW227015   3.576   2.129   0.119
 8706SOL     OW27016   5.000   2.797   5.840
 8706SOL    HW127017   4.981   2.855   5.920
 8706SOL    HW227018   4.917   2.787   5.786
 8707SOL     OW27019   0.695   1.081   3.735
 8707SOL    HW127020   0.638   1.016   3.786
 8707SOL    HW227021   0.638   1.155   3.700
 8708SOL     OW27022   5.910   2.350   0.759
 8708SOL    HW127023   5.981   2.372   0.693
 8708SOL    HW227024   5.935   2.386   0.849
 8709SOL     OW27025   6.609   6.501   3.759
 8709SOL    HW127026   6.700   6.468   3.735
 8709SOL    HW227027   6.580   6.459   3.846
 8710SOL     OW27028   2.187   2.653   3.994
 8710SOL    HW127029   2.222   2.743   3.967
 8710SOL    HW227030   2.242   2.581   3.951
 8711SOL     OW27031   1.343   1.337   1.955
 8711SOL    HW127032   1.381   1.408   1.895
 8711SOL    HW227033   1.254   1.307   1.919
 8712SOL     OW27034   1.672   3.611   4.415
 8712SOL    HW127035   1.760   3.655   4.394
 8712SOL    HW227036   1.688   3.519   4.449
 8713SOL     OW27037   0.213   4.220   3.090
 8713SOL    HW127038   0.173   4.141   3.135
 8713SOL    HW227039   0.169   4.234   3.001
 8714SOL     OW27040   6.830   4.025   6.314
 8714SOL    HW127041   6.883   3.948   6.349
 8714SOL    HW227042   6.875   4.062   6.232
 8715SOL     OW27043   2.406   5.384   1.083
 8715SOL    HW127044   2.366   5.473   1.062
 8715SOL    HW227045   2.456   5.350   1.004
 8716SOL     OW27046   5.881   0.287   2.491
 8716SOL    HW127047   5.829   0.203   2.480
 8716SOL    HW227048   5.856   0.352   2.419
 8717SOL     OW27049   3.854   2.255   0.010
 8717SOL    HW127050   3.890   2.163   0.023
 8717SOL    HW227051   3.861   2.281   6.940
 8718SOL     OW27052   2.977   5.399   5.943
 8718SOL    HW127053   2.941   5.490   5.966
 8718SOL    HW227054   3.057   5.380   5.999
 8719SOL     OW27055   3.283   1.991   4.636
 8719SOL    HW127056   3.374   2.017   4.602
 8719SOL    HW227057   3.271   2.025   4.729
 8720SOL     OW27058   0.463   6.125   5.228
 8720SOL    HW127059   0.524   6.203   5.238
 8720SOL    HW227060   0.375   6.145   5.270
 8721SOL     OW27061   1.227   0.581   1.385
 8721SOL    HW127062   1.324   0.561   1.370
 8721SOL    HW227063   1.202   0.664   1.336
 8722SOL     OW27064   4.085   1.473   0.162
 8722SOL    HW127065   4.122   1.564   0.144
 8722SOL    HW227066   4.040   1.438   0.080
 8723SOL     OW27067   3.922   6.292   2.921
 8723SOL    HW127068   3.838   6.282   2.867
 8723SOL    HW227069   3.995   6.326   2.862
 8724SOL     OW27070   3.252   0.619   5.158
 8724SOL    HW127071   3.236   0.561   5.078
 8724SOL    HW227072   3.240   0.566   5.241
 8725SOL     OW27073   6.618   0.923   2.532
 8725SOL    HW127074   6.600   0.989   2.605
 8725SOL    HW227075   6.581   0.958   2.446
 8726SOL     OW27076   6.868   1.350   0.495
 8726SOL    HW127077   6.790   1.374   0.438
 8726SOL    HW227078   6.841   1.356   0.591
 8727SOL     OW27079   4.706   5.531   6.562
 8727SOL    HW127080   4.754   5.522   6.474
 8727SOL    HW227081   4.693   5.628   6.583
 8728SOL     OW27082   6.154   6.588   4.675
 8728SOL    HW127083   6.056   6.608   4.678
 8728SOL    HW227084   6.205   6.661   4.721
 8729SOL     OW27085   5.894   5.992   5.657
 8729SOL    HW127086   5.867   6.070   5.714
 8729SOL    HW227087   5.992   5.974   5.669
 8730SOL     OW27088   3.961   4.684   1.822
 8730SOL    HW127089   4.033   4.640   1.768
 8730SOL    HW227090   4.002   4.742   1.891
 8731SOL     OW27091   7.018   2.051   4.385
 8731SOL    HW127092   6.992   2.087   4.296
 8731SOL    HW227093   0.082   2.010   4.379
 8732SOL     OW27094   5.349   6.241   5.387
 8732SOL    HW127095   5.403   6.165   5.350
 8732SOL    HW227096   5.349   6.317   5.321
 8733SOL     OW27097   6.109   4.564   1.537
 8733SOL    HW127098   6.179   4.608   1.482
 8733SOL    HW227099   6.022   4.611   1.525
 8734SOL     OW27100   1.073   5.733   1.220
 8734SOL    HW127101   1.053   5.796   1.296
 8734SOL    HW227102   0.990   5.683   1.195
 8735SOL     OW27103   1.076   2.631   6.292
 8735SOL    HW127104   1.011   2.580   6.237
 8735SOL    HW227105   1.089   2.722   6.252
 8736SOL     OW27106   1.382   6.277   3.688
 8736SOL    HW127107   1.350   6.328   3.608
 8736SOL    HW227108   1.395   6.340   3.765
 8737SOL     OW27109   0.073   5.458   6.859
 8737SOL    HW127110   0.020   5.379   6.831
 8737SOL    HW227111   0.153   5.429   6.911
 8738SOL     OW27112   2.184   2.788   2.256
 8738SOL    HW127113   2.228   2.743   2.334
 8738SOL    HW227114   2.160   2.882   2.281
 8739SOL     OW27115   4.023   4.847   3.280
 8739SOL    HW127116   4.029   4.752   3.249
 8739SOL    HW227117   3.933   4.863   3.320
 8740SOL     OW27118   2.746   1.562   3.485
 8740SOL    HW127119   2.686   1.579   3.563
 8740SOL    HW227120   2.780   1.467   3.489
 8741SOL     OW27121   1.792   2.103   2.754
 8741SOL    HW127122   1.861   2.051   2.704
 8741SOL    HW227123   1.702   2.063   2.738
 8742SOL     OW27124   1.826   3.342   1.557
 8742SOL    HW127125   1.812   3.429   1.511
 8742SOL    HW227126   1.891   3.353   1.632
 8743SOL     OW27127   1.107   3.574   6.860
 8743SOL    HW127128   1.029   3.525   6.899
 8743SOL    HW227129   1.182   3.573   6.927
 8744SOL     OW27130   2.985   3.940   6.331
 8744SOL    HW127131   2.899   3.890   6.332
 8744SOL    HW227132   2.967   4.038   6.345
 8745SOL     OW27133   5.863   1.653   6.865
 8745SOL    HW127134   5.904   1.603   6.941
 8745SOL    HW227135   5.787   1.601   6.827
 8746SOL     OW27136   4.691   4.743   4.813
 8746SOL    HW127137   4.758   4.710   4.880
 8746SOL    HW227138   4.607   4.690   4.822
 8747SOL     OW27139   0.669   6.705   2.125
 8747SOL    HW127140   0.756   6.656   2.118
 8747SOL    HW227141   0.685   6.794   2.168
 8748SOL     OW27142   5.938   1.251   4.164
 8748SOL    HW127143   5.990   1.195   4.229
 8748SOL    HW227144   5.857   1.287   4.210
 8749SOL     OW27145   3.065   1.597   3.745
 8749SOL    HW127146   3.018   1.681   3.769
 8749SOL    HW227147   3.000   1.521   3.744
 8750SOL     OW27148   3.867   3.542   1.433
 8750SOL    HW127149   3.812   3.482   1.375
 8750SOL    HW227150   3.883   3.496   1.521
 8751SOL     OW27151   1.832   0.133   0.628
 8751SOL    HW127152   1.864   0.227   0.636
 8751SOL    HW227153   1.891   0.082   0.566
 8752SOL     OW27154   0.396   3.222   6.283
 8752SOL    HW127155   0.342   3.152   6.329
 8752SOL    HW227156   0.492   3.193   6.282
 8753SOL     OW27157   1.885   1.673   1.398
 8753SOL    HW127158   1.833   1.645   1.318
 8753SOL    HW227159   1.972   1.713   1.370
 8754SOL     OW27160   1.411   5.891   5.988
 8754SOL    HW127161   1.402   5.991   5.984
 8754SOL    HW227162   1.327   5.849   5.952
 8755SOL     OW27163   0.862   2.080   1.690
 8755SOL    HW127164   0.859   2.080   1.590
 8755SOL    HW227165   0.835   2.170   1.725
 8756SOL     OW27166   1.661   1.635   2.509
 8756SOL    HW127167   1.590   1.690   2.463
 8756SOL    HW227168   1.641   1.632   2.607
 8757SOL     OW27169   5.474   5.969   4.643
 8757SOL    HW127170   5.566   5.940   4.614
 8757SOL    HW227171   5.411   5.957   4.567
 8758SOL     OW27172   3.673   5.491   6.775
 8758SOL    HW127173   3.612   5.569   6.788
 8758SOL    HW227174   3.675   5.436   6.859
 8759SOL     OW27175   6.864   1.223   1.929
 8759SOL    HW127176   6.919   1.306   1.924
 8759SOL    HW227177   6.918   1.149   1.969
 8760SOL     OW27178   2.019   2.774   4.348
 8760SOL    HW127179   1.926   2.806   4.367
 8760SOL    HW227180   2.042   2.794   4.253
 8761SOL     OW27181   4.829   3.034   3.411
 8761SOL    HW127182   4.882   2.971   3.354
 8761SOL    HW227183   4.738   2.996   3.426
 8762SOL     OW27184   4.243   5.902   2.719
 8762SOL    HW127185   4.204   5.911   2.810
 8762SOL    HW227186   4.264   5.806   2.701
 8763SOL     OW27187   6.847   1.235   5.395
 8763SOL    HW127188   6.888   1.273   5.478
 8763SOL    HW227189   6.892   1.149   5.372
 8764SOL     OW27190   3.392   5.452   6.289
 8764SOL    HW127191   3.454   5.442   6.367
 8764SOL    HW227192   3.441   5.495   6.213
 8765SOL     OW27193   4.591   0.032   3.450
 8765SOL    HW127194   4.540   0.105   3.404
 8765SOL    HW227195   4.618   0.063   3.542
 8766SOL     OW27196   6.215   0.093   4.747
 8766SOL    HW127197   6.275   0.120   4.822
 8766SOL    HW227198   6.262   0.107   4.660
 8767SOL     OW27199   2.021   1.176   4.650
 8767SOL    HW127200   2.077   1.186   4.732
 8767SOL    HW227201   2.048   1.245   4.582
 8768SOL     OW27202   7.022   1.723   0.949
 8768SOL    HW127203   6.957   1.647   0.946
 8768SOL    HW227204   0.081   1.696   0.905
 8769SOL     OW27205   6.463   6.769   6.444
 8769SOL    HW127206   6.483   6.673   6.463
 8769SOL    HW227207   6.549   6.819   6.431
 8770SOL     OW27208   4.979   1.637   0.596
 8770SOL    HW127209   4.947   1.542   0.599
 8770SOL    HW227210   5.017   1.662   0.685
 8771SOL     OW27211   0.225   2.719   6.197
 8771SOL    HW127212   0.294   2.653   6.168
 8771SOL    HW227213   0.188   2.692   6.286
 8772SOL     OW27214   0.589   6.545   3.763
 8772SOL    HW127215   0.511   6.490   3.733
 8772SOL    HW227216   0.597   6.626   3.705
 8773SOL     OW27217   6.935   1.253   3.962
 8773SOL    HW127218   6.932   1.289   4.056
 8773SOL    HW227219   6.893   1.318   3.900
 8774SOL     OW27220   1.523   2.459   6.723
 8774SOL    HW127221   1.585   2.459   6.801
 8774SOL    HW227222   1.486   2.367   6.711
 8775SOL     OW27223   5.418   1.992   2.975
 8775SOL    HW127224   5.458   2.056   2.909
 8775SOL    HW227225   5.465   2.001   3.063
 8776SOL     OW27226   5.102   3.035   1.593
 8776SOL    HW127227   5.117   3.046   1.691
 8776SOL    HW227228   5.102   3.125   1.549
 8777SOL     OW27229   6.741   1.987   4.306
 8777SOL    HW127230   6.816   2.010   4.368
 8777SOL    HW227231   6.756   1.895   4.268
 8778SOL     OW27232   1.706   4.214   6.879
 8778SOL    HW127233   1.627   4.155   6.899
 8778SOL    HW227234   1.681   4.309   6.898
 8779SOL     OW27235   4.156   5.937   2.970
 8779SOL    HW127236   4.209   5.899   3.046
 8779SOL    HW227237   4.058   5.929   2.990
 8780SOL     OW27238   0.997   3.710   4.169
 8780SOL    HW127239   0.952   3.636   4.220
 8780SOL    HW227240   1.089   3.681   4.142
 8781SOL     OW27241   3.619   1.716   1.898
 8781SOL    HW127242   3.623   1.749   1.804
 8781SOL    HW227243   3.636   1.617   1.900
 8782SOL     OW27244   6.708   2.580   0.254
 8782SOL    HW127245   6.685   2.598   0.158
 8782SOL    HW227246   6.638   2.620   0.313
 8783SOL     OW27247   3.846   3.539   5.554
 8783SOL    HW127248   3.798   3.452   5.555
 8783SOL    HW227249   3.781   3.614   5.568
 8784SOL     OW27250   4.071   1.283   6.264
 8784SOL    HW127251   4.117   1.322   6.185
 8784SOL    HW227252   4.051   1.186   6.247
 8785SOL     OW27253   0.112   5.933   6.345
 8785SOL    HW127254   0.079   5.871   6.274
 8785SOL    HW227255   0.181   5.994   6.306
 8786SOL     OW27256   5.691   2.169   3.279
 8786SOL    HW127257   5.630   2.202   3.351
 8786SOL    HW227258   5.756   2.241   3.254
 8787SOL     OW27259   3.283   4.970   2.314
 8787SOL    HW127260   3.353   5.041   2.321
 8787SOL    HW227261   3.259   4.956   2.218
 8788SOL     OW27262   0.087   6.146   3.788
 8788SOL    HW127263   0.043   6.232   3.760
 8788SOL    HW227264   0.021   6.071   3.778
 8789SOL     OW27265   1.334   3.603   7.010
 8789SOL    HW127266   1.317   3.687   0.034
 8789SOL    HW227267   1.407   3.550   0.028
 8790SOL     OW27268   5.133   3.108   5.311
 8790SOL    HW127269   5.185   3.031   5.274
 8790SOL    HW227270   5.121   3.177   5.239
 8791SOL     OW27271   4.398   6.054   5.000
 8791SOL    HW127272   4.461   5.977   5.008
 8791SOL    HW227273   4.305   6.020   4.984
 8792SOL     OW27274   5.656   5.070   0.587
 8792SOL    HW127275   5.726   5.001   0.566
 8792SOL    HW227276   5.589   5.072   0.512
 8793SOL     OW27277   6.250   0.002   5.531
 8793SOL    HW127278   6.304   0.080   5.562
 8793SOL    HW227279   6.310   6.959   5.492
 8794SOL     OW27280   6.933   2.498   3.383
 8794SOL    HW127281   6.836   2.520   3.376
 8794SOL    HW227282   6.988   2.578   3.359
 8795SOL     OW27283   1.521   0.263   6.747
 8795SOL    HW127284   1.473   0.330   6.803
 8795SOL    HW227285   1.567   0.197   6.807
 8796SOL     OW27286   5.622   4.441   4.353
 8796SOL    HW127287   5.580   4.515   4.406
 8796SOL    HW227288   5.719   4.460   4.341
 8797SOL     OW27289   5.365   6.210   5.066
 8797SOL    HW127290   5.388   6.165   4.980
 8797SOL    HW227291   5.406   6.159   5.142
 8798SOL     OW27292   1.870   5.684   6.034
 8798SOL    HW127293   1.941   5.707   5.967
 8798SOL    HW227294   1.893   5.727   6.121
 8799SOL     OW27295   1.924   6.365   1.845
 8799SOL    HW127296   1.870   6.391   1.765
 8799SOL    HW227297   1.955   6.271   1.836
 8800SOL     OW27298   6.583   6.099   4.065
 8800SOL    HW127299   6.650   6.085   3.993
 8800SOL    HW227300   6.544   6.011   4.092
 8801SOL     OW27301   4.756   3.064   5.630
 8801SOL    HW127302   4.856   3.054   5.634
 8801SOL    HW227303   4.726   3.065   5.535
 8802SOL     OW27304   1.263   6.441   6.740
 8802SOL    HW127305   1.228   6.352   6.769
 8802SOL    HW227306   1.201   6.482   6.673
 8803SOL     OW27307   5.443   5.297   5.076
 8803SOL    HW127308   5.410   5.374   5.131
 8803SOL    HW227309   5.429   5.212   5.128
 8804SOL     OW27310   2.026   6.772   1.977
 8804SOL    HW127311   2.099   6.838   1.994
 8804SOL    HW227312   2.054   6.682   2.011
 8805SOL     OW27313   5.046   4.600   1.883
 8805SOL    HW127314   5.094   4.640   1.804
 8805SOL    HW227315   5.112   4.551   1.940
 8806SOL     OW27316   1.141   0.818   1.876
 8806SOL    HW127317   1.209   0.817   1.950
 8806SOL    HW227318   1.107   0.911   1.864
 8807SOL     OW27319   6.151   2.129   1.672
 8807SOL    HW127320   6.064   2.121   1.625
 8807SOL    HW227321   6.156   2.216   1.721
 8808SOL     OW27322   1.451   1.802   0.581
 8808SOL    HW127323   1.470   1.706   0.561
 8808SOL    HW227324   1.354   1.813   0.604
 8809SOL     OW27325   1.095   3.339   3.270
 8809SOL    HW127326   1.057   3.248   3.285
 8809SOL    HW227327   1.037   3.407   3.315
 8810SOL     OW27328   6.183   2.351   4.262
 8810SOL    HW127329   6.173   2.284   4.335
 8810SOL    HW227330   6.196   2.304   4.175
 8811SOL     OW27331   3.708   5.155   2.144
 8811SOL    HW127332   3.621   5.134   2.189
 8811SOL    HW227333   3.783   5.118   2.197
 8812SOL     OW27334   5.641   0.475   0.431
 8812SOL    HW127335   5.657   0.524   0.517
 8812SOL    HW227336   5.652   0.539   0.355
 8813SOL     OW27337   1.589   3.050   1.678
 8813SOL    HW127338   1.566   3.135   1.631
 8813SOL    HW227339   1.688   3.038   1.679
 8814SOL     OW27340   5.494   0.025   4.856
 8814SOL    HW127341   5.506   6.961   4.896
 8814SOL    HW227342   5.460   0.088   4.927
 8815SOL     OW27343   5.184   0.923   1.146
 8815SOL    HW127344   5.233   0.836   1.152
 8815SOL    HW227345   5.187   0.956   1.051
 8816SOL     OW27346   0.065   0.642   3.505
 8816SOL    HW127347   7.026   0.567   3.499
 8816SOL    HW227348   0.158   0.606   3.495
 8817SOL     OW27349   1.042   2.317   3.878
 8817SOL    HW127350   1.100   2.310   3.959
 8817SOL    HW227351   0.952   2.280   3.898
 8818SOL     OW27352   1.065   6.258   6.486
 8818SOL    HW127353   1.011   6.297   6.561
 8818SOL    HW227354   1.143   6.209   6.523
 8819SOL     OW27355   5.347   6.316   5.787
 8819SOL    HW127356   5.304   6.347   5.872
 8819SOL    HW227357   5.370   6.218   5.795
 8820SOL     OW27358   3.766   6.300   5.901
 8820SOL    HW127359   3.795   6.310   5.806
 8820SOL    HW227360   3.764   6.390   5.945
 8821SOL     OW27361   0.785   5.624   5.625
 8821SOL    HW127362   0.728   5.553   5.583
 8821SOL    HW227363   0.726   5.690   5.672
 8822SOL     OW27364   6.585   0.279   4.504
 8822SOL    HW127365   6.637   0.331   4.436
 8822SOL    HW227366   6.642   0.205   4.541
 8823SOL     OW27367   4.556   2.136   3.292
 8823SOL    HW127368   4.594   2.050   3.327
 8823SOL    HW227369   4.461   2.122   3.265
 8824SOL     OW27370   1.539   6.940   4.464
 8824SOL    HW127371   1.510   0.004   4.493
 8824SOL    HW227372   1.615   6.947   4.400
 8825SOL     OW27373   1.298   6.997   0.278
 8825SOL    HW127374   1.339   6.985   0.369
 8825SOL    HW227375   1.231   6.924   0.262
 8826SOL     OW27376   0.565   3.697   0.512
 8826SOL    HW127377   0.483   3.743   0.476
 8826SOL    HW227378   0.564   3.703   0.612
 8827SOL     OW27379   4.692   5.848   3.360
 8827SOL    HW127380   4.756   5.924   3.364
 8827SOL    HW227381   4.687   5.804   3.449
 8828SOL     OW27382   5.179   2.190   5.278
 8828SOL    HW127383   5.256   2.197   5.342
 8828SOL    HW227384   5.208   2.220   5.187
 8829SOL     OW27385   6.153   1.107   2.904
 8829SOL    HW127386   6.089   1.037   2.936
 8829SOL    HW227387   6.181   1.085   2.810
 8830SOL     OW27388   3.238   0.812   2.830
 8830SOL    HW127389   3.312   0.786   2.769
 8830SOL    HW227390   3.201   0.901   2.803
 8831SOL     OW27391   0.685   2.855   2.636
 8831SOL    HW127392   0.696   2.954   2.648
 8831SOL    HW227393   0.762   2.819   2.583
 8832SOL     OW27394   6.100   0.154   5.083
 8832SOL    HW127395   6.043   0.153   5.001
 8832SOL    HW227396   6.044   0.180   5.162
 8833SOL     OW27397   4.742   2.986   0.953
 8833SOL    HW127398   4.826   2.961   1.001
 8833SOL    HW227399   4.728   3.085   0.957
 8834SOL     OW27400   5.628   4.390   6.059
 8834SOL    HW127401   5.588   4.458   6.121
 8834SOL    HW227402   5.726   4.407   6.051
 8835SOL     OW27403   6.502   0.893   5.191
 8835SOL    HW127404   6.475   0.864   5.099
 8835SOL    HW227405   6.582   0.952   5.186
 8836SOL     OW27406   4.151   1.744   1.339
 8836SOL    HW127407   4.211   1.668   1.367
 8836SOL    HW227408   4.077   1.708   1.283
 8837SOL     OW27409   5.027   4.965   0.306
 8837SOL    HW127410   5.001   4.921   0.392
 8837SOL    HW227411   4.955   4.951   0.238
 8838SOL     OW27412   2.141   4.049   2.576
 8838SOL    HW127413   2.078   4.064   2.653
 8838SOL    HW227414   2.202   4.128   2.567
 8839SOL     OW27415   4.628   4.712   1.449
 8839SOL    HW127416   4.578   4.647   1.392
 8839SOL    HW227417   4.582   4.721   1.537
 8840SOL     OW27418   0.249   0.419   1.744
 8840SOL    HW127419   0.186   0.400   1.819
 8840SOL    HW227420   0.197   0.435   1.660
 8841SOL     OW27421   3.901   1.619   0.798
 8841SOL    HW127422   3.984   1.580   0.839
 8841SOL    HW227423   3.846   1.546   0.758
 8842SOL     OW27424   3.350   3.202   3.811
 8842SOL    HW127425   3.362   3.266   3.736
 8842SOL    HW227426   3.261   3.156   3.803
 8843SOL     OW27427   2.752   6.024   5.285
 8843SOL    HW127428   2.692   6.079   5.343
 8843SOL    HW227429   2.847   6.045   5.305
 8844SOL     OW27430   4.174   3.053   5.352
 8844SOL    HW127431   4.124   2.968   5.336
 8844SOL    HW227432   4.168   3.078   5.449
 8845SOL     OW27433   0.969   3.404   2.293
 8845SOL    HW127434   1.031   3.347   2.239
 8845SOL    HW227435   0.891   3.430   2.236
 8846SOL     OW27436   5.979   5.352   4.283
 8846SOL    HW127437   6.005   5.260   4.311
 8846SOL    HW227438   5.982   5.358   4.183
 8847SOL     OW27439   0.794   2.158   3.922
 8847SOL    HW127440   0.694   2.164   3.924
 8847SOL    HW227441   0.822   2.062   3.920
 8848SOL     OW27442   6.190   2.498   0.968
 8848SOL    HW127443   6.242   2.517   1.052
 8848SOL    HW227444   6.096   2.474   0.993
 8849SOL     OW27445   3.161   5.241   4.455
 8849SOL    HW127446   3.072   5.216   4.415
 8849SOL    HW227447   3.147   5.273   4.548
 8850SOL     OW27448   3.874   2.334   0.892
 8850SOL    HW127449   3.974   2.341   0.899
 8850SOL    HW227450   3.837   2.297   0.978
 8851SOL     OW27451   0.151   5.286   3.043
 8851SOL    HW127452   0.092   5.326   2.973
 8851SOL    HW227453   0.096   5.261   3.122
 8852SOL     OW27454   5.199   3.687   4.932
 8852SOL    HW127455   5.206   3.786   4.921
 8852SOL    HW227456   5.248   3.641   4.858
 8853SOL     OW27457   4.838   1.718   4.725
 8853SOL    HW127458   4.846   1.641   4.789
 8853SOL    HW227459   4.792   1.687   4.641
 8854SOL     OW27460   3.096   0.948   5.886
 8854SOL    HW127461   3.114   0.984   5.978
 8854SOL    HW227462   3.000   0.963   5.863
 8855SOL     OW27463   5.952   4.949   5.931
 8855SOL    HW127464   6.001   4.869   5.966
 8855SOL    HW227465   5.868   4.919   5.886
 8856SOL     OW27466   5.400   1.533   5.343
 8856SOL    HW127467   5.394   1.617   5.289
 8856SOL    HW227468   5.320   1.527   5.403
 8857SOL     OW27469   2.012   3.427   4.239
 8857SOL    HW127470   2.052   3.492   4.175
 8857SOL    HW227471   2.053   3.439   4.329
 8858SOL     OW27472   0.686   3.717   5.640
 8858SOL    HW127473   0.666   3.752   5.732
 8858SOL    HW227474   0.736   3.631   5.648
 8859SOL     OW27475   2.442   6.877   5.344
 8859SOL    HW127476   2.531   6.887   5.300
 8859SOL    HW227477   2.452   6.823   5.428
 8860SOL     OW27478   1.983   1.420   1.470
 8860SOL    HW127479   1.975   1.375   1.381
 8860SOL    HW227480   1.999   1.518   1.456
 8861SOL     OW27481   1.872   2.251   0.410
 8861SOL    HW127482   1.930   2.320   0.455
 8861SOL    HW227483   1.906   2.234   0.318
 8862SOL     OW27484   0.087   2.318   4.689
 8862SOL    HW127485   7.019   2.332   4.659
 8862SOL    HW227486   0.105   2.373   4.770
 8863SOL     OW27487   2.292   5.665   5.193
 8863SOL    HW127488   2.227   5.737   5.168
 8863SOL    HW227489   2.378   5.679   5.144
 8864SOL     OW27490   1.827   4.754   5.811
 8864SOL    HW127491   1.812   4.836   5.866
 8864SOL    HW227492   1.897   4.697   5.854
 8865SOL     OW27493   3.020   2.141   5.633
 8865SOL    HW127494   3.012   2.241   5.638
 8865SOL    HW227495   3.096   2.116   5.573
 8866SOL     OW27496   4.818   0.368   5.334
 8866SOL    HW127497   4.783   0.275   5.340
 8866SOL    HW227498   4.868   0.391   5.417
 8867SOL     OW27499   6.163   0.865   3.178
 8867SOL    HW127500   6.102   0.794   3.143
 8867SOL    HW227501   6.111   0.929   3.235
 8868SOL     OW27502   5.783   3.402   0.709
 8868SOL    HW127503   5.750   3.496   0.714
 8868SOL    HW227504   5.834   3.389   0.624
 8869SOL     OW27505   3.151   1.779   3.187
 8869SOL    HW127506   3.117   1.819   3.102
 8869SOL    HW227507   3.077   1.728   3.232
 8870SOL     OW27508   5.139   0.522   1.776
 8870SOL    HW127509   5.171   0.455   1.842
 8870SOL    HW227510   5.053   0.490   1.735
 8871SOL     OW27511   1.223   2.209   3.666
 8871SOL    HW127512   1.275   2.255   3.594
 8871SOL    HW227513   1.188   2.278   3.730
 8872SOL     OW27514   1.381   1.979   2.281
 8872SOL    HW127515   1.387   2.039   2.362
 8872SOL    HW227516   1.381   1.884   2.311
 8873SOL     OW27517   6.729   5.718   4.864
 8873SOL    HW127518   6.764   5.719   4.958
 8873SOL    HW227519   6.754   5.632   4.820
 8874SOL     OW27520   1.214   1.354   6.548
 8874SOL    HW127521   1.182   1.447   6.566
 8874SOL    HW227522   1.190   1.328   6.455
 8875SOL     OW27523   1.366   0.903   4.025
 8875SOL    HW127524   1.345   0.806   4.034
 8875SOL    HW227525   1.430   0.916   3.949
 8876SOL     OW27526   2.626   0.920   4.866
 8876SOL    HW127527   2.554   0.854   4.887
 8876SOL    HW227528   2.644   0.920   4.768
 8877SOL     OW27529   3.275   6.886   4.362
 8877SOL    HW127530   3.253   6.811   4.299
 8877SOL    HW227531   3.220   6.966   4.339
 8878SOL     OW27532   5.757   4.434   5.024
 8878SOL    HW127533   5.753   4.337   4.999
 8878SOL    HW227534   5.749   4.443   5.123
 8879SOL     OW27535   4.970   5.501   4.289
 8879SOL    HW127536   4.943   5.547   4.373
 8879SOL    HW227537   4.937   5.552   4.210
 8880SOL     OW27538   1.226   6.538   5.292
 8880SOL    HW127539   1.204   6.522   5.388
 8880SOL    HW227540   1.144   6.568   5.243
 8881SOL     OW27541   6.998   2.077   2.681
 8881SOL    HW127542   6.917   2.037   2.724
 8881SOL    HW227543   0.043   2.009   2.674
 8882SOL     OW27544   5.522   3.067   0.282
 8882SOL    HW127545   5.596   3.008   0.314
 8882SOL    HW227546   5.559   3.151   0.243
 8883SOL     OW27547   5.730   1.257   5.470
 8883SOL    HW127548   5.775   1.264   5.559
 8883SOL    HW227549   5.784   1.199   5.410
 8884SOL     OW27550   0.066   1.234   6.494
 8884SOL    HW127551   0.075   1.327   6.529
 8884SOL    HW227552   0.132   1.175   6.539
 8885SOL     OW27553   5.628   3.756   1.249
 8885SOL    HW127554   5.575   3.700   1.313
 8885SOL    HW227555   5.673   3.830   1.299
 8886SOL     OW27556   2.933   5.691   5.996
 8886SOL    HW127557   2.923   5.789   5.983
 8886SOL    HW227558   3.030   5.669   6.011
 8887SOL     OW27559   1.498   1.554   1.161
 8887SOL    HW127560   1.425   1.523   1.100
 8887SOL    HW227561   1.505   1.493   1.240
 8888SOL     OW27562   2.752   1.941   2.946
 8888SOL    HW127563   2.759   1.957   3.044
 8888SOL    HW227564   2.831   1.888   2.915
 8889SOL     OW27565   3.480   1.136   4.038
 8889SOL    HW127566   3.421   1.185   4.101
 8889SOL    HW227567   3.574   1.136   4.074
 8890SOL     OW27568   7.001   4.950   3.474
 8890SOL    HW127569   0.050   5.014   3.463
 8890SOL    HW227570   7.018   4.869   3.417
 8891SOL     OW27571   3.204   1.308   6.163
 8891SOL    HW127572   3.261   1.368   6.108
 8891SOL    HW227573   3.204   1.339   6.258
 8892SOL     OW27574   1.174   0.051   2.888
 8892SOL    HW127575   1.263   0.060   2.935
 8892SOL    HW227576   1.129   6.994   2.920
 8893SOL     OW27577   0.508   1.211   0.806
 8893SOL    HW127578   0.416   1.210   0.766
 8893SOL    HW227579   0.572   1.168   0.742
 8894SOL     OW27580   4.804   2.332   6.141
 8894SOL    HW127581   4.877   2.266   6.159
 8894SOL    HW227582   4.735   2.326   6.213
 8895SOL     OW27583   1.833   1.376   3.030
 8895SOL    HW127584   1.831   1.384   2.930
 8895SOL    HW227585   1.820   1.466   3.071
 8896SOL     OW27586   2.022   4.468   5.271
 8896SOL    HW127587   2.056   4.388   5.222
 8896SOL    HW227588   1.928   4.486   5.244
 8897SOL     OW27589   1.029   2.433   1.908
 8897SOL    HW127590   0.990   2.525   1.915
 8897SOL    HW227591   1.101   2.434   1.838
 8898SOL     OW27592   0.152   2.706   5.128
 8898SOL    HW127593   0.222   2.769   5.094
 8898SOL    HW227594   0.189   2.652   5.203
 8899SOL     OW27595   3.281   5.214   1.605
 8899SOL    HW127596   3.206   5.228   1.668
 8899SOL    HW227597   3.329   5.301   1.591
 8900SOL     OW27598   6.834   1.870   3.712
 8900SOL    HW127599   6.920   1.885   3.663
 8900SOL    HW227600   6.779   1.954   3.709
 8901SOL     OW27601   1.871   7.025   1.685
 8901SOL    HW127602   1.788   0.054   1.675
 8901SOL    HW227603   1.951   0.054   1.661
 8902SOL     OW27604   3.820   6.355   5.628
 8902SOL    HW127605   3.755   6.341   5.552
 8902SOL    HW227606   3.873   6.438   5.611
 8903SOL     OW27607   6.794   0.718   2.814
 8903SOL    HW127608   6.826   0.713   2.909
 8903SOL    HW227609   6.725   0.790   2.806
 8904SOL     OW27610   0.942   4.557   3.490
 8904SOL    HW127611   0.914   4.461   3.485
 8904SOL    HW227612   0.932   4.589   3.584
 8905SOL     OW27613   2.315   4.307   4.901
 8905SOL    HW127614   2.346   4.367   4.976
 8905SOL    HW227615   2.346   4.214   4.919
 8906SOL     OW27616   2.281   5.451   4.738
 8906SOL    HW127617   2.306   5.378   4.801
 8906SOL    HW227618   2.258   5.412   4.649
 8907SOL     OW27619   3.643   2.550   6.676
 8907SOL    HW127620   3.610   2.611   6.748
 8907SOL    HW227621   3.694   2.603   6.609
 8908SOL     OW27622   0.837   3.180   2.798
 8908SOL    HW127623   0.797   3.103   2.849
 8908SOL    HW227624   0.863   3.252   2.862
 8909SOL     OW27625   3.410   7.017   5.419
 8909SOL    HW127626   3.333   7.008   5.482
 8909SOL    HW227627   3.380   6.998   5.326
 8910SOL     OW27628   4.273   2.718   0.395
 8910SOL    HW127629   4.318   2.807   0.383
 8910SOL    HW227630   4.198   2.727   0.460
 8911SOL     OW27631   5.189   2.558   3.836
 8911SOL    HW127632   5.189   2.534   3.933
 8911SOL    HW227633   5.115   2.624   3.818
 8912SOL     OW27634   4.613   1.028   6.594
 8912SOL    HW127635   4.678   0.998   6.664
 8912SOL    HW227636   4.557   0.950   6.565
 8913SOL     OW27637   4.508   3.986   0.965
 8913SOL    HW127638   4.465   4.022   0.883
 8913SOL    HW227639   4.540   4.062   1.022
 8914SOL     OW27640   4.943   2.639   4.065
 8914SOL    HW127641   4.990   2.606   4.147
 8914SOL    HW227642   4.921   2.562   4.005
 8915SOL     OW27643   0.728   5.225   2.308
 8915SOL    HW127644   0.780   5.302   2.345
 8915SOL    HW227645   0.637   5.257   2.281
 8916SOL     OW27646   5.988   3.384   2.213
 8916SOL    HW127647   6.003   3.287   2.195
 8916SOL    HW227648   5.917   3.394   2.283
 8917SOL     OW27649   5.475   4.441   5.329
 8917SOL    HW127650   5.445   4.536   5.317
 8917SOL    HW227651   5.575   4.437   5.323
 8918SOL     OW27652   4.929   3.898   6.138
 8918SOL    HW127653   4.831   3.879   6.141
 8918SOL    HW227654   4.974   3.835   6.075
 8919SOL     OW27655   2.163   3.431   1.599
 8919SOL    HW127656   2.238   3.386   1.551
 8919SOL    HW227657   2.135   3.375   1.677
 8920SOL     OW27658   6.595   5.408   5.856
 8920SOL    HW127659   6.695   5.398   5.852
 8920SOL    HW227660   6.560   5.358   5.935
 8921SOL     OW27661   0.959   5.615   3.851
 8921SOL    HW127662   1.023   5.591   3.924
 8921SOL    HW227663   1.003   5.675   3.786
 8922SOL     OW27664   0.069   3.395   6.481
 8922SOL    HW127665   0.111   3.466   6.537
 8922SOL    HW227666   0.109   3.395   6.390
 8923SOL     OW27667   2.676   4.637   4.497
 8923SOL    HW127668   2.733   4.630   4.579
 8923SOL    HW227669   2.685   4.554   4.442
 8924SOL     OW27670   2.095   6.515   4.627
 8924SOL    HW127671   2.100   6.439   4.693
 8924SOL    HW227672   2.006   6.560   4.635
 8925SOL     OW27673   4.462   5.473   1.137
 8925SOL    HW127674   4.421   5.546   1.082
 8925SOL    HW227675   4.406   5.390   1.130
 8926SOL     OW27676   5.683   0.131   6.826
 8926SOL    HW127677   5.723   0.223   6.825
 8926SOL    HW227678   5.755   0.063   6.816
 8927SOL     OW27679   2.627   1.823   4.620
 8927SOL    HW127680   2.531   1.800   4.634
 8927SOL    HW227681   2.668   1.850   4.707
 8928SOL     OW27682   0.869   0.464   5.323
 8928SOL    HW127683   0.858   0.543   5.384
 8928SOL    HW227684   0.914   0.390   5.373
 8929SOL     OW27685   5.169   4.184   3.351
 8929SOL    HW127686   5.113   4.267   3.347
 8929SOL    HW227687   5.119   4.112   3.400
 8930SOL     OW27688   0.156   5.814   5.188
 8930SOL    HW127689   0.242   5.803   5.138
 8930SOL    HW227690   0.159   5.897   5.242
 8931SOL     OW27691   4.595   1.137   1.627
 8931SOL    HW127692   4.619   1.189   1.709
 8931SOL    HW227693   4.675   1.131   1.567
 8932SOL     OW27694   4.843   0.843   0.470
 8932SOL    HW127695   4.815   0.753   0.437
 8932SOL    HW227696   4.773   0.879   0.531
 8933SOL     OW27697   1.687   6.907   5.241
 8933SOL    HW127698   1.686   6.866   5.332
 8933SOL    HW227699   1.696   6.836   5.171
 8934SOL     OW27700   3.802   6.590   3.924
 8934SOL    HW127701   3.896   6.609   3.953
 8934SOL    HW227702   3.771   6.505   3.965
 8935SOL     OW27703   5.862   1.833   2.981
 8935SOL    HW127704   5.875   1.904   3.050
 8935SOL    HW227705   5.933   1.840   2.911
 8936SOL     OW27706   1.435   4.074   2.147
 8936SOL    HW127707   1.470   4.154   2.097
 8936SOL    HW227708   1.463   4.080   2.243
 8937SOL     OW27709   3.194   6.846   4.985
 8937SOL    HW127710   3.140   6.929   4.994
 8937SOL    HW227711   3.209   6.826   4.888
 8938SOL     OW27712   5.407   6.500   1.776
 8938SOL    HW127713   5.437   6.560   1.701
 8938SOL    HW227714   5.467   6.420   1.780
 8939SOL     OW27715   6.810   2.702   4.422
 8939SOL    HW127716   6.742   2.670   4.489
 8939SOL    HW227717   6.781   2.790   4.385
 8940SOL     OW27718   6.451   3.631   2.266
 8940SOL    HW127719   6.501   3.569   2.327
 8940SOL    HW227720   6.353   3.621   2.282
 8941SOL     OW27721   5.736   2.470   3.503
 8941SOL    HW127722   5.655   2.493   3.448
 8941SOL    HW227723   5.758   2.373   3.491
 8942SOL     OW27724   4.422   5.029   3.832
 8942SOL    HW127725   4.461   5.026   3.924
 8942SOL    HW227726   4.398   5.123   3.809
 8943SOL     OW27727   4.144   3.614   0.515
 8943SOL    HW127728   4.075   3.677   0.549
 8943SOL    HW227729   4.165   3.546   0.585
 8944SOL     OW27730   4.779   6.380   4.946
 8944SOL    HW127731   4.878   6.386   4.935
 8944SOL    HW227732   4.757   6.352   5.040
 8945SOL     OW27733   6.569   4.589   1.397
 8945SOL    HW127734   6.523   4.502   1.379
 8945SOL    HW227735   6.624   4.615   1.318
 8946SOL     OW27736   3.679   1.381   4.558
 8946SOL    HW127737   3.582   1.369   4.538
 8946SOL    HW227738   3.734   1.327   4.495
 8947SOL     OW27739   2.497   5.200   0.501
 8947SOL    HW127740   2.505   5.293   0.466
 8947SOL    HW227741   2.422   5.153   0.455
 8948SOL     OW27742   5.411   0.331   2.630
 8948SOL    HW127743   5.421   0.403   2.699
 8948SOL    HW227744   5.482   0.342   2.561
 8949SOL     OW27745   3.947   6.564   0.967
 8949SOL    HW127746   4.040   6.593   0.989
 8949SOL    HW227747   3.950   6.480   0.912
 8950SOL     OW27748   3.607   4.180   3.418
 8950SOL    HW127749   3.685   4.118   3.421
 8950SOL    HW227750   3.580   4.205   3.511
 8951SOL     OW27751   0.461   0.543   3.724
 8951SOL    HW127752   0.541   0.599   3.743
 8951SOL    HW227753   0.442   0.543   3.626
 8952SOL     OW27754   1.585   3.899   4.821
 8952SOL    HW127755   1.605   3.846   4.903
 8952SOL    HW227756   1.616   3.848   4.740
 8953SOL     OW27757   0.292   5.122   0.778
 8953SOL    HW127758   0.289   5.206   0.725
 8953SOL    HW227759   0.199   5.084   0.785
 8954SOL     OW27760   2.418   4.462   5.567
 8954SOL    HW127761   2.382   4.474   5.474
 8954SOL    HW227762   2.487   4.390   5.567
 8955SOL     OW27763   6.018   3.162   6.046
 8955SOL    HW127764   6.050   3.098   5.977
 8955SOL    HW227765   6.091   3.229   6.065
 8956SOL     OW27766   0.953   6.279   0.870
 8956SOL    HW127767   0.885   6.260   0.941
 8956SOL    HW227768   0.958   6.201   0.807
 8957SOL     OW27769   1.116   0.124   3.563
 8957SOL    HW127770   1.134   0.222   3.567
 8957SOL    HW227771   1.163   0.078   3.638
 8958SOL     OW27772   6.814   3.555   4.841
 8958SOL    HW127773   6.753   3.618   4.888
 8958SOL    HW227774   6.826   3.472   4.895
 8959SOL     OW27775   5.082   1.428   4.086
 8959SOL    HW127776   5.147   1.401   4.156
 8959SOL    HW227777   4.990   1.433   4.127
 8960SOL     OW27778   5.223   5.219   2.657
 8960SOL    HW127779   5.167   5.216   2.574
 8960SOL    HW227780   5.300   5.155   2.647
 8961SOL     OW27781   2.443   1.827   5.503
 8961SOL    HW127782   2.497   1.761   5.556
 8961SOL    HW227783   2.430   1.910   5.557
 8962SOL     OW27784   6.969   6.391   1.808
 8962SOL    HW127785   6.985   6.303   1.853
 8962SOL    HW227786   6.993   6.465   1.871
 8963SOL     OW27787   2.063   5.743   5.855
 8963SOL    HW127788   2.137   5.725   5.920
 8963SOL    HW227789   2.099   5.793   5.776
 8964SOL     OW27790   0.957   2.610   3.799
 8964SOL    HW127791   1.011   2.694   3.808
 8964SOL    HW227792   1.015   2.531   3.819
 8965SOL     OW27793   3.614   5.891   0.326
 8965SOL    HW127794   3.560   5.898   0.410
 8965SOL    HW227795   3.616   5.795   0.296
 8966SOL     OW27796   4.699   0.123   5.491
 8966SOL    HW127797   4.614   0.075   5.515
 8966SOL    HW227798   4.741   0.159   5.574
 8967SOL     OW27799   2.730   0.520   3.091
 8967SOL    HW127800   2.676   0.497   3.010
 8967SOL    HW227801   2.809   0.459   3.096
 8968SOL     OW27802   2.950   5.438   2.729
 8968SOL    HW127803   3.046   5.422   2.704
 8968SOL    HW227804   2.892   5.421   2.650
 8969SOL     OW27805   0.040   0.710   2.766
 8969SOL    HW127806   0.072   0.693   2.673
 8969SOL    HW227807   6.968   0.698   2.770
 8970SOL     OW27808   2.106   1.749   4.254
 8970SOL    HW127809   2.099   1.657   4.291
 8970SOL    HW227810   2.071   1.751   4.161
 8971SOL     OW27811   3.222   4.648   1.194
 8971SOL    HW127812   3.269   4.731   1.162
 8971SOL    HW227813   3.147   4.674   1.255
 8972SOL     OW27814   6.179   3.987   6.242
 8972SOL    HW127815   6.191   4.007   6.339
 8972SOL    HW227816   6.145   3.894   6.231
 8973SOL     OW27817   2.681   1.835   3.867
 8973SOL    HW127818   2.775   1.861   3.844
 8973SOL    HW227819   2.661   1.863   3.961
 8974SOL     OW27820   1.690   4.761   5.419
 8974SOL    HW127821   1.698   4.839   5.480
 8974SOL    HW227822   1.754   4.689   5.448
 8975SOL     OW27823   0.607   3.640   6.301
 8975SOL    HW127824   0.552   3.696   6.238
 8975SOL    HW227825   0.550   3.566   6.338
 8976SOL     OW27826   6.297   0.225   1.679
 8976SOL    HW127827   6.299   0.285   1.758
 8976SOL    HW227828   6.213   0.241   1.626
 8977SOL     OW27829   0.470   5.079   5.950
 8977SOL    HW127830   0.518   5.028   5.878
 8977SOL    HW227831   0.390   5.124   5.911
 8978SOL     OW27832   6.662   5.168   5.370
 8978SOL    HW127833   6.649   5.208   5.461
 8978SOL    HW227834   6.673   5.241   5.303
 8979SOL     OW27835   1.566   4.488   3.978
 8979SOL    HW127836   1.628   4.505   4.054
 8979SOL    HW227837   1.561   4.389   3.960
 8980SOL     OW27838   4.419   0.958   0.823
 8980SOL    HW127839   4.438   1.052   0.850
 8980SOL    HW227840   4.479   0.895   0.873
 8981SOL     OW27841   4.150   2.057   0.030
 8981SOL    HW127842   4.096   2.060   0.115
 8981SOL    HW227843   4.228   2.119   0.039
 8982SOL     OW27844   0.460   1.127   2.416
 8982SOL    HW127845   0.540   1.154   2.470
 8982SOL    HW227846   0.491   1.083   2.331
 8983SOL     OW27847   1.262   6.391   2.561
 8983SOL    HW127848   1.250   6.474   2.615
 8983SOL    HW227849   1.173   6.356   2.533
 8984SOL     OW27850   6.251   0.954   3.701
 8984SOL    HW127851   6.312   0.887   3.744
 8984SOL    HW227852   6.232   1.028   3.765
 8985SOL     OW27853   4.942   0.168   2.136
 8985SOL    HW127854   4.985   0.097   2.191
 8985SOL    HW227855   4.871   0.128   2.079
 8986SOL     OW27856   0.705   6.473   6.764
 8986SOL    HW127857   0.655   6.479   6.678
 8986SOL    HW227858   0.756   6.558   6.779
 8987SOL     OW27859   3.241   6.174   2.394
 8987SOL    HW127860   3.237   6.136   2.301
 8987SOL    HW227861   3.252   6.273   2.389
 8988SOL     OW27862   2.279   0.195   0.653
 8988SOL    HW127863   2.205   0.234   0.599
 8988SOL    HW227864   2.319   0.267   0.711
 8989SOL     OW27865   5.942   0.899   1.889
 8989SOL    HW127866   5.947   0.902   1.988
 8989SOL    HW227867   6.034   0.907   1.850
 8990SOL     OW27868   3.667   1.221   2.431
 8990SOL    HW127869   3.704   1.305   2.391
 8990SOL    HW227870   3.574   1.207   2.400
 8991SOL     OW27871   1.063   2.036   0.867
 8991SOL    HW127872   1.127   2.100   0.910
 8991SOL    HW227873   1.079   1.944   0.903
 8992SOL     OW27874   0.558   5.296   5.755
 8992SOL    HW127875   0.631   5.237   5.787
 8992SOL    HW227876   0.474   5.242   5.744
 8993SOL     OW27877   5.136   4.042   3.929
 8993SOL    HW127878   5.233   4.044   3.908
 8993SOL    HW227879   5.123   4.048   4.028
 8994SOL     OW27880   1.752   6.081   1.992
 8994SOL    HW127881   1.711   6.080   2.083
 8994SOL    HW227882   1.709   6.154   1.938
 8995SOL     OW27883   2.098   3.924   3.554
 8995SOL    HW127884   2.160   4.002   3.551
 8995SOL    HW227885   2.114   3.866   3.474
 8996SOL     OW27886   2.685   3.974   1.262
 8996SOL    HW127887   2.647   3.901   1.205
 8996SOL    HW227888   2.741   3.935   1.335
 8997SOL     OW27889   4.393   1.524   4.868
 8997SOL    HW127890   4.367   1.571   4.953
 8997SOL    HW227891   4.486   1.489   4.876
 8998SOL     OW27892   0.603   1.537   6.742
 8998SOL    HW127893   0.695   1.569   6.721
 8998SOL    HW227894   0.603   1.493   6.832
 8999SOL     OW27895   5.799   2.972   5.748
 8999SOL    HW127896   5.797   2.976   5.848
 8999SOL    HW227897   5.733   2.904   5.716
 9000SOL     OW27898   4.587   4.531   1.248
 9000SOL    HW127899   4.601   4.531   1.149
 9000SOL    HW227900   4.624   4.447   1.287
 9001SOL     OW27901   0.907   3.557   3.884
 9001SOL    HW127902   0.915   3.522   3.791
 9001SOL    HW227903   0.912   3.481   3.949
 9002SOL     OW27904   5.166   2.724   5.504
 9002SOL    HW127905   5.069   2.709   5.527
 9002SOL    HW227906   5.182   2.697   5.409
 9003SOL     OW27907   6.803   2.805   6.792
 9003SOL    HW127908   6.730   2.862   6.831
 9003SOL    HW227909   6.840   2.849   6.711
 9004SOL     OW27910   5.034   5.640   0.432
 9004SOL    HW127911   5.056   5.625   0.335
 9004SOL    HW227912   4.948   5.594   0.453
 9005SOL     OW27913   5.020   3.337   3.774
 9005SOL    HW127914   4.937   3.287   3.799
 9005SOL    HW227915   4.997   3.411   3.711
 9006SOL     OW27916   3.064   6.661   2.054
 9006SOL    HW127917   2.983   6.663   2.112
 9006SOL    HW227918   3.059   6.734   1.986
 9007SOL     OW27919   1.553   6.372   5.493
 9007SOL    HW127920   1.477   6.403   5.551
 9007SOL    HW227921   1.539   6.406   5.400
 9008SOL     OW27922   0.311   4.138   2.080
 9008SOL    HW127923   0.313   4.234   2.053
 9008SOL    HW227924   0.275   4.083   2.004
 9009SOL     OW27925   4.132   6.431   6.948
 9009SOL    HW127926   4.163   6.522   6.975
 9009SOL    HW227927   4.032   6.431   6.941
 9010SOL     OW27928   6.810   5.850   4.478
 9010SOL    HW127929   6.908   5.861   4.464
 9010SOL    HW227930   6.789   5.754   4.496
 9011SOL     OW27931   4.499   2.549   1.913
 9011SOL    HW127932   4.583   2.504   1.880
 9011SOL    HW227933   4.486   2.634   1.863
 9012SOL     OW27934   4.215   5.054   2.446
 9012SOL    HW127935   4.149   4.981   2.433
 9012SOL    HW227936   4.307   5.016   2.454
 9013SOL     OW27937   4.299   5.945   1.716
 9013SOL    HW127938   4.398   5.931   1.717
 9013SOL    HW227939   4.276   6.021   1.777
 9014SOL     OW27940   2.478   1.029   2.017
 9014SOL    HW127941   2.394   1.047   1.966
 9014SOL    HW227942   2.470   1.067   2.109
 9015SOL     OW27943   6.505   2.286   4.646
 9015SOL    HW127944   6.549   2.360   4.596
 9015SOL    HW227945   6.420   2.320   4.687
 9016SOL     OW27946   0.228   6.081   6.812
 9016SOL    HW127947   0.222   6.180   6.826
 9016SOL    HW227948   0.246   6.062   6.715
 9017SOL     OW27949   6.551   3.274   3.155
 9017SOL    HW127950   6.595   3.275   3.066
 9017SOL    HW227951   6.609   3.321   3.222
 9018SOL     OW27952   4.598   1.400   6.570
 9018SOL    HW127953   4.514   1.366   6.529
 9018SOL    HW227954   4.577   1.439   6.660
 9019SOL     OW27955   1.766   5.313   0.041
 9019SOL    HW127956   1.810   5.224   0.034
 9019SOL    HW227957   1.768   5.358   6.978
 9020SOL     OW27958   0.752   4.795   4.738
 9020SOL    HW127959   0.777   4.784   4.641
 9020SOL    HW227960   0.831   4.774   4.795
 9021SOL     OW27961   6.341   5.491   5.753
 9021SOL    HW127962   6.292   5.422   5.700
 9021SOL    HW227963   6.425   5.452   5.789
 9022SOL     OW27964   2.284   6.996   5.980
 9022SOL    HW127965   2.316   7.015   6.072
 9022SOL    HW227966   2.347   6.931   5.936
 9023SOL     OW27967   3.512   4.147   4.046
 9023SOL    HW127968   3.609   4.151   4.027
 9023SOL    HW227969   3.495   4.082   4.121
 9024SOL     OW27970   1.152   0.056   6.633
 9024SOL    HW127971   1.220   7.012   6.613
 9024SOL    HW227972   1.182   0.143   6.595
 9025SOL     OW27973   0.061   3.062   0.188
 9025SOL    HW127974   0.007   2.983   0.156
 9025SOL    HW227975   0.052   3.071   0.287
 9026SOL     OW27976   2.689   3.216   5.490
 9026SOL    HW127977   2.652   3.197   5.581
 9026SOL    HW227978   2.647   3.298   5.452
 9027SOL     OW27979   1.700   3.389   2.556
 9027SOL    HW127980   1.626   3.453   2.534
 9027SOL    HW227981   1.702   3.374   2.655
 9028SOL     OW27982   2.305   4.644   4.937
 9028SOL    HW127983   2.232   4.581   4.963
 9028SOL    HW227984   2.279   4.692   4.853
 9029SOL     OW27985   5.779   4.902   2.510
 9029SOL    HW127986   5.752   4.892   2.605
 9029SOL    HW227987   5.743   4.988   2.474
 9030SOL     OW27988   4.526   2.604   3.135
 9030SOL    HW127989   4.526   2.586   3.234
 9030SOL    HW227990   4.457   2.548   3.091
 9031SOL     OW27991   2.542   1.353   2.091
 9031SOL    HW127992   2.550   1.347   1.991
 9031SOL    HW227993   2.608   1.291   2.133
 9032SOL     OW27994   0.327   3.062   2.284
 9032SOL    HW127995   0.424   3.054   2.307
 9032SOL    HW227996   0.274   3.002   2.344
 9033SOL     OW27997   1.368   3.568   3.028
 9033SOL    HW127998   1.360   3.611   2.938
 9033SOL    HW227999   1.309   3.615   3.093
 9034SOL     OW28000   1.804   6.946   6.951
 9034SOL    HW128001   1.760   6.857   6.961
 9034SOL    HW228002   1.784   7.003   0.005
 9035SOL     OW28003   6.335   1.069   4.228
 9035SOL    HW128004   6.415   1.129   4.217
 9035SOL    HW228005   6.327   1.010   4.148
 9036SOL     OW28006   0.667   1.182   4.849
 9036SOL    HW128007   0.602   1.112   4.819
 9036SOL    HW228008   0.692   1.240   4.772
 9037SOL     OW28009   2.459   4.165   5.989
 9037SOL    HW128010   2.453   4.113   6.073
 9037SOL    HW228011   2.380   4.226   5.982
 9038SOL     OW28012   4.604   5.180   5.446
 9038SOL    HW128013   4.605   5.146   5.352
 9038SOL    HW228014   4.634   5.275   5.447
 9039SOL     OW28015   2.640   4.844   7.020
 9039SOL    HW128016   2.651   4.757   0.041
 9039SOL    HW228017   2.726   4.870   6.976
 9040SOL     OW28018   2.941   0.988   2.495
 9040SOL    HW128019   2.893   1.075   2.508
 9040SOL    HW228020   3.016   0.981   2.561
 9041SOL     OW28021   2.159   2.679   5.990
 9041SOL    HW128022   2.137   2.600   5.932
 9041SOL    HW228023   2.191   2.754   5.933
 9042SOL     OW28024   1.633   5.618   2.490
 9042SOL    HW128025   1.540   5.599   2.459
 9042SOL    HW228026   1.680   5.531   2.510
 9043SOL     OW28027   0.297   1.797   6.893
 9043SOL    HW128028   0.322   1.893   6.908
 9043SOL    HW228029   0.219   1.792   6.830
 9044SOL     OW28030   0.675   4.277   0.341
 9044SOL    HW128031   0.612   4.212   0.383
 9044SOL    HW228032   0.700   4.245   0.250
 9045SOL     OW28033   2.271   4.826   4.713
 9045SOL    HW128034   2.241   4.914   4.678
 9045SOL    HW228035   2.305   4.770   4.638
 9046SOL     OW28036   3.584   4.237   6.383
 9046SOL    HW128037   3.632   4.161   6.427
 9046SOL    HW228038   3.646   4.315   6.375
 9047SOL     OW28039   0.938   3.956   4.262
 9047SOL    HW128040   0.956   3.863   4.228
 9047SOL    HW228041   0.863   3.954   4.327
 9048SOL     OW28042   1.492   2.697   5.058
 9048SOL    HW128043   1.487   2.797   5.066
 9048SOL    HW228044   1.587   2.668   5.056
 9049SOL     OW28045   4.903   6.373   5.941
 9049SOL    HW128046   4.917   6.294   5.881
 9049SOL    HW228047   4.808   6.374   5.973
 9050SOL     OW28048   6.835   4.425   6.100
 9050SOL    HW128049   6.899   4.442   6.176
 9050SOL    HW228050   6.775   4.504   6.090
 9051SOL     OW28051   6.169   6.451   6.460
 9051SOL    HW128052   6.233   6.396   6.513
 9051SOL    HW228053   6.118   6.512   6.522
 9052SOL     OW28054   2.663   5.176   4.956
 9052SOL    HW128055   2.594   5.239   4.920
 9052SOL    HW228056   2.746   5.183   4.901
 9053SOL     OW28057   2.617   1.229   3.022
 9053SOL    HW128058   2.615   1.280   2.937
 9053SOL    HW228059   2.535   1.248   3.075
 9054SOL     OW28060   1.568   7.005   1.324
 9054SOL    HW128061   1.505   0.056   1.320
 9054SOL    HW228062   1.525   6.930   1.375
 9055SOL     OW28063   1.356   2.613   4.829
 9055SOL    HW128064   1.403   2.637   4.914
 9055SOL    HW228065   1.418   2.628   4.752
 9056SOL     OW28066   5.019   2.477   1.510
 9056SOL    HW128067   5.052   2.452   1.601
 9056SOL    HW228068   5.096   2.487   1.448
 9057SOL     OW28069   3.702   6.913   6.778
 9057SOL    HW128070   3.634   6.844   6.753
 9057SOL    HW228071   3.761   6.877   6.850
 9058SOL     OW28072   2.793   2.174   4.158
 9058SOL    HW128073   2.892   2.189   4.157
 9058SOL    HW228074   2.747   2.249   4.110
 9059SOL     OW28075   6.859   0.638   2.240
 9059SOL    HW128076   6.928   0.662   2.172
 9059SOL    HW228077   6.850   0.538   2.245
 9060SOL     OW28078   6.580   5.289   0.698
 9060SOL    HW128079   6.544   5.337   0.778
 9060SOL    HW228080   6.594   5.192   0.720
 9061SOL     OW28081   4.695   4.223   2.169
 9061SOL    HW128082   4.634   4.217   2.090
 9061SOL    HW228083   4.759   4.147   2.168
 9062SOL     OW28084   0.128   5.623   3.042
 9062SOL    HW128085   0.114   5.580   3.131
 9062SOL    HW228086   0.070   5.704   3.034
 9063SOL     OW28087   4.975   0.163   1.114
 9063SOL    HW128088   4.929   0.100   1.052
 9063SOL    HW228089   4.964   0.257   1.081
 9064SOL     OW28090   1.273   5.659   3.055
 9064SOL    HW128091   1.175   5.653   3.035
 9064SOL    HW228092   1.287   5.644   3.153
 9065SOL     OW28093   3.327   4.116   6.888
 9065SOL    HW128094   3.425   4.128   6.871
 9065SOL    HW228095   3.315   4.048   6.961
 9066SOL     OW28096   5.250   4.769   3.574
 9066SOL    HW128097   5.238   4.682   3.526
 9066SOL    HW228098   5.161   4.810   3.590
 9067SOL     OW28099   2.202   6.721   4.126
 9067SOL    HW128100   2.258   6.781   4.068
 9067SOL    HW228101   2.124   6.773   4.161
 9068SOL     OW28102   4.778   0.207   6.040
 9068SOL    HW128103   4.750   0.302   6.052
 9068SOL    HW228104   4.697   0.150   6.027
 9069SOL     OW28105   5.130   2.431   1.785
 9069SOL    HW128106   5.072   2.403   1.862
 9069SOL    HW228107   5.158   2.526   1.798
 9070SOL     OW28108   1.514   0.791   6.297
 9070SOL    HW128109   1.486   0.885   6.313
 9070SOL    HW228110   1.575   0.787   6.218
 9071SOL     OW28111   4.865   2.710   6.658
 9071SOL    HW128112   4.904   2.694   6.567
 9071SOL    HW228113   4.917   2.658   6.726
 9072SOL     OW28114   6.312   0.786   2.122
 9072SOL    HW128115   6.339   0.854   2.190
 9072SOL    HW228116   6.221   0.751   2.144
 9073SOL     OW28117   4.682   2.637   6.018
 9073SOL    HW128118   4.717   2.624   6.111
 9073SOL    HW228119   4.692   2.551   5.967
 9074SOL     OW28120   2.224   1.013   3.883
 9074SOL    HW128121   2.302   1.042   3.827
 9074SOL    HW228122   2.165   1.091   3.900
 9075SOL     OW28123   5.139   5.631   0.689
 9075SOL    HW128124   5.200   5.577   0.631
 9075SOL    HW228125   5.075   5.682   0.632
 9076SOL     OW28126   1.539   5.804   2.670
 9076SOL    HW128127   1.486   5.741   2.726
 9076SOL    HW228128   1.594   5.753   2.605
 9077SOL     OW28129   6.053   1.376   6.463
 9077SOL    HW128130   6.118   1.340   6.396
 9077SOL    HW228131   6.102   1.406   6.544
 9078SOL     OW28132   4.970   6.581   0.349
 9078SOL    HW128133   4.981   6.582   0.448
 9078SOL    HW228134   4.883   6.625   0.325
 9079SOL     OW28135   1.417   1.312   6.723
 9079SOL    HW128136   1.353   1.300   6.799
 9079SOL    HW228137   1.370   1.294   6.636
 9080SOL     OW28138   6.428   4.359   1.394
 9080SOL    HW128139   6.441   4.307   1.478
 9080SOL    HW228140   6.332   4.354   1.366
 9081SOL     OW28141   5.245   1.491   0.466
 9081SOL    HW128142   5.217   1.440   0.384
 9081SOL    HW228143   5.171   1.552   0.494
 9082SOL     OW28144   3.522   4.689   6.692
 9082SOL    HW128145   3.428   4.689   6.659
 9082SOL    HW228146   3.553   4.595   6.704
 9083SOL     OW28147   4.005   0.818   0.714
 9083SOL    HW128148   4.012   0.912   0.746
 9083SOL    HW228149   3.923   0.807   0.659
 9084SOL     OW28150   6.635   4.577   4.474
 9084SOL    HW128151   6.590   4.571   4.562
 9084SOL    HW228152   6.585   4.521   4.407
 9085SOL     OW28153   2.742   4.456   1.095
 9085SOL    HW128154   2.700   4.460   1.185
 9085SOL    HW228155   2.738   4.362   1.061
 9086SOL     OW28156   6.850   2.400   0.626
 9086SOL    HW128157   6.752   2.381   0.635
 9086SOL    HW228158   6.862   2.482   0.570
 9087SOL     OW28159   5.107   1.250   1.547
 9087SOL    HW128160   5.104   1.216   1.641
 9087SOL    HW228161   5.120   1.174   1.484
 9088SOL     OW28162   5.667   6.231   6.790
 9088SOL    HW128163   5.735   6.174   6.836
 9088SOL    HW228164   5.710   6.278   6.713
 9089SOL     OW28165   5.402   4.992   2.648
 9089SOL    HW128166   5.381   4.902   2.609
 9089SOL    HW228167   5.483   4.987   2.706
 9090SOL     OW28168   6.394   5.670   5.319
 9090SOL    HW128169   6.398   5.573   5.295
 9090SOL    HW228170   6.314   5.712   5.278
 9091SOL     OW28171   2.846   2.075   1.804
 9091SOL    HW128172   2.931   2.095   1.755
 9091SOL    HW228173   2.798   2.161   1.823
 9092SOL     OW28174   2.756   1.799   5.270
 9092SOL    HW128175   2.674   1.834   5.224
 9092SOL    HW228176   2.775   1.707   5.238
 9093SOL     OW28177   2.086   3.604   0.222
 9093SOL    HW128178   2.014   3.541   0.193
 9093SOL    HW228179   2.169   3.553   0.244
 9094SOL     OW28180   6.446   2.792   0.638
 9094SOL    HW128181   6.545   2.781   0.630
 9094SOL    HW228182   6.408   2.714   0.687
 9095SOL     OW28183   1.700   2.780   6.825
 9095SOL    HW128184   1.691   2.743   6.917
 9095SOL    HW228185   1.620   2.836   6.803
 9096SOL     OW28186   6.693   4.692   2.979
 9096SOL    HW128187   6.664   4.690   3.074
 9096SOL    HW228188   6.614   4.675   2.920
 9097SOL     OW28189   6.558   6.013   5.864
 9097SOL    HW128190   6.639   6.066   5.842
 9097SOL    HW228191   6.573   5.916   5.844
 9098SOL     OW28192   3.699   3.480   5.017
 9098SOL    HW128193   3.708   3.574   5.048
 9098SOL    HW228194   3.647   3.427   5.085
 9099SOL     OW28195   1.648   2.479   6.487
 9099SOL    HW128196   1.605   2.485   6.577
 9099SOL    HW228197   1.688   2.388   6.475
 9100SOL     OW28198   1.478   3.081   0.329
 9100SOL    HW128199   1.379   3.070   0.327
 9100SOL    HW228200   1.501   3.175   0.353
 9101SOL     OW28201   1.929   2.548   6.794
 9101SOL    HW128202   1.880   2.592   6.719
 9101SOL    HW228203   2.024   2.531   6.766
 9102SOL     OW28204   4.805   6.471   1.951
 9102SOL    HW128205   4.814   6.374   1.972
 9102SOL    HW228206   4.709   6.499   1.963
 9103SOL     OW28207   0.754   4.192   6.344
 9103SOL    HW128208   0.846   4.230   6.356
 9103SOL    HW228209   0.759   4.092   6.341
 9104SOL     OW28210   5.088   0.200   2.923
 9104SOL    HW128211   5.045   0.180   2.835
 9104SOL    HW228212   5.114   0.296   2.927
 9105SOL     OW28213   2.994   1.761   6.391
 9105SOL    HW128214   2.997   1.861   6.395
 9105SOL    HW228215   3.086   1.725   6.404
 9106SOL     OW28216   6.234   5.485   2.124
 9106SOL    HW128217   6.227   5.510   2.220
 9106SOL    HW228218   6.303   5.542   2.080
 9107SOL     OW28219   4.969   6.334   6.570
 9107SOL    HW128220   5.046   6.312   6.510
 9107SOL    HW228221   4.999   6.327   6.666
 9108SOL     OW28222   3.476   6.078   0.147
 9108SOL    HW128223   3.478   5.987   0.188
 9108SOL    HW228224   3.411   6.078   0.071
 9109SOL     OW28225   3.173   1.385   3.933
 9109SOL    HW128226   3.185   1.327   3.852
 9109SOL    HW228227   3.154   1.479   3.904
 9110SOL     OW28228   1.389   3.703   3.377
 9110SOL    HW128229   1.322   3.671   3.311
 9110SOL    HW228230   1.434   3.785   3.342
 9111SOL     OW28231   4.253   3.660   1.489
 9111SOL    HW128232   4.335   3.664   1.432
 9111SOL    HW228233   4.221   3.753   1.507
 9112SOL     OW28234   1.126   5.610   2.126
 9112SOL    HW128235   1.074   5.637   2.206
 9112SOL    HW228236   1.174   5.689   2.089
 9113SOL     OW28237   2.915   5.540   6.800
 9113SOL    HW128238   2.906   5.585   6.712
 9113SOL    HW228239   2.825   5.509   6.831
 9114SOL     OW28240   2.623   3.652   1.586
 9114SOL    HW128241   2.530   3.687   1.581
 9114SOL    HW228242   2.626   3.574   1.648
 9115SOL     OW28243   1.994   4.226   4.794
 9115SOL    HW128244   2.040   4.288   4.857
 9115SOL    HW228245   2.057   4.201   4.720
 9116SOL     OW28246   2.286   1.906   6.426
 9116SOL    HW128247   2.256   2.001   6.437
 9116SOL    HW228248   2.384   1.903   6.407
 9117SOL     OW28249   0.152   3.553   0.065
 9117SOL    HW128250   0.077   3.602   0.020
 9117SOL    HW228251   0.180   3.604   0.146
 9118SOL     OW28252   0.813   6.134   1.259
 9118SOL    HW128253   0.797   6.144   1.160
 9118SOL    HW228254   0.748   6.067   1.296
 9119SOL     OW28255   6.219   0.334   1.144
 9119SOL    HW128256   6.250   0.304   1.054
 9119SOL    HW228257   6.277   0.294   1.215
 9120SOL     OW28258   6.123   0.716   6.744
 9120SOL    HW128259   6.122   0.620   6.719
 9120SOL    HW228260   6.035   0.742   6.784
 9121SOL     OW28261   1.640   1.821   6.465
 9121SOL    HW128262   1.569   1.766   6.508
 9121SOL    HW228263   1.714   1.761   6.434
 9122SOL     OW28264   1.252   2.433   1.266
 9122SOL    HW128265   1.221   2.458   1.174
 9122SOL    HW228266   1.175   2.436   1.329
 9123SOL     OW28267   2.424   6.726   6.809
 9123SOL    HW128268   2.455   6.776   6.890
 9123SOL    HW228269   2.470   6.637   6.806
 9124SOL     OW28270   6.569   4.694   5.720
 9124SOL    HW128271   6.493   4.740   5.767
 9124SOL    HW228272   6.559   4.595   5.731
 9125SOL     OW28273   4.878   5.796   0.871
 9125SOL    HW128274   4.792   5.797   0.923
 9125SOL    HW228275   4.950   5.757   0.927
 9126SOL     OW28276   5.992   6.718   2.916
 9126SOL    HW128277   6.050   6.697   2.837
 9126SOL    HW228278   5.932   6.640   2.935
 9127SOL     OW28279   5.614   5.750   5.845
 9127SOL    HW128280   5.622   5.678   5.776
 9127SOL    HW228281   5.578   5.711   5.929
 9128SOL     OW28282   4.753   2.327   5.439
 9128SOL    HW128283   4.671   2.274   5.417
 9128SOL    HW228284   4.742   2.370   5.528
 9129SOL     OW28285   2.141   1.883   6.983
 9129SOL    HW128286   2.154   1.932   6.898
 9129SOL    HW228287   2.051   1.840   6.984
 9130SOL     OW28288   6.295   5.949   1.014
 9130SOL    HW128289   6.242   5.918   0.935
 9130SOL    HW228290   6.339   6.037   0.993
 9131SOL     OW28291   1.103   4.866   4.141
 9131SOL    HW128292   1.023   4.898   4.191
 9131SOL    HW228293   1.156   4.804   4.199
 9132SOL     OW28294   1.889   3.019   4.178
 9132SOL    HW128295   1.872   3.063   4.090
 9132SOL    HW228296   1.955   3.074   4.231
 9133SOL     OW28297   1.480   5.038   1.507
 9133SOL    HW128298   1.495   5.058   1.410
 9133SOL    HW228299   1.386   5.062   1.532
 9134SOL     OW28300   2.979   4.796   5.998
 9134SOL    HW128301   3.044   4.833   6.065
 9134SOL    HW228302   2.897   4.764   6.045
 9135SOL     OW28303   0.975   6.424   4.372
 9135SOL    HW128304   0.908   6.455   4.439
 9135SOL    HW228305   1.066   6.420   4.415
 9136SOL     OW28306   3.857   5.406   5.519
 9136SOL    HW128307   3.782   5.425   5.456
 9136SOL    HW228308   3.824   5.344   5.591
 9137SOL     OW28309   4.124   0.774   1.671
 9137SOL    HW128310   4.117   0.715   1.591
 9137SOL    HW228311   4.032   0.802   1.700
 9138SOL     OW28312   3.276   4.194   0.970
 9138SOL    HW128313   3.221   4.207   0.887
 9138SOL    HW228314   3.224   4.225   1.050
 9139SOL     OW28315   3.261   1.143   5.777
 9139SOL    HW128316   3.260   1.214   5.847
 9139SOL    HW228317   3.187   1.079   5.794
 9140SOL     OW28318   6.515   2.476   3.849
 9140SOL    HW128319   6.434   2.420   3.865
 9140SOL    HW228320   6.505   2.565   3.894
 9141SOL     OW28321   5.587   0.552   5.917
 9141SOL    HW128322   5.506   0.596   5.956
 9141SOL    HW228323   5.608   0.592   5.828
 9142SOL     OW28324   0.898   4.352   6.652
 9142SOL    HW128325   0.871   4.445   6.629
 9142SOL    HW228326   0.917   4.301   6.568
 9143SOL     OW28327   5.639   4.360   0.796
 9143SOL    HW128328   5.670   4.296   0.866
 9143SOL    HW228329   5.676   4.451   0.815
 9144SOL     OW28330   1.376   5.166   5.027
 9144SOL    HW128331   1.424   5.147   5.113
 9144SOL    HW228332   1.281   5.138   5.035
 9145SOL     OW28333   0.441   3.793   6.485
 9145SOL    HW128334   0.425   3.695   6.473
 9145SOL    HW228335   0.475   3.810   6.577
 9146SOL     OW28336   0.516   1.941   1.327
 9146SOL    HW128337   0.609   1.905   1.315
 9146SOL    HW228338   0.490   1.932   1.424
 9147SOL     OW28339   4.925   6.085   5.952
 9147SOL    HW128340   4.841   6.098   5.899
 9147SOL    HW228341   4.998   6.054   5.891
 9148SOL     OW28342   3.380   5.449   3.174
 9148SOL    HW128343   3.382   5.512   3.097
 9148SOL    HW228344   3.335   5.364   3.146
 9149SOL     OW28345   5.992   2.785   4.700
 9149SOL    HW128346   5.996   2.857   4.630
 9149SOL    HW228347   6.068   2.722   4.687
 9150SOL     OW28348   4.348   1.389   2.911
 9150SOL    HW128349   4.391   1.378   3.001
 9150SOL    HW228350   4.375   1.476   2.871
 9151SOL     OW28351   1.123   3.229   2.149
 9151SOL    HW128352   1.146   3.146   2.096
 9151SOL    HW228353   1.206   3.268   2.188
 9152SOL     OW28354   2.334   5.515   3.804
 9152SOL    HW128355   2.294   5.540   3.715
 9152SOL    HW228356   2.387   5.431   3.793
 9153SOL     OW28357   1.146   3.271   6.542
 9153SOL    HW128358   1.066   3.306   6.494
 9153SOL    HW228359   1.175   3.184   6.501
 9154SOL     OW28360   1.826   5.536   0.197
 9154SOL    HW128361   1.830   5.465   0.126
 9154SOL    HW228362   1.758   5.511   0.265
 9155SOL     OW28363   1.326   4.125   0.304
 9155SOL    HW128364   1.328   4.073   0.219
 9155SOL    HW228365   1.289   4.217   0.286
 9156SOL     OW28366   5.414   2.554   1.647
 9156SOL    HW128367   5.402   2.523   1.553
 9156SOL    HW228368   5.325   2.573   1.687
 9157SOL     OW28369   5.263   3.660   5.843
 9157SOL    HW128370   5.234   3.748   5.881
 9157SOL    HW228371   5.347   3.631   5.889
 9158SOL     OW28372   0.409   3.956   3.628
 9158SOL    HW128373   0.386   4.051   3.608
 9158SOL    HW228374   0.377   3.897   3.554
 9159SOL     OW28375   6.913   4.784   2.479
 9159SOL    HW128376   6.872   4.837   2.554
 9159SOL    HW228377   6.910   4.838   2.395
 9160SOL     OW28378   0.101   0.144   0.693
 9160SOL    HW128379   0.021   0.180   0.742
 9160SOL    HW228380   0.084   0.146   0.595
 9161SOL     OW28381   5.366   4.187   2.637
 9161SOL    HW128382   5.310   4.106   2.617
 9161SOL    HW228383   5.353   4.214   2.733
 9162SOL     OW28384   5.277   2.176   2.614
 9162SOL    HW128385   5.281   2.077   2.627
 9162SOL    HW228386   5.188   2.200   2.574
 9163SOL     OW28387   3.052   1.071   4.697
 9163SOL    HW128388   3.149   1.058   4.717
 9163SOL    HW228389   2.997   1.035   4.772
 9164SOL     OW28390   2.844   0.494   0.753
 9164SOL    HW128391   2.899   0.457   0.828
 9164SOL    HW228392   2.838   0.426   0.680
 9165SOL     OW28393   4.750   6.091   0.189
 9165SOL    HW128394   4.756   6.011   0.249
 9165SOL    HW228395   4.741   6.173   0.245
 9166SOL     OW28396   2.579   5.411   1.493
 9166SOL    HW128397   2.553   5.471   1.569
 9166SOL    HW228398   2.663   5.446   1.451
 9167SOL     OW28399   0.353   4.131   4.809
 9167SOL    HW128400   0.316   4.127   4.716
 9167SOL    HW228401   0.453   4.142   4.804
 9168SOL     OW28402   3.279   0.674   0.106
 9168SOL    HW128403   3.249   0.652   0.013
 9168SOL    HW228404   3.272   0.772   0.120
 9169SOL     OW28405   0.509   0.023   2.955
 9169SOL    HW128406   0.467   0.013   3.045
 9169SOL    HW228407   0.514   0.120   2.932
 9170SOL     OW28408   6.482   6.268   0.001
 9170SOL    HW128409   6.420   6.258   0.078
 9170SOL    HW228410   6.574   6.239   0.028
 9171SOL     OW28411   2.982   5.784   5.283
 9171SOL    HW128412   2.882   5.774   5.283
 9171SOL    HW228413   3.025   5.694   5.275
 9172SOL     OW28414   2.694   2.439   4.067
 9172SOL    HW128415   2.617   2.485   4.110
 9172SOL    HW228416   2.775   2.498   4.072
 9173SOL     OW28417   0.764   5.215   4.993
 9173SOL    HW128418   0.665   5.204   4.990
 9173SOL    HW228419   0.787   5.295   5.048
 9174SOL     OW28420   0.211   5.862   6.974
 9174SOL    HW128421   0.231   5.938   6.912
 9174SOL    HW228422   0.238   5.887   0.040
 9175SOL     OW28423   1.650   6.449   5.807
 9175SOL    HW128424   1.598   6.526   5.771
 9175SOL    HW228425   1.606   6.363   5.779
 9176SOL     OW28426   1.255   1.976   5.494
 9176SOL    HW128427   1.332   1.990   5.556
 9176SOL    HW228428   1.276   1.902   5.430
 9177SOL     OW28429   1.350   4.729   3.425
 9177SOL    HW128430   1.277   4.797   3.416
 9177SOL    HW228431   1.349   4.691   3.518
 9178SOL     OW28432   2.135   4.378   0.150
 9178SOL    HW128433   2.076   4.417   0.080
 9178SOL    HW228434   2.187   4.302   0.112
 9179SOL     OW28435   2.258   5.011   5.010
 9179SOL    HW128436   2.236   4.984   5.104
 9179SOL    HW228437   2.345   4.970   4.983
 9180SOL     OW28438   5.859   2.049   3.115
 9180SOL    HW128439   5.857   2.128   3.054
 9180SOL    HW228440   5.815   2.072   3.202
 9181SOL     OW28441   3.899   1.543   2.042
 9181SOL    HW128442   3.856   1.579   1.959
 9181SOL    HW228443   3.961   1.468   2.018
 9182SOL     OW28444   2.231   6.943   2.013
 9182SOL    HW128445   2.250   6.960   1.916
 9182SOL    HW228446   2.316   6.946   2.065
 9183SOL     OW28447   5.131   5.592   5.956
 9183SOL    HW128448   5.214   5.539   5.937
 9183SOL    HW228449   5.054   5.530   5.971
 9184SOL     OW28450   4.829   7.021   6.882
 9184SOL    HW128451   4.793   7.019   6.789
 9184SOL    HW228452   4.839   0.089   6.912
 9185SOL     OW28453   4.659   1.386   4.842
 9185SOL    HW128454   4.721   1.350   4.772
 9185SOL    HW228455   4.697   1.368   4.933
 9186SOL     OW28456   5.238   0.094   6.653
 9186SOL    HW128457   5.195   0.088   6.563
 9186SOL    HW228458   5.222   0.185   6.692
 9187SOL     OW28459   2.993   6.382   2.481
 9187SOL    HW128460   3.049   6.434   2.417
 9187SOL    HW228461   2.985   6.288   2.448
 9188SOL     OW28462   2.216   6.312   1.101
 9188SOL    HW128463   2.262   6.378   1.041
 9188SOL    HW228464   2.129   6.351   1.131
 9189SOL     OW28465   5.443   4.834   1.771
 9189SOL    HW128466   5.529   4.806   1.814
 9189SOL    HW228467   5.459   4.853   1.674
 9190SOL     OW28468   0.859   5.652   0.782
 9190SOL    HW128469   0.829   5.743   0.812
 9190SOL    HW228470   0.868   5.592   0.861
 9191SOL     OW28471   6.985   0.480   6.195
 9191SOL    HW128472   6.977   0.578   6.179
 9191SOL    HW228473   0.029   0.463   6.263
 9192SOL     OW28474   1.115   4.022   4.758
 9192SOL    HW128475   1.171   3.968   4.695
 9192SOL    HW228476   1.039   3.966   4.792
 9193SOL     OW28477   2.528   3.508   0.356
 9193SOL    HW128478   2.615   3.473   0.390
 9193SOL    HW228479   2.529   3.608   0.356
 9194SOL     OW28480   2.793   0.513   4.281
 9194SOL    HW128481   2.847   0.597   4.289
 9194SOL    HW228482   2.841   0.448   4.222
 9195SOL     OW28483   1.636   0.730   3.903
 9195SOL    HW128484   1.631   0.643   3.953
 9195SOL    HW228485   1.666   0.802   3.965
 9196SOL     OW28486   5.076   1.730   5.873
 9196SOL    HW128487   5.102   1.807   5.814
 9196SOL    HW228488   4.995   1.685   5.836
 9197SOL     OW28489   2.417   3.940   0.426
 9197SOL    HW128490   2.348   3.891   0.374
 9197SOL    HW228491   2.373   4.007   0.485
 9198SOL     OW28492   0.726   4.831   4.064
 9198SOL    HW128493   0.708   4.762   4.133
 9198SOL    HW228494   0.680   4.806   3.978
 9199SOL     OW28495   6.067   4.334   5.129
 9199SOL    HW128496   5.998   4.283   5.181
 9199SOL    HW228497   6.131   4.270   5.087
 9200SOL     OW28498   3.222   0.463   0.288
 9200SOL    HW128499   3.146   0.417   0.244
 9200SOL    HW228500   3.239   0.551   0.242
 9201SOL     OW28501   1.738   4.358   0.868
 9201SOL    HW128502   1.674   4.398   0.802
 9201SOL    HW228503   1.694   4.348   0.956
 9202SOL     OW28504   2.420   0.806   3.882
 9202SOL    HW128505   2.344   0.871   3.891
 9202SOL    HW228506   2.417   0.765   3.791
 9203SOL     OW28507   6.621   6.813   0.303
 9203SOL    HW128508   6.646   6.717   0.291
 9203SOL    HW228509   6.688   6.858   0.361
 9204SOL     OW28510   5.657   7.014   5.267
 9204SOL    HW128511   5.628   0.058   5.331
 9204SOL    HW228512   5.626   6.925   5.299
 9205SOL     OW28513   6.920   5.223   1.559
 9205SOL    HW128514   6.970   5.217   1.645
 9205SOL    HW228515   6.825   5.251   1.576
 9206SOL     OW28516   3.511   6.506   0.310
 9206SOL    HW128517   3.548   6.420   0.275
 9206SOL    HW228518   3.468   6.557   0.235
 9207SOL     OW28519   5.236   5.705   6.406
 9207SOL    HW128520   5.318   5.707   6.349
 9207SOL    HW228521   5.241   5.778   6.474
 9208SOL     OW28522   1.336   3.715   2.737
 9208SOL    HW128523   1.323   3.678   2.645
 9208SOL    HW228524   1.357   3.813   2.731
 9209SOL     OW28525   2.466   0.153   6.779
 9209SOL    HW128526   2.456   0.182   6.874
 9209SOL    HW228527   2.387   0.098   6.753
 9210SOL     OW28528   6.714   0.669   3.461
 9210SOL    HW128529   6.674   0.698   3.549
 9210SOL    HW228530   6.699   0.741   3.393
 9211SOL     OW28531   0.475   1.745   2.562
 9211SOL    HW128532   0.465   1.664   2.505
 9211SOL    HW228533   0.448   1.826   2.509
 9212SOL     OW28534   3.589   5.210   4.517
 9212SOL    HW128535   3.675   5.209   4.465
 9212SOL    HW228536   3.514   5.235   4.457
 9213SOL     OW28537   6.231   4.663   6.267
 9213SOL    HW128538   6.298   4.609   6.215
 9213SOL    HW228539   6.141   4.619   6.262
 9214SOL     OW28540   0.046   5.031   0.165
 9214SOL    HW128541   0.128   4.977   0.179
 9214SOL    HW228542   0.014   5.020   0.071
 9215SOL     OW28543   1.239   1.488   1.030
 9215SOL    HW128544   1.195   1.399   1.019
 9215SOL    HW228545   1.180   1.547   1.086
 9216SOL     OW28546   2.236   6.997   3.661
 9216SOL    HW128547   2.268   0.062   3.686
 9216SOL    HW228548   2.136   6.996   3.657
 9217SOL     OW28549   0.382   2.873   0.440
 9217SOL    HW128550   0.396   2.804   0.512
 9217SOL    HW228551   0.386   2.964   0.481
 9218SOL     OW28552   2.025   1.302   0.675
 9218SOL    HW128553   1.960   1.375   0.653
 9218SOL    HW228554   2.110   1.316   0.623
 9219SOL     OW28555   6.994   1.329   0.244
 9219SOL    HW128556   0.049   1.382   0.220
 9219SOL    HW228557   6.943   1.378   0.315
 9220SOL     OW28558   3.506   5.955   1.063
 9220SOL    HW128559   3.518   5.891   1.139
 9220SOL    HW228560   3.595   5.988   1.032
 9221SOL     OW28561   2.699   4.738   4.823
 9221SOL    HW128562   2.751   4.695   4.896
 9221SOL    HW228563   2.630   4.673   4.788
 9222SOL     OW28564   2.899   2.032   6.434
 9222SOL    HW128565   2.915   2.043   6.336
 9222SOL    HW228566   2.814   2.078   6.460
 9223SOL     OW28567   2.751   3.037   5.293
 9223SOL    HW128568   2.652   3.048   5.278
 9223SOL    HW228569   2.777   3.081   5.379
 9224SOL     OW28570   2.212   4.948   5.280
 9224SOL    HW128571   2.176   5.041   5.290
 9224SOL    HW228572   2.138   4.882   5.289
 9225SOL     OW28573   2.154   6.600   0.043
 9225SOL    HW128574   2.217   6.642   0.109
 9225SOL    HW228575   2.179   6.505   0.029
 9226SOL     OW28576   4.176   6.458   0.699
 9226SOL    HW128577   4.184   6.385   0.631
 9226SOL    HW228578   4.143   6.541   0.655
 9227SOL     OW28579   1.601   6.754   1.729
 9227SOL    HW128580   1.560   6.722   1.814
 9227SOL    HW228581   1.701   6.742   1.734
 9228SOL     OW28582   0.905   7.025   6.940
 9228SOL    HW128583   0.813   7.024   6.980
 9228SOL    HW228584   0.902   6.985   6.849
 9229SOL     OW28585   0.618   5.809   5.752
 9229SOL    HW128586   0.618   5.815   5.852
 9229SOL    HW228587   0.561   5.882   5.714
 9230SOL     OW28588   5.014   0.908   3.389
 9230SOL    HW128589   5.087   0.873   3.448
 9230SOL    HW228590   4.968   0.985   3.435
 9231SOL     OW28591   1.916   3.295   3.603
 9231SOL    HW128592   1.837   3.237   3.622
 9231SOL    HW228593   1.977   3.249   3.539
 9232SOL     OW28594   4.543   4.778   0.970
 9232SOL    HW128595   4.528   4.752   0.875
 9232SOL    HW228596   4.456   4.805   1.011
 9233SOL     OW28597   4.954   4.395   0.533
 9233SOL    HW128598   4.919   4.465   0.471
 9233SOL    HW228599   5.035   4.353   0.494
 9234SOL     OW28600   1.653   6.147   3.683
 9234SOL    HW128601   1.559   6.177   3.702
 9234SOL    HW228602   1.659   6.048   3.695
 9235SOL     OW28603   0.789   2.188   3.655
 9235SOL    HW128604   0.803   2.285   3.635
 9235SOL    HW228605   0.778   2.176   3.754
 9236SOL     OW28606   4.006   2.552   5.803
 9236SOL    HW128607   3.921   2.504   5.823
 9236SOL    HW228608   4.008   2.639   5.852
 9237SOL     OW28609   1.671   3.699   3.688
 9237SOL    HW128610   1.613   3.640   3.744
 9237SOL    HW228611   1.751   3.726   3.741
 9238SOL     OW28612   4.364   3.416   6.547
 9238SOL    HW128613   4.319   3.380   6.629
 9238SOL    HW228614   4.444   3.469   6.573
 9239SOL     OW28615   1.533   3.716   6.316
 9239SOL    HW128616   1.548   3.814   6.305
 9239SOL    HW228617   1.514   3.696   6.413
 9240SOL     OW28618   4.878   1.323   1.791
 9240SOL    HW128619   4.781   1.339   1.810
 9240SOL    HW228620   4.907   1.239   1.835
 9241SOL     OW28621   0.653   5.496   6.533
 9241SOL    HW128622   0.584   5.443   6.483
 9241SOL    HW228623   0.608   5.564   6.591
 9242SOL     OW28624   6.214   6.106   1.684
 9242SOL    HW128625   6.309   6.118   1.712
 9242SOL    HW228626   6.197   6.158   1.600
 9243SOL     OW28627   5.547   6.338   4.347
 9243SOL    HW128628   5.510   6.259   4.298
 9243SOL    HW228629   5.580   6.405   4.280
 9244SOL     OW28630   3.569   5.332   0.259
 9244SOL    HW128631   3.624   5.250   0.274
 9244SOL    HW228632   3.620   5.413   0.289
 9245SOL     OW28633   0.590   6.647   1.347
 9245SOL    HW128634   0.563   6.612   1.437
 9245SOL    HW228635   0.689   6.654   1.342
 9246SOL     OW28636   6.695   4.848   4.348
 9246SOL    HW128637   6.682   4.754   4.381
 9246SOL    HW228638   6.674   4.852   4.250
 9247SOL     OW28639   1.706   6.653   3.516
 9247SOL    HW128640   1.686   6.748   3.496
 9247SOL    HW228641   1.742   6.645   3.609
 9248SOL     OW28642   3.773   1.923   6.105
 9248SOL    HW128643   3.776   2.009   6.158
 9248SOL    HW228644   3.829   1.854   6.151
 9249SOL     OW28645   4.024   6.317   3.334
 9249SOL    HW128646   3.978   6.404   3.318
 9249SOL    HW228647   3.997   6.252   3.263
 9250SOL     OW28648   5.498   3.862   3.439
 9250SOL    HW128649   5.458   3.860   3.348
 9250SOL    HW228650   5.469   3.946   3.486
 9251SOL     OW28651   4.154   2.273   2.883
 9251SOL    HW128652   4.150   2.189   2.830
 9251SOL    HW228653   4.062   2.299   2.912
 9252SOL     OW28654   1.451   6.673   4.075
 9252SOL    HW128655   1.383   6.716   4.134
 9252SOL    HW228656   1.492   6.742   4.016
 9253SOL     OW28657   1.553   6.702   5.694
 9253SOL    HW128658   1.462   6.666   5.676
 9253SOL    HW228659   1.549   6.763   5.774
 9254SOL     OW28660   5.588   2.976   1.300
 9254SOL    HW128661   5.634   2.889   1.320
 9254SOL    HW228662   5.496   2.974   1.338
 9255SOL     OW28663   6.999   5.142   0.639
 9255SOL    HW128664   7.005   5.059   0.585
 9255SOL    HW228665   6.963   5.216   0.582
 9256SOL     OW28666   4.062   4.980   1.987
 9256SOL    HW128667   4.032   5.034   2.065
 9256SOL    HW228668   4.150   4.937   2.008
 9257SOL     OW28669   0.661   3.709   0.827
 9257SOL    HW128670   0.639   3.654   0.908
 9257SOL    HW228671   0.647   3.806   0.848
 9258SOL     OW28672   3.126   3.409   3.881
 9258SOL    HW128673   3.108   3.319   3.921
 9258SOL    HW228674   3.045   3.440   3.831
 9259SOL     OW28675   1.242   2.064   0.470
 9259SOL    HW128676   1.321   2.030   0.420
 9259SOL    HW228677   1.218   1.999   0.543
 9260SOL     OW28678   6.714   3.719   6.884
 9260SOL    HW128679   6.666   3.684   6.804
 9260SOL    HW228680   6.651   3.774   6.940
 9261SOL     OW28681   3.693   0.089   6.552
 9261SOL    HW128682   3.730   0.012   6.604
 9261SOL    HW228683   3.598   0.069   6.528
 9262SOL     OW28684   5.015   0.653   5.911
 9262SOL    HW128685   5.028   0.718   5.836
 9262SOL    HW228686   5.060   0.688   5.994
 9263SOL     OW28687   5.704   3.879   2.123
 9263SOL    HW128688   5.642   3.954   2.145
 9263SOL    HW228689   5.713   3.872   2.024
 9264SOL     OW28690   5.968   2.435   0.186
 9264SOL    HW128691   5.903   2.362   0.166
 9264SOL    HW228692   6.059   2.396   0.200
 9265SOL     OW28693   1.320   1.817   5.247
 9265SOL    HW128694   1.364   1.728   5.262
 9265SOL    HW228695   1.346   1.852   5.157
 9266SOL     OW28696   2.826   6.164   1.856
 9266SOL    HW128697   2.870   6.176   1.944
 9266SOL    HW228698   2.775   6.078   1.855
 9267SOL     OW28699   2.717   5.126   5.745
 9267SOL    HW128700   2.802   5.124   5.798
 9267SOL    HW228701   2.725   5.063   5.667
 9268SOL     OW28702   0.660   1.349   2.711
 9268SOL    HW128703   0.589   1.415   2.736
 9268SOL    HW228704   0.749   1.382   2.744
 9269SOL     OW28705   4.235   1.776   5.970
 9269SOL    HW128706   4.187   1.854   5.929
 9269SOL    HW228707   4.299   1.809   6.039
 9270SOL     OW28708   1.303   0.347   6.138
 9270SOL    HW128709   1.266   0.401   6.062
 9270SOL    HW228710   1.367   0.403   6.190
 9271SOL     OW28711   0.717   5.006   6.356
 9271SOL    HW128712   0.710   4.929   6.294
 9271SOL    HW228713   0.635   5.010   6.414
 9272SOL     OW28714   2.260   5.034   6.860
 9272SOL    HW128715   2.213   4.951   6.890
 9272SOL    HW228716   2.238   5.108   6.923
 9273SOL     OW28717   4.253   6.011   5.683
 9273SOL    HW128718   4.176   6.012   5.620
 9273SOL    HW228719   4.336   6.042   5.636
 9274SOL     OW28720   5.863   2.355   1.999
 9274SOL    HW128721   5.842   2.437   1.946
 9274SOL    HW228722   5.806   2.279   1.967
 9275SOL     OW28723   0.348   0.685   6.252
 9275SOL    HW128724   0.280   0.611   6.246
 9275SOL    HW228725   0.318   0.752   6.319
 9276SOL     OW28726   5.054   6.989   3.853
 9276SOL    HW128727   4.959   7.020   3.856
 9276SOL    HW228728   5.067   6.913   3.916
 9277SOL     OW28729   3.177   2.601   0.329
 9277SOL    HW128730   3.084   2.615   0.361
 9277SOL    HW228731   3.192   2.504   0.309
 9278SOL     OW28732   1.604   2.699   1.313
 9278SOL    HW128733   1.595   2.768   1.386
 9278SOL    HW228734   1.666   2.627   1.344
 9279SOL     OW28735   2.488   6.799   0.904
 9279SOL    HW128736   2.458   6.767   0.994
 9279SOL    HW228737   2.582   6.830   0.910
 9280SOL     OW28738   2.151   0.639   2.892
 9280SOL    HW128739   2.078   0.691   2.848
 9280SOL    HW228740   2.113   0.555   2.932
 9281SOL     OW28741   2.132   2.852   0.513
 9281SOL    HW128742   2.101   2.771   0.464
 9281SOL    HW228743   2.052   2.907   0.540
 9282SOL     OW28744   4.403   1.779   6.452
 9282SOL    HW128745   4.397   1.716   6.530
 9282SOL    HW228746   4.430   1.869   6.485
 9283SOL     OW28747   5.506   2.177   2.791
 9283SOL    HW128748   5.417   2.204   2.756
 9283SOL    HW228749   5.560   2.259   2.811
 9284SOL     OW28750   3.472   3.892   1.920
 9284SOL    HW128751   3.392   3.886   1.979
 9284SOL    HW228752   3.524   3.974   1.944
 9285SOL     OW28753   6.312   2.309   6.770
 9285SOL    HW128754   6.259   2.307   6.686
 9285SOL    HW228755   6.255   2.277   6.846
 9286SOL     OW28756   5.748   5.346   4.557
 9286SOL    HW128757   5.771   5.326   4.652
 9286SOL    HW228758   5.813   5.413   4.521
 9287SOL     OW28759   2.701   0.276   2.037
 9287SOL    HW128760   2.781   0.320   2.076
 9287SOL    HW228761   2.632   0.262   2.108
 9288SOL     OW28762   4.773   2.018   5.852
 9288SOL    HW128763   4.772   2.070   5.766
 9288SOL    HW228764   4.724   1.932   5.839
 9289SOL     OW28765   5.860   3.582   2.486
 9289SOL    HW128766   5.840   3.493   2.447
 9289SOL    HW228767   5.816   3.590   2.576
 9290SOL     OW28768   4.442   2.019   4.413
 9290SOL    HW128769   4.421   2.000   4.509
 9290SOL    HW228770   4.364   2.064   4.370
 9291SOL     OW28771   0.812   1.814   4.863
 9291SOL    HW128772   0.896   1.849   4.904
 9291SOL    HW228773   0.834   1.755   4.786
 9292SOL     OW28774   7.013   3.338   0.082
 9292SOL    HW128775   0.022   3.245   0.071
 9292SOL    HW228776   0.058   3.405   0.060
 9293SOL     OW28777   6.439   3.934   6.169
 9293SOL    HW128778   6.349   3.957   6.206
 9293SOL    HW228779   6.474   3.852   6.216
 9294SOL     OW28780   5.455   5.990   6.484
 9294SOL    HW128781   5.495   6.077   6.456
 9294SOL    HW228782   5.527   5.925   6.505
 9295SOL     OW28783   4.444   1.748   3.740
 9295SOL    HW128784   4.503   1.775   3.816
 9295SOL    HW228785   4.424   1.651   3.746
 9296SOL     OW28786   6.939   6.629   5.527
 9296SOL    HW128787   6.913   6.578   5.609
 9296SOL    HW228788   6.904   6.583   5.446
 9297SOL     OW28789   0.638   0.575   1.494
 9297SOL    HW128790   0.727   0.620   1.491
 9297SOL    HW228791   0.573   0.626   1.438
 9298SOL     OW28792   0.441   6.399   4.872
 9298SOL    HW128793   0.392   6.448   4.800
 9298SOL    HW228794   0.517   6.455   4.904
 9299SOL     OW28795   1.819   2.896   3.876
 9299SOL    HW128796   1.879   2.899   3.796
 9299SOL    HW228797   1.781   2.987   3.892
 9300SOL     OW28798   5.921   4.167   3.615
 9300SOL    HW128799   5.926   4.224   3.698
 9300SOL    HW228800   5.827   4.168   3.580
 9301SOL     OW28801   6.143   4.111   2.139
 9301SOL    HW128802   6.211   4.083   2.206
 9301SOL    HW228803   6.097   4.030   2.102
 9302SOL     OW28804   2.271   2.279   2.793
 9302SOL    HW128805   2.327   2.240   2.866
 9302SOL    HW228806   2.280   2.379   2.794
 9303SOL     OW28807   4.244   4.058   0.505
 9303SOL    HW128808   4.222   3.960   0.507
 9303SOL    HW228809   4.308   4.076   0.431
 9304SOL     OW28810   4.228   3.285   0.141
 9304SOL    HW128811   4.178   3.294   0.055
 9304SOL    HW228812   4.303   3.220   0.129
 9305SOL     OW28813   4.884   3.553   2.046
 9305SOL    HW128814   4.930   3.466   2.067
 9305SOL    HW228815   4.860   3.555   1.949
 9306SOL     OW28816   6.102   4.694   4.099
 9306SOL    HW128817   6.052   4.668   4.017
 9306SOL    HW228818   6.050   4.763   4.150
 9307SOL     OW28819   2.196   0.753   6.303
 9307SOL    HW128820   2.172   0.726   6.210
 9307SOL    HW228821   2.187   0.675   6.364
 9308SOL     OW28822   6.653   1.806   0.742
 9308SOL    HW128823   6.606   1.797   0.830
 9308SOL    HW228824   6.737   1.753   0.744
 9309SOL     OW28825   4.836   3.030   6.377
 9309SOL    HW128826   4.798   3.117   6.347
 9309SOL    HW228827   4.776   2.955   6.348
 9310SOL     OW28828   4.086   6.049   0.923
 9310SOL    HW128829   4.093   6.007   0.832
 9310SOL    HW228830   4.107   6.146   0.917
 9311SOL     OW28831   6.617   3.316   1.798
 9311SOL    HW128832   6.684   3.345   1.730
 9311SOL    HW228833   6.552   3.390   1.814
 9312SOL     OW28834   1.789   4.614   4.877
 9312SOL    HW128835   1.761   4.639   4.785
 9312SOL    HW228836   1.709   4.589   4.931
 9313SOL     OW28837   6.433   6.727   2.465
 9313SOL    HW128838   6.480   6.790   2.402
 9313SOL    HW228839   6.336   6.725   2.444
 9314SOL     OW28840   5.669   4.522   6.657
 9314SOL    HW128841   5.740   4.559   6.718
 9314SOL    HW228842   5.659   4.424   6.673
 9315SOL     OW28843   0.527   6.790   6.599
 9315SOL    HW128844   0.506   6.693   6.591
 9315SOL    HW228845   0.486   6.826   6.683
 9316SOL     OW28846   3.308   5.841   4.459
 9316SOL    HW128847   3.238   5.864   4.392
 9316SOL    HW228848   3.398   5.869   4.425
 9317SOL     OW28849   4.820   4.434   5.650
 9317SOL    HW128850   4.813   4.418   5.551
 9317SOL    HW228851   4.866   4.522   5.666
 9318SOL     OW28852   6.323   6.446   6.201
 9318SOL    HW128853   6.257   6.448   6.276
 9318SOL    HW228854   6.416   6.448   6.238
 9319SOL     OW28855   6.626   2.672   4.624
 9319SOL    HW128856   6.691   2.721   4.681
 9319SOL    HW228857   6.550   2.733   4.600
 9320SOL     OW28858   3.802   3.008   6.382
 9320SOL    HW128859   3.900   3.019   6.399
 9320SOL    HW228860   3.781   3.035   6.288
 9321SOL     OW28861   5.852   5.911   3.909
 9321SOL    HW128862   5.805   5.995   3.880
 9321SOL    HW228863   5.939   5.903   3.860
 9322SOL     OW28864   0.728   6.641   0.186
 9322SOL    HW128865   0.821   6.675   0.176
 9322SOL    HW228866   0.717   6.596   0.274
 9323SOL     OW28867   0.722   1.186   6.417
 9323SOL    HW128868   0.740   1.147   6.507
 9323SOL    HW228869   0.678   1.118   6.359
 9324SOL     OW28870   1.740   5.439   6.822
 9324SOL    HW128871   1.763   5.501   6.747
 9324SOL    HW228872   1.644   5.448   6.845
 9325SOL     OW28873   0.313   3.126   0.500
 9325SOL    HW128874   0.215   3.120   0.480
 9325SOL    HW228875   0.351   3.207   0.456
 9326SOL     OW28876   1.995   5.382   1.358
 9326SOL    HW128877   2.056   5.425   1.424
 9326SOL    HW228878   2.048   5.346   1.282
 9327SOL     OW28879   3.591   0.822   3.461
 9327SOL    HW128880   3.562   0.824   3.365
 9327SOL    HW228881   3.547   0.897   3.511
 9328SOL     OW28882   3.335   0.584   2.203
 9328SOL    HW128883   3.421   0.535   2.211
 9328SOL    HW228884   3.340   0.648   2.126
 9329SOL     OW28885   1.080   4.175   1.949
 9329SOL    HW128886   1.114   4.135   2.034
 9329SOL    HW228887   1.132   4.140   1.872
 9330SOL     OW28888   5.486   6.729   6.567
 9330SOL    HW128889   5.559   6.797   6.563
 9330SOL    HW228890   5.471   6.701   6.662
 9331SOL     OW28891   0.721   1.636   0.140
 9331SOL    HW128892   0.780   1.687   0.203
 9331SOL    HW228893   0.631   1.679   0.136
 9332SOL     OW28894   3.789   3.728   5.113
 9332SOL    HW128895   3.840   3.688   5.189
 9332SOL    HW228896   3.711   3.780   5.148
 9333SOL     OW28897   5.339   5.571   1.151
 9333SOL    HW128898   5.279   5.622   1.214
 9333SOL    HW228899   5.386   5.635   1.091
 9334SOL     OW28900   2.781   6.857   4.814
 9334SOL    HW128901   2.854   6.854   4.745
 9334SOL    HW228902   2.819   6.833   4.904
 9335SOL     OW28903   0.839   0.959   1.747
 9335SOL    HW128904   0.834   0.984   1.843
 9335SOL    HW228905   0.751   0.921   1.717
 9336SOL     OW28906   3.403   6.912   5.158
 9336SOL    HW128907   3.319   6.863   5.134
 9336SOL    HW228908   3.421   6.982   5.089
 9337SOL     OW28909   4.544   6.557   2.743
 9337SOL    HW128910   4.450   6.584   2.763
 9337SOL    HW228911   4.557   6.462   2.769
 9338SOL     OW28912   3.417   0.026   1.720
 9338SOL    HW128913   3.400   0.088   1.796
 9338SOL    HW228914   3.340   0.030   1.656
 9339SOL     OW28915   3.876   5.464   1.409
 9339SOL    HW128916   3.921   5.377   1.427
 9339SOL    HW228917   3.777   5.454   1.421
 9340SOL     OW28918   6.287   3.284   0.885
 9340SOL    HW128919   6.341   3.234   0.953
 9340SOL    HW228920   6.215   3.336   0.931
 9341SOL     OW28921   6.630   4.378   5.757
 9341SOL    HW128922   6.603   4.324   5.837
 9341SOL    HW228923   6.711   4.338   5.715
 9342SOL     OW28924   1.192   0.097   6.049
 9342SOL    HW128925   1.094   0.103   6.026
 9342SOL    HW228926   1.237   0.181   6.020
 9343SOL     OW28927   6.217   6.184   4.377
 9343SOL    HW128928   6.205   6.280   4.401
 9343SOL    HW228929   6.258   6.176   4.286
 9344SOL     OW28930   4.500   6.483   0.779
 9344SOL    HW128931   4.510   6.573   0.737
 9344SOL    HW228932   4.425   6.433   0.736
 9345SOL     OW28933   0.462   3.235   1.123
 9345SOL    HW128934   0.532   3.299   1.091
 9345SOL    HW228935   0.502   3.173   1.191
 9346SOL     OW28936   5.940   0.287   0.603
 9346SOL    HW128937   5.854   0.336   0.615
 9346SOL    HW228938   5.963   0.284   0.505
 9347SOL     OW28939   2.178   6.490   1.921
 9347SOL    HW128940   2.208   6.550   1.847
 9347SOL    HW228941   2.099   6.438   1.891
 9348SOL     OW28942   2.639   4.945   0.559
 9348SOL    HW128943   2.578   4.962   0.637
 9348SOL    HW228944   2.628   5.019   0.493
 9349SOL     OW28945   1.895   5.669   2.299
 9349SOL    HW128946   1.842   5.664   2.384
 9349SOL    HW228947   1.991   5.685   2.321
 9350SOL     OW28948   0.108   3.039   5.808
 9350SOL    HW128949   0.015   3.005   5.791
 9350SOL    HW228950   0.153   2.979   5.874
 9351SOL     OW28951   3.139   0.977   6.463
 9351SOL    HW128952   3.059   1.033   6.442
 9351SOL    HW228953   3.161   0.987   6.560
 9352SOL     OW28954   2.547   5.060   5.944
 9352SOL    HW128955   2.577   5.135   6.002
 9352SOL    HW228956   2.593   5.066   5.855
 9353SOL     OW28957   5.830   1.181   1.097
 9353SOL    HW128958   5.780   1.164   1.012
 9353SOL    HW228959   5.765   1.207   1.169
 9354SOL     OW28960   1.083   1.611   6.568
 9354SOL    HW128961   1.108   1.671   6.492
 9354SOL    HW228962   1.009   1.652   6.621
 9355SOL     OW28963   0.736   1.682   5.328
 9355SOL    HW128964   0.704   1.691   5.234
 9355SOL    HW228965   0.661   1.699   5.391
 9356SOL     OW28966   4.778   0.191   3.687
 9356SOL    HW128967   4.867   0.203   3.642
 9356SOL    HW228968   4.707   0.235   3.633
 9357SOL     OW28969   1.062   1.958   0.302
 9357SOL    HW128970   1.110   2.007   0.375
 9357SOL    HW228971   1.035   2.022   0.230
 9358SOL     OW28972   1.321   2.647   1.494
 9358SOL    HW128973   1.329   2.621   1.398
 9358SOL    HW228974   1.381   2.725   1.513
 9359SOL     OW28975   1.025   0.221   5.433
 9359SOL    HW128976   1.022   0.132   5.388
 9359SOL    HW228977   1.092   0.279   5.386
 9360SOL     OW28978   0.539   0.485   6.145
 9360SOL    HW128979   0.627   0.520   6.174
 9360SOL    HW228980   0.467   0.550   6.172
 9361SOL     OW28981   2.680   5.715   4.574
 9361SOL    HW128982   2.746   5.693   4.502
 9361SOL    HW228983   2.711   5.676   4.661
 9362SOL     OW28984   2.379   0.834   2.432
 9362SOL    HW128985   2.417   0.927   2.425
 9362SOL    HW228986   2.279   0.839   2.431
 9363SOL     OW28987   1.822   4.026   2.258
 9363SOL    HW128988   1.790   4.048   2.166
 9363SOL    HW228989   1.883   4.099   2.290
 9364SOL     OW28990   6.866   2.238   0.180
 9364SOL    HW128991   6.836   2.333   0.180
 9364SOL    HW228992   6.887   2.210   0.273
 9365SOL     OW28993   2.611   0.784   5.241
 9365SOL    HW128994   2.551   0.860   5.216
 9365SOL    HW228995   2.622   0.722   5.162
 9366SOL     OW28996   3.921   6.398   2.410
 9366SOL    HW128997   3.883   6.362   2.325
 9366SOL    HW228998   4.021   6.395   2.406
 9367SOL     OW28999   6.697   0.565   1.286
 9367SOL    HW129000   6.633   0.560   1.363
 9367SOL    HW229001   6.715   0.661   1.264
 9368SOL     OW29002   2.602   0.724   2.811
 9368SOL    HW129003   2.509   0.706   2.778
 9368SOL    HW229004   2.626   0.819   2.790
 9369SOL     OW29005   3.598   5.143   0.805
 9369SOL    HW129006   3.583   5.208   0.880
 9369SOL    HW229007   3.510   5.106   0.775
 9370SOL     OW29008   4.224   2.013   5.165
 9370SOL    HW129009   4.167   1.937   5.133
 9370SOL    HW229010   4.320   1.994   5.144
 9371SOL     OW29011   4.348   4.576   0.664
 9371SOL    HW129012   4.354   4.514   0.586
 9371SOL    HW229013   4.383   4.666   0.638
 9372SOL     OW29014   4.093   6.216   1.476
 9372SOL    HW129015   4.035   6.213   1.558
 9372SOL    HW229016   4.037   6.202   1.395
 9373SOL     OW29017   6.857   2.733   1.150
 9373SOL    HW129018   6.948   2.726   1.190
 9373SOL    HW229019   6.863   2.715   1.052
 9374SOL     OW29020   6.730   5.413   6.232
 9374SOL    HW129021   6.743   5.381   6.326
 9374SOL    HW229022   6.632   5.420   6.212
 9375SOL     OW29023   1.273   1.256   6.952
 9375SOL    HW129024   1.353   1.199   6.966
 9375SOL    HW229025   1.239   1.288   0.014
 9376SOL     OW29026   2.740   3.676   0.738
 9376SOL    HW129027   2.814   3.672   0.671
 9376SOL    HW229028   2.653   3.692   0.691
 9377SOL     OW29029   1.399   0.695   3.380
 9377SOL    HW129030   1.421   0.733   3.470
 9377SOL    HW229031   1.337   0.618   3.392
 9378SOL     OW29032   3.356   1.020   4.686
 9378SOL    HW129033   3.379   1.006   4.590
 9378SOL    HW229034   3.432   1.066   4.732
 9379SOL     OW29035   3.986   0.306   4.471
 9379SOL    HW129036   4.086   0.299   4.466
 9379SOL    HW229037   3.945   0.227   4.423
 9380SOL     OW29038   4.758   5.871   0.380
 9380SOL    HW129039   4.783   5.777   0.354
 9380SOL    HW229040   4.784   5.887   0.475
 9381SOL     OW29041   5.702   0.844   5.048
 9381SOL    HW129042   5.693   0.932   5.002
 9381SOL    HW229043   5.635   0.780   5.011
 9382SOL     OW29044   3.171   5.856   6.235
 9382SOL    HW129045   3.173   5.771   6.182
 9382SOL    HW229046   3.237   5.921   6.196
 9383SOL     OW29047   5.445   3.864   1.647
 9383SOL    HW129048   5.396   3.928   1.705
 9383SOL    HW229049   5.437   3.892   1.551
 9384SOL     OW29050   3.570   6.984   1.324
 9384SOL    HW129051   3.529   7.022   1.407
 9384SOL    HW229052   3.533   0.003   1.244
 9385SOL     OW29053   3.891   2.190   4.511
 9385SOL    HW129054   3.860   2.199   4.606
 9385SOL    HW229055   3.973   2.246   4.498
 9386SOL     OW29056   5.577   0.009   1.629
 9386SOL    HW129057   5.630   0.068   1.569
 9386SOL    HW229058   5.482   0.041   1.632
 9387SOL     OW29059   2.002   1.860   6.482
 9387SOL    HW129060   1.948   1.897   6.407
 9387SOL    HW229061   2.099   1.865   6.459
 9388SOL     OW29062   2.812   6.936   4.410
 9388SOL    HW129063   2.860   6.965   4.493
 9388SOL    HW229064   2.721   6.902   4.434
 9389SOL     OW29065   2.216   4.133   1.968
 9389SOL    HW129066   2.200   4.228   1.940
 9389SOL    HW229067   2.221   4.128   2.067
 9390SOL     OW29068   5.472   5.067   3.980
 9390SOL    HW129069   5.473   4.968   3.983
 9390SOL    HW229070   5.378   5.100   3.989
 9391SOL     OW29071   2.023   3.940   4.545
 9391SOL    HW129072   2.090   4.003   4.584
 9391SOL    HW229073   1.999   3.870   4.612
 9392SOL     OW29074   4.803   4.427   2.310
 9392SOL    HW129075   4.790   4.348   2.250
 9392SOL    HW229076   4.890   4.472   2.288
 9393SOL     OW29077   1.632   5.348   6.321
 9393SOL    HW129078   1.707   5.371   6.261
 9393SOL    HW229079   1.640   5.398   6.407
 9394SOL     OW29080   4.369   0.538   0.560
 9394SOL    HW129081   4.338   0.623   0.604
 9394SOL    HW229082   4.404   0.559   0.469
 9395SOL     OW29083   1.500   1.184   1.658
 9395SOL    HW129084   1.415   1.133   1.673
 9395SOL    HW229085   1.578   1.127   1.685
 9396SOL     OW29086   1.106   0.891   6.220
 9396SOL    HW129087   1.008   0.896   6.241
 9396SOL    HW229088   1.136   0.796   6.222
 9397SOL     OW29089   3.447   1.020   4.445
 9397SOL    HW129090   3.384   0.984   4.375
 9397SOL    HW229091   3.540   1.017   4.409
 9398SOL     OW29092   0.131   1.786   0.271
 9398SOL    HW129093   0.200   1.853   0.244
 9398SOL    HW229094   0.065   1.774   0.197
 9399SOL     OW29095   1.301   2.333   4.784
 9399SOL    HW129096   1.332   2.424   4.812
 9399SOL    HW229097   1.366   2.294   4.719
 9400SOL     OW29098   5.795   1.795   1.219
 9400SOL    HW129099   5.759   1.705   1.196
 9400SOL    HW229100   5.838   1.835   1.138
 9401SOL     OW29101   0.405   2.251   3.712
 9401SOL    HW129102   0.362   2.161   3.708
 9401SOL    HW229103   0.503   2.240   3.732
 9402SOL     OW29104   3.379   5.998   5.265
 9402SOL    HW129105   3.347   5.986   5.359
 9402SOL    HW229106   3.344   5.923   5.208
 9403SOL     OW29107   5.838   2.265   1.159
 9403SOL    HW129108   5.783   2.213   1.224
 9403SOL    HW229109   5.931   2.227   1.156
 9404SOL     OW29110   2.203   2.647   1.259
 9404SOL    HW129111   2.146   2.566   1.242
 9404SOL    HW229112   2.147   2.729   1.251
 9405SOL     OW29113   6.615   5.889   5.448
 9405SOL    HW129114   6.588   5.816   5.511
 9405SOL    HW229115   6.619   5.853   5.355
 9406SOL     OW29116   1.452   1.876   0.939
 9406SOL    HW129117   1.502   1.798   0.900
 9406SOL    HW229118   1.515   1.931   0.994
 9407SOL     OW29119   1.706   4.165   4.775
 9407SOL    HW129120   1.800   4.170   4.742
 9407SOL    HW229121   1.681   4.069   4.789
 9408SOL     OW29122   5.581   4.329   3.843
 9408SOL    HW129123   5.557   4.302   3.936
 9408SOL    HW229124   5.497   4.353   3.793
 9409SOL     OW29125   5.918   5.834   1.362
 9409SOL    HW129126   5.853   5.762   1.338
 9409SOL    HW229127   5.870   5.907   1.411
 9410SOL     OW29128   4.443   0.351   0.981
 9410SOL    HW129129   4.504   0.342   1.060
 9410SOL    HW229130   4.383   0.431   0.995
 9411SOL     OW29131   3.323   4.052   3.397
 9411SOL    HW129132   3.277   4.054   3.485
 9411SOL    HW229133   3.409   4.102   3.403
 9412SOL     OW29134   4.741   0.052   1.698
 9412SOL    HW129135   4.716   6.983   1.682
 9412SOL    HW229136   4.840   0.062   1.693
 9413SOL     OW29137   3.765   4.890   3.426
 9413SOL    HW129138   3.786   4.988   3.425
 9413SOL    HW229139   3.670   4.876   3.454
 9414SOL     OW29140   2.556   1.840   2.281
 9414SOL    HW129141   2.656   1.837   2.275
 9414SOL    HW229142   2.528   1.921   2.331
 9415SOL     OW29143   5.557   0.389   1.433
 9415SOL    HW129144   5.467   0.352   1.408
 9415SOL    HW229145   5.597   0.435   1.353
 9416SOL     OW29146   6.286   5.231   5.590
 9416SOL    HW129147   6.261   5.160   5.656
 9416SOL    HW229148   6.272   5.196   5.497
 9417SOL     OW29149   3.915   5.465   2.151
 9417SOL    HW129150   3.877   5.414   2.228
 9417SOL    HW229151   3.987   5.411   2.108
 9418SOL     OW29152   3.287   2.067   4.898
 9418SOL    HW129153   3.260   1.992   4.958
 9418SOL    HW229154   3.231   2.147   4.916
 9419SOL     OW29155   2.153   2.348   6.247
 9419SOL    HW129156   2.122   2.442   6.263
 9419SOL    HW229157   2.225   2.348   6.177
 9420SOL     OW29158   5.530   3.603   5.882
 9420SOL    HW129159   5.554   3.677   5.819
 9420SOL    HW229160   5.602   3.593   5.950
 9421SOL     OW29161   4.332   6.506   6.691
 9421SOL    HW129162   4.338   6.575   6.619
 9421SOL    HW229163   4.242   6.464   6.690
 9422SOL     OW29164   2.724   6.601   5.485
 9422SOL    HW129165   2.746   6.526   5.546
 9422SOL    HW229166   2.657   6.661   5.529
 9423SOL     OW29167   4.451   5.570   1.519
 9423SOL    HW129168   4.518   5.557   1.592
 9423SOL    HW229169   4.368   5.609   1.557
 9424SOL     OW29170   6.669   0.305   4.028
 9424SOL    HW129171   6.732   0.359   3.973
 9424SOL    HW229172   6.575   0.338   4.014
 9425SOL     OW29173   0.121   4.705   0.776
 9425SOL    HW129174   0.140   4.695   0.679
 9425SOL    HW229175   0.023   4.695   0.793
 9426SOL     OW29176   4.142   2.956   6.383
 9426SOL    HW129177   4.154   2.875   6.440
 9426SOL    HW229178   4.201   3.030   6.418
 9427SOL     OW29179   3.904   5.319   1.839
 9427SOL    HW129180   3.833   5.282   1.898
 9427SOL    HW229181   3.888   5.417   1.824
 9428SOL     OW29182   0.987   6.293   5.474
 9428SOL    HW129183   1.023   6.367   5.530
 9428SOL    HW229184   0.959   6.329   5.385
 9429SOL     OW29185   3.055   2.215   4.175
 9429SOL    HW129186   3.085   2.195   4.269
 9429SOL    HW229187   3.134   2.212   4.114
 9430SOL     OW29188   1.439   0.449   4.713
 9430SOL    HW129189   1.504   0.379   4.681
 9430SOL    HW229190   1.489   0.523   4.757
 9431SOL     OW29191   1.352   4.420   4.815
 9431SOL    HW129192   1.294   4.488   4.771
 9431SOL    HW229193   1.294   4.346   4.851
 9432SOL     OW29194   6.745   1.196   3.394
 9432SOL    HW129195   6.777   1.163   3.483
 9432SOL    HW229196   6.803   1.271   3.364
 9433SOL     OW29197   4.229   5.668   1.664
 9433SOL    HW129198   4.173   5.650   1.583
 9433SOL    HW229199   4.249   5.766   1.669
 9434SOL     OW29200   4.567   5.899   4.630
 9434SOL    HW129201   4.596   5.934   4.541
 9434SOL    HW229202   4.484   5.845   4.619
 9435SOL     OW29203   5.991   4.055   0.214
 9435SOL    HW129204   5.961   4.056   0.309
 9435SOL    HW229205   6.089   4.035   0.210
 9436SOL     OW29206   3.441   1.064   2.700
 9436SOL    HW129207   3.541   1.073   2.701
 9436SOL    HW229208   3.403   1.120   2.774
 9437SOL     OW29209   5.306   1.114   4.358
 9437SOL    HW129210   5.382   1.070   4.407
 9437SOL    HW229211   5.301   1.076   4.266
 9438SOL     OW29212   4.999   0.484   2.672
 9438SOL    HW129213   4.920   0.424   2.686
 9438SOL    HW229214   5.070   0.461   2.739
 9439SOL     OW29215   2.106   3.976   1.300
 9439SOL    HW129216   2.169   3.967   1.377
 9439SOL    HW229217   2.060   3.889   1.283
 9440SOL     OW29218   1.564   5.887   5.249
 9440SOL    HW129219   1.556   5.939   5.334
 9440SOL    HW229220   1.651   5.838   5.248
 9441SOL     OW29221   0.359   6.170   4.208
 9441SOL    HW129222   0.391   6.086   4.252
 9441SOL    HW229223   0.417   6.247   4.236
 9442SOL     OW29224   6.108   3.100   1.230
 9442SOL    HW129225   6.110   3.048   1.316
 9442SOL    HW229226   6.113   3.198   1.251
 9443SOL     OW29227   2.820   4.475   1.495
 9443SOL    HW129228   2.838   4.395   1.438
 9443SOL    HW229229   2.902   4.499   1.547
 9444SOL     OW29230   1.933   5.388   6.411
 9444SOL    HW129231   1.912   5.351   6.502
 9444SOL    HW229232   1.987   5.320   6.360
 9445SOL     OW29233   0.152   1.124   3.885
 9445SOL    HW129234   0.084   1.175   3.938
 9445SOL    HW229235   0.162   1.032   3.924
 9446SOL     OW29236   6.318   4.722   4.473
 9446SOL    HW129237   6.320   4.622   4.470
 9446SOL    HW229238   6.335   4.758   4.381
 9447SOL     OW29239   5.492   5.400   1.960
 9447SOL    HW129240   5.492   5.437   2.052
 9447SOL    HW229241   5.561   5.447   1.905
 9448SOL     OW29242   5.300   1.922   6.886
 9448SOL    HW129243   5.273   2.016   6.867
 9448SOL    HW229244   5.217   1.866   6.899
 9449SOL     OW29245   4.868   6.564   2.491
 9449SOL    HW129246   4.822   6.502   2.427
 9449SOL    HW229247   4.967   6.560   2.478
 9450SOL     OW29248   1.009   0.381   2.881
 9450SOL    HW129249   1.098   0.384   2.926
 9450SOL    HW229250   1.001   0.460   2.820
 9451SOL     OW29251   4.050   5.325   0.266
 9451SOL    HW129252   3.989   5.325   0.186
 9451SOL    HW229253   4.120   5.255   0.254
 9452SOL     OW29254   6.256   4.320   6.443
 9452SOL    HW129255   6.242   4.221   6.432
 9452SOL    HW229256   6.172   4.368   6.420
 9453SOL     OW29257   6.903   4.952   2.250
 9453SOL    HW129258   6.884   4.937   2.152
 9453SOL    HW229259   6.969   5.026   2.260
 9454SOL     OW29260   5.454   5.604   0.558
 9454SOL    HW129261   5.456   5.504   0.567
 9454SOL    HW229262   5.501   5.645   0.636
 9455SOL     OW29263   4.755   0.342   1.450
 9455SOL    HW129264   4.659   0.371   1.440
 9455SOL    HW229265   4.759   0.257   1.502
 9456SOL     OW29266   6.962   2.344   2.702
 9456SOL    HW129267   6.983   2.247   2.711
 9456SOL    HW229268   6.864   2.359   2.712
 9457SOL     OW29269   6.548   6.373   4.003
 9457SOL    HW129270   6.494   6.412   4.077
 9457SOL    HW229271   6.552   6.273   4.013
 9458SOL     OW29272   6.407   3.597   0.060
 9458SOL    HW129273   6.463   3.516   0.077
 9458SOL    HW229274   6.368   3.630   0.146
 9459SOL     OW29275   5.151   4.590   4.742
 9459SOL    HW129276   5.222   4.627   4.802
 9459SOL    HW229277   5.063   4.632   4.765
 9460SOL     OW29278   1.822   2.531   2.703
 9460SOL    HW129279   1.843   2.528   2.605
 9460SOL    HW229280   1.737   2.581   2.717
 9461SOL     OW29281   2.363   2.127   1.855
 9461SOL    HW129282   2.402   2.064   1.788
 9461SOL    HW229283   2.436   2.166   1.911
 9462SOL     OW29284   6.971   1.205   5.801
 9462SOL    HW129285   6.894   1.253   5.842
 9462SOL    HW229286   7.016   1.148   5.871
 9463SOL     OW29287   6.504   4.855   0.701
 9463SOL    HW129288   6.578   4.914   0.669
 9463SOL    HW229289   6.536   4.760   0.702
 9464SOL     OW29290   1.039   6.912   1.545
 9464SOL    HW129291   1.088   6.988   1.588
 9464SOL    HW229292   0.952   6.945   1.509
 9465SOL     OW29293   6.553   5.602   0.371
 9465SOL    HW129294   6.590   5.538   0.438
 9465SOL    HW229295   6.456   5.581   0.355
 9466SOL     OW29296   4.468   3.952   5.349
 9466SOL    HW129297   4.530   4.031   5.352
 9466SOL    HW229298   4.521   3.868   5.341
 9467SOL     OW29299   0.914   4.027   0.943
 9467SOL    HW129300   0.965   3.960   0.887
 9467SOL    HW229301   0.931   4.009   1.040
 9468SOL     OW29302   6.031   1.217   1.549
 9468SOL    HW129303   5.968   1.251   1.618
 9468SOL    HW229304   6.123   1.209   1.587
 9469SOL     OW29305   6.961   6.835   2.058
 9469SOL    HW129306   7.023   6.860   1.983
 9469SOL    HW229307   6.866   6.844   2.027
 9470SOL     OW29308   3.148   2.899   0.940
 9470SOL    HW129309   3.082   2.868   1.008
 9470SOL    HW229310   3.237   2.856   0.958
 9471SOL     OW29311   6.436   2.874   4.650
 9471SOL    HW129312   6.527   2.915   4.658
 9471SOL    HW229313   6.368   2.935   4.690
 9472SOL     OW29314   2.068   3.359   6.234
 9472SOL    HW129315   2.094   3.264   6.254
 9472SOL    HW229316   1.991   3.384   6.293
 9473SOL     OW29317   3.000   3.556   1.343
 9473SOL    HW129318   3.058   3.502   1.281
 9473SOL    HW229319   2.910   3.513   1.350
 9474SOL     OW29320   5.718   4.622   0.846
 9474SOL    HW129321   5.706   4.704   0.792
 9474SOL    HW229322   5.815   4.608   0.866
 9475SOL     OW29323   5.752   3.625   6.808
 9475SOL    HW129324   5.776   3.720   6.833
 9475SOL    HW229325   5.686   3.626   6.733
 9476SOL     OW29326   4.261   3.869   0.985
 9476SOL    HW129327   4.202   3.888   1.063
 9476SOL    HW229328   4.349   3.914   0.997
 9477SOL     OW29329   1.601   4.715   0.928
 9477SOL    HW129330   1.678   4.682   0.873
 9477SOL    HW229331   1.634   4.741   1.019
 9478SOL     OW29332   6.742   3.465   5.756
 9478SOL    HW129333   6.764   3.562   5.743
 9478SOL    HW229334   6.826   3.411   5.748
 9479SOL     OW29335   4.269   0.738   2.081
 9479SOL    HW129336   4.222   0.769   2.163
 9479SOL    HW229337   4.354   0.691   2.107
 9480SOL     OW29338   5.527   0.203   0.778
 9480SOL    HW129339   5.576   0.157   0.704
 9480SOL    HW229340   5.437   0.161   0.790
 9481SOL     OW29341   4.748   6.936   3.256
 9481SOL    HW129342   4.756   7.001   3.181
 9481SOL    HW229343   4.696   6.977   3.331
 9482SOL     OW29344   5.955   4.953   4.968
 9482SOL    HW129345   6.020   4.948   5.043
 9482SOL    HW229346   5.903   4.868   4.963
 9483SOL     OW29347   5.695   4.927   6.728
 9483SOL    HW129348   5.701   4.973   6.817
 9483SOL    HW229349   5.779   4.944   6.677
 9484SOL     OW29350   1.789   6.508   4.249
 9484SOL    HW129351   1.791   6.601   4.213
 9484SOL    HW229352   1.877   6.463   4.234
 9485SOL     OW29353   0.550   1.264   5.100
 9485SOL    HW129354   0.589   1.227   5.016
 9485SOL    HW229355   0.580   1.208   5.178
 9486SOL     OW29356   6.604   5.897   6.748
 9486SOL    HW129357   6.506   5.878   6.748
 9486SOL    HW229358   6.619   5.992   6.775
 9487SOL     OW29359   3.347   3.815   3.187
 9487SOL    HW129360   3.335   3.859   3.276
 9487SOL    HW229361   3.444   3.812   3.164
 9488SOL     OW29362   2.099   0.809   1.860
 9488SOL    HW129363   2.164   0.734   1.863
 9488SOL    HW229364   2.010   0.776   1.829
 9489SOL     OW29365   6.084   4.355   0.192
 9489SOL    HW129366   6.166   4.323   0.238
 9489SOL    HW229367   6.031   4.276   0.160
 9490SOL     OW29368   5.663   3.594   4.720
 9490SOL    HW129369   5.718   3.575   4.802
 9490SOL    HW229370   5.626   3.686   4.726
 9491SOL     OW29371   5.533   0.080   2.726
 9491SOL    HW129372   5.481   0.162   2.701
 9491SOL    HW229373   5.626   0.106   2.749
 9492SOL     OW29374   4.575   2.281   4.326
 9492SOL    HW129375   4.556   2.184   4.338
 9492SOL    HW229376   4.532   2.334   4.399
 9493SOL     OW29377   2.913   6.162   2.237
 9493SOL    HW129378   2.920   6.237   2.172
 9493SOL    HW229379   2.831   6.109   2.218
 9494SOL     OW29380   5.090   2.501   2.669
 9494SOL    HW129381   5.008   2.485   2.724
 9494SOL    HW229382   5.074   2.578   2.607
 9495SOL     OW29383   5.197   2.864   1.120
 9495SOL    HW129384   5.215   2.872   1.022
 9495SOL    HW229385   5.108   2.905   1.142
 9496SOL     OW29386   5.790   3.097   1.472
 9496SOL    HW129387   5.733   3.040   1.412
 9496SOL    HW229388   5.881   3.055   1.480
 9497SOL     OW29389   5.198   4.769   5.164
 9497SOL    HW129390   5.127   4.789   5.231
 9497SOL    HW229391   5.276   4.726   5.211
 9498SOL     OW29392   0.812   5.464   6.034
 9498SOL    HW129393   0.749   5.507   6.099
 9498SOL    HW229394   0.848   5.379   6.073
 9499SOL     OW29395   5.219   6.043   4.067
 9499SOL    HW129396   5.254   5.966   4.015
 9499SOL    HW229397   5.119   6.037   4.072
 9500SOL     OW29398   2.880   1.322   0.773
 9500SOL    HW129399   2.846   1.336   0.680
 9500SOL    HW229400   2.828   1.380   0.836
 9501SOL     OW29401   1.922   3.952   5.367
 9501SOL    HW129402   1.979   3.906   5.435
 9501SOL    HW229403   1.977   3.969   5.285
 9502SOL     OW29404   5.750   4.401   3.419
 9502SOL    HW129405   5.686   4.326   3.404
 9502SOL    HW229406   5.753   4.423   3.516
 9503SOL     OW29407   5.621   1.235   0.633
 9503SOL    HW129408   5.649   1.180   0.711
 9503SOL    HW229409   5.701   1.254   0.576
 9504SOL     OW29410   6.512   5.754   2.605
 9504SOL    HW129411   6.526   5.746   2.506
 9504SOL    HW229412   6.490   5.848   2.628
 9505SOL     OW29413   4.791   3.333   6.478
 9505SOL    HW129414   4.719   3.290   6.533
 9505SOL    HW229415   4.749   3.389   6.406
 9506SOL     OW29416   3.043   1.144   1.801
 9506SOL    HW129417   3.003   1.159   1.891
 9506SOL    HW229418   3.025   1.223   1.743
 9507SOL     OW29419   6.630   6.294   1.496
 9507SOL    HW129420   6.578   6.371   1.535
 9507SOL    HW229421   6.721   6.293   1.536
 9508SOL     OW29422   5.207   0.963   1.809
 9508SOL    HW129423   5.235   0.887   1.869
 9508SOL    HW229424   5.258   1.045   1.834
 9509SOL     OW29425   5.906   1.540   3.867
 9509SOL    HW129426   5.908   1.629   3.823
 9509SOL    HW229427   5.835   1.540   3.938
 9510SOL     OW29428   1.470   3.204   2.713
 9510SOL    HW129429   1.540   3.220   2.783
 9510SOL    HW229430   1.384   3.180   2.757
 9511SOL     OW29431   1.087   1.808   1.052
 9511SOL    HW129432   1.163   1.836   1.110
 9511SOL    HW229433   1.028   1.745   1.103
 9512SOL     OW29434   6.534   2.369   1.893
 9512SOL    HW129435   6.584   2.402   1.973
 9512SOL    HW229436   6.518   2.271   1.901
 9513SOL     OW29437   4.761   4.052   5.330
 9513SOL    HW129438   4.823   4.103   5.389
 9513SOL    HW229439   4.693   4.114   5.292
 9514SOL     OW29440   3.559   3.040   1.242
 9514SOL    HW129441   3.481   3.083   1.197
 9514SOL    HW229442   3.530   3.001   1.329
 9515SOL     OW29443   7.010   5.859   3.044
 9515SOL    HW129444   0.056   5.905   3.095
 9515SOL    HW229445   6.937   5.925   3.024
 9516SOL     OW29446   0.608   3.992   6.092
 9516SOL    HW129447   0.685   3.994   6.156
 9516SOL    HW229448   0.553   4.074   6.104
 9517SOL     OW29449   0.861   6.181   1.673
 9517SOL    HW129450   0.868   6.255   1.739
 9517SOL    HW229451   0.860   6.218   1.580
 9518SOL     OW29452   0.536   0.865   1.078
 9518SOL    HW129453   0.590   0.806   1.139
 9518SOL    HW229454   0.439   0.847   1.092
 9519SOL     OW29455   1.772   2.297   5.194
 9519SOL    HW129456   1.702   2.295   5.265
 9519SOL    HW229457   1.740   2.247   5.114
 9520SOL     OW29458   4.420   0.042   1.643
 9520SOL    HW129459   4.498   0.103   1.656
 9520SOL    HW229460   4.393   0.003   1.730
 9521SOL     OW29461   5.490   4.518   3.168
 9521SOL    HW129462   5.463   4.615   3.168
 9521SOL    HW229463   5.544   4.499   3.086
 9522SOL     OW29464   3.218   4.831   6.177
 9522SOL    HW129465   3.173   4.760   6.231
 9522SOL    HW229466   3.282   4.788   6.113
 9523SOL     OW29467   2.272   0.402   5.271
 9523SOL    HW129468   2.200   0.337   5.245
 9523SOL    HW229469   2.331   0.361   5.340
 9524SOL     OW29470   5.524   3.362   0.255
 9524SOL    HW129471   5.445   3.381   0.197
 9524SOL    HW229472   5.512   3.407   0.344
 9525SOL     OW29473   4.149   0.064   4.559
 9525SOL    HW129474   4.218   7.024   4.588
 9525SOL    HW229475   4.195   0.148   4.530
 9526SOL     OW29476   4.792   5.531   0.484
 9526SOL    HW129477   4.726   5.519   0.410
 9526SOL    HW229478   4.749   5.511   0.572
 9527SOL     OW29479   0.211   2.296   0.470
 9527SOL    HW129480   0.129   2.244   0.445
 9527SOL    HW229481   0.286   2.233   0.489
 9528SOL     OW29482   6.473   0.871   1.827
 9528SOL    HW129483   6.573   0.872   1.828
 9528SOL    HW229484   6.440   0.838   1.916
 9529SOL     OW29485   1.898   2.523   5.257
 9529SOL    HW129486   1.856   2.440   5.218
 9529SOL    HW229487   1.904   2.513   5.356
 9530SOL     OW29488   2.740   1.108   3.686
 9530SOL    HW129489   2.692   1.151   3.609
 9530SOL    HW229490   2.802   1.037   3.651
 9531SOL     OW29491   2.937   6.731   3.983
 9531SOL    HW129492   2.905   6.798   4.051
 9531SOL    HW229493   3.002   6.774   3.921
 9532SOL     OW29494   3.280   1.571   1.836
 9532SOL    HW129495   3.194   1.588   1.884
 9532SOL    HW229496   3.280   1.478   1.799
 9533SOL     OW29497   0.926   1.480   4.504
 9533SOL    HW129498   0.838   1.466   4.458
 9533SOL    HW229499   0.990   1.525   4.442
 9534SOL     OW29500   5.848   1.482   4.466
 9534SOL    HW129501   5.780   1.545   4.429
 9534SOL    HW229502   5.934   1.491   4.415
 9535SOL     OW29503   3.224   1.725   4.599
 9535SOL    HW129504   3.268   1.814   4.592
 9535SOL    HW229505   3.183   1.716   4.690
 9536SOL     OW29506   2.133   6.575   6.384
 9536SOL    HW129507   2.188   6.591   6.466
 9536SOL    HW229508   2.039   6.552   6.410
 9537SOL     OW29509   1.733   0.985   0.501
 9537SOL    HW129510   1.824   1.008   0.537
 9537SOL    HW229511   1.742   0.942   0.412
 9538SOL     OW29512   5.833   3.905   2.645
 9538SOL    HW129513   5.922   3.859   2.639
 9538SOL    HW229514   5.761   3.836   2.662
 9539SOL     OW29515   0.104   3.750   6.851
 9539SOL    HW129516   0.027   3.742   6.914
 9539SOL    HW229517   0.189   3.764   6.903
 9540SOL     OW29518   5.817   3.619   5.978
 9540SOL    HW129519   5.872   3.653   6.053
 9540SOL    HW229520   5.820   3.519   5.977
 9541SOL     OW29521   6.727   2.329   3.563
 9541SOL    HW129522   6.710   2.267   3.639
 9541SOL    HW229523   6.641   2.348   3.515
 9542SOL     OW29524   4.608   4.340   4.798
 9542SOL    HW129525   4.682   4.368   4.859
 9542SOL    HW229526   4.552   4.420   4.774
 9543SOL     OW29527   3.780   2.457   0.683
 9543SOL    HW129528   3.861   2.458   0.625
 9543SOL    HW229529   3.800   2.409   0.768
 9544SOL     OW29530   4.631   0.341   1.164
 9544SOL    HW129531   4.724   0.306   1.158
 9544SOL    HW229532   4.633   0.434   1.201
 9545SOL     OW29533   1.366   6.878   4.847
 9545SOL    HW129534   1.270   6.905   4.858
 9545SOL    HW229535   1.425   6.957   4.866
 9546SOL     OW29536   2.540   4.559   2.064
 9546SOL    HW129537   2.480   4.637   2.047
 9546SOL    HW229538   2.625   4.570   2.014
 9547SOL     OW29539   5.125   5.858   3.380
 9547SOL    HW129540   5.069   5.856   3.297
 9547SOL    HW229541   5.158   5.952   3.395
 9548SOL     OW29542   5.632   6.546   2.543
 9548SOL    HW129543   5.609   6.643   2.535
 9548SOL    HW229544   5.720   6.529   2.500
 9549SOL     OW29545   2.077   5.823   0.116
 9549SOL    HW129546   2.061   5.778   0.028
 9549SOL    HW229547   1.998   5.809   0.175
 9550SOL     OW29548   2.048   1.024   0.328
 9550SOL    HW129549   2.096   1.039   0.242
 9550SOL    HW229550   1.999   1.108   0.353
 9551SOL     OW29551   1.486   5.667   5.390
 9551SOL    HW129552   1.505   5.744   5.329
 9551SOL    HW229553   1.533   5.681   5.477
 9552SOL     OW29554   0.116   5.373   2.760
 9552SOL    HW129555   0.171   5.455   2.777
 9552SOL    HW229556   0.172   5.305   2.713
 9553SOL     OW29557   5.446   4.641   6.531
 9553SOL    HW129558   5.371   4.576   6.519
 9553SOL    HW229559   5.519   4.598   6.584
 9554SOL     OW29560   2.340   1.698   2.333
 9554SOL    HW129561   2.426   1.739   2.302
 9554SOL    HW229562   2.266   1.765   2.323
 9555SOL     OW29563   6.521   2.377   6.525
 9555SOL    HW129564   6.553   2.467   6.494
 9555SOL    HW229565   6.422   2.375   6.523
 9556SOL     OW29566   6.644   0.977   0.857
 9556SOL    HW129567   6.557   0.947   0.894
 9556SOL    HW229568   6.629   1.050   0.791
 9557SOL     OW29569   5.097   1.503   1.639
 9557SOL    HW129570   5.192   1.533   1.646
 9557SOL    HW229571   5.094   1.408   1.606
 9558SOL     OW29572   0.272   3.857   1.447
 9558SOL    HW129573   0.223   3.799   1.381
 9558SOL    HW229574   0.293   3.945   1.406
 9559SOL     OW29575   0.637   4.036   3.020
 9559SOL    HW129576   0.729   4.065   2.996
 9559SOL    HW229577   0.576   4.115   3.023
 9560SOL     OW29578   3.416   1.845   5.789
 9560SOL    HW129579   3.374   1.935   5.778
 9560SOL    HW229580   3.513   1.856   5.811
 9561SOL     OW29581   3.297   5.232   6.937
 9561SOL    HW129582   3.311   5.262   0.005
 9561SOL    HW229583   3.376   5.178   6.907
 9562SOL     OW29584   6.452   5.193   4.150
 9562SOL    HW129585   6.378   5.150   4.099
 9562SOL    HW229586   6.535   5.138   4.141
 9563SOL     OW29587   0.511   0.077   6.595
 9563SOL    HW129588   0.489   0.039   6.684
 9563SOL    HW229589   0.608   0.061   6.575
 9564SOL     OW29590   1.132   0.743   5.928
 9564SOL    HW129591   1.084   0.793   5.856
 9564SOL    HW229592   1.137   0.799   6.010
 9565SOL     OW29593   2.718   5.820   5.781
 9565SOL    HW129594   2.642   5.755   5.788
 9565SOL    HW229595   2.798   5.773   5.744
 9566SOL     OW29596   2.783   5.483   5.251
 9566SOL    HW129597   2.698   5.525   5.283
 9566SOL    HW229598   2.772   5.384   5.250
 9567SOL     OW29599   5.495   4.668   4.513
 9567SOL    HW129600   5.587   4.667   4.551
 9567SOL    HW229601   5.484   4.749   4.455
 9568SOL     OW29602   5.648   3.324   5.487
 9568SOL    HW129603   5.583   3.321   5.562
 9568SOL    HW229604   5.739   3.344   5.522
 9569SOL     OW29605   5.718   0.134   1.388
 9569SOL    HW129606   5.807   0.177   1.376
 9569SOL    HW229607   5.647   0.204   1.386
 9570SOL     OW29608   0.741   2.163   6.663
 9570SOL    HW129609   0.691   2.248   6.683
 9570SOL    HW229610   0.702   2.088   6.718
 9571SOL     OW29611   3.528   1.921   0.145
 9571SOL    HW129612   3.583   1.838   0.134
 9571SOL    HW229613   3.449   1.901   0.204
 9572SOL     OW29614   0.599   4.186   1.084
 9572SOL    HW129615   0.537   4.259   1.054
 9572SOL    HW229616   0.582   4.104   1.031
 9573SOL     OW29617   5.001   1.930   2.377
 9573SOL    HW129618   5.038   1.942   2.469
 9573SOL    HW229619   5.049   1.856   2.331
 9574SOL     OW29620   3.149   1.890   3.531
 9574SOL    HW129621   3.233   1.915   3.482
 9574SOL    HW229622   3.100   1.820   3.480
 9575SOL     OW29623   3.688   1.882   2.983
 9575SOL    HW129624   3.681   1.982   2.973
 9575SOL    HW229625   3.619   1.838   2.926
 9576SOL     OW29626   3.367   3.455   5.771
 9576SOL    HW129627   3.332   3.362   5.785
 9576SOL    HW229628   3.336   3.514   5.845
 9577SOL     OW29629   0.544   5.085   3.873
 9577SOL    HW129630   0.571   5.105   3.967
 9577SOL    HW229631   0.445   5.098   3.864
 9578SOL     OW29632   0.153   4.394   1.434
 9578SOL    HW129633   0.170   4.304   1.475
 9578SOL    HW229634   0.101   4.382   1.349
 9579SOL     OW29635   1.616   4.701   3.035
 9579SOL    HW129636   1.523   4.736   3.045
 9579SOL    HW229637   1.633   4.630   3.104
 9580SOL     OW29638   4.277   3.536   5.268
 9580SOL    HW129639   4.261   3.587   5.183
 9580SOL    HW229640   4.276   3.600   5.345
 9581SOL     OW29641   1.365   6.165   6.049
 9581SOL    HW129642   1.269   6.185   6.066
 9581SOL    HW229643   1.422   6.210   6.117
 9582SOL     OW29644   3.609   5.640   2.938
 9582SOL    HW129645   3.595   5.698   2.858
 9582SOL    HW229646   3.699   5.660   2.978
 9583SOL     OW29647   1.290   5.142   2.126
 9583SOL    HW129648   1.255   5.081   2.055
 9583SOL    HW229649   1.266   5.236   2.104
 9584SOL     OW29650   5.232   3.984   6.808
 9584SOL    HW129651   5.208   3.912   6.742
 9584SOL    HW229652   5.221   4.073   6.764
 9585SOL     OW29653   5.845   1.253   3.290
 9585SOL    HW129654   5.914   1.259   3.218
 9585SOL    HW229655   5.800   1.163   3.286
 9586SOL     OW29656   4.889   4.004   2.212
 9586SOL    HW129657   4.874   3.944   2.133
 9586SOL    HW229658   4.859   3.957   2.295
 9587SOL     OW29659   4.721   6.244   1.672
 9587SOL    HW129660   4.661   6.308   1.622
 9587SOL    HW229661   4.814   6.279   1.671
 9588SOL     OW29662   5.725   1.026   3.430
 9588SOL    HW129663   5.789   1.013   3.506
 9588SOL    HW229664   5.753   0.969   3.352
 9589SOL     OW29665   4.063   1.901   5.376
 9589SOL    HW129666   3.980   1.876   5.326
 9589SOL    HW229667   4.037   1.937   5.466
 9590SOL     OW29668   6.841   4.732   4.583
 9590SOL    HW129669   6.933   4.751   4.548
 9590SOL    HW229670   6.794   4.672   4.519
 9591SOL     OW29671   6.905   4.254   2.484
 9591SOL    HW129672   6.914   4.177   2.421
 9591SOL    HW229673   6.925   4.340   2.436
 9592SOL     OW29674   4.155   5.642   0.293
 9592SOL    HW129675   4.104   5.726   0.312
 9592SOL    HW229676   4.164   5.588   0.377
 9593SOL     OW29677   2.211   1.943   3.657
 9593SOL    HW129678   2.260   2.028   3.640
 9593SOL    HW229679   2.135   1.961   3.720
 9594SOL     OW29680   5.684   0.139   1.014
 9594SOL    HW129681   5.628   0.132   0.932
 9594SOL    HW229682   5.626   0.171   1.090
 9595SOL     OW29683   2.318   5.263   5.873
 9595SOL    HW129684   2.398   5.206   5.856
 9595SOL    HW229685   2.238   5.205   5.885
 9596SOL     OW29686   5.665   5.160   2.470
 9596SOL    HW129687   5.596   5.222   2.434
 9596SOL    HW229688   5.741   5.214   2.507
 9597SOL     OW29689   2.404   4.895   1.642
 9597SOL    HW129690   2.469   4.880   1.717
 9597SOL    HW229691   2.312   4.875   1.674
 9598SOL     OW29692   0.844   6.033   5.864
 9598SOL    HW129693   0.770   5.965   5.859
 9598SOL    HW229694   0.856   6.076   5.775
 9599SOL     OW29695   3.718   2.011   5.545
 9599SOL    HW129696   3.733   1.933   5.484
 9599SOL    HW229697   3.620   2.018   5.567
 9600SOL     OW29698   1.302   6.133   6.592
 9600SOL    HW129699   1.298   6.126   6.691
 9600SOL    HW229700   1.395   6.157   6.564
 9601SOL     OW29701   1.409   6.643   4.943
 9601SOL    HW129702   1.430   6.577   4.871
 9601SOL    HW229703   1.388   6.732   4.902
 9602SOL     OW29704   1.062   5.616   6.298
 9602SOL    HW129705   1.002   5.685   6.260
 9602SOL    HW229706   1.008   5.538   6.330
 9603SOL     OW29707   0.769   5.581   1.403
 9603SOL    HW129708   0.721   5.659   1.442
 9603SOL    HW229709   0.826   5.537   1.472
 9604SOL     OW29710   6.786   0.788   6.472
 9604SOL    HW129711   6.735   0.721   6.418
 9604SOL    HW229712   6.801   0.870   6.417
 9605SOL     OW29713   3.733   4.581   1.319
 9605SOL    HW129714   3.719   4.489   1.283
 9605SOL    HW229715   3.748   4.577   1.417
 9606SOL     OW29716   0.231   1.187   5.203
 9606SOL    HW129717   0.290   1.211   5.125
 9606SOL    HW229718   0.249   1.093   5.231
 9607SOL     OW29719   6.842   2.789   4.005
 9607SOL    HW129720   6.909   2.862   3.999
 9607SOL    HW229721   6.884   2.703   3.975
 9608SOL     OW29722   6.241   0.831   1.541
 9608SOL    HW129723   6.243   0.731   1.546
 9608SOL    HW229724   6.240   0.869   1.633
 9609SOL     OW29725   1.568   2.245   4.224
 9609SOL    HW129726   1.471   2.223   4.209
 9609SOL    HW229727   1.608   2.277   4.138
 9610SOL     OW29728   4.983   0.875   5.745
 9610SOL    HW129729   4.888   0.882   5.715
 9610SOL    HW229730   5.006   0.952   5.804
 9611SOL     OW29731   4.639   5.441   0.695
 9611SOL    HW129732   4.681   5.380   0.762
 9611SOL    HW229733   4.588   5.513   0.742
 9612SOL     OW29734   5.889   3.855   3.507
 9612SOL    HW129735   5.962   3.917   3.478
 9612SOL    HW229736   5.849   3.889   3.592
 9613SOL     OW29737   5.662   0.659   4.718
 9613SOL    HW129738   5.673   0.561   4.732
 9613SOL    HW229739   5.605   0.696   4.791
 9614SOL     OW29740   2.715   2.917   0.631
 9614SOL    HW129741   2.673   3.003   0.659
 9614SOL    HW229742   2.715   2.910   0.531
 9615SOL     OW29743   6.900   5.691   3.839
 9615SOL    HW129744   6.839   5.658   3.768
 9615SOL    HW229745   6.924   5.617   3.901
 9616SOL     OW29746   1.186   2.185   1.428
 9616SOL    HW129747   1.256   2.239   1.380
 9616SOL    HW229748   1.230   2.112   1.479
 9617SOL     OW29749   0.144   2.951   3.772
 9617SOL    HW129750   0.097   3.027   3.727
 9617SOL    HW229751   0.149   2.873   3.710
 9618SOL     OW29752   4.849   3.517   1.763
 9618SOL    HW129753   4.772   3.523   1.700
 9618SOL    HW229754   4.853   3.424   1.800
 9619SOL     OW29755   0.612   0.310   0.751
 9619SOL    HW129756   0.512   0.313   0.742
 9619SOL    HW229757   0.636   0.280   0.843
 9620SOL     OW29758   4.111   1.007   6.173
 9620SOL    HW129759   4.208   0.986   6.158
 9620SOL    HW229760   4.076   0.953   6.249
 9621SOL     OW29761   0.154   1.074   1.434
 9621SOL    HW129762   0.152   1.149   1.368
 9621SOL    HW229763   0.128   0.989   1.389
 9622SOL     OW29764   6.595   6.857   4.939
 9622SOL    HW129765   6.561   6.771   4.977
 9622SOL    HW229766   6.647   6.907   5.008
 9623SOL     OW29767   2.295   6.103   5.945
 9623SOL    HW129768   2.373   6.115   6.006
 9623SOL    HW229769   2.238   6.028   5.979
 9624SOL     OW29770   4.790   5.261   6.630
 9624SOL    HW129771   4.849   5.268   6.711
 9624SOL    HW229772   4.765   5.353   6.600
 9625SOL     OW29773   5.114   4.719   5.906
 9625SOL    HW129774   5.079   4.737   5.998
 9625SOL    HW229775   5.038   4.705   5.843
 9626SOL     OW29776   2.500   2.960   6.602
 9626SOL    HW129777   2.508   2.946   6.701
 9626SOL    HW229778   2.576   2.915   6.555
 9627SOL     OW29779   6.900   6.574   0.519
 9627SOL    HW129780   6.826   6.506   0.516
 9627SOL    HW229781   6.972   6.548   0.456
 9628SOL     OW29782   5.460   1.184   5.335
 9628SOL    HW129783   5.529   1.221   5.397
 9628SOL    HW229784   5.454   1.242   5.254
 9629SOL     OW29785   0.288   5.250   4.157
 9629SOL    HW129786   0.207   5.234   4.214
 9629SOL    HW229787   0.297   5.175   4.091
 9630SOL     OW29788   6.049   0.145   6.937
 9630SOL    HW129789   6.064   0.122   6.841
 9630SOL    HW229790   6.105   0.085   6.994
 9631SOL     OW29791   4.815   5.914   0.650
 9631SOL    HW129792   4.794   6.005   0.686
 9631SOL    HW229793   4.848   5.855   0.724
 9632SOL     OW29794   2.628   5.077   2.893
 9632SOL    HW129795   2.656   5.012   2.822
 9632SOL    HW229796   2.694   5.074   2.968
 9633SOL     OW29797   3.171   2.979   5.361
 9633SOL    HW129798   3.118   3.018   5.286
 9633SOL    HW229799   3.226   2.903   5.327
 9634SOL     OW29800   6.274   4.689   2.498
 9634SOL    HW129801   6.241   4.662   2.408
 9634SOL    HW229802   6.277   4.609   2.558
 9635SOL     OW29803   0.554   5.780   4.585
 9635SOL    HW129804   0.599   5.867   4.564
 9635SOL    HW229805   0.584   5.710   4.519
 9636SOL     OW29806   5.267   3.699   3.857
 9636SOL    HW129807   5.212   3.712   3.939
 9636SOL    HW229808   5.345   3.640   3.879
 9637SOL     OW29809   2.517   2.637   6.742
 9637SOL    HW129810   2.468   2.594   6.667
 9637SOL    HW229811   2.486   2.731   6.753
 9638SOL     OW29812   0.152   4.511   5.668
 9638SOL    HW129813   0.055   4.511   5.693
 9638SOL    HW229814   0.161   4.500   5.569
 9639SOL     OW29815   4.857   2.740   1.548
 9639SOL    HW129816   4.919   2.669   1.516
 9639SOL    HW229817   4.893   2.781   1.632
 9640SOL     OW29818   3.271   6.782   3.222
 9640SOL    HW129819   3.301   6.708   3.281
 9640SOL    HW229820   3.348   6.842   3.201
 9641SOL     OW29821   0.364   3.327   4.746
 9641SOL    HW129822   0.430   3.265   4.704
 9641SOL    HW229823   0.271   3.300   4.720
 9642SOL     OW29824   0.459   3.483   4.986
 9642SOL    HW129825   0.374   3.529   5.009
 9642SOL    HW229826   0.447   3.431   4.901
 9643SOL     OW29827   5.639   5.170   4.160
 9643SOL    HW129828   5.695   5.239   4.115
 9643SOL    HW229829   5.585   5.121   4.091
 9644SOL     OW29830   0.859   4.682   3.735
 9644SOL    HW129831   0.927   4.696   3.807
 9644SOL    HW229832   0.770   4.717   3.766
 9645SOL     OW29833   1.183   4.524   6.901
 9645SOL    HW129834   1.144   4.462   6.969
 9645SOL    HW229835   1.203   4.612   6.944
 9646SOL     OW29836   2.866   5.272   1.012
 9646SOL    HW129837   2.781   5.297   0.966
 9646SOL    HW229838   2.862   5.177   1.040
 9647SOL     OW29839   5.897   6.848   3.357
 9647SOL    HW129840   5.948   6.846   3.443
 9647SOL    HW229841   5.839   6.767   3.351
 9648SOL     OW29842   3.700   2.206   1.241
 9648SOL    HW129843   3.612   2.184   1.282
 9648SOL    HW229844   3.722   2.138   1.170
 9649SOL     OW29845   6.683   6.487   1.279
 9649SOL    HW129846   6.673   6.419   1.352
 9649SOL    HW229847   6.663   6.445   1.191
 9650SOL     OW29848   0.634   5.430   4.686
 9650SOL    HW129849   0.582   5.442   4.602
 9650SOL    HW229850   0.691   5.348   4.679
 9651SOL     OW29851   4.412   1.635   0.045
 9651SOL    HW129852   4.473   1.711   0.022
 9651SOL    HW229853   4.466   1.551   0.058
 9652SOL     OW29854   0.305   3.744   0.699
 9652SOL    HW129855   0.341   3.651   0.695
 9652SOL    HW229856   0.317   3.780   0.792
 9653SOL     OW29857   5.228   4.065   5.499
 9653SOL    HW129858   5.285   4.062   5.581
 9653SOL    HW229859   5.283   4.097   5.422
 9654SOL     OW29860   4.055   3.184   4.341
 9654SOL    HW129861   3.998   3.136   4.275
 9654SOL    HW229862   4.100   3.262   4.296
 9655SOL     OW29863   4.762   0.537   0.764
 9655SOL    HW129864   4.810   0.522   0.678
 9655SOL    HW229865   4.675   0.487   0.763
 9656SOL     OW29866   5.472   4.557   6.214
 9656SOL    HW129867   5.412   4.586   6.140
 9656SOL    HW229868   5.491   4.634   6.275
 9657SOL     OW29869   4.749   5.178   2.594
 9657SOL    HW129870   4.831   5.135   2.556
 9657SOL    HW229871   4.774   5.232   2.674
 9658SOL     OW29872   5.675   0.716   2.562
 9658SOL    HW129873   5.619   0.666   2.628
 9658SOL    HW229874   5.694   0.808   2.598
 9659SOL     OW29875   2.945   2.704   0.452
 9659SOL    HW129876   2.859   2.745   0.423
 9659SOL    HW229877   3.013   2.775   0.467
 9660SOL     OW29878   2.447   0.181   1.482
 9660SOL    HW129879   2.351   0.211   1.477
 9660SOL    HW229880   2.506   0.260   1.497
 9661SOL     OW29881   4.116   3.655   2.073
 9661SOL    HW129882   4.122   3.555   2.082
 9661SOL    HW229883   4.163   3.683   1.989
 9662SOL     OW29884   4.480   0.521   5.351
 9662SOL    HW129885   4.393   0.538   5.397
 9662SOL    HW229886   4.464   0.472   5.265
 9663SOL     OW29887   1.026   5.679   2.724
 9663SOL    HW129888   0.966   5.755   2.703
 9663SOL    HW229889   1.039   5.674   2.823
 9664SOL     OW29890   1.897   4.765   3.375
 9664SOL    HW129891   1.945   4.709   3.308
 9664SOL    HW229892   1.801   4.737   3.380
 9665SOL     OW29893   6.719   4.522   6.494
 9665SOL    HW129894   6.653   4.455   6.460
 9665SOL    HW229895   6.777   4.480   6.563
 9666SOL     OW29896   5.580   3.212   0.752
 9666SOL    HW129897   5.648   3.139   0.748
 9666SOL    HW229898   5.625   3.300   0.738
 9667SOL     OW29899   5.488   6.294   6.383
 9667SOL    HW129900   5.433   6.347   6.447
 9667SOL    HW229901   5.575   6.269   6.427
 9668SOL     OW29902   2.497   0.398   6.993
 9668SOL    HW129903   2.434   0.412   6.917
 9668SOL    HW229904   2.466   0.450   0.046
 9669SOL     OW29905   3.741   0.603   6.846
 9669SOL    HW129906   3.793   0.518   6.838
 9669SOL    HW229907   3.744   0.635   6.941
 9670SOL     OW29908   0.991   0.301   1.959
 9670SOL    HW129909   1.076   0.350   1.939
 9670SOL    HW229910   0.980   0.225   1.895
 9671SOL     OW29911   0.766   6.317   6.437
 9671SOL    HW129912   0.830   6.272   6.500
 9671SOL    HW229913   0.678   6.271   6.440
 9672SOL     OW29914   0.867   3.779   4.653
 9672SOL    HW129915   0.767   3.782   4.657
 9672SOL    HW229916   0.904   3.801   4.743
 9673SOL     OW29917   2.852   3.111   6.109
 9673SOL    HW129918   2.831   3.070   6.198
 9673SOL    HW229919   2.950   3.130   6.104
 9674SOL     OW29920   1.971   6.995   4.158
 9674SOL    HW129921   1.978   0.042   4.091
 9674SOL    HW229922   2.045   7.004   4.225
 9675SOL     OW29923   5.859   4.060   5.779
 9675SOL    HW129924   5.765   4.088   5.758
 9675SOL    HW229925   5.865   4.032   5.875
 9676SOL     OW29926   1.177   3.194   6.050
 9676SOL    HW129927   1.136   3.278   6.015
 9676SOL    HW229928   1.265   3.179   6.006
 9677SOL     OW29929   0.488   4.572   2.517
 9677SOL    HW129930   0.391   4.548   2.518
 9677SOL    HW229931   0.544   4.489   2.519
 9678SOL     OW29932   4.319   2.596   6.061
 9678SOL    HW129933   4.238   2.579   6.006
 9678SOL    HW229934   4.400   2.563   6.012
 9679SOL     OW29935   1.168   1.010   3.840
 9679SOL    HW129936   1.178   1.107   3.860
 9679SOL    HW229937   1.192   0.956   3.921
 9680SOL     OW29938   4.952   0.466   2.043
 9680SOL    HW129939   5.018   0.397   2.072
 9680SOL    HW229940   4.906   0.436   1.960
 9681SOL     OW29941   0.842   3.487   1.388
 9681SOL    HW129942   0.758   3.539   1.404
 9681SOL    HW229943   0.824   3.390   1.404
 9682SOL     OW29944   3.999   6.509   5.475
 9682SOL    HW129945   3.999   6.455   5.391
 9682SOL    HW229946   4.089   6.503   5.519
 9683SOL     OW29947   3.362   6.115   3.947
 9683SOL    HW129948   3.276   6.149   3.986
 9683SOL    HW229949   3.384   6.167   3.864
 9684SOL     OW29950   0.505   2.779   6.312
 9684SOL    HW129951   0.581   2.722   6.343
 9684SOL    HW229952   0.489   2.762   6.215
 9685SOL     OW29953   3.641   4.400   1.723
 9685SOL    HW129954   3.614   4.490   1.758
 9685SOL    HW229955   3.562   4.339   1.720
 9686SOL     OW29956   0.451   1.769   6.020
 9686SOL    HW129957   0.412   1.794   5.931
 9686SOL    HW229958   0.388   1.709   6.069
 9687SOL     OW29959   5.020   1.853   3.935
 9687SOL    HW129960   4.925   1.861   3.965
 9687SOL    HW229961   5.027   1.785   3.862
 9688SOL     OW29962   0.068   5.210   1.762
 9688SOL    HW129963   0.144   5.183   1.822
 9688SOL    HW229964   0.021   5.289   1.801
 9689SOL     OW29965   1.860   5.461   1.597
 9689SOL    HW129966   1.827   5.370   1.622
 9689SOL    HW229967   1.884   5.463   1.500
 9690SOL     OW29968   5.904   4.700   4.908
 9690SOL    HW129969   5.870   4.618   4.862
 9690SOL    HW229970   6.004   4.701   4.905
 9691SOL     OW29971   3.810   3.339   2.160
 9691SOL    HW129972   3.902   3.354   2.122
 9691SOL    HW229973   3.742   3.378   2.097
 9692SOL     OW29974   4.911   4.638   0.400
 9692SOL    HW129975   4.907   4.714   0.464
 9692SOL    HW229976   4.978   4.658   0.328
 9693SOL     OW29977   4.550   2.942   6.565
 9693SOL    HW129978   4.613   2.926   6.489
 9693SOL    HW229979   4.468   2.988   6.530
 9694SOL     OW29980   2.403   6.460   1.436
 9694SOL    HW129981   2.379   6.488   1.529
 9694SOL    HW229982   2.495   6.421   1.435
 9695SOL     OW29983   2.132   2.529   3.652
 9695SOL    HW129984   2.033   2.519   3.664
 9695SOL    HW229985   2.156   2.625   3.663
 9696SOL     OW29986   4.975   3.256   3.323
 9696SOL    HW129987   5.067   3.244   3.362
 9696SOL    HW229988   4.908   3.208   3.380
 9697SOL     OW29989   0.015   6.863   1.781
 9697SOL    HW129990   0.053   6.956   1.778
 9697SOL    HW229991   6.951   6.863   1.739
 9698SOL     OW29992   6.637   3.605   2.023
 9698SOL    HW129993   6.609   3.575   1.932
 9698SOL    HW229994   6.559   3.603   2.085
 9699SOL     OW29995   1.653   6.382   2.228
 9699SOL    HW129996   1.610   6.329   2.154
 9699SOL    HW229997   1.624   6.346   2.316
 9700SOL     OW29998   6.661   0.657   6.093
 9700SOL    HW129999   6.599   0.616   6.026
 9700SOL    HW230000   6.745   0.684   6.047
 9701SOL     OW30001   5.561   4.010   6.691
 9701SOL    HW130002   5.464   3.998   6.669
 9701SOL    HW230003   5.600   3.923   6.719
 9702SOL     OW30004   3.330   3.994   1.703
 9702SOL    HW130005   3.399   3.951   1.762
 9702SOL    HW230006   3.295   3.927   1.638
 9703SOL     OW30007   6.402   5.282   2.915
 9703SOL    HW130008   6.468   5.350   2.883
 9703SOL    HW230009   6.368   5.229   2.837
 9704SOL     OW30010   0.784   4.218   1.954
 9704SOL    HW130011   0.838   4.297   1.983
 9704SOL    HW230012   0.844   4.138   1.947
 9705SOL     OW30013   0.381   3.854   6.165
 9705SOL    HW130014   0.453   3.913   6.130
 9705SOL    HW230015   0.394   3.840   6.263
 9706SOL     OW30016   1.397   6.409   1.915
 9706SOL    HW130017   1.373   6.373   2.005
 9706SOL    HW230018   1.404   6.509   1.920
 9707SOL     OW30019   0.892   5.021   2.234
 9707SOL    HW130020   0.955   5.014   2.312
 9707SOL    HW230021   0.828   5.096   2.250
 9708SOL     OW30022   2.750   1.535   2.202
 9708SOL    HW130023   2.670   1.485   2.173
 9708SOL    HW230024   2.792   1.581   2.123
 9709SOL     OW30025   4.550   1.637   1.799
 9709SOL    HW130026   4.544   1.735   1.777
 9709SOL    HW230027   4.474   1.589   1.756
 9710SOL     OW30028   4.649   4.436   4.413
 9710SOL    HW130029   4.700   4.514   4.449
 9710SOL    HW230030   4.683   4.351   4.453
 9711SOL     OW30031   2.898   0.892   6.631
 9711SOL    HW130032   2.843   0.814   6.602
 9711SOL    HW230033   2.980   0.860   6.677
 9712SOL     OW30034   5.220   6.651   5.201
 9712SOL    HW130035   5.174   6.564   5.184
 9712SOL    HW230036   5.228   6.701   5.114
 9713SOL     OW30037   1.545   0.769   2.982
 9713SOL    HW130038   1.547   0.855   2.930
 9713SOL    HW230039   1.611   0.774   3.057
 9714SOL     OW30040   2.291   2.659   4.268
 9714SOL    HW130041   2.264   2.676   4.174
 9714SOL    HW230042   2.244   2.577   4.302
 9715SOL     OW30043   0.119   1.852   6.022
 9715SOL    HW130044   0.188   1.917   6.054
 9715SOL    HW230045   0.140   1.761   6.057
 9716SOL     OW30046   2.157   6.671   1.336
 9716SOL    HW130047   2.138   6.654   1.239
 9716SOL    HW230048   2.071   6.672   1.387
 9717SOL     OW30049   3.766   2.458   5.859
 9717SOL    HW130050   3.696   2.497   5.799
 9717SOL    HW230051   3.746   2.361   5.875
 9718SOL     OW30052   3.360   2.574   6.729
 9718SOL    HW130053   3.436   2.529   6.683
 9718SOL    HW230054   3.325   2.648   6.671
 9719SOL     OW30055   3.986   0.019   5.334
 9719SOL    HW130056   4.016   0.112   5.314
 9719SOL    HW230057   3.887   0.013   5.325
 9720SOL     OW30058   1.842   2.955   2.439
 9720SOL    HW130059   1.820   2.871   2.389
 9720SOL    HW230060   1.871   2.932   2.532
 9721SOL     OW30061   1.279   2.184   1.763
 9721SOL    HW130062   1.296   2.094   1.723
 9721SOL    HW230063   1.216   2.174   1.840
 9722SOL     OW30064   3.784   2.653   5.327
 9722SOL    HW130065   3.794   2.554   5.318
 9722SOL    HW230066   3.846   2.686   5.399
 9723SOL     OW30067   5.768   0.289   4.957
 9723SOL    HW130068   5.809   0.368   5.001
 9723SOL    HW230069   5.684   0.263   5.005
 9724SOL     OW30070   1.889   4.866   1.126
 9724SOL    HW130071   1.872   4.771   1.101
 9724SOL    HW230072   1.979   4.874   1.168
 9725SOL     OW30073   5.459   5.494   3.800
 9725SOL    HW130074   5.439   5.398   3.779
 9725SOL    HW230075   5.388   5.552   3.759
 9726SOL     OW30076   7.009   0.116   3.322
 9726SOL    HW130077   0.053   0.143   3.258
 9726SOL    HW230078   6.919   0.144   3.287
 9727SOL     OW30079   6.180   2.724   1.608
 9727SOL    HW130080   6.166   2.691   1.515
 9727SOL    HW230081   6.277   2.742   1.623
 9728SOL     OW30082   5.770   2.051   4.801
 9728SOL    HW130083   5.827   1.983   4.846
 9728SOL    HW230084   5.827   2.122   4.760
 9729SOL     OW30085   0.631   3.542   2.864
 9729SOL    HW130086   0.701   3.536   2.793
 9729SOL    HW230087   0.607   3.638   2.879
 9730SOL     OW30088   0.840   5.206   3.469
 9730SOL    HW130089   0.808   5.140   3.537
 9730SOL    HW230090   0.905   5.269   3.511
 9731SOL     OW30091   6.886   1.980   1.419
 9731SOL    HW130092   6.910   2.073   1.392
 9731SOL    HW230093   6.900   1.918   1.342
 9732SOL     OW30094   0.603   3.058   3.388
 9732SOL    HW130095   0.517   3.107   3.376
 9732SOL    HW230096   0.603   3.011   3.476
 9733SOL     OW30097   5.865   5.504   0.987
 9733SOL    HW130098   5.784   5.446   1.001
 9733SOL    HW230099   5.871   5.530   0.891
 9734SOL     OW30100   3.912   4.193   6.904
 9734SOL    HW130101   3.933   4.200   7.002
 9734SOL    HW230102   3.905   4.284   6.865
 9735SOL     OW30103   1.065   1.623   0.427
 9735SOL    HW130104   1.077   1.526   0.450
 9735SOL    HW230105   1.141   1.653   0.368
 9736SOL     OW30106   4.923   2.160   5.241
 9736SOL    HW130107   5.019   2.185   5.233
 9736SOL    HW230108   4.868   2.241   5.261
 9737SOL     OW30109   5.403   3.366   4.925
 9737SOL    HW130110   5.490   3.344   4.882
 9737SOL    HW230111   5.365   3.448   4.882
 9738SOL     OW30112   1.946   6.368   1.460
 9738SOL    HW130113   1.941   6.466   1.477
 9738SOL    HW230114   2.039   6.342   1.436
 9739SOL     OW30115   5.457   6.703   6.839
 9739SOL    HW130116   5.538   6.694   6.896
 9739SOL    HW230117   5.432   6.800   6.831
 9740SOL     OW30118   6.688   0.842   1.243
 9740SOL    HW130119   6.783   0.848   1.213
 9740SOL    HW230120   6.674   0.903   1.320
 9741SOL     OW30121   2.538   2.526   3.586
 9741SOL    HW130122   2.573   2.471   3.662
 9741SOL    HW230123   2.581   2.616   3.588
 9742SOL     OW30124   4.431   1.130   6.792
 9742SOL    HW130125   4.492   1.134   6.870
 9742SOL    HW230126   4.483   1.103   6.711
 9743SOL     OW30127   6.619   3.446   4.633
 9743SOL    HW130128   6.673   3.499   4.699
 9743SOL    HW230129   6.681   3.392   4.576
 9744SOL     OW30130   1.616   2.739   2.673
 9744SOL    HW130131   1.535   2.685   2.649
 9744SOL    HW230132   1.621   2.819   2.613
 9745SOL     OW30133   1.174   6.360   6.225
 9745SOL    HW130134   1.227   6.445   6.228
 9745SOL    HW230135   1.148   6.334   6.318
 9746SOL     OW30136   3.143   6.531   6.267
 9746SOL    HW130137   3.084   6.452   6.247
 9746SOL    HW230138   3.086   6.609   6.291
 9747SOL     OW30139   4.054   1.488   3.228
 9747SOL    HW130140   4.079   1.424   3.301
 9747SOL    HW230141   3.990   1.444   3.166
 9748SOL     OW30142   0.685   2.019   3.212
 9748SOL    HW130143   0.599   2.038   3.258
 9748SOL    HW230144   0.761   2.061   3.261
 9749SOL     OW30145   6.745   0.189   1.453
 9749SOL    HW130146   6.770   0.252   1.527
 9749SOL    HW230147   6.732   0.241   1.368
 9750SOL     OW30148   5.513   2.353   5.078
 9750SOL    HW130149   5.496   2.437   5.026
 9750SOL    HW230150   5.526   2.277   5.014
 9751SOL     OW30151   2.772   6.346   0.916
 9751SOL    HW130152   2.841   6.365   0.846
 9751SOL    HW230153   2.699   6.414   0.910
 9752SOL     OW30154   3.476   3.456   0.706
 9752SOL    HW130155   3.535   3.523   0.752
 9752SOL    HW230156   3.533   3.392   0.654
 9753SOL     OW30157   6.638   6.123   3.221
 9753SOL    HW130158   6.663   6.136   3.317
 9753SOL    HW230159   6.617   6.211   3.180
 9754SOL     OW30160   3.544   1.315   2.135
 9754SOL    HW130161   3.603   1.353   2.207
 9754SOL    HW230162   3.581   1.340   2.046
 9755SOL     OW30163   3.295   3.798   1.040
 9755SOL    HW130164   3.382   3.810   0.992
 9755SOL    HW230165   3.253   3.712   1.012
 9756SOL     OW30166   5.412   6.982   6.829
 9756SOL    HW130167   5.337   0.001   6.780
 9756SOL    HW230168   5.496   0.009   6.818
 9757SOL     OW30169   5.305   3.994   4.504
 9757SOL    HW130170   5.267   4.043   4.426
 9757SOL    HW230171   5.399   4.022   4.519
 9758SOL     OW30172   3.104   0.734   2.502
 9758SOL    HW130173   3.069   0.742   2.408
 9758SOL    HW230174   3.179   0.797   2.515
 9759SOL     OW30175   0.195   2.243   0.960
 9759SOL    HW130176   0.173   2.155   0.920
 9759SOL    HW230177   0.171   2.242   1.057
 9760SOL     OW30178   4.420   0.594   6.094
 9760SOL    HW130179   4.356   0.523   6.064
 9760SOL    HW230180   4.481   0.618   6.018
 9761SOL     OW30181   1.035   1.844   1.672
 9761SOL    HW130182   0.971   1.921   1.674
 9761SOL    HW230183   0.991   1.763   1.710
 9762SOL     OW30184   3.777   1.287   6.272
 9762SOL    HW130185   3.868   1.284   6.314
 9762SOL    HW230186   3.730   1.370   6.300
 9763SOL     OW30187   6.250   2.088   0.910
 9763SOL    HW130188   6.228   1.996   0.878
 9763SOL    HW230189   6.196   2.109   0.991
 9764SOL     OW30190   0.583   2.662   2.832
 9764SOL    HW130191   0.496   2.614   2.819
 9764SOL    HW230192   0.604   2.716   2.750
 9765SOL     OW30193   6.581   1.880   1.295
 9765SOL    HW130194   6.591   1.931   1.380
 9765SOL    HW230195   6.539   1.939   1.226
 9766SOL     OW30196   0.228   2.842   3.018
 9766SOL    HW130197   0.254   2.850   2.922
 9766SOL    HW230198   0.280   2.767   3.060
 9767SOL     OW30199   3.667   1.198   5.034
 9767SOL    HW130200   3.572   1.168   5.047
 9767SOL    HW230201   3.710   1.212   5.123
 9768SOL     OW30202   5.163   2.146   6.758
 9768SOL    HW130203   5.174   2.106   6.667
 9768SOL    HW230204   5.253   2.174   6.793
 9769SOL     OW30205   3.770   1.218   5.320
 9769SOL    HW130206   3.792   1.310   5.354
 9769SOL    HW230207   3.841   1.154   5.349
 9770SOL     OW30208   1.948   3.269   5.012
 9770SOL    HW130209   1.879   3.303   4.948
 9770SOL    HW230210   1.948   3.169   5.011
 9771SOL     OW30211   3.209   0.952   2.133
 9771SOL    HW130212   3.292   0.936   2.185
 9771SOL    HW230213   3.138   0.888   2.163
 9772SOL     OW30214   0.376   0.396   2.031
 9772SOL    HW130215   0.380   0.482   2.081
 9772SOL    HW230216   0.294   0.393   1.974
 9773SOL     OW30217   5.877   6.675   2.115
 9773SOL    HW130218   5.887   6.598   2.052
 9773SOL    HW230219   5.789   6.719   2.100
 9774SOL     OW30220   1.915   5.997   4.457
 9774SOL    HW130221   1.915   6.043   4.368
 9774SOL    HW230222   2.009   5.989   4.491
 9775SOL     OW30223   1.162   1.384   2.979
 9775SOL    HW130224   1.208   1.339   2.903
 9775SOL    HW230225   1.182   1.482   2.977
 9776SOL     OW30226   1.956   5.736   1.419
 9776SOL    HW130227   1.992   5.727   1.326
 9776SOL    HW230228   2.032   5.734   1.484
 9777SOL     OW30229   4.160   1.656   5.240
 9777SOL    HW130230   4.098   1.734   5.237
 9777SOL    HW230231   4.159   1.615   5.331
 9778SOL     OW30232   1.722   3.560   2.987
 9778SOL    HW130233   1.678   3.627   2.927
 9778SOL    HW230234   1.761   3.486   2.931
 9779SOL     OW30235   2.954   0.367   3.094
 9779SOL    HW130236   3.038   0.414   3.121
 9779SOL    HW230237   2.968   0.320   3.007
 9780SOL     OW30238   0.844   1.450   0.821
 9780SOL    HW130239   0.886   1.412   0.739
 9780SOL    HW230240   0.746   1.462   0.806
 9781SOL     OW30241   1.270   1.167   2.172
 9781SOL    HW130242   1.345   1.172   2.105
 9781SOL    HW230243   1.306   1.135   2.260
 9782SOL     OW30244   0.084   2.761   0.419
 9782SOL    HW130245   0.072   2.730   0.325
 9782SOL    HW230246   0.135   2.692   0.471
 9783SOL     OW30247   5.206   1.932   2.572
 9783SOL    HW130248   5.168   1.857   2.626
 9783SOL    HW230249   5.244   1.896   2.487
 9784SOL     OW30250   1.950   1.539   0.553
 9784SOL    HW130251   1.956   1.578   0.462
 9784SOL    HW230252   1.999   1.596   0.618
 9785SOL     OW30253   1.593   3.483   4.868
 9785SOL    HW130254   1.689   3.492   4.842
 9785SOL    HW230255   1.565   3.387   4.859
 9786SOL     OW30256   2.874   4.709   6.990
 9786SOL    HW130257   2.864   4.798   6.946
 9786SOL    HW230258   2.844   4.715   0.058
 9787SOL     OW30259   2.734   3.494   1.387
 9787SOL    HW130260   2.702   3.400   1.384
 9787SOL    HW230261   2.667   3.551   1.435
 9788SOL     OW30262   3.020   6.975   2.771
 9788SOL    HW130263   2.976   6.887   2.760
 9788SOL    HW230264   3.102   6.979   2.714
 9789SOL     OW30265   4.502   1.620   0.899
 9789SOL    HW130266   4.512   1.715   0.927
 9789SOL    HW230267   4.509   1.614   0.800
 9790SOL     OW30268   4.814   5.910   4.662
 9790SOL    HW130269   4.715   5.902   4.666
 9790SOL    HW230270   4.840   5.963   4.581
 9791SOL     OW30271   0.436   0.842   1.426
 9791SOL    HW130272   0.530   0.869   1.403
 9791SOL    HW230273   0.406   0.893   1.507
 9792SOL     OW30274   3.610   4.055   0.805
 9792SOL    HW130275   3.701   4.062   0.764
 9792SOL    HW230276   3.556   4.135   0.780
 9793SOL     OW30277   5.892   1.224   2.425
 9793SOL    HW130278   5.916   1.299   2.363
 9793SOL    HW230279   5.880   1.260   2.518
 9794SOL     OW30280   3.707   5.377   4.696
 9794SOL    HW130281   3.676   5.328   4.615
 9794SOL    HW230282   3.780   5.441   4.670
 9795SOL     OW30283   1.959   3.910   3.151
 9795SOL    HW130284   1.899   3.832   3.170
 9795SOL    HW230285   1.940   3.984   3.216
 9796SOL     OW30286   3.399   3.920   4.529
 9796SOL    HW130287   3.482   3.972   4.550
 9796SOL    HW230288   3.402   3.889   4.434
 9797SOL     OW30289   3.287   5.637   0.159
 9797SOL    HW130290   3.277   5.538   0.145
 9797SOL    HW230291   3.352   5.674   0.092
 9798SOL     OW30292   6.887   4.187   6.522
 9798SOL    HW130293   6.971   4.240   6.509
 9798SOL    HW230294   6.883   4.113   6.455
 9799SOL     OW30295   4.018   6.465   6.613
 9799SOL    HW130296   3.958   6.516   6.675
 9799SOL    HW230297   4.027   6.371   6.645
 9800SOL     OW30298   6.349   4.574   5.053
 9800SOL    HW130299   6.282   4.642   5.022
 9800SOL    HW230300   6.307   4.517   5.124
 9801SOL     OW30301   4.044   6.824   0.745
 9801SOL    HW130302   4.059   6.914   0.704
 9801SOL    HW230303   3.973   6.832   0.816
 9802SOL     OW30304   3.805   3.340   0.252
 9802SOL    HW130305   3.729   3.401   0.275
 9802SOL    HW230306   3.769   3.249   0.230
 9803SOL     OW30307   2.086   3.306   6.629
 9803SOL    HW130308   2.106   3.326   6.725
 9803SOL    HW230309   2.050   3.213   6.622
 9804SOL     OW30310   1.305   4.321   2.748
 9804SOL    HW130311   1.366   4.337   2.670
 9804SOL    HW230312   1.269   4.408   2.782
 9805SOL     OW30313   0.124   5.725   4.509
 9805SOL    HW130314   0.201   5.674   4.471
 9805SOL    HW230315   0.108   5.807   4.453
 9806SOL     OW30316   3.594   1.511   6.604
 9806SOL    HW130317   3.581   1.453   6.684
 9806SOL    HW230318   3.637   1.597   6.632
 9807SOL     OW30319   3.772   2.924   3.901
 9807SOL    HW130320   3.800   2.841   3.852
 9807SOL    HW230321   3.679   2.948   3.874
 9808SOL     OW30322   3.211   5.624   2.290
 9808SOL    HW130323   3.193   5.530   2.317
 9808SOL    HW230324   3.206   5.683   2.370
 9809SOL     OW30325   5.940   2.485   1.033
 9809SOL    HW130326   5.883   2.563   1.060
 9809SOL    HW230327   5.897   2.400   1.062
 9810SOL     OW30328   2.846   3.274   0.831
 9810SOL    HW130329   2.859   3.255   0.928
 9810SOL    HW230330   2.854   3.372   0.814
 9811SOL     OW30331   5.299   3.668   4.153
 9811SOL    HW130332   5.272   3.751   4.202
 9811SOL    HW230333   5.382   3.687   4.100
 9812SOL     OW30334   3.485   5.856   6.715
 9812SOL    HW130335   3.481   5.896   6.807
 9812SOL    HW230336   3.562   5.894   6.664
 9813SOL     OW30337   4.118   1.009   1.946
 9813SOL    HW130338   4.138   0.926   1.997
 9813SOL    HW230339   4.198   1.035   1.891
 9814SOL     OW30340   6.251   1.928   6.189
 9814SOL    HW130341   6.206   1.879   6.263
 9814SOL    HW230342   6.277   1.863   6.117
 9815SOL     OW30343   4.633   2.629   4.642
 9815SOL    HW130344   4.658   2.663   4.733
 9815SOL    HW230345   4.654   2.699   4.574
 9816SOL     OW30346   3.055   0.915   0.030
 9816SOL    HW130347   3.155   0.919   0.028
 9816SOL    HW230348   3.023   0.842   6.996
 9817SOL     OW30349   6.845   0.497   1.505
 9817SOL    HW130350   6.823   0.563   1.576
 9817SOL    HW230351   6.823   0.536   1.415
 9818SOL     OW30352   3.546   2.576   5.451
 9818SOL    HW130353   3.473   2.636   5.420
 9818SOL    HW230354   3.635   2.612   5.421
 9819SOL     OW30355   2.912   0.546   1.831
 9819SOL    HW130356   2.974   0.584   1.762
 9819SOL    HW230357   2.965   0.510   1.908
 9820SOL     OW30358   3.907   2.632   6.967
 9820SOL    HW130359   3.891   2.669   0.032
 9820SOL    HW230360   4.005   2.624   6.951
 9821SOL     OW30361   6.653   5.249   7.018
 9821SOL    HW130362   6.677   5.332   6.967
 9821SOL    HW230363   6.600   5.273   0.072
 9822SOL     OW30364   0.155   0.634   2.536
 9822SOL    HW130365   0.243   0.590   2.519
 9822SOL    HW230366   0.081   0.568   2.521
 9823SOL     OW30367   3.502   6.758   2.051
 9823SOL    HW130368   3.550   6.776   1.966
 9823SOL    HW230369   3.420   6.703   2.033
 9824SOL     OW30370   1.670   3.956   5.991
 9824SOL    HW130371   1.725   3.877   5.964
 9824SOL    HW230372   1.691   3.980   6.086
 9825SOL     OW30373   4.342   5.292   4.922
 9825SOL    HW130374   4.389   5.350   4.988
 9825SOL    HW230375   4.306   5.211   4.968
 9826SOL     OW30376   5.734   6.446   5.151
 9826SOL    HW130377   5.643   6.405   5.149
 9826SOL    HW230378   5.797   6.389   5.099
 9827SOL     OW30379   0.916   4.998   4.904
 9827SOL    HW130380   0.858   5.069   4.944
 9827SOL    HW230381   0.866   4.911   4.900
 9828SOL     OW30382   1.976   2.326   0.004
 9828SOL    HW130383   2.064   2.372   7.020
 9828SOL    HW230384   1.961   2.264   6.953
 9829SOL     OW30385   2.543   4.498   1.399
 9829SOL    HW130386   2.470   4.520   1.463
 9829SOL    HW230387   2.628   4.482   1.449
 9830SOL     OW30388   6.984   1.336   0.882
 9830SOL    HW130389   0.023   1.396   0.836
 9830SOL    HW230390   0.007   1.274   0.943
 9831SOL     OW30391   5.778   6.732   1.489
 9831SOL    HW130392   5.767   6.819   1.443
 9831SOL    HW230393   5.790   6.659   1.422
 9832SOL     OW30394   3.846   4.296   1.008
 9832SOL    HW130395   3.932   4.346   1.013
 9832SOL    HW230396   3.796   4.324   0.926
 9833SOL     OW30397   4.560   4.455   6.224
 9833SOL    HW130398   4.472   4.500   6.211
 9833SOL    HW230399   4.579   4.395   6.145
 9834SOL     OW30400   2.199   2.065   3.971
 9834SOL    HW130401   2.254   2.126   3.915
 9834SOL    HW230402   2.254   1.987   4.000
 9835SOL     OW30403   5.799   1.092   4.749
 9835SOL    HW130404   5.765   1.092   4.843
 9835SOL    HW230405   5.877   1.155   4.742
 9836SOL     OW30406   4.772   5.316   1.417
 9836SOL    HW130407   4.694   5.253   1.421
 9836SOL    HW230408   4.786   5.358   1.507
 9837SOL     OW30409   2.255   6.268   5.484
 9837SOL    HW130410   2.159   6.284   5.460
 9837SOL    HW230411   2.295   6.201   5.422
 9838SOL     OW30412   6.763   6.074   4.953
 9838SOL    HW130413   6.733   6.068   4.858
 9838SOL    HW230414   6.862   6.064   4.957
 9839SOL     OW30415   6.123   2.849   2.535
 9839SOL    HW130416   6.105   2.815   2.442
 9839SOL    HW230417   6.111   2.775   2.600
 9840SOL     OW30418   5.705   0.214   0.392
 9840SOL    HW130419   5.684   0.165   0.477
 9840SOL    HW230420   5.685   0.311   0.404
 9841SOL     OW30421   2.226   2.984   4.205
 9841SOL    HW130422   2.168   3.063   4.226
 9841SOL    HW230423   2.261   2.945   4.290
 9842SOL     OW30424   3.249   3.727   4.033
 9842SOL    HW130425   3.298   3.740   3.947
 9842SOL    HW230426   3.163   3.679   4.016
 9843SOL     OW30427   6.192   4.622   3.087
 9843SOL    HW130428   6.103   4.629   3.042
 9843SOL    HW230429   6.264   4.656   3.025
 9844SOL     OW30430   5.244   0.366   1.963
 9844SOL    HW130431   5.227   0.379   2.061
 9844SOL    HW230432   5.339   0.390   1.943
 9845SOL     OW30433   1.562   1.505   2.962
 9845SOL    HW130434   1.631   1.553   3.016
 9845SOL    HW230435   1.515   1.571   2.903
 9846SOL     OW30436   3.087   3.727   3.638
 9846SOL    HW130437   3.128   3.769   3.557
 9846SOL    HW230438   3.070   3.797   3.707
 9847SOL     OW30439   2.064   4.474   4.954
 9847SOL    HW130440   1.964   4.467   4.946
 9847SOL    HW230441   2.094   4.425   5.036
 9848SOL     OW30442   5.769   3.468   0.136
 9848SOL    HW130443   5.801   3.374   0.120
 9848SOL    HW230444   5.681   3.465   0.184
 9849SOL     OW30445   0.233   6.319   5.607
 9849SOL    HW130446   0.226   6.331   5.706
 9849SOL    HW230447   0.200   6.228   5.583
 9850SOL     OW30448   4.449   0.075   2.835
 9850SOL    HW130449   4.491   0.149   2.889
 9850SOL    HW230450   4.384   0.113   2.771
 9851SOL     OW30451   5.520   3.064   5.062
 9851SOL    HW130452   5.520   3.138   4.995
 9851SOL    HW230453   5.475   3.095   5.146
 9852SOL     OW30454   5.690   1.671   4.339
 9852SOL    HW130455   5.693   1.740   4.411
 9852SOL    HW230456   5.701   1.715   4.250
 9853SOL     OW30457   0.389   4.725   1.367
 9853SOL    HW130458   0.393   4.825   1.368
 9853SOL    HW230459   0.479   4.689   1.394
 9854SOL     OW30460   3.955   6.031   3.685
 9854SOL    HW130461   3.956   5.931   3.681
 9854SOL    HW230462   3.928   6.067   3.595
 9855SOL     OW30463   1.802   3.548   0.731
 9855SOL    HW130464   1.839   3.592   0.813
 9855SOL    HW230465   1.797   3.450   0.745
 9856SOL     OW30466   3.313   3.131   1.112
 9856SOL    HW130467   3.237   3.099   1.056
 9856SOL    HW230468   3.347   3.218   1.075
 9857SOL     OW30469   6.799   4.430   2.980
 9857SOL    HW130470   6.836   4.382   2.900
 9857SOL    HW230471   6.737   4.503   2.949
 9858SOL     OW30472   3.639   1.597   1.340
 9858SOL    HW130473   3.654   1.692   1.314
 9858SOL    HW230474   3.727   1.551   1.351
 9859SOL     OW30475   6.980   7.026   1.354
 9859SOL    HW130476   6.918   7.023   1.433
 9859SOL    HW230477   6.959   0.081   1.299
 9860SOL     OW30478   0.672   0.840   2.355
 9860SOL    HW130479   0.700   0.784   2.277
 9860SOL    HW230480   0.576   0.823   2.376
 9861SOL     OW30481   2.974   6.319   4.369
 9861SOL    HW130482   2.910   6.377   4.421
 9861SOL    HW230483   3.049   6.375   4.334
 9862SOL     OW30484   0.529   2.202   0.940
 9862SOL    HW130485   0.496   2.119   0.895
 9862SOL    HW230486   0.476   2.281   0.908
 9863SOL     OW30487   3.291   6.990   0.270
 9863SOL    HW130488   3.342   6.911   0.235
 9863SOL    HW230489   3.326   0.047   0.226
 9864SOL     OW30490   4.676   5.691   2.913
 9864SOL    HW130491   4.646   5.765   2.853
 9864SOL    HW230492   4.775   5.683   2.909
 9865SOL     OW30493   1.659   2.657   3.837
 9865SOL    HW130494   1.705   2.743   3.857
 9865SOL    HW230495   1.623   2.618   3.921
 9866SOL     OW30496   3.286   5.308   3.556
 9866SOL    HW130497   3.287   5.249   3.476
 9866SOL    HW230498   3.379   5.331   3.582
 9867SOL     OW30499   4.163   0.370   6.484
 9867SOL    HW130500   4.135   0.288   6.434
 9867SOL    HW230501   4.121   0.451   6.441
 9868SOL     OW30502   0.771   5.177   5.891
 9868SOL    HW130503   0.786   5.078   5.892
 9868SOL    HW230504   0.852   5.223   5.854
 9869SOL     OW30505   1.417   4.069   3.020
 9869SOL    HW130506   1.429   4.168   3.025
 9869SOL    HW230507   1.493   4.023   3.066
 9870SOL     OW30508   4.571   4.553   2.033
 9870SOL    HW130509   4.578   4.459   2.069
 9870SOL    HW230510   4.643   4.568   1.966
 9871SOL     OW30511   1.439   2.003   5.730
 9871SOL    HW130512   1.513   1.936   5.724
 9871SOL    HW230513   1.476   2.091   5.760
 9872SOL     OW30514   1.456   4.258   3.596
 9872SOL    HW130515   1.477   4.346   3.554
 9872SOL    HW230516   1.483   4.184   3.534
 9873SOL     OW30517   1.478   1.975   0.329
 9873SOL    HW130518   1.518   1.938   0.413
 9873SOL    HW230519   1.519   1.929   0.250
 9874SOL     OW30520   1.089   3.648   4.576
 9874SOL    HW130521   1.159   3.717   4.598
 9874SOL    HW230522   0.999   3.692   4.573
 9875SOL     OW30523   0.801   1.177   2.548
 9875SOL    HW130524   0.745   1.240   2.602
 9875SOL    HW230525   0.895   1.180   2.580
 9876SOL     OW30526   6.794   5.347   2.025
 9876SOL    HW130527   6.757   5.265   1.982
 9876SOL    HW230528   6.723   5.391   2.080
 9877SOL     OW30529   3.387   6.783   1.528
 9877SOL    HW130530   3.358   6.707   1.587
 9877SOL    HW230531   3.464   6.831   1.572
 9878SOL     OW30532   0.701   0.405   5.127
 9878SOL    HW130533   0.749   0.464   5.061
 9878SOL    HW230534   0.740   0.417   5.218
 9879SOL     OW30535   5.748   5.981   5.203
 9879SOL    HW130536   5.825   5.994   5.265
 9879SOL    HW230537   5.721   5.885   5.202
 9880SOL     OW30538   1.867   1.491   4.073
 9880SOL    HW130539   1.855   1.391   4.075
 9880SOL    HW230540   1.829   1.530   4.157
 9881SOL     OW30541   6.937   1.435   6.071
 9881SOL    HW130542   7.024   1.406   6.111
 9881SOL    HW230543   6.952   1.468   5.978
 9882SOL     OW30544   2.156   1.988   3.046
 9882SOL    HW130545   2.205   1.996   3.133
 9882SOL    HW230546   2.222   1.971   2.973
 9883SOL     OW30547   2.732   1.177   2.225
 9883SOL    HW130548   2.745   1.079   2.212
 9883SOL    HW230549   2.791   1.209   2.299
 9884SOL     OW30550   3.238   0.514   4.088
 9884SOL    HW130551   3.260   0.611   4.098
 9884SOL    HW230552   3.287   0.477   4.009
 9885SOL     OW30553   6.361   4.222   4.408
 9885SOL    HW130554   6.360   4.188   4.313
 9885SOL    HW230555   6.413   4.158   4.465
 9886SOL     OW30556   0.898   3.118   1.745
 9886SOL    HW130557   0.910   3.210   1.784
 9886SOL    HW230558   0.844   3.063   1.808
 9887SOL     OW30559   4.401   6.764   6.107
 9887SOL    HW130560   4.361   6.705   6.177
 9887SOL    HW230561   4.328   6.815   6.061
 9888SOL     OW30562   6.234   5.208   0.072
 9888SOL    HW130563   6.265   5.140   0.138
 9888SOL    HW230564   6.305   5.225   0.004
 9889SOL     OW30565   0.341   4.924   0.473
 9889SOL    HW130566   0.410   4.855   0.493
 9889SOL    HW230567   0.325   4.981   0.554
 9890SOL     OW30568   1.177   3.189   0.528
 9890SOL    HW130569   1.141   3.104   0.490
 9890SOL    HW230570   1.118   3.265   0.501
 9891SOL     OW30571   4.940   1.859   1.887
 9891SOL    HW130572   4.913   1.765   1.868
 9891SOL    HW230573   5.001   1.891   1.814
 9892SOL     OW30574   0.854   6.655   6.864
 9892SOL    HW130575   0.885   6.691   6.952
 9892SOL    HW230576   0.913   6.579   6.836
 9893SOL     OW30577   2.536   1.726   0.717
 9893SOL    HW130578   2.518   1.713   0.620
 9893SOL    HW230579   2.451   1.751   0.763
 9894SOL     OW30580   2.112   1.208   1.583
 9894SOL    HW130581   2.209   1.233   1.576
 9894SOL    HW230582   2.056   1.282   1.544
 9895SOL     OW30583   4.433   2.941   5.390
 9895SOL    HW130584   4.442   2.869   5.460
 9895SOL    HW230585   4.337   2.968   5.383
 9896SOL     OW30586   6.811   6.612   6.432
 9896SOL    HW130587   6.772   6.547   6.498
 9896SOL    HW230588   6.866   6.562   6.365
 9897SOL     OW30589   5.429   5.159   4.349
 9897SOL    HW130590   5.420   5.121   4.441
 9897SOL    HW230591   5.504   5.112   4.301
 9898SOL     OW30592   2.908   6.781   5.679
 9898SOL    HW130593   2.939   6.872   5.708
 9898SOL    HW230594   2.830   6.791   5.618
 9899SOL     OW30595   6.965   5.046   6.925
 9899SOL    HW130596   6.876   5.005   6.942
 9899SOL    HW230597   6.954   5.122   6.861
 9900SOL     OW30598   2.179   4.417   3.381
 9900SOL    HW130599   2.136   4.478   3.447
 9900SOL    HW230600   2.197   4.329   3.424
 9901SOL     OW30601   2.376   2.951   5.619
 9901SOL    HW130602   2.333   2.880   5.563
 9901SOL    HW230603   2.334   3.040   5.599
 9902SOL     OW30604   2.936   4.212   0.423
 9902SOL    HW130605   2.896   4.269   0.352
 9902SOL    HW230606   2.907   4.246   0.513
 9903SOL     OW30607   5.458   0.725   4.348
 9903SOL    HW130608   5.538   0.666   4.359
 9903SOL    HW230609   5.400   0.689   4.275
 9904SOL     OW30610   6.345   2.582   0.748
 9904SOL    HW130611   6.376   2.489   0.725
 9904SOL    HW230612   6.276   2.576   0.821
 9905SOL     OW30613   5.258   0.610   0.181
 9905SOL    HW130614   5.227   0.514   0.181
 9905SOL    HW230615   5.191   0.666   0.132
 9906SOL     OW30616   3.259   2.855   4.988
 9906SOL    HW130617   3.203   2.783   4.947
 9906SOL    HW230618   3.207   2.941   4.990
 9907SOL     OW30619   1.213   6.822   1.934
 9907SOL    HW130620   1.215   6.921   1.940
 9907SOL    HW230621   1.141   6.793   1.870
 9908SOL     OW30622   4.907   3.635   2.316
 9908SOL    HW130623   4.842   3.709   2.334
 9908SOL    HW230624   4.922   3.627   2.217
 9909SOL     OW30625   2.300   0.504   5.022
 9909SOL    HW130626   2.283   0.476   5.116
 9909SOL    HW230627   2.326   0.424   4.968
 9910SOL     OW30628   0.158   5.360   3.708
 9910SOL    HW130629   0.109   5.326   3.628
 9910SOL    HW230630   0.212   5.440   3.683
 9911SOL     OW30631   2.858   5.714   2.777
 9911SOL    HW130632   2.856   5.753   2.685
 9911SOL    HW230633   2.884   5.617   2.771
 9912SOL     OW30634   4.989   0.734   6.713
 9912SOL    HW130635   5.073   0.695   6.674
 9912SOL    HW230636   4.910   0.681   6.682
 9913SOL     OW30637   4.762   3.352   6.768
 9913SOL    HW130638   4.855   3.365   6.736
 9913SOL    HW230639   4.760   3.359   6.868
 9914SOL     OW30640   0.116   4.172   4.332
 9914SOL    HW130641   0.028   4.190   4.375
 9914SOL    HW230642   0.103   4.108   4.256
 9915SOL     OW30643   5.351   1.161   3.649
 9915SOL    HW130644   5.412   1.158   3.728
 9915SOL    HW230645   5.405   1.165   3.565
 9916SOL     OW30646   1.858   3.220   1.973
 9916SOL    HW130647   1.849   3.129   1.933
 9916SOL    HW230648   1.800   3.228   2.054
 9917SOL     OW30649   6.241   4.135   5.099
 9917SOL    HW130650   6.233   4.055   5.039
 9917SOL    HW230651   6.337   4.162   5.107
 9918SOL     OW30652   4.752   2.741   2.434
 9918SOL    HW130653   4.680   2.693   2.485
 9918SOL    HW230654   4.761   2.834   2.468
 9919SOL     OW30655   6.107   6.241   0.901
 9919SOL    HW130656   6.100   6.262   0.803
 9919SOL    HW230657   6.048   6.304   0.952
 9920SOL     OW30658   4.815   1.506   2.759
 9920SOL    HW130659   4.800   1.580   2.694
 9920SOL    HW230660   4.784   1.534   2.850
 9921SOL     OW30661   3.570   4.771   6.223
 9921SOL    HW130662   3.619   4.716   6.291
 9921SOL    HW230663   3.543   4.858   6.265
 9922SOL     OW30664   0.013   5.292   0.888
 9922SOL    HW130665   7.019   5.251   0.799
 9922SOL    HW230666   6.956   5.335   0.924
 9923SOL     OW30667   5.511   4.924   1.106
 9923SOL    HW130668   5.602   4.903   1.144
 9923SOL    HW230669   5.446   4.938   1.181
 9924SOL     OW30670   1.166   3.382   4.677
 9924SOL    HW130671   1.180   3.407   4.773
 9924SOL    HW230672   1.166   3.465   4.621
 9925SOL     OW30673   5.495   2.015   3.253
 9925SOL    HW130674   5.513   1.919   3.276
 9925SOL    HW230675   5.578   2.069   3.266
 9926SOL     OW30676   2.813   5.085   0.183
 9926SOL    HW130677   2.746   5.018   0.152
 9926SOL    HW230678   2.812   5.165   0.123
 9927SOL     OW30679   5.457   0.238   3.717
 9927SOL    HW130680   5.515   0.205   3.643
 9927SOL    HW230681   5.386   0.170   3.736
 9928SOL     OW30682   4.874   5.013   1.900
 9928SOL    HW130683   4.890   4.933   1.959
 9928SOL    HW230684   4.900   5.096   1.949
 9929SOL     OW30685   1.117   4.816   2.609
 9929SOL    HW130686   1.087   4.894   2.663
 9929SOL    HW230687   1.199   4.841   2.558
 9930SOL     OW30688   6.013   0.500   3.379
 9930SOL    HW130689   6.068   0.457   3.307
 9930SOL    HW230690   5.939   0.438   3.406
 9931SOL     OW30691   0.547   5.308   6.174
 9931SOL    HW130692   0.540   5.234   6.107
 9931SOL    HW230693   0.530   5.396   6.129
 9932SOL     OW30694   0.710   6.633   5.410
 9932SOL    HW130695   0.782   6.701   5.421
 9932SOL    HW230696   0.666   6.616   5.498
 9933SOL     OW30697   0.276   6.032   2.366
 9933SOL    HW130698   0.307   5.954   2.311
 9933SOL    HW230699   0.352   6.095   2.379
 9934SOL     OW30700   6.850   1.724   5.507
 9934SOL    HW130701   6.764   1.743   5.555
 9934SOL    HW230702   6.926   1.736   5.570
 9935SOL     OW30703   2.982   0.215   6.158
 9935SOL    HW130704   3.047   0.268   6.104
 9935SOL    HW230705   2.889   0.238   6.129
 9936SOL     OW30706   1.173   4.033   4.339
 9936SOL    HW130707   1.082   3.996   4.318
 9936SOL    HW230708   1.215   4.067   4.255
 9937SOL     OW30709   6.515   2.380   6.062
 9937SOL    HW130710   6.545   2.328   6.142
 9937SOL    HW230711   6.589   2.439   6.030
 9938SOL     OW30712   0.014   6.122   2.483
 9938SOL    HW130713   6.966   6.094   2.421
 9938SOL    HW230714   0.101   6.110   2.436
 9939SOL     OW30715   3.534   3.107   2.653
 9939SOL    HW130716   3.534   3.205   2.630
 9939SOL    HW230717   3.500   3.054   2.575
 9940SOL     OW30718   6.994   0.647   1.185
 9940SOL    HW130719   6.920   0.651   1.118
 9940SOL    HW230720   0.026   0.569   1.165
 9941SOL     OW30721   3.418   5.330   5.121
 9941SOL    HW130722   3.452   5.277   5.044
 9941SOL    HW230723   3.452   5.424   5.114
 9942SOL     OW30724   2.610   5.825   3.867
 9942SOL    HW130725   2.523   5.785   3.896
 9942SOL    HW230726   2.610   5.923   3.888
 9943SOL     OW30727   0.641   0.158   5.084
 9943SOL    HW130728   0.655   0.257   5.096
 9943SOL    HW230729   0.554   0.142   5.038
 9944SOL     OW30730   1.456   4.327   0.073
 9944SOL    HW130731   1.532   4.279   0.117
 9944SOL    HW230732   1.441   4.290   7.008
 9945SOL     OW30733   6.823   5.815   0.102
 9945SOL    HW130734   6.887   5.797   0.027
 9945SOL    HW230735   6.874   5.834   0.186
 9946SOL     OW30736   5.879   1.865   4.955
 9946SOL    HW130737   5.939   1.884   5.033
 9946SOL    HW230738   5.876   1.766   4.938
 9947SOL     OW30739   6.204   4.684   3.339
 9947SOL    HW130740   6.206   4.658   3.243
 9947SOL    HW230741   6.212   4.602   3.396
 9948SOL     OW30742   5.560   3.809   4.052
 9948SOL    HW130743   5.556   3.755   3.968
 9948SOL    HW230744   5.655   3.811   4.086
 9949SOL     OW30745   6.191   4.855   1.830
 9949SOL    HW130746   6.141   4.775   1.864
 9949SOL    HW230747   6.165   4.873   1.735
 9950SOL     OW30748   2.818   6.259   6.625
 9950SOL    HW130749   2.807   6.354   6.594
 9950SOL    HW230750   2.786   6.197   6.554
 9951SOL     OW30751   5.883   2.362   3.211
 9951SOL    HW130752   5.860   2.457   3.190
 9951SOL    HW230753   5.982   2.351   3.212
 9952SOL     OW30754   6.960   5.097   6.111
 9952SOL    HW130755   6.996   5.187   6.135
 9952SOL    HW230756   6.976   5.034   6.187
 9953SOL     OW30757   5.695   2.930   3.636
 9953SOL    HW130758   5.782   2.897   3.672
 9953SOL    HW230759   5.620   2.883   3.683
 9954SOL     OW30760   3.984   0.302   4.765
 9954SOL    HW130761   3.963   0.349   4.680
 9954SOL    HW230762   4.051   0.230   4.749
 9955SOL     OW30763   0.885   4.725   4.490
 9955SOL    HW130764   0.903   4.817   4.456
 9955SOL    HW230765   0.927   4.658   4.430
 9956SOL     OW30766   0.862   6.202   6.985
 9956SOL    HW130767   0.883   6.139   0.033
 9956SOL    HW230768   0.799   6.157   6.921
 9957SOL     OW30769   5.713   5.413   2.310
 9957SOL    HW130770   5.760   5.375   2.231
 9957SOL    HW230771   5.614   5.400   2.300
 9958SOL     OW30772   2.721   4.535   0.734
 9958SOL    HW130773   2.787   4.560   0.805
 9958SOL    HW230774   2.659   4.465   0.769
 9959SOL     OW30775   3.242   3.939   1.316
 9959SOL    HW130776   3.260   3.888   1.233
 9959SOL    HW230777   3.243   3.877   1.395
 9960SOL     OW30778   0.482   1.536   2.412
 9960SOL    HW130779   0.502   1.509   2.318
 9960SOL    HW230780   0.471   1.455   2.470
 9961SOL     OW30781   2.124   3.880   4.839
 9961SOL    HW130782   2.050   3.852   4.900
 9961SOL    HW230783   2.183   3.946   4.886
 9962SOL     OW30784   5.054   6.693   3.960
 9962SOL    HW130785   5.075   6.690   4.058
 9962SOL    HW230786   4.955   6.688   3.947
 9963SOL     OW30787   3.495   1.033   1.108
 9963SOL    HW130788   3.503   0.952   1.051
 9963SOL    HW230789   3.549   1.108   1.068
 9964SOL     OW30790   5.289   6.660   4.676
 9964SOL    HW130791   5.329   6.732   4.619
 9964SOL    HW230792   5.244   6.593   4.618
 9965SOL     OW30793   4.543   6.714   0.645
 9965SOL    HW130794   4.618   6.698   0.580
 9965SOL    HW230795   4.517   6.810   0.642
 9966SOL     OW30796   6.334   0.670   3.291
 9966SOL    HW130797   6.239   0.697   3.279
 9966SOL    HW230798   6.368   0.630   3.205
 9967SOL     OW30799   0.901   4.939   1.024
 9967SOL    HW130800   0.849   5.018   0.991
 9967SOL    HW230801   0.852   4.855   1.000
 9968SOL     OW30802   3.106   3.593   3.039
 9968SOL    HW130803   3.198   3.560   3.058
 9968SOL    HW230804   3.110   3.687   3.004
 9969SOL     OW30805   1.437   3.560   1.128
 9969SOL    HW130806   1.345   3.590   1.152
 9969SOL    HW230807   1.438   3.460   1.119
 9970SOL     OW30808   6.067   4.388   1.751
 9970SOL    HW130809   6.116   4.455   1.695
 9970SOL    HW230810   6.126   4.358   1.826
 9971SOL     OW30811   2.683   6.847   6.586
 9971SOL    HW130812   2.752   6.786   6.623
 9971SOL    HW230813   2.635   6.801   6.511
 9972SOL     OW30814   6.515   4.915   1.219
 9972SOL    HW130815   6.589   4.968   1.261
 9972SOL    HW230816   6.545   4.877   1.132
 9973SOL     OW30817   5.488   0.093   3.482
 9973SOL    HW130818   5.449   0.001   3.487
 9973SOL    HW230819   5.497   0.120   3.386
 9974SOL     OW30820   2.374   0.067   4.527
 9974SOL    HW130821   2.414   7.007   4.495
 9974SOL    HW230822   2.447   0.125   4.563
 9975SOL     OW30823   6.785   4.288   0.634
 9975SOL    HW130824   6.818   4.197   0.610
 9975SOL    HW230825   6.701   4.280   0.687
 9976SOL     OW30826   2.927   6.696   5.351
 9976SOL    HW130827   2.977   6.615   5.322
 9976SOL    HW230828   2.844   6.668   5.401
 9977SOL     OW30829   6.345   4.287   3.749
 9977SOL    HW130830   6.395   4.220   3.805
 9977SOL    HW230831   6.328   4.369   3.804
 9978SOL     OW30832   0.324   2.291   5.005
 9978SOL    HW130833   0.339   2.295   5.103
 9978SOL    HW230834   0.245   2.347   4.980
 9979SOL     OW30835   0.584   3.881   4.733
 9979SOL    HW130836   0.606   3.806   4.795
 9979SOL    HW230837   0.625   3.965   4.767
 9980SOL     OW30838   2.722   6.424   5.698
 9980SOL    HW130839   2.625   6.408   5.713
 9980SOL    HW230840   2.762   6.466   5.780
 9981SOL     OW30841   4.233   2.162   4.288
 9981SOL    HW130842   4.209   2.210   4.203
 9981SOL    HW230843   4.208   2.218   4.366
 9982SOL     OW30844   6.383   6.374   2.979
 9982SOL    HW130845   6.474   6.382   3.021
 9982SOL    HW230846   6.320   6.438   3.024
 9983SOL     OW30847   6.382   0.958   0.968
 9983SOL    HW130848   6.316   0.889   0.999
 9983SOL    HW230849   6.379   1.036   1.030
 9984SOL     OW30850   2.946   1.171   6.389
 9984SOL    HW130851   2.885   1.102   6.350
 9984SOL    HW230852   2.894   1.229   6.452
 9985SOL     OW30853   2.196   1.763   1.623
 9985SOL    HW130854   2.296   1.749   1.622
 9985SOL    HW230855   2.161   1.739   1.713
 9986SOL     OW30856   4.809   4.279   5.027
 9986SOL    HW130857   4.885   4.275   5.092
 9986SOL    HW230858   4.766   4.189   5.020
 9987SOL     OW30859   0.394   4.211   5.707
 9987SOL    HW130860   0.465   4.277   5.733
 9987SOL    HW230861   0.379   4.216   5.609
 9988SOL     OW30862   6.747   0.424   4.346
 9988SOL    HW130863   6.669   0.476   4.311
 9988SOL    HW230864   6.796   0.480   4.413
 9989SOL     OW30865   1.288   2.934   4.750
 9989SOL    HW130866   1.282   2.834   4.759
 9989SOL    HW230867   1.198   2.974   4.767
 9990SOL     OW30868   1.499   5.101   1.773
 9990SOL    HW130869   1.471   5.095   1.677
 9990SOL    HW230870   1.487   5.195   1.806
 9991SOL     OW30871   4.300   2.073   3.163
 9991SOL    HW130872   4.250   2.155   3.137
 9991SOL    HW230873   4.340   2.031   3.082
 9992SOL     OW30874   6.426   5.426   6.206
 9992SOL    HW130875   6.333   5.441   6.175
 9992SOL    HW230876   6.462   5.342   6.164
 9993SOL     OW30877   1.304   0.484   2.151
 9993SOL    HW130878   1.332   0.459   2.059
 9993SOL    HW230879   1.215   0.529   2.147
 9994SOL     OW30880   6.347   4.917   3.127
 9994SOL    HW130881   6.383   4.847   3.190
 9994SOL    HW230882   6.414   4.991   3.119
 9995SOL     OW30883   5.099   1.375   4.864
 9995SOL    HW130884   5.148   1.454   4.827
 9995SOL    HW230885   5.024   1.350   4.803
 9996SOL     OW30886   2.484   3.162   6.936
 9996SOL    HW130887   2.544   3.240   6.920
 9996SOL    HW230888   2.461   3.158   0.007
 9997SOL     OW30889   1.952   0.226   4.398
 9997SOL    HW130890   1.970   0.129   4.379
 9997SOL    HW230891   1.896   0.264   4.324
 9998SOL     OW30892   5.804   6.097   4.951
 9998SOL    HW130893   5.743   6.170   4.918
 9998SOL    HW230894   5.782   6.076   5.046
 9999SOL     OW30895   0.026   0.880   4.886
 9999SOL    HW130896   6.992   0.958   4.871
 9999SOL    HW230897   0.121   0.912   4.894
10000SOL     OW30898   6.685   4.606   0.335
10000SOL    HW130899   6.699   4.535   0.266
10000SOL    HW230900   6.720   4.693   0.302
10001SOL     OW30901   3.739   6.833   3.410
10001SOL    HW130902   3.739   6.756   3.346
10001SOL    HW230903   3.834   6.855   3.434
10002SOL     OW30904   1.627   2.076   1.617
10002SOL    HW130905   1.716   2.076   1.572
10002SOL    HW230906   1.637   2.042   1.710
10003SOL     OW30907   4.939   3.689   2.994
10003SOL    HW130908   5.038   3.706   2.994
10003SOL    HW230909   4.908   3.671   3.087
10004SOL     OW30910   6.785   3.002   3.713
10004SOL    HW130911   6.686   3.001   3.729
10004SOL    HW230912   6.832   3.000   3.801
10005SOL     OW30913   4.765   0.380   4.089
10005SOL    HW130914   4.667   0.366   4.076
10005SOL    HW230915   4.786   0.380   4.186
10006SOL     OW30916   4.846   1.713   4.214
10006SOL    HW130917   4.826   1.624   4.253
10006SOL    HW230918   4.909   1.762   4.274
10007SOL     OW30919   5.893   4.280   4.162
10007SOL    HW130920   5.980   4.234   4.144
10007SOL    HW230921   5.907   4.353   4.229
10008SOL     OW30922   3.330   0.135   3.829
10008SOL    HW130923   3.237   0.172   3.821
10008SOL    HW230924   3.362   0.104   3.740
10009SOL     OW30925   2.398   4.356   1.160
10009SOL    HW130926   2.329   4.288   1.137
10009SOL    HW230927   2.442   4.332   1.246
10010SOL     OW30928   5.891   0.855   6.399
10010SOL    HW130929   5.862   0.785   6.334
10010SOL    HW230930   5.832   0.853   6.480
10011SOL     OW30931   6.916   6.454   3.546
10011SOL    HW130932   6.896   6.541   3.502
10011SOL    HW230933   6.950   6.389   3.478
10012SOL     OW30934   5.757   0.285   4.257
10012SOL    HW130935   5.669   0.240   4.273
10012SOL    HW230936   5.799   0.309   4.344
10013SOL     OW30937   1.377   0.812   2.038
10013SOL    HW130938   1.407   0.731   1.988
10013SOL    HW230939   1.453   0.877   2.047
10014SOL     OW30940   1.525   4.830   5.673
10014SOL    HW130941   1.625   4.825   5.671
10014SOL    HW230942   1.495   4.849   5.767
10015SOL     OW30943   2.305   5.991   6.453
10015SOL    HW130944   2.210   5.964   6.468
10015SOL    HW230945   2.337   5.953   6.367
10016SOL     OW30946   2.311   1.397   5.129
10016SOL    HW130947   2.238   1.464   5.117
10016SOL    HW230948   2.399   1.444   5.123
10017SOL     OW30949   0.056   1.730   3.425
10017SOL    HW130950   0.075   1.749   3.328
10017SOL    HW230951   0.132   1.679   3.464
10018SOL     OW30952   4.988   6.608   5.845
10018SOL    HW130953   4.959   6.521   5.883
10018SOL    HW230954   4.939   6.624   5.759
10019SOL     OW30955   1.143   0.990   2.556
10019SOL    HW130956   1.079   0.964   2.483
10019SOL    HW230957   1.115   1.076   2.597
10020SOL     OW30958   0.065   2.691   0.150
10020SOL    HW130959   0.038   2.752   0.076
10020SOL    HW230960   0.061   2.596   0.118
10021SOL     OW30961   4.868   2.982   1.429
10021SOL    HW130962   4.939   3.020   1.488
10021SOL    HW230963   4.855   2.885   1.451
10022SOL     OW30964   1.788   0.923   5.901
10022SOL    HW130965   1.834   1.010   5.882
10022SOL    HW230966   1.818   0.855   5.835
10023SOL     OW30967   0.596   3.494   1.069
10023SOL    HW130968   0.690   3.462   1.079
10023SOL    HW230969   0.565   3.536   1.154
10024SOL     OW30970   1.184   3.722   3.210
10024SOL    HW130971   1.085   3.707   3.215
10024SOL    HW230972   1.206   3.774   3.126
10025SOL     OW30973   0.745   0.983   0.915
10025SOL    HW130974   0.711   1.052   0.852
10025SOL    HW230975   0.671   0.920   0.939
10026SOL     OW30976   6.671   0.800   4.466
10026SOL    HW130977   6.593   0.739   4.482
10026SOL    HW230978   6.682   0.860   4.545
10027SOL     OW30979   6.081   2.988   5.839
10027SOL    HW130980   6.169   3.006   5.797
10027SOL    HW230981   6.010   2.987   5.768
10028SOL     OW30982   1.858   1.004   1.948
10028SOL    HW130983   1.940   1.061   1.951
10028SOL    HW230984   1.877   0.917   1.994
10029SOL     OW30985   3.760   1.331   3.843
10029SOL    HW130986   3.721   1.332   3.935
10029SOL    HW230987   3.817   1.250   3.832
10030SOL     OW30988   1.278   1.173   2.828
10030SOL    HW130989   1.245   1.104   2.892
10030SOL    HW230990   1.377   1.164   2.818
10031SOL     OW30991   6.413   4.688   3.801
10031SOL    HW130992   6.393   4.686   3.703
10031SOL    HW230993   6.364   4.614   3.846
10032SOL     OW30994   3.795   1.898   5.302
10032SOL    HW130995   3.714   1.849   5.269
10032SOL    HW230996   3.830   1.958   5.230
10033SOL     OW30997   5.405   3.298   4.059
10033SOL    HW130998   5.312   3.335   4.061
10033SOL    HW230999   5.467   3.365   4.017
10034SOL     OW31000   4.156   6.846   5.947
10034SOL    HW131001   4.136   6.840   5.849
10034SOL    HW231002   4.118   6.765   5.993
10035SOL     OW31003   0.741   6.956   3.790
10035SOL    HW131004   0.761   6.916   3.879
10035SOL    HW231005   0.760   0.028   3.792
10036SOL     OW31006   6.326   0.615   0.302
10036SOL    HW131007   6.369   0.583   0.218
10036SOL    HW231008   6.396   0.657   0.361
10037SOL     OW31009   0.012   6.676   1.196
10037SOL    HW131010   7.008   6.762   1.153
10037SOL    HW231011   6.988   6.663   1.282
10038SOL     OW31012   6.369   0.140   1.273
10038SOL    HW131013   6.387   0.076   1.199
10038SOL    HW231014   6.413   0.109   1.357
10039SOL     OW31015   4.166   0.645   2.928
10039SOL    HW131016   4.218   0.572   2.883
10039SOL    HW231017   4.169   0.728   2.872
10040SOL     OW31018   0.667   2.619   0.701
10040SOL    HW131019   0.738   2.688   0.709
10040SOL    HW231020   0.674   2.555   0.778
10041SOL     OW31021   1.321   6.508   0.543
10041SOL    HW131022   1.279   6.517   0.453
10041SOL    HW231023   1.301   6.590   0.597
10042SOL     OW31024   6.029   1.985   3.464
10042SOL    HW131025   6.021   1.890   3.433
10042SOL    HW231026   6.083   2.037   3.399
10043SOL     OW31027   1.798   2.725   5.454
10043SOL    HW131028   1.850   2.810   5.443
10043SOL    HW231029   1.720   2.741   5.514
10044SOL     OW31030   4.981   0.922   6.510
10044SOL    HW131031   5.004   0.861   6.586
10044SOL    HW231032   5.054   0.990   6.498
10045SOL     OW31033   2.127   1.002   1.038
10045SOL    HW131034   2.178   1.006   1.123
10045SOL    HW231035   2.030   1.022   1.055
10046SOL     OW31036   0.582   5.669   0.932
10046SOL    HW131037   0.617   5.578   0.952
10046SOL    HW231038   0.656   5.736   0.938
10047SOL     OW31039   1.717   3.306   0.797
10047SOL    HW131040   1.683   3.215   0.775
10047SOL    HW231041   1.729   3.314   0.896
10048SOL     OW31042   5.658   3.852   1.833
10048SOL    HW131043   5.577   3.877   1.780
10048SOL    HW231044   5.645   3.760   1.871
10049SOL     OW31045   6.326   1.409   4.984
10049SOL    HW131046   6.344   1.351   5.064
10049SOL    HW231047   6.388   1.488   4.986
10050SOL     OW31048   6.655   2.249   6.265
10050SOL    HW131049   6.668   2.152   6.245
10050SOL    HW231050   6.740   2.287   6.304
10051SOL     OW31051   2.030   1.318   3.731
10051SOL    HW131052   1.990   1.261   3.803
10051SOL    HW231053   2.104   1.374   3.769
10052SOL     OW31054   0.920   0.483   3.931
10052SOL    HW131055   0.961   0.392   3.936
10052SOL    HW231056   0.988   0.547   3.893
10053SOL     OW31057   6.043   5.209   2.832
10053SOL    HW131058   6.065   5.113   2.844
10053SOL    HW231059   6.049   5.256   2.920
10054SOL     OW31060   6.285   3.938   3.878
10054SOL    HW131061   6.293   3.844   3.844
10054SOL    HW231062   6.216   3.987   3.826
10055SOL     OW31063   1.868   1.875   6.903
10055SOL    HW131064   1.853   1.963   6.858
10055SOL    HW231065   1.870   1.803   6.834
10056SOL     OW31066   5.360   2.224   4.045
10056SOL    HW131067   5.325   2.137   4.010
10056SOL    HW231068   5.449   2.242   4.005
10057SOL     OW31069   6.087   4.610   5.252
10057SOL    HW131070   6.181   4.599   5.284
10057SOL    HW231071   6.059   4.530   5.199
10058SOL     OW31072   6.504   4.097   3.909
10058SOL    HW131073   6.443   4.018   3.901
10058SOL    HW231074   6.599   4.065   3.913
10059SOL     OW31075   4.880   5.902   6.348
10059SOL    HW131076   4.941   5.840   6.299
10059SOL    HW231077   4.916   5.919   6.439
10060SOL     OW31078   2.831   1.872   2.249
10060SOL    HW131079   2.881   1.949   2.210
10060SOL    HW231080   2.895   1.803   2.280
10061SOL     OW31081   3.858   6.503   3.220
10061SOL    HW131082   3.847   6.602   3.231
10061SOL    HW231083   3.775   6.465   3.178
10062SOL     OW31084   6.660   6.985   4.489
10062SOL    HW131085   6.705   6.956   4.573
10062SOL    HW231086   6.570   6.942   4.482
10063SOL     OW31087   3.539   2.102   4.543
10063SOL    HW131088   3.585   2.177   4.590
10063SOL    HW231089   3.598   2.021   4.545
10064SOL     OW31090   3.230   6.435   2.332
10064SOL    HW131091   3.216   6.411   2.236
10064SOL    HW231092   3.274   6.525   2.337
10065SOL     OW31093   0.001   1.723   2.102
10065SOL    HW131094   6.956   1.761   2.044
10065SOL    HW231095   7.005   1.738   2.198
10066SOL     OW31096   6.380   3.821   3.530
10066SOL    HW131097   6.469   3.790   3.563
10066SOL    HW231098   6.311   3.805   3.601
10067SOL     OW31099   5.643   3.433   5.158
10067SOL    HW131100   5.583   3.497   5.207
10067SOL    HW231101   5.631   3.342   5.197
10068SOL     OW31102   1.897   3.475   2.385
10068SOL    HW131103   1.909   3.466   2.286
10068SOL    HW231104   1.821   3.417   2.415
10069SOL     OW31105   2.852   5.284   1.852
10069SOL    HW131106   2.772   5.294   1.793
10069SOL    HW231107   2.845   5.199   1.903
10070SOL     OW31108   4.696   6.941   0.252
10070SOL    HW131109   4.616   6.884   0.234
10070SOL    HW231110   4.739   6.912   0.338
10071SOL     OW31111   5.412   0.632   5.488
10071SOL    HW131112   5.402   0.541   5.529
10071SOL    HW231113   5.322   0.674   5.480
10072SOL     OW31114   5.748   2.821   2.203
10072SOL    HW131115   5.660   2.817   2.156
10072SOL    HW231116   5.819   2.783   2.143
10073SOL     OW31117   5.587   6.232   5.229
10073SOL    HW131118   5.601   6.251   5.326
10073SOL    HW231119   5.632   6.146   5.206
10074SOL     OW31120   1.989   4.381   0.900
10074SOL    HW131121   2.010   4.460   0.957
10074SOL    HW231122   1.891   4.382   0.877
10075SOL     OW31123   1.349   3.285   2.291
10075SOL    HW131124   1.337   3.312   2.387
10075SOL    HW231125   1.417   3.344   2.248
10076SOL     OW31126   5.769   4.041   3.261
10076SOL    HW131127   5.841   4.070   3.324
10076SOL    HW231128   5.792   3.951   3.224
10077SOL     OW31129   4.160   3.561   6.421
10077SOL    HW131130   4.233   3.493   6.413
10077SOL    HW231131   4.166   3.607   6.509
10078SOL     OW31132   5.721   5.350   3.944
10078SOL    HW131133   5.726   5.424   4.012
10078SOL    HW231134   5.681   5.386   3.860
10079SOL     OW31135   5.283   4.754   2.952
10079SOL    HW131136   5.326   4.841   2.974
10079SOL    HW231137   5.209   4.769   2.886
10080SOL     OW31138   5.405   2.166   5.412
10080SOL    HW131139   5.485   2.192   5.359
10080SOL    HW231140   5.379   2.242   5.472
10081SOL     OW31141   1.645   4.932   0.502
10081SOL    HW131142   1.664   4.982   0.587
10081SOL    HW231143   1.708   4.964   0.431
10082SOL     OW31144   1.036   5.197   1.435
10082SOL    HW131145   1.089   5.144   1.368
10082SOL    HW231146   0.941   5.167   1.432
10083SOL     OW31147   2.948   6.056   2.647
10083SOL    HW131148   2.853   6.046   2.675
10083SOL    HW231149   2.967   6.152   2.626
10084SOL     OW31150   1.685   3.161   4.976
10084SOL    HW131151   1.625   3.146   4.898
10084SOL    HW231152   1.722   3.073   5.007
10085SOL     OW31153   3.777   6.978   1.661
10085SOL    HW131154   3.750   0.047   1.664
10085SOL    HW231155   3.790   6.949   1.566
10086SOL     OW31156   3.283   0.226   2.647
10086SOL    HW131157   3.299   0.279   2.564
10086SOL    HW231158   3.353   0.156   2.656
10087SOL     OW31159   2.069   4.904   6.066
10087SOL    HW131160   1.973   4.892   6.040
10087SOL    HW231161   2.115   4.815   6.067
10088SOL     OW31162   6.561   1.770   0.985
10088SOL    HW131163   6.526   1.859   1.011
10088SOL    HW231164   6.504   1.698   1.025
10089SOL     OW31165   3.953   6.730   1.892
10089SOL    HW131166   4.019   6.773   1.832
10089SOL    HW231167   3.899   6.800   1.938
10090SOL     OW31168   2.783   5.540   1.993
10090SOL    HW131169   2.841   5.616   1.965
10090SOL    HW231170   2.810   5.458   1.942
10091SOL     OW31171   5.442   4.985   2.993
10091SOL    HW131172   5.511   4.962   3.062
10091SOL    HW231173   5.362   5.025   3.039
10092SOL     OW31174   0.315   1.092   2.636
10092SOL    HW131175   0.356   1.078   2.546
10092SOL    HW231176   0.351   1.177   2.676
10093SOL     OW31177   4.650   3.882   6.185
10093SOL    HW131178   4.567   3.920   6.143
10093SOL    HW231179   4.640   3.879   6.284
10094SOL     OW31180   3.522   2.434   0.735
10094SOL    HW131181   3.620   2.443   0.720
10094SOL    HW231182   3.477   2.520   0.710
10095SOL     OW31183   4.351   2.558   5.323
10095SOL    HW131184   4.277   2.604   5.274
10095SOL    HW231185   4.416   2.520   5.257
10096SOL     OW31186   6.680   4.783   2.013
10096SOL    HW131187   6.766   4.824   1.983
10096SOL    HW231188   6.607   4.809   1.950
10097SOL     OW31189   1.212   1.105   1.248
10097SOL    HW131190   1.126   1.141   1.284
10097SOL    HW231191   1.286   1.126   1.312
10098SOL     OW31192   3.907   5.359   0.031
10098SOL    HW131193   3.816   5.345   7.018
10098SOL    HW231194   3.934   5.455   0.018
10099SOL     OW31195   7.001   6.197   3.419
10099SOL    HW131196   7.010   6.124   3.351
10099SOL    HW231197   0.059   6.203   3.473
10100SOL     OW31198   5.135   5.156   3.735
10100SOL    HW131199   5.089   5.175   3.821
10100SOL    HW231200   5.233   5.166   3.746
10101SOL     OW31201   0.037   2.434   0.039
10101SOL    HW131202   0.025   2.335   0.034
10101SOL    HW231203   7.000   2.478   7.001
10102SOL     OW31204   7.025   4.913   2.897
10102SOL    HW131205   7.011   4.958   2.984
10102SOL    HW231206   0.096   4.898   2.881
10103SOL     OW31207   0.062   0.123   6.851
10103SOL    HW131208   0.157   0.140   6.877
10103SOL    HW231209   0.031   0.194   6.788
10104SOL     OW31210   2.526   1.376   4.769
10104SOL    HW131211   2.470   1.442   4.719
10104SOL    HW231212   2.570   1.313   4.705
10105SOL     OW31213   2.953   1.423   4.413
10105SOL    HW131214   2.909   1.510   4.391
10105SOL    HW231215   2.932   1.356   4.342
10106SOL     OW31216   5.853   3.930   0.947
10106SOL    HW131217   5.799   3.861   0.900
10106SOL    HW231218   5.919   3.886   1.008
10107SOL     OW31219   5.431   5.834   6.249
10107SOL    HW131220   5.416   5.903   6.179
10107SOL    HW231221   5.431   5.877   6.339
10108SOL     OW31222   2.598   2.207   5.022
10108SOL    HW131223   2.509   2.232   5.062
10108SOL    HW231224   2.647   2.147   5.085
10109SOL     OW31225   1.084   2.984   1.048
10109SOL    HW131226   1.139   2.952   0.971
10109SOL    HW231227   1.096   3.082   1.060
10110SOL     OW31228   6.247   6.452   2.305
10110SOL    HW131229   6.200   6.408   2.229
10110SOL    HW231230   6.207   6.420   2.391
10111SOL     OW31231   6.942   2.882   1.530
10111SOL    HW131232   6.888   2.962   1.505
10111SOL    HW231233   6.980   2.840   1.448
10112SOL     OW31234   6.709   2.928   4.255
10112SOL    HW131235   6.789   2.956   4.309
10112SOL    HW231236   6.738   2.863   4.184
10113SOL     OW31237   6.858   5.989   6.439
10113SOL    HW131238   6.841   6.042   6.523
10113SOL    HW231239   6.952   6.004   6.408
10114SOL     OW31240   5.166   4.140   1.260
10114SOL    HW131241   5.215   4.133   1.173
10114SOL    HW231242   5.114   4.225   1.262
10115SOL     OW31243   3.502   1.862   6.251
10115SOL    HW131244   3.423   1.802   6.260
10115SOL    HW231245   3.471   1.954   6.227
10116SOL     OW31246   0.254   0.013   6.432
10116SOL    HW131247   0.317   7.023   6.508
10116SOL    HW231248   0.235   0.111   6.426
10117SOL     OW31249   0.309   4.504   1.676
10117SOL    HW131250   0.378   4.468   1.613
10117SOL    HW231251   0.228   4.445   1.673
10118SOL     OW31252   3.906   5.156   3.787
10118SOL    HW131253   3.937   5.078   3.733
10118SOL    HW231254   3.887   5.233   3.726
10119SOL     OW31255   6.063   6.283   6.974
10119SOL    HW131256   6.071   6.333   0.034
10119SOL    HW231257   5.969   6.251   6.963
10120SOL     OW31258   2.484   2.215   2.977
10120SOL    HW131259   2.517   2.157   3.051
10120SOL    HW231260   2.560   2.241   2.918
10121SOL     OW31261   6.449   5.688   1.653
10121SOL    HW131262   6.413   5.595   1.661
10121SOL    HW231263   6.491   5.699   1.563
10122SOL     OW31264   1.801   0.288   3.096
10122SOL    HW131265   1.748   0.233   3.031
10122SOL    HW231266   1.761   0.280   3.187
10123SOL     OW31267   6.297   6.210   6.837
10123SOL    HW131268   6.339   6.230   6.926
10123SOL    HW231269   6.199   6.196   6.850
10124SOL     OW31270   1.397   4.331   3.111
10124SOL    HW131271   1.382   4.391   3.032
10124SOL    HW231272   1.311   4.321   3.161
10125SOL     OW31273   2.078   1.680   4.701
10125SOL    HW131274   2.034   1.693   4.612
10125SOL    HW231275   2.024   1.616   4.756
10126SOL     OW31276   6.680   6.119   4.346
10126SOL    HW131277   6.684   6.144   4.249
10126SOL    HW231278   6.755   6.163   4.395
10127SOL     OW31279   2.416   0.733   4.937
10127SOL    HW131280   2.349   0.797   4.900
10127SOL    HW231281   2.369   0.654   4.976
10128SOL     OW31282   3.230   1.385   0.446
10128SOL    HW131283   3.221   1.355   0.541
10128SOL    HW231284   3.147   1.433   0.418
10129SOL     OW31285   6.663   2.117   5.582
10129SOL    HW131286   6.575   2.163   5.598
10129SOL    HW231287   6.703   2.151   5.497
10130SOL     OW31288   1.384   2.416   3.256
10130SOL    HW131289   1.468   2.466   3.232
10130SOL    HW231290   1.386   2.392   3.353
10131SOL     OW31291   2.141   0.869   5.220
10131SOL    HW131292   2.076   0.881   5.295
10131SOL    HW231293   2.212   0.804   5.247
10132SOL     OW31294   5.814   0.483   2.293
10132SOL    HW131295   5.831   0.579   2.319
10132SOL    HW231296   5.747   0.480   2.219
10133SOL     OW31297   4.497   5.098   0.972
10133SOL    HW131298   4.509   5.021   1.034
10133SOL    HW231299   4.402   5.128   0.974
10134SOL     OW31300   6.446   0.006   3.253
10134SOL    HW131301   6.508   6.990   3.319
10134SOL    HW231302   6.488   0.003   3.162
10135SOL     OW31303   6.091   6.580   3.579
10135SOL    HW131304   6.003   6.538   3.557
10135SOL    HW231305   6.079   6.642   3.657
10136SOL     OW31306   4.755   0.816   2.804
10136SOL    HW131307   4.812   0.851   2.878
10136SOL    HW231308   4.768   0.873   2.722
10137SOL     OW31309   6.593   5.507   3.008
10137SOL    HW131310   6.497   5.505   3.034
10137SOL    HW231311   6.613   5.592   2.959
10138SOL     OW31312   0.267   1.671   2.104
10138SOL    HW131313   0.273   1.601   2.175
10138SOL    HW231314   0.172   1.702   2.096
10139SOL     OW31315   3.344   2.639   0.667
10139SOL    HW131316   3.336   2.698   0.748
10139SOL    HW231317   3.256   2.593   0.652
10140SOL     OW31318   6.102   6.459   4.378
10140SOL    HW131319   6.040   6.433   4.303
10140SOL    HW231320   6.050   6.499   4.452
10141SOL     OW31321   1.023   2.087   4.466
10141SOL    HW131322   1.079   2.065   4.547
10141SOL    HW231323   0.967   2.008   4.442
10142SOL     OW31324   4.021   6.222   1.776
10142SOL    HW131325   4.093   6.180   1.831
10142SOL    HW231326   3.950   6.155   1.756
10143SOL     OW31327   6.380   3.372   6.748
10143SOL    HW131328   6.322   3.378   6.666
10143SOL    HW231329   6.327   3.334   6.823
10144SOL     OW31330   4.114   0.891   1.248
10144SOL    HW131331   4.214   0.882   1.243
10144SOL    HW231332   4.071   0.807   1.213
10145SOL     OW31333   6.525   0.119   5.207
10145SOL    HW131334   6.532   0.100   5.305
10145SOL    HW231335   6.549   0.214   5.189
10146SOL     OW31336   1.771   1.831   5.225
10146SOL    HW131337   1.698   1.867   5.284
10146SOL    HW231338   1.857   1.876   5.250
10147SOL     OW31339   3.472   5.095   0.413
10147SOL    HW131340   3.571   5.108   0.402
10147SOL    HW231341   3.437   5.158   0.482
10148SOL     OW31342   0.153   5.322   6.453
10148SOL    HW131343   0.138   5.404   6.507
10148SOL    HW231344   0.116   5.335   6.361
10149SOL     OW31345   2.932   3.523   3.734
10149SOL    HW131346   2.874   3.483   3.663
10149SOL    HW231347   2.972   3.608   3.699
10150SOL     OW31348   5.543   4.668   0.604
10150SOL    HW131349   5.585   4.693   0.517
10150SOL    HW231350   5.544   4.569   0.615
10151SOL     OW31351   0.386   0.929   0.590
10151SOL    HW131352   0.456   0.985   0.546
10151SOL    HW231353   0.340   0.982   0.661
10152SOL     OW31354   3.330   6.365   3.779
10152SOL    HW131355   3.377   6.301   3.717
10152SOL    HW231356   3.237   6.380   3.746
10153SOL     OW31357   4.839   4.030   1.125
10153SOL    HW131358   4.897   4.040   1.206
10153SOL    HW231359   4.744   4.016   1.153
10154SOL     OW31360   4.879   5.605   5.505
10154SOL    HW131361   4.855   5.670   5.578
10154SOL    HW231362   4.960   5.553   5.532
10155SOL     OW31363   4.469   2.430   4.604
10155SOL    HW131364   4.430   2.384   4.683
10155SOL    HW231365   4.527   2.505   4.635
10156SOL     OW31366   3.429   1.911   6.659
10156SOL    HW131367   3.476   1.935   6.744
10156SOL    HW231368   3.331   1.901   6.676
10157SOL     OW31369   0.955   4.904   1.553
10157SOL    HW131370   0.931   4.898   1.457
10157SOL    HW231371   0.873   4.893   1.609
10158SOL     OW31372   6.053   4.949   6.479
10158SOL    HW131373   6.099   4.966   6.566
10158SOL    HW231374   6.121   4.947   6.406
10159SOL     OW31375   3.735   2.898   1.462
10159SOL    HW131376   3.655   2.856   1.419
10159SOL    HW231377   3.729   2.889   1.561
10160SOL     OW31378   0.154   4.146   2.323
10160SOL    HW131379   0.202   4.135   2.236
10160SOL    HW231380   0.178   4.072   2.385
10161SOL     OW31381   6.344   3.026   0.247
10161SOL    HW131382   6.309   3.059   0.160
10161SOL    HW231383   6.418   3.086   0.279
10162SOL     OW31384   2.517   2.564   2.242
10162SOL    HW131385   2.600   2.613   2.268
10162SOL    HW231386   2.484   2.598   2.154
10163SOL     OW31387   3.737   5.244   5.103
10163SOL    HW131388   3.705   5.152   5.128
10163SOL    HW231389   3.676   5.283   5.034
10164SOL     OW31390   0.388   0.711   4.023
10164SOL    HW131391   0.475   0.662   4.028
10164SOL    HW231392   0.312   0.647   4.035
10165SOL     OW31393   2.084   3.444   3.760
10165SOL    HW131394   2.115   3.536   3.739
10165SOL    HW231395   2.008   3.420   3.700
10166SOL     OW31396   3.023   6.215   3.079
10166SOL    HW131397   3.107   6.247   3.035
10166SOL    HW231398   3.041   6.128   3.126
10167SOL     OW31399   3.997   1.365   6.898
10167SOL    HW131400   4.080   1.334   6.851
10167SOL    HW231401   3.942   1.419   6.835
10168SOL     OW31402   0.845   0.814   6.402
10168SOL    HW131403   0.750   0.821   6.432
10168SOL    HW231404   0.906   0.853   6.471
10169SOL     OW31405   4.469   4.856   2.432
10169SOL    HW131406   4.390   4.799   2.409
10169SOL    HW231407   4.480   4.860   2.531
10170SOL     OW31408   4.853   6.610   6.857
10170SOL    HW131409   4.938   6.663   6.861
10170SOL    HW231410   4.785   6.651   6.919
10171SOL     OW31411   1.477   4.029   3.400
10171SOL    HW131412   1.523   4.087   3.335
10171SOL    HW231413   1.544   3.971   3.447
10172SOL     OW31414   0.788   1.187   3.173
10172SOL    HW131415   0.789   1.098   3.217
10172SOL    HW231416   0.860   1.245   3.212
10173SOL     OW31417   4.567   2.790   5.194
10173SOL    HW131418   4.513   2.856   5.247
10173SOL    HW231419   4.657   2.829   5.174
10174SOL     OW31420   5.053   5.017   1.276
10174SOL    HW131421   5.022   5.028   1.181
10174SOL    HW231422   4.976   4.988   1.333
10175SOL     OW31423   6.563   0.056   3.726
10175SOL    HW131424   6.504   0.137   3.719
10175SOL    HW231425   6.511   7.001   3.700
10176SOL     OW31426   6.759   1.470   5.159
10176SOL    HW131427   6.722   1.541   5.219
10176SOL    HW231428   6.689   1.443   5.092
10177SOL     OW31429   3.236   1.025   4.192
10177SOL    HW131430   3.292   1.007   4.111
10177SOL    HW231431   3.159   1.083   4.168
10178SOL     OW31432   6.796   1.564   2.222
10178SOL    HW131433   6.817   1.662   2.227
10178SOL    HW231434   6.876   1.514   2.190
10179SOL     OW31435   0.319   6.095   0.762
10179SOL    HW131436   0.397   6.102   0.825
10179SOL    HW231437   0.238   6.066   0.813
10180SOL     OW31438   2.427   0.271   6.162
10180SOL    HW131439   2.416   0.351   6.222
10180SOL    HW231440   2.426   0.188   6.218
10181SOL     OW31441   6.759   4.104   2.012
10181SOL    HW131442   6.753   4.046   2.094
10181SOL    HW231443   6.759   4.046   1.930
10182SOL     OW31444   3.702   0.211   6.883
10182SOL    HW131445   3.658   0.230   6.795
10182SOL    HW231446   3.754   0.125   6.876
10183SOL     OW31447   3.822   6.059   5.994
10183SOL    HW131448   3.798   6.147   5.953
10183SOL    HW231449   3.778   5.985   5.944
10184SOL     OW31450   5.148   2.477   4.560
10184SOL    HW131451   5.217   2.404   4.554
10184SOL    HW231452   5.060   2.438   4.585
10185SOL     OW31453   2.987   4.829   1.941
10185SOL    HW131454   2.927   4.749   1.932
10185SOL    HW231455   2.935   4.912   1.922
10186SOL     OW31456   3.402   2.925   1.670
10186SOL    HW131457   3.442   2.872   1.595
10186SOL    HW231458   3.371   2.864   1.742
10187SOL     OW31459   1.856   3.828   5.722
10187SOL    HW131460   1.855   3.898   5.651
10187SOL    HW231461   1.922   3.757   5.698
10188SOL     OW31462   2.156   0.308   6.797
10188SOL    HW131463   2.195   0.220   6.770
10188SOL    HW231464   2.087   0.336   6.729
10189SOL     OW31465   2.039   2.143   5.273
10189SOL    HW131466   2.049   2.046   5.250
10189SOL    HW231467   1.967   2.183   5.216
10190SOL     OW31468   3.462   3.989   0.515
10190SOL    HW131469   3.366   3.969   0.529
10190SOL    HW231470   3.479   4.007   0.418
10191SOL     OW31471   5.675   0.678   0.250
10191SOL    HW131472   5.761   0.719   0.282
10191SOL    HW231473   5.600   0.744   0.263
10192SOL     OW31474   2.210   0.286   4.057
10192SOL    HW131475   2.245   0.228   4.130
10192SOL    HW231476   2.149   0.356   4.095
10193SOL     OW31477   4.119   3.658   3.699
10193SOL    HW131478   4.119   3.560   3.679
10193SOL    HW231479   4.121   3.672   3.798
10194SOL     OW31480   2.879   5.777   3.515
10194SOL    HW131481   2.871   5.796   3.417
10194SOL    HW231482   2.826   5.695   3.537
10195SOL     OW31483   5.172   0.248   2.528
10195SOL    HW131484   5.263   0.251   2.570
10195SOL    HW231485   5.120   0.172   2.567
10196SOL     OW31486   4.698   4.631   3.799
10196SOL    HW131487   4.655   4.541   3.790
10196SOL    HW231488   4.770   4.627   3.868
10197SOL     OW31489   5.052   1.749   2.998
10197SOL    HW131490   5.024   1.663   3.042
10197SOL    HW231491   5.151   1.752   2.991
10198SOL     OW31492   3.341   1.845   1.819
10198SOL    HW131493   3.316   1.891   1.734
10198SOL    HW231494   3.348   1.747   1.803
10199SOL     OW31495   1.326   2.008   6.994
10199SOL    HW131496   1.290   2.096   7.027
10199SOL    HW231497   1.343   2.014   6.895
10200SOL     OW31498   5.948   6.906   3.633
10200SOL    HW131499   5.965   7.002   3.655
10200SOL    HW231500   6.004   6.847   3.692
10201SOL     OW31501   1.371   4.960   2.781
10201SOL    HW131502   1.294   4.944   2.842
10201SOL    HW231503   1.338   5.000   2.695
10202SOL     OW31504   1.190   2.272   3.112
10202SOL    HW131505   1.166   2.345   3.048
10202SOL    HW231506   1.271   2.298   3.164
10203SOL     OW31507   0.031   2.432   0.837
10203SOL    HW131508   6.993   2.390   0.773
10203SOL    HW231509   0.093   2.362   0.873
10204SOL     OW31510   1.975   6.206   4.267
10204SOL    HW131511   2.038   6.243   4.335
10204SOL    HW231512   1.993   6.247   4.178
10205SOL     OW31513   3.328   7.019   1.127
10205SOL    HW131514   3.360   0.039   1.045
10205SOL    HW231515   3.230   7.000   1.118
10206SOL     OW31516   6.062   6.441   0.177
10206SOL    HW131517   6.079   6.536   0.153
10206SOL    HW231518   6.149   6.398   0.203
10207SOL     OW31519   3.401   1.114   2.436
10207SOL    HW131520   3.337   1.191   2.444
10207SOL    HW231521   3.403   1.064   2.523
10208SOL     OW31522   6.906   2.617   6.178
10208SOL    HW131523   6.853   2.702   6.181
10208SOL    HW231524   6.992   2.628   6.227
10209SOL     OW31525   3.817   6.511   6.832
10209SOL    HW131526   3.755   6.445   6.875
10209SOL    HW231527   3.790   6.525   6.737
10210SOL     OW31528   4.549   6.292   6.641
10210SOL    HW131529   4.562   6.339   6.554
10210SOL    HW231530   4.463   6.322   6.683
10211SOL     OW31531   3.499   5.288   5.472
10211SOL    HW131532   3.421   5.265   5.413
10211SOL    HW231533   3.545   5.369   5.436
10212SOL     OW31534   6.312   6.122   5.761
10212SOL    HW131535   6.378   6.098   5.831
10212SOL    HW231536   6.351   6.105   5.670
10213SOL     OW31537   4.285   6.772   4.424
10213SOL    HW131538   4.277   6.844   4.355
10213SOL    HW231539   4.380   6.766   4.455
10214SOL     OW31540   0.102   0.684   0.256
10214SOL    HW131541   0.162   0.659   0.181
10214SOL    HW231542   0.038   0.756   0.227
10215SOL     OW31543   4.526   2.514   0.548
10215SOL    HW131544   4.439   2.467   0.534
10215SOL    HW231545   4.519   2.575   0.628
10216SOL     OW31546   4.960   0.683   2.454
10216SOL    HW131547   4.965   0.614   2.526
10216SOL    HW231548   4.907   0.648   2.377
10217SOL     OW31549   3.184   2.475   5.879
10217SOL    HW131550   3.266   2.425   5.904
10217SOL    HW231551   3.164   2.461   5.781
10218SOL     OW31552   3.972   0.932   6.390
10218SOL    HW131553   4.023   0.972   6.466
10218SOL    HW231554   3.874   0.931   6.413
10219SOL     OW31555   0.266   4.837   6.850
10219SOL    HW131556   0.170   4.849   6.826
10219SOL    HW231557   0.310   4.926   6.855
10220SOL     OW31558   4.260   2.240   6.749
10220SOL    HW131559   4.257   2.227   6.848
10220SOL    HW231560   4.178   2.202   6.708
10221SOL     OW31561   2.275   0.815   4.182
10221SOL    HW131562   2.363   0.778   4.152
10221SOL    HW231563   2.285   0.856   4.273
10222SOL     OW31564   2.286   4.562   5.345
10222SOL    HW131565   2.316   4.657   5.348
10222SOL    HW231566   2.187   4.557   5.343
10223SOL     OW31567   1.352   5.003   6.108
10223SOL    HW131568   1.277   5.064   6.082
10223SOL    HW231569   1.332   4.960   6.196
10224SOL     OW31570   2.932   6.078   5.632
10224SOL    HW131571   2.974   6.049   5.546
10224SOL    HW231572   2.840   6.112   5.614
10225SOL     OW31573   5.446   6.781   4.489
10225SOL    HW131574   5.404   6.779   4.398
10225SOL    HW231575   5.539   6.819   4.482
10226SOL     OW31576   0.128   2.377   6.271
10226SOL    HW131577   0.142   2.369   6.172
10226SOL    HW231578   0.040   2.337   6.296
10227SOL     OW31579   4.858   4.408   5.377
10227SOL    HW131580   4.916   4.338   5.419
10227SOL    HW231581   4.855   4.393   5.278
10228SOL     OW31582   0.775   2.655   1.686
10228SOL    HW131583   0.819   2.643   1.775
10228SOL    HW231584   0.825   2.724   1.633
10229SOL     OW31585   2.804   1.233   1.915
10229SOL    HW131586   2.822   1.234   2.013
10229SOL    HW231587   2.789   1.140   1.884
10230SOL     OW31588   5.201   6.561   3.371
10230SOL    HW131589   5.195   6.600   3.463
10230SOL    HW231590   5.193   6.633   3.303
10231SOL     OW31591   4.694   5.997   4.394
10231SOL    HW131592   4.711   6.095   4.379
10231SOL    HW231593   4.760   5.943   4.342
10232SOL     OW31594   4.357   2.379   3.056
10232SOL    HW131595   4.348   2.316   3.134
10232SOL    HW231596   4.269   2.387   3.010
10233SOL     OW31597   4.866   6.438   5.601
10233SOL    HW131598   4.812   6.517   5.629
10233SOL    HW231599   4.964   6.459   5.610
10234SOL     OW31600   3.844   4.800   1.183
10234SOL    HW131601   3.804   4.735   1.247
10234SOL    HW231602   3.780   4.875   1.167
10235SOL     OW31603   4.512   0.254   0.073
10235SOL    HW131604   4.457   0.331   0.104
10235SOL    HW231605   4.512   0.252   6.999
10236SOL     OW31606   1.375   5.467   1.284
10236SOL    HW131607   1.298   5.477   1.347
10236SOL    HW231608   1.460   5.480   1.334
10237SOL     OW31609   5.869   2.528   2.974
10237SOL    HW131610   5.961   2.531   3.012
10237SOL    HW231611   5.828   2.619   2.980
10238SOL     OW31612   4.886   5.527   6.325
10238SOL    HW131613   4.933   5.610   6.297
10238SOL    HW231614   4.801   5.518   6.273
10239SOL     OW31615   5.548   3.622   4.311
10239SOL    HW131616   5.549   3.699   4.248
10239SOL    HW231617   5.600   3.546   4.272
10240SOL     OW31618   4.908   4.005   3.113
10240SOL    HW131619   4.977   4.017   3.184
10240SOL    HW231620   4.948   3.954   3.036
10241SOL     OW31621   1.060   2.233   2.680
10241SOL    HW131622   1.105   2.257   2.594
10241SOL    HW231623   1.087   2.298   2.752
10242SOL     OW31624   1.463   5.264   6.631
10242SOL    HW131625   1.520   5.186   6.604
10242SOL    HW231626   1.367   5.237   6.630
10243SOL     OW31627   0.415   5.870   3.381
10243SOL    HW131628   0.326   5.823   3.381
10243SOL    HW231629   0.486   5.805   3.406
10244SOL     OW31630   2.184   5.911   6.740
10244SOL    HW131631   2.258   5.845   6.740
10244SOL    HW231632   2.121   5.892   6.665
10245SOL     OW31633   3.063   2.685   0.783
10245SOL    HW131634   3.097   2.778   0.799
10245SOL    HW231635   2.986   2.688   0.720
10246SOL     OW31636   3.754   4.174   4.802
10246SOL    HW131637   3.691   4.161   4.878
10246SOL    HW231638   3.792   4.267   4.805
10247SOL     OW31639   1.105   6.088   6.259
10247SOL    HW131640   1.181   6.038   6.301
10247SOL    HW231641   1.069   6.154   6.325
10248SOL     OW31642   5.999   0.698   3.537
10248SOL    HW131643   6.000   0.627   3.467
10248SOL    HW231644   6.082   0.691   3.593
10249SOL     OW31645   4.361   0.890   5.987
10249SOL    HW131646   4.389   0.844   6.071
10249SOL    HW231647   4.424   0.967   5.970
10250SOL     OW31648   4.363   5.664   0.973
10250SOL    HW131649   4.434   5.654   0.903
10250SOL    HW231650   4.359   5.760   1.002
10251SOL     OW31651   4.097   4.593   1.604
10251SOL    HW131652   4.137   4.674   1.560
10251SOL    HW231653   4.162   4.517   1.601
10252SOL     OW31654   0.309   3.777   0.970
10252SOL    HW131655   0.247   3.769   1.048
10252SOL    HW231656   0.368   3.696   0.966
10253SOL     OW31657   4.290   4.366   0.190
10253SOL    HW131658   4.240   4.279   0.197
10253SOL    HW231659   4.254   4.419   0.114
10254SOL     OW31660   2.736   2.099   5.213
10254SOL    HW131661   2.712   2.060   5.302
10254SOL    HW231662   2.835   2.099   5.202
10255SOL     OW31663   3.157   4.877   3.978
10255SOL    HW131664   3.151   4.876   4.078
10255SOL    HW231665   3.250   4.901   3.951
10256SOL     OW31666   5.234   6.208   0.571
10256SOL    HW131667   5.152   6.214   0.515
10256SOL    HW231668   5.250   6.112   0.596
10257SOL     OW31669   2.020   4.848   5.574
10257SOL    HW131670   1.931   4.836   5.619
10257SOL    HW231671   2.007   4.854   5.475
10258SOL     OW31672   4.283   1.043   2.401
10258SOL    HW131673   4.355   1.107   2.426
10258SOL    HW231674   4.196   1.074   2.438
10259SOL     OW31675   6.857   3.207   4.222
10259SOL    HW131676   6.924   3.276   4.195
10259SOL    HW231677   6.896   3.148   4.293
10260SOL     OW31678   0.024   5.674   2.066
10260SOL    HW131679   0.050   5.598   2.006
10260SOL    HW231680   0.026   5.644   2.161
10261SOL     OW31681   1.988   0.619   2.178
10261SOL    HW131682   2.039   0.571   2.107
10261SOL    HW231683   2.050   0.678   2.230
10262SOL     OW31684   0.493   6.286   3.998
10262SOL    HW131685   0.473   6.315   3.904
10262SOL    HW231686   0.409   6.289   4.052
10263SOL     OW31687   6.705   3.014   4.652
10263SOL    HW131688   6.795   3.001   4.611
10263SOL    HW231689   6.671   3.106   4.628
10264SOL     OW31690   0.620   0.104   0.535
10264SOL    HW131691   0.523   0.080   0.529
10264SOL    HW231692   0.629   0.192   0.580
10265SOL     OW31693   5.154   2.619   4.287
10265SOL    HW131694   5.119   2.712   4.272
10265SOL    HW231695   5.179   2.609   4.384
10266SOL     OW31696   3.313   3.903   0.048
10266SOL    HW131697   3.333   3.885   0.145
10266SOL    HW231698   3.270   3.822   0.007
10267SOL     OW31699   6.852   1.111   6.444
10267SOL    HW131700   6.936   1.164   6.436
10267SOL    HW231701   6.774   1.172   6.456
10268SOL     OW31702   6.734   3.683   0.219
10268SOL    HW131703   6.677   3.764   0.206
10268SOL    HW231704   6.712   3.640   0.306
10269SOL     OW31705   3.930   1.694   6.154
10269SOL    HW131706   3.984   1.647   6.225
10269SOL    HW231707   3.968   1.674   6.064
10270SOL     OW31708   3.588   5.819   2.751
10270SOL    HW131709   3.518   5.842   2.683
10270SOL    HW231710   3.679   5.838   2.714
10271SOL     OW31711   1.975   4.615   1.340
10271SOL    HW131712   2.031   4.692   1.310
10271SOL    HW231713   1.881   4.626   1.307
10272SOL     OW31714   1.798   2.540   4.218
10272SOL    HW131715   1.713   2.572   4.176
10272SOL    HW231716   1.875   2.594   4.184
10273SOL     OW31717   4.199   6.126   3.451
10273SOL    HW131718   4.157   6.181   3.379
10273SOL    HW231719   4.293   6.157   3.465
10274SOL     OW31720   2.349   4.468   6.598
10274SOL    HW131721   2.357   4.370   6.578
10274SOL    HW231722   2.437   4.502   6.632
10275SOL     OW31723   0.918   6.023   1.872
10275SOL    HW131724   0.861   5.941   1.886
10275SOL    HW231725   0.891   6.068   1.787
10276SOL     OW31726   1.256   6.745   0.713
10276SOL    HW131727   1.267   6.722   0.810
10276SOL    HW231728   1.179   6.808   0.702
10277SOL     OW31729   6.809   6.021   2.312
10277SOL    HW131730   6.803   6.120   2.295
10277SOL    HW231731   6.743   5.973   2.255
10278SOL     OW31732   6.131   1.113   5.419
10278SOL    HW131733   6.190   1.034   5.437
10278SOL    HW231734   6.060   1.087   5.354
10279SOL     OW31735   3.644   6.116   4.287
10279SOL    HW131736   3.590   6.188   4.242
10279SOL    HW231737   3.732   6.154   4.317
10280SOL     OW31738   2.568   2.652   0.203
10280SOL    HW131739   2.478   2.626   0.239
10280SOL    HW231740   2.587   2.598   0.121
10281SOL     OW31741   4.649   1.115   4.295
10281SOL    HW131742   4.729   1.098   4.237
10281SOL    HW231743   4.599   1.030   4.308
10282SOL     OW31744   1.580   3.025   4.195
10282SOL    HW131745   1.604   3.084   4.272
10282SOL    HW231746   1.621   3.059   4.111
10283SOL     OW31747   1.639   5.107   6.171
10283SOL    HW131748   1.546   5.091   6.138
10283SOL    HW231749   1.640   5.187   6.230
10284SOL     OW31750   5.212   2.936   7.023
10284SOL    HW131751   5.197   3.003   6.950
10284SOL    HW231752   5.125   2.894   0.022
10285SOL     OW31753   5.207   1.479   1.387
10285SOL    HW131754   5.193   1.577   1.369
10285SOL    HW231755   5.122   1.439   1.420
10286SOL     OW31756   3.850   0.231   3.754
10286SOL    HW131757   3.909   0.264   3.828
10286SOL    HW231758   3.812   0.142   3.779
10287SOL     OW31759   1.961   4.509   1.863
10287SOL    HW131760   2.041   4.449   1.869
10287SOL    HW231761   1.981   4.595   1.910
10288SOL     OW31762   4.067   6.066   4.121
10288SOL    HW131763   3.981   6.016   4.121
10288SOL    HW231764   4.055   6.154   4.075
10289SOL     OW31765   2.823   1.600   1.630
10289SOL    HW131766   2.843   1.631   1.537
10289SOL    HW231767   2.908   1.594   1.682
10290SOL     OW31768   3.145   3.015   3.666
10290SOL    HW131769   3.113   2.935   3.614
10290SOL    HW231770   3.138   2.995   3.764
10291SOL     OW31771   3.737   0.278   4.101
10291SOL    HW131772   3.790   0.213   4.155
10291SOL    HW231773   3.644   0.242   4.090
10292SOL     OW31774   6.752   2.324   4.076
10292SOL    HW131775   6.736   2.353   3.982
10292SOL    HW231776   6.795   2.398   4.127
10293SOL     OW31777   2.040   4.706   2.773
10293SOL    HW131778   2.046   4.681   2.870
10293SOL    HW231779   2.088   4.792   2.758
10294SOL     OW31780   5.761   0.884   3.187
10294SOL    HW131781   5.818   0.814   3.143
10294SOL    HW231782   5.668   0.849   3.200
10295SOL     OW31783   1.783   3.965   3.945
10295SOL    HW131784   1.818   3.991   3.855
10295SOL    HW231785   1.814   3.872   3.967
10296SOL     OW31786   6.149   3.381   1.283
10296SOL    HW131787   6.140   3.427   1.372
10296SOL    HW231788   6.087   3.425   1.218
10297SOL     OW31789   3.802   5.041   5.287
10297SOL    HW131790   3.733   5.057   5.358
10297SOL    HW231791   3.840   5.129   5.258
10298SOL     OW31792   5.884   3.116   2.791
10298SOL    HW131793   5.973   3.087   2.753
10298SOL    HW231794   5.897   3.199   2.845
10299SOL     OW31795   4.283   4.670   2.322
10299SOL    HW131796   4.216   4.699   2.254
10299SOL    HW231797   4.371   4.653   2.277
10300SOL     OW31798   0.836   6.084   2.218
10300SOL    HW131799   0.913   6.026   2.245
10300SOL    HW231800   0.750   6.039   2.242
10301SOL     OW31801   4.604   0.288   2.128
10301SOL    HW131802   4.653   0.232   2.195
10301SOL    HW231803   4.618   0.251   2.036
10302SOL     OW31804   1.011   3.974   3.528
10302SOL    HW131805   0.971   4.065   3.518
10302SOL    HW231806   1.094   3.968   3.472
10303SOL     OW31807   4.517   3.102   1.449
10303SOL    HW131808   4.594   3.044   1.428
10303SOL    HW231809   4.528   3.191   1.403
10304SOL     OW31810   5.579   5.631   3.420
10304SOL    HW131811   5.660   5.614   3.363
10304SOL    HW231812   5.497   5.621   3.364
10305SOL     OW31813   2.196   5.492   1.515
10305SOL    HW131814   2.251   5.428   1.569
10305SOL    HW231815   2.182   5.576   1.567
10306SOL     OW31816   4.542   4.053   0.087
10306SOL    HW131817   4.509   4.103   0.007
10306SOL    HW231818   4.536   3.954   0.069
10307SOL     OW31819   2.425   2.003   6.025
10307SOL    HW131820   2.454   1.973   6.116
10307SOL    HW231821   2.504   2.001   5.964
10308SOL     OW31822   2.935   5.118   4.342
10308SOL    HW131823   2.929   5.120   4.242
10308SOL    HW231824   2.872   5.050   4.377
10309SOL     OW31825   0.371   6.328   3.761
10309SOL    HW131826   0.296   6.262   3.770
10309SOL    HW231827   0.379   6.357   3.666
10310SOL     OW31828   3.652   4.023   4.584
10310SOL    HW131829   3.660   4.078   4.501
10310SOL    HW231830   3.673   4.081   4.664
10311SOL     OW31831   0.903   0.247   1.319
10311SOL    HW131832   0.816   0.294   1.332
10311SOL    HW231833   0.901   0.196   1.233
10312SOL     OW31834   2.942   4.937   0.622
10312SOL    HW131835   2.850   4.898   0.610
10312SOL    HW231836   3.005   4.890   0.559
10313SOL     OW31837   6.610   5.519   4.043
10313SOL    HW131838   6.552   5.491   4.119
10313SOL    HW231839   6.695   5.558   4.079
10314SOL     OW31840   6.882   5.772   5.336
10314SOL    HW131841   6.961   5.727   5.377
10314SOL    HW231842   6.913   5.834   5.264
10315SOL     OW31843   4.518   6.388   5.561
10315SOL    HW131844   4.610   6.409   5.528
10315SOL    HW231845   4.514   6.402   5.660
10316SOL     OW31846   0.657   3.656   3.912
10316SOL    HW131847   0.657   3.727   3.983
10316SOL    HW231848   0.752   3.638   3.884
10317SOL     OW31849   5.618   4.398   6.404
10317SOL    HW131850   5.662   4.483   6.435
10317SOL    HW231851   5.526   4.419   6.371
10318SOL     OW31852   5.405   4.503   2.838
10318SOL    HW131853   5.355   4.497   2.751
10318SOL    HW231854   5.367   4.578   2.893
10319SOL     OW31855   4.666   6.740   3.547
10319SOL    HW131856   4.749   6.715   3.498
10319SOL    HW231857   4.587   6.734   3.486
10320SOL     OW31858   3.798   6.505   1.867
10320SOL    HW131859   3.861   6.580   1.846
10320SOL    HW231860   3.730   6.497   1.794
10321SOL     OW31861   4.749   6.270   4.441
10321SOL    HW131862   4.798   6.357   4.441
10321SOL    HW231863   4.720   6.249   4.534
10322SOL     OW31864   6.963   1.498   6.998
10322SOL    HW131865   6.892   1.466   0.034
10322SOL    HW231866   6.973   1.597   7.007
10323SOL     OW31867   0.752   2.315   5.166
10323SOL    HW131868   0.689   2.257   5.216
10323SOL    HW231869   0.764   2.279   5.073
10324SOL     OW31870   3.140   3.120   4.237
10324SOL    HW131871   3.234   3.146   4.217
10324SOL    HW231872   3.108   3.169   4.318
10325SOL     OW31873   0.671   3.313   3.680
10325SOL    HW131874   0.717   3.247   3.740
10325SOL    HW231875   0.572   3.303   3.689
10326SOL     OW31876   5.731   1.920   1.641
10326SOL    HW131877   5.816   1.889   1.599
10326SOL    HW231878   5.690   1.845   1.693
10327SOL     OW31879   6.210   1.733   3.729
10327SOL    HW131880   6.155   1.813   3.754
10327SOL    HW231881   6.152   1.666   3.683
10328SOL     OW31882   6.787   3.940   2.235
10328SOL    HW131883   6.803   3.842   2.222
10328SOL    HW231884   6.831   3.970   2.320
10329SOL     OW31885   3.110   5.639   3.205
10329SOL    HW131886   3.166   5.645   3.122
10329SOL    HW231887   3.170   5.638   3.285
10330SOL     OW31888   3.117   3.943   0.866
10330SOL    HW131889   3.182   3.920   0.938
10330SOL    HW231890   3.086   3.860   0.820
10331SOL     OW31891   5.062   1.573   4.506
10331SOL    HW131892   5.051   1.475   4.491
10331SOL    HW231893   5.156   1.600   4.483
10332SOL     OW31894   1.280   2.608   6.669
10332SOL    HW131895   1.332   2.544   6.725
10332SOL    HW231896   1.263   2.568   6.579
10333SOL     OW31897   0.004   4.640   5.367
10333SOL    HW131898   6.990   4.557   5.407
10333SOL    HW231899   6.996   4.652   5.274
10334SOL     OW31900   0.583   5.049   5.296
10334SOL    HW131901   0.558   4.980   5.228
10334SOL    HW231902   0.598   5.136   5.251
10335SOL     OW31903   2.996   5.159   3.280
10335SOL    HW131904   2.990   5.257   3.298
10335SOL    HW231905   2.918   5.112   3.322
10336SOL     OW31906   4.609   6.872   2.884
10336SOL    HW131907   4.572   6.806   2.950
10336SOL    HW231908   4.537   6.937   2.858
10337SOL     OW31909   1.559   3.999   6.343
10337SOL    HW131910   1.465   4.032   6.341
10337SOL    HW231911   1.612   4.054   6.407
10338SOL     OW31912   2.588   4.603   2.335
10338SOL    HW131913   2.551   4.567   2.249
10338SOL    HW231914   2.653   4.676   2.316
10339SOL     OW31915   3.173   5.914   6.961
10339SOL    HW131916   3.171   5.814   6.965
10339SOL    HW231917   3.267   5.944   6.941
10340SOL     OW31918   1.737   6.601   0.937
10340SOL    HW131919   1.764   6.681   0.989
10340SOL    HW231920   1.678   6.543   0.993
10341SOL     OW31921   0.555   2.909   2.101
10341SOL    HW131922   0.566   2.843   2.175
10341SOL    HW231923   0.461   2.906   2.068
10342SOL     OW31924   2.954   5.532   4.193
10342SOL    HW131925   3.052   5.512   4.206
10342SOL    HW231926   2.910   5.455   4.147
10343SOL     OW31927   2.509   2.468   4.768
10343SOL    HW131928   2.607   2.450   4.778
10343SOL    HW231929   2.457   2.403   4.823
10344SOL     OW31930   4.689   3.637   1.330
10344SOL    HW131931   4.619   3.709   1.327
10344SOL    HW231932   4.668   3.574   1.405
10345SOL     OW31933   3.602   1.464   6.339
10345SOL    HW131934   3.591   1.509   6.427
10345SOL    HW231935   3.612   1.533   6.267
10346SOL     OW31936   6.283   5.585   0.269
10346SOL    HW131937   6.230   5.514   0.315
10346SOL    HW231938   6.226   5.629   0.199
10347SOL     OW31939   4.236   0.355   2.035
10347SOL    HW131940   4.205   0.393   1.947
10347SOL    HW231941   4.274   0.264   2.020
10348SOL     OW31942   6.902   4.030   5.587
10348SOL    HW131943   6.857   3.952   5.543
10348SOL    HW231944   6.999   4.030   5.563
10349SOL     OW31945   5.970   1.971   0.296
10349SOL    HW131946   5.873   1.954   0.316
10349SOL    HW231947   5.990   1.942   0.202
10350SOL     OW31948   2.053   4.816   4.055
10350SOL    HW131949   1.971   4.770   4.091
10350SOL    HW231950   2.027   4.873   3.978
10351SOL     OW31951   3.936   5.462   5.108
10351SOL    HW131952   3.922   5.546   5.056
10351SOL    HW231953   3.859   5.400   5.092
10352SOL     OW31954   0.386   1.043   1.615
10352SOL    HW131955   0.467   1.101   1.614
10352SOL    HW231956   0.317   1.080   1.552
10353SOL     OW31957   5.771   3.055   3.399
10353SOL    HW131958   5.788   2.968   3.351
10353SOL    HW231959   5.756   3.037   3.496
10354SOL     OW31960   6.776   3.099   1.463
10354SOL    HW131961   6.821   3.186   1.444
10354SOL    HW231962   6.741   3.061   1.378
10355SOL     OW31963   0.273   1.898   0.700
10355SOL    HW131964   0.244   1.808   0.667
10355SOL    HW231965   0.197   1.941   0.749
10356SOL     OW31966   5.968   2.404   6.891
10356SOL    HW131967   6.047   2.348   6.915
10356SOL    HW231968   5.912   2.356   6.824
10357SOL     OW31969   0.151   0.451   6.382
10357SOL    HW131970   0.178   0.532   6.434
10357SOL    HW231971   0.184   0.369   6.428
10358SOL     OW31972   0.759   2.672   4.003
10358SOL    HW131973   0.777   2.639   4.095
10358SOL    HW231974   0.842   2.665   3.948
10359SOL     OW31975   0.608   2.675   2.295
10359SOL    HW131976   0.699   2.636   2.311
10359SOL    HW231977   0.568   2.702   2.383
10360SOL     OW31978   5.994   4.564   0.776
10360SOL    HW131979   5.999   4.664   0.784
10360SOL    HW231980   6.050   4.534   0.699
10361SOL     OW31981   6.081   2.130   2.814
10361SOL    HW131982   6.004   2.174   2.859
10361SOL    HW231983   6.101   2.043   2.859
10362SOL     OW31984   0.414   6.188   1.361
10362SOL    HW131985   0.463   6.274   1.380
10362SOL    HW231986   0.465   6.111   1.399
10363SOL     OW31987   5.564   5.114   6.001
10363SOL    HW131988   5.585   5.016   5.999
10363SOL    HW231989   5.549   5.146   5.907
10364SOL     OW31990   5.933   5.084   1.859
10364SOL    HW131991   5.963   5.121   1.771
10364SOL    HW231992   6.011   5.040   1.904
10365SOL     OW31993   6.158   5.685   0.023
10365SOL    HW131994   6.150   5.596   7.004
10365SOL    HW231995   6.068   5.728   0.029
10366SOL     OW31996   3.214   0.177   2.999
10366SOL    HW131997   3.133   0.121   3.014
10366SOL    HW231998   3.200   0.236   2.920
10367SOL     OW31999   5.540   6.255   1.760
10367SOL    HW132000   5.623   6.199   1.753
10367SOL    HW232001   5.473   6.225   1.692
10368SOL     OW32002   1.242   5.962   1.616
10368SOL    HW132003   1.259   6.051   1.657
10368SOL    HW232004   1.260   5.966   1.518
10369SOL     OW32005   2.349   0.862   5.830
10369SOL    HW132006   2.395   0.803   5.897
10369SOL    HW232007   2.264   0.819   5.802
10370SOL     OW32008   1.535   2.242   5.815
10370SOL    HW132009   1.530   2.284   5.906
10370SOL    HW232010   1.597   2.295   5.757
10371SOL     OW32011   3.565   5.438   3.369
10371SOL    HW132012   3.659   5.441   3.336
10371SOL    HW232013   3.503   5.442   3.290
10372SOL     OW32014   1.418   6.125   0.749
10372SOL    HW132015   1.426   6.179   0.665
10372SOL    HW232016   1.478   6.045   0.742
10373SOL     OW32017   6.424   0.844   6.504
10373SOL    HW132018   6.444   0.868   6.409
10373SOL    HW232019   6.361   0.911   6.542
10374SOL     OW32020   2.884   4.767   3.182
10374SOL    HW132021   2.833   4.751   3.266
10374SOL    HW232022   2.827   4.746   3.103
10375SOL     OW32023   2.361   5.716   6.772
10375SOL    HW132024   2.372   5.617   6.765
10375SOL    HW232025   2.450   5.760   6.759
10376SOL     OW32026   2.300   4.972   4.070
10376SOL    HW132027   2.320   4.950   4.165
10376SOL    HW232028   2.214   4.929   4.043
10377SOL     OW32029   2.405   0.619   3.655
10377SOL    HW132030   2.307   0.599   3.666
10377SOL    HW232031   2.457   0.534   3.665
10378SOL     OW32032   0.563   6.841   5.721
10378SOL    HW132033   0.473   6.835   5.679
10378SOL    HW232034   0.553   6.857   5.820
10379SOL     OW32035   0.883   6.221   3.732
10379SOL    HW132036   0.957   6.225   3.665
10379SOL    HW232037   0.835   6.309   3.734
10380SOL     OW32038   3.058   1.033   3.819
10380SOL    HW132039   3.001   0.999   3.745
10380SOL    HW232040   3.124   1.098   3.783
10381SOL     OW32041   2.879   0.425   2.563
10381SOL    HW132042   2.826   0.409   2.480
10381SOL    HW232043   2.971   0.387   2.552
10382SOL     OW32044   4.119   5.567   1.885
10382SOL    HW132045   4.152   5.604   1.798
10382SOL    HW232046   4.188   5.582   1.955
10383SOL     OW32047   0.473   6.975   6.841
10383SOL    HW132048   0.474   6.886   6.885
10383SOL    HW232049   0.527   0.013   6.895
10384SOL     OW32050   4.827   5.075   0.745
10384SOL    HW132051   4.821   4.991   0.798
10384SOL    HW232052   4.800   5.153   0.802
10385SOL     OW32053   4.227   4.677   6.817
10385SOL    HW132054   4.267   4.769   6.806
10385SOL    HW232055   4.139   4.674   6.770
10386SOL     OW32056   0.385   0.175   2.169
10386SOL    HW132057   0.363   0.094   2.116
10386SOL    HW232058   0.362   0.257   2.116
10387SOL     OW32059   5.498   2.023   1.448
10387SOL    HW132060   5.561   1.981   1.514
10387SOL    HW232061   5.407   2.031   1.488
10388SOL     OW32062   1.285   0.331   5.114
10388SOL    HW132063   1.322   0.242   5.087
10388SOL    HW232064   1.259   0.383   5.032
10389SOL     OW32065   0.307   3.621   0.274
10389SOL    HW132066   0.401   3.627   0.241
10389SOL    HW232067   0.295   3.688   0.348
10390SOL     OW32068   2.093   1.827   2.171
10390SOL    HW132069   2.032   1.903   2.194
10390SOL    HW232070   2.162   1.859   2.105
10391SOL     OW32071   6.265   6.902   3.536
10391SOL    HW132072   6.309   6.877   3.622
10391SOL    HW232073   6.222   6.992   3.545
10392SOL     OW32074   6.728   3.610   4.122
10392SOL    HW132075   6.734   3.618   4.221
10392SOL    HW232076   6.655   3.547   4.098
10393SOL     OW32077   2.272   2.551   2.430
10393SOL    HW132078   2.294   2.466   2.477
10393SOL    HW232079   2.335   2.565   2.353
10394SOL     OW32080   3.073   6.392   3.683
10394SOL    HW132081   3.053   6.465   3.618
10394SOL    HW232082   2.999   6.325   3.682
10395SOL     OW32083   0.866   0.668   1.692
10395SOL    HW132084   0.949   0.662   1.637
10395SOL    HW232085   0.873   0.746   1.754
10396SOL     OW32086   3.471   2.160   5.152
10396SOL    HW132087   3.380   2.194   5.132
10396SOL    HW232088   3.506   2.109   5.074
10397SOL     OW32089   5.240   1.490   3.865
10397SOL    HW132090   5.189   1.441   3.937
10397SOL    HW232091   5.176   1.544   3.811
10398SOL     OW32092   5.521   2.571   2.607
10398SOL    HW132093   5.520   2.636   2.683
10398SOL    HW232094   5.469   2.609   2.531
10399SOL     OW32095   0.373   3.809   2.159
10399SOL    HW132096   0.324   3.751   2.224
10399SOL    HW232097   0.400   3.894   2.204
10400SOL     OW32098   1.940   6.577   0.746
10400SOL    HW132099   1.972   6.670   0.726
10400SOL    HW232100   1.860   6.581   0.805
10401SOL     OW32101   0.081   0.433   5.945
10401SOL    HW132102   0.039   0.480   5.868
10401SOL    HW232103   0.043   0.468   6.031
10402SOL     OW32104   6.833   4.435   4.681
10402SOL    HW132105   6.887   4.440   4.597
10402SOL    HW232106   6.809   4.528   4.710
10403SOL     OW32107   3.033   7.007   1.099
10403SOL    HW132108   2.976   7.007   1.181
10403SOL    HW232109   3.017   0.064   1.047
10404SOL     OW32110   0.291   5.900   5.928
10404SOL    HW132111   0.307   5.809   5.890
10404SOL    HW232112   0.348   5.967   5.881
10405SOL     OW32113   0.056   1.809   6.741
10405SOL    HW132114   0.004   1.862   6.809
10405SOL    HW232115   7.024   1.737   6.704
10406SOL     OW32116   1.467   5.451   0.646
10406SOL    HW132117   1.440   5.515   0.574
10406SOL    HW232118   1.567   5.447   0.652
10407SOL     OW32119   1.978   6.204   6.174
10407SOL    HW132120   1.895   6.228   6.123
10407SOL    HW232121   2.048   6.274   6.158
10408SOL     OW32122   4.693   0.956   0.020
10408SOL    HW132123   4.641   1.034   0.053
10408SOL    HW232124   4.744   0.982   6.964
10409SOL     OW32125   6.002   4.056   0.763
10409SOL    HW132126   5.966   3.986   0.823
10409SOL    HW232127   5.982   4.147   0.801
10410SOL     OW32128   4.289   6.833   0.873
10410SOL    HW132129   4.229   6.802   0.799
10410SOL    HW232130   4.365   6.886   0.834
10411SOL     OW32131   2.028   5.086   4.355
10411SOL    HW132132   1.971   5.142   4.295
10411SOL    HW232133   2.100   5.041   4.301
10412SOL     OW32134   5.432   6.889   1.814
10412SOL    HW132135   5.475   6.887   1.904
10412SOL    HW232136   5.445   6.980   1.773
10413SOL     OW32137   6.234   3.127   2.462
10413SOL    HW132138   6.291   3.053   2.427
10413SOL    HW232139   6.158   3.088   2.515
10414SOL     OW32140   5.394   3.233   4.600
10414SOL    HW132141   5.315   3.188   4.641
10414SOL    HW232142   5.412   3.192   4.510
10415SOL     OW32143   0.719   0.742   6.786
10415SOL    HW132144   0.795   0.681   6.766
10415SOL    HW232145   0.701   0.742   6.884
10416SOL     OW32146   5.139   2.831   3.987
10416SOL    HW132147   5.058   2.772   3.989
10416SOL    HW232148   5.142   2.879   3.900
10417SOL     OW32149   1.801   4.161   3.060
10417SOL    HW132150   1.865   4.155   3.136
10417SOL    HW232151   1.835   4.228   2.993
10418SOL     OW32152   1.624   5.572   6.018
10418SOL    HW132153   1.720   5.601   6.010
10418SOL    HW232154   1.576   5.633   6.081
10419SOL     OW32155   1.203   0.729   0.328
10419SOL    HW132156   1.223   0.675   0.247
10419SOL    HW232157   1.118   0.780   0.314
10420SOL     OW32158   0.196   2.794   2.743
10420SOL    HW132159   0.262   2.784   2.668
10420SOL    HW232160   0.133   2.717   2.743
10421SOL     OW32161   0.782   2.368   2.949
10421SOL    HW132162   0.815   2.422   3.026
10421SOL    HW232163   0.729   2.290   2.984
10422SOL     OW32164   5.185   3.158   6.857
10422SOL    HW132165   5.250   3.235   6.863
10422SOL    HW232166   5.166   3.138   6.761
10423SOL     OW32167   5.063   4.850   2.784
10423SOL    HW132168   4.997   4.878   2.854
10423SOL    HW232169   5.023   4.777   2.728
10424SOL     OW32170   4.725   2.103   6.368
10424SOL    HW132171   4.719   2.071   6.274
10424SOL    HW232172   4.642   2.077   6.418
10425SOL     OW32173   1.838   6.966   1.945
10425SOL    HW132174   1.866   6.989   1.852
10425SOL    HW232175   1.895   6.890   1.979
10426SOL     OW32176   6.261   4.089   0.238
10426SOL    HW132177   6.352   4.130   0.234
10426SOL    HW232178   6.255   4.031   0.320
10427SOL     OW32179   4.897   0.757   0.845
10427SOL    HW132180   4.853   0.671   0.821
10427SOL    HW232181   4.987   0.762   0.802
10428SOL     OW32182   4.916   1.171   3.482
10428SOL    HW132183   4.867   1.139   3.563
10428SOL    HW232184   4.994   1.227   3.509
10429SOL     OW32185   5.988   5.581   1.995
10429SOL    HW132186   5.944   5.662   2.034
10429SOL    HW232187   6.050   5.541   2.063
10430SOL     OW32188   4.260   6.191   2.998
10430SOL    HW132189   4.204   6.110   2.982
10430SOL    HW232190   4.201   6.272   2.999
10431SOL     OW32191   2.486   1.506   5.424
10431SOL    HW132192   2.564   1.566   5.444
10431SOL    HW232193   2.425   1.504   5.504
10432SOL     OW32194   4.521   0.890   4.618
10432SOL    HW132195   4.558   0.804   4.653
10432SOL    HW232196   4.522   0.887   4.518
10433SOL     OW32197   2.832   6.801   0.662
10433SOL    HW132198   2.928   6.774   0.664
10433SOL    HW232199   2.816   6.872   0.730
10434SOL     OW32200   2.663   1.816   4.940
10434SOL    HW132201   2.751   1.862   4.954
10434SOL    HW232202   2.676   1.717   4.949
10435SOL     OW32203   5.495   5.601   6.536
10435SOL    HW132204   5.574   5.645   6.494
10435SOL    HW232205   5.466   5.655   6.616
10436SOL     OW32206   0.786   0.724   2.592
10436SOL    HW132207   0.742   0.763   2.511
10436SOL    HW232208   0.728   0.651   2.629
10437SOL     OW32209   0.440   4.199   6.125
10437SOL    HW132210   0.362   4.203   6.063
10437SOL    HW232211   0.408   4.207   6.219
10438SOL     OW32212   3.458   6.715   5.970
10438SOL    HW132213   3.507   6.682   5.889
10438SOL    HW232214   3.381   6.655   5.990
10439SOL     OW32215   3.579   0.936   4.911
10439SOL    HW132216   3.496   0.986   4.936
10439SOL    HW232217   3.643   0.998   4.865
10440SOL     OW32218   1.271   5.402   0.822
10440SOL    HW132219   1.214   5.326   0.790
10440SOL    HW232220   1.350   5.411   0.762
10441SOL     OW32221   3.518   6.885   0.438
10441SOL    HW132222   3.548   6.921   0.349
10441SOL    HW232223   3.583   6.817   0.471
10442SOL     OW32224   4.859   6.173   5.148
10442SOL    HW132225   4.896   6.234   5.218
10442SOL    HW232226   4.933   6.147   5.085
10443SOL     OW32227   6.165   2.579   4.420
10443SOL    HW132228   6.200   2.503   4.366
10443SOL    HW232229   6.220   2.660   4.403
10444SOL     OW32230   3.761   4.924   4.670
10444SOL    HW132231   3.777   4.858   4.743
10444SOL    HW232232   3.663   4.929   4.650
10445SOL     OW32233   6.514   6.171   2.231
10445SOL    HW132234   6.557   6.261   2.241
10445SOL    HW232235   6.451   6.156   2.307
10446SOL     OW32236   0.877   6.259   6.683
10446SOL    HW132237   0.837   6.171   6.708
10446SOL    HW232238   0.833   6.332   6.737
10447SOL     OW32239   5.742   1.507   0.341
10447SOL    HW132240   5.669   1.509   0.409
10447SOL    HW232241   5.713   1.556   0.259
10448SOL     OW32242   3.475   3.842   2.432
10448SOL    HW132243   3.569   3.869   2.454
10448SOL    HW232244   3.411   3.906   2.475
10449SOL     OW32245   1.782   5.483   5.043
10449SOL    HW132246   1.691   5.441   5.045
10449SOL    HW232247   1.780   5.570   5.092
10450SOL     OW32248   0.022   3.452   1.038
10450SOL    HW132249   6.961   3.501   1.040
10450SOL    HW232250   0.046   3.424   1.131
10451SOL     OW32251   2.187   4.507   2.364
10451SOL    HW132252   2.098   4.480   2.326
10451SOL    HW232253   2.260   4.465   2.311
10452SOL     OW32254   1.568   2.811   5.601
10452SOL    HW132255   1.549   2.726   5.649
10452SOL    HW232256   1.537   2.888   5.656
10453SOL     OW32257   5.156   0.650   1.415
10453SOL    HW132258   5.130   0.673   1.509
10453SOL    HW232259   5.102   0.571   1.384
10454SOL     OW32260   5.164   3.766   1.798
10454SOL    HW132261   5.138   3.697   1.730
10454SOL    HW232262   5.108   3.848   1.784
10455SOL     OW32263   0.873   4.531   3.162
10455SOL    HW132264   0.903   4.463   3.229
10455SOL    HW232265   0.810   4.489   3.097
10456SOL     OW32266   3.678   6.150   1.340
10456SOL    HW132267   3.639   6.218   1.277
10456SOL    HW232268   3.742   6.195   1.402
10457SOL     OW32269   3.906   3.272   3.696
10457SOL    HW132270   3.844   3.194   3.687
10457SOL    HW232271   3.874   3.332   3.769
10458SOL     OW32272   0.328   6.138   1.858
10458SOL    HW132273   0.321   6.074   1.781
10458SOL    HW232274   0.339   6.087   1.943
10459SOL     OW32275   6.844   4.793   1.760
10459SOL    HW132276   6.828   4.699   1.789
10459SOL    HW232277   6.853   4.797   1.661
10460SOL     OW32278   1.301   4.351   1.689
10460SOL    HW132279   1.339   4.395   1.608
10460SOL    HW232280   1.285   4.420   1.760
10461SOL     OW32281   3.527   0.472   6.220
10461SOL    HW132282   3.457   0.439   6.284
10461SOL    HW232283   3.617   0.467   6.264
10462SOL     OW32284   5.310   6.997   1.154
10462SOL    HW132285   5.326   7.019   1.251
10462SOL    HW232286   5.229   0.020   1.122
10463SOL     OW32287   3.198   3.394   0.737
10463SOL    HW132288   3.293   3.395   0.707
10463SOL    HW232289   3.157   3.305   0.716
10464SOL     OW32290   5.768   6.316   2.108
10464SOL    HW132291   5.693   6.320   2.175
10464SOL    HW232292   5.765   6.398   2.050
10465SOL     OW32293   0.328   5.046   4.715
10465SOL    HW132294   0.293   5.003   4.799
10465SOL    HW232295   0.428   5.043   4.715
10466SOL     OW32296   5.180   6.377   5.561
10466SOL    HW132297   5.225   6.347   5.645
10466SOL    HW232298   5.236   6.352   5.482
10467SOL     OW32299   4.798   1.441   3.753
10467SOL    HW132300   4.851   1.403   3.677
10467SOL    HW232301   4.713   1.480   3.718
10468SOL     OW32302   3.025   5.237   3.695
10468SOL    HW132303   3.085   5.261   3.618
10468SOL    HW232304   3.019   5.138   3.703
10469SOL     OW32305   0.784   4.763   6.575
10469SOL    HW132306   0.785   4.757   6.674
10469SOL    HW232307   0.862   4.818   6.544
10470SOL     OW32308   2.981   1.924   4.740
10470SOL    HW132309   2.957   1.901   4.646
10470SOL    HW232310   3.044   1.856   4.776
10471SOL     OW32311   4.192   4.088   0.211
10471SOL    HW132312   4.140   4.010   0.245
10471SOL    HW232313   4.243   4.062   0.129
10472SOL     OW32314   4.159   1.275   3.362
10472SOL    HW132315   4.216   1.202   3.400
10472SOL    HW232316   4.071   1.236   3.334
10473SOL     OW32317   4.839   4.951   0.108
10473SOL    HW132318   4.823   4.865   0.060
10473SOL    HW232319   4.869   5.020   0.042
10474SOL     OW32320   5.207   0.906   3.616
10474SOL    HW132321   5.244   0.995   3.642
10474SOL    HW232322   5.281   0.851   3.575
10475SOL     OW32323   4.273   6.424   1.487
10475SOL    HW132324   4.238   6.332   1.469
10475SOL    HW232325   4.202   6.479   1.530
10476SOL     OW32326   0.039   4.856   6.518
10476SOL    HW132327   0.094   4.939   6.527
10476SOL    HW232328   0.052   4.798   6.599
10477SOL     OW32329   4.548   4.403   5.066
10477SOL    HW132330   4.564   4.398   4.967
10477SOL    HW232331   4.473   4.466   5.085
10478SOL     OW32332   0.120   6.465   3.130
10478SOL    HW132333   0.174   6.539   3.089
10478SOL    HW232334   0.180   6.389   3.154
10479SOL     OW32335   0.762   4.173   2.265
10479SOL    HW132336   0.720   4.157   2.176
10479SOL    HW232337   0.833   4.242   2.256
10480SOL     OW32338   5.162   1.000   0.885
10480SOL    HW132339   5.180   0.902   0.882
10480SOL    HW232340   5.188   1.041   0.798
10481SOL     OW32341   2.468   1.332   4.433
10481SOL    HW132342   2.538   1.319   4.502
10481SOL    HW232343   2.477   1.422   4.391
10482SOL     OW32344   0.802   6.015   6.764
10482SOL    HW132345   0.726   5.973   6.714
10482SOL    HW232346   0.853   5.944   6.813
10483SOL     OW32347   0.054   5.552   0.761
10483SOL    HW132348   0.109   5.634   0.774
10483SOL    HW232349   6.984   5.574   0.771
10484SOL     OW32350   6.846   1.755   1.880
10484SOL    HW132351   6.764   1.700   1.863
10484SOL    HW232352   6.922   1.719   1.826
10485SOL     OW32353   3.693   4.137   4.340
10485SOL    HW132354   3.713   4.044   4.309
10485SOL    HW232355   3.697   4.200   4.262
10486SOL     OW32356   6.265   5.746   5.870
10486SOL    HW132357   6.289   5.657   5.831
10486SOL    HW232358   6.348   5.795   5.896
10487SOL     OW32359   5.586   3.474   2.587
10487SOL    HW132360   5.570   3.411   2.511
10487SOL    HW232361   5.507   3.474   2.649
10488SOL     OW32362   0.169   1.998   5.320
10488SOL    HW132363   0.079   1.955   5.308
10488SOL    HW232364   0.228   1.973   5.244
10489SOL     OW32365   5.950   4.585   2.952
10489SOL    HW132366   5.935   4.564   2.856
10489SOL    HW232367   5.863   4.586   3.000
10490SOL     OW32368   5.347   6.419   6.559
10490SOL    HW132369   5.284   6.493   6.535
10490SOL    HW232370   5.395   6.442   6.643
10491SOL     OW32371   2.106   2.485   5.800
10491SOL    HW132372   2.064   2.394   5.803
10491SOL    HW232373   2.167   2.490   5.721
10492SOL     OW32374   2.585   6.317   0.623
10492SOL    HW132375   2.573   6.285   0.716
10492SOL    HW232376   2.495   6.330   0.581
10493SOL     OW32377   3.426   5.482   0.761
10493SOL    HW132378   3.455   5.492   0.666
10493SOL    HW232379   3.504   5.497   0.821
10494SOL     OW32380   0.293   4.925   4.135
10494SOL    HW132381   0.285   4.873   4.050
10494SOL    HW232382   0.208   4.975   4.152
10495SOL     OW32383   6.312   6.817   0.441
10495SOL    HW132384   6.388   6.818   0.376
10495SOL    HW232385   6.272   6.726   0.445
10496SOL     OW32386   0.532   4.852   6.136
10496SOL    HW132387   0.442   4.894   6.127
10496SOL    HW232388   0.525   4.754   6.115
10497SOL     OW32389   3.614   6.354   0.922
10497SOL    HW132390   3.618   6.402   0.835
10497SOL    HW232391   3.532   6.296   0.924
10498SOL     OW32392   3.583   3.328   6.804
10498SOL    HW132393   3.566   3.265   6.728
10498SOL    HW232394   3.558   3.421   6.778
10499SOL     OW32395   4.369   4.662   2.910
10499SOL    HW132396   4.353   4.617   2.998
10499SOL    HW232397   4.409   4.597   2.846
10500SOL     OW32398   1.942   2.738   4.876
10500SOL    HW132399   2.014   2.695   4.930
10500SOL    HW232400   1.977   2.761   4.786
10501SOL     OW32401   3.502   4.903   3.457
10501SOL    HW132402   3.522   4.996   3.488
10501SOL    HW232403   3.416   4.903   3.406
10502SOL     OW32404   2.940   3.494   2.775
10502SOL    HW132405   2.881   3.531   2.846
10502SOL    HW232406   2.910   3.402   2.751
10503SOL     OW32407   6.537   0.602   0.497
10503SOL    HW132408   6.492   0.681   0.540
10503SOL    HW232409   6.636   0.614   0.502
10504SOL     OW32410   1.163   3.413   5.882
10504SOL    HW132411   1.123   3.476   5.815
10504SOL    HW232412   1.259   3.395   5.857
10505SOL     OW32413   5.995   6.573   0.857
10505SOL    HW132414   5.938   6.544   0.934
10505SOL    HW232415   6.084   6.603   0.890
10506SOL     OW32416   1.432   4.805   4.971
10506SOL    HW132417   1.470   4.712   4.971
10506SOL    HW232418   1.460   4.852   5.055
10507SOL     OW32419   1.495   6.228   5.766
10507SOL    HW132420   1.398   6.207   5.760
10507SOL    HW232421   1.546   6.145   5.788
10508SOL     OW32422   1.592   6.030   1.055
10508SOL    HW132423   1.536   6.111   1.076
10508SOL    HW232424   1.577   6.004   0.960
10509SOL     OW32425   4.898   3.538   2.581
10509SOL    HW132426   4.911   3.624   2.631
10509SOL    HW232427   4.883   3.558   2.484
10510SOL     OW32428   5.412   5.839   3.004
10510SOL    HW132429   5.331   5.893   3.027
10510SOL    HW232430   5.406   5.749   3.047
10511SOL     OW32431   3.752   1.757   0.993
10511SOL    HW132432   3.820   1.714   0.933
10511SOL    HW232433   3.663   1.754   0.948
10512SOL     OW32434   4.260   1.054   4.959
10512SOL    HW132435   4.260   1.073   4.861
10512SOL    HW232436   4.213   0.967   4.975
10513SOL     OW32437   3.676   3.708   0.276
10513SOL    HW132438   3.696   3.615   0.307
10513SOL    HW232439   3.662   3.767   0.356
10514SOL     OW32440   1.187   5.612   1.453
10514SOL    HW132441   1.107   5.560   1.484
10514SOL    HW232442   1.159   5.673   1.379
10515SOL     OW32443   2.144   3.646   4.659
10515SOL    HW132444   2.164   3.583   4.734
10515SOL    HW232445   2.103   3.730   4.695
10516SOL     OW32446   5.433   1.586   2.114
10516SOL    HW132447   5.395   1.594   2.022
10516SOL    HW232448   5.421   1.492   2.147
10517SOL     OW32449   0.785   1.957   1.931
10517SOL    HW132450   0.796   1.994   1.839
10517SOL    HW232451   0.836   2.013   1.996
10518SOL     OW32452   1.053   5.992   2.350
10518SOL    HW132453   1.134   5.946   2.316
10518SOL    HW232454   1.065   6.015   2.447
10519SOL     OW32455   2.623   6.554   0.832
10519SOL    HW132456   2.553   6.512   0.889
10519SOL    HW232457   2.590   6.643   0.800
10520SOL     OW32458   2.567   2.538   6.226
10520SOL    HW132459   2.506   2.608   6.264
10520SOL    HW232460   2.613   2.574   6.144
10521SOL     OW32461   6.286   2.259   2.943
10521SOL    HW132462   6.361   2.282   2.882
10521SOL    HW232463   6.216   2.208   2.891
10522SOL     OW32464   5.024   1.608   3.754
10522SOL    HW132465   5.019   1.656   3.666
10522SOL    HW232466   4.943   1.550   3.765
10523SOL     OW32467   0.567   4.027   1.972
10523SOL    HW132468   0.478   4.065   1.998
10523SOL    HW232469   0.633   4.100   1.961
10524SOL     OW32470   5.980   6.330   4.769
10524SOL    HW132471   5.951   6.383   4.690
10524SOL    HW232472   5.996   6.235   4.741
10525SOL     OW32473   4.825   1.483   3.451
10525SOL    HW132474   4.775   1.526   3.375
10525SOL    HW232475   4.796   1.524   3.537
10526SOL     OW32476   1.192   5.820   5.828
10526SOL    HW132477   1.106   5.838   5.781
10526SOL    HW232478   1.247   5.756   5.774
10527SOL     OW32479   0.092   6.595   5.801
10527SOL    HW132480   0.131   6.539   5.875
10527SOL    HW232481   7.020   6.583   5.798
10528SOL     OW32482   2.199   5.465   5.495
10528SOL    HW132483   2.212   5.480   5.593
10528SOL    HW232484   2.288   5.453   5.451
10529SOL     OW32485   6.874   5.308   0.458
10529SOL    HW132486   6.793   5.354   0.495
10529SOL    HW232487   6.867   5.304   0.358
10530SOL     OW32488   6.595   0.309   1.248
10530SOL    HW132489   6.511   0.261   1.224
10530SOL    HW232490   6.581   0.408   1.243
10531SOL     OW32491   3.168   1.849   6.099
10531SOL    HW132492   3.170   1.798   6.185
10531SOL    HW232493   3.143   1.787   6.025
10532SOL     OW32494   4.842   5.866   5.698
10532SOL    HW132495   4.770   5.841   5.762
10532SOL    HW232496   4.808   5.937   5.636
10533SOL     OW32497   4.225   6.774   3.306
10533SOL    HW132498   4.218   6.725   3.220
10533SOL    HW232499   4.261   6.714   3.377
10534SOL     OW32500   1.257   6.669   4.301
10534SOL    HW132501   1.334   6.664   4.365
10534SOL    HW232502   1.237   6.578   4.265
10535SOL     OW32503   4.400   1.974   2.136
10535SOL    HW132504   4.460   2.053   2.126
10535SOL    HW232505   4.397   1.946   2.232
10536SOL     OW32506   6.165   3.742   4.144
10536SOL    HW132507   6.262   3.755   4.123
10536SOL    HW232508   6.112   3.747   4.060
10537SOL     OW32509   3.672   1.058   3.109
10537SOL    HW132510   3.625   0.980   3.150
10537SOL    HW232511   3.699   1.035   3.016
10538SOL     OW32512   6.004   2.584   3.458
10538SOL    HW132513   5.913   2.552   3.483
10538SOL    HW232514   6.073   2.519   3.489
10539SOL     OW32515   6.547   6.724   2.856
10539SOL    HW132516   6.523   6.724   2.953
10539SOL    HW232517   6.510   6.641   2.813
10540SOL     OW32518   1.545   3.683   6.611
10540SOL    HW132519   1.535   3.589   6.645
10540SOL    HW232520   1.587   3.740   6.681
10541SOL     OW32521   3.152   2.621   6.398
10541SOL    HW132522   3.205   2.563   6.336
10541SOL    HW232523   3.059   2.585   6.405
10542SOL     OW32524   4.152   6.355   2.172
10542SOL    HW132525   4.077   6.291   2.157
10542SOL    HW232526   4.124   6.447   2.144
10543SOL     OW32527   2.014   2.373   4.039
10543SOL    HW132528   2.016   2.428   4.123
10543SOL    HW232529   2.065   2.421   3.967
10544SOL     OW32530   2.806   2.314   2.557
10544SOL    HW132531   2.734   2.383   2.567
10544SOL    HW232532   2.815   2.291   2.460
10545SOL     OW32533   1.671   3.470   1.978
10545SOL    HW132534   1.756   3.460   1.927
10545SOL    HW232535   1.597   3.493   1.914
10546SOL     OW32536   2.192   0.223   5.546
10546SOL    HW132537   2.258   0.273   5.604
10546SOL    HW232538   2.242   0.170   5.478
10547SOL     OW32539   3.634   6.487   6.157
10547SOL    HW132540   3.551   6.502   6.211
10547SOL    HW232541   3.661   6.391   6.165
10548SOL     OW32542   0.882   5.649   3.398
10548SOL    HW132543   0.940   5.730   3.410
10548SOL    HW232544   0.939   5.570   3.378
10549SOL     OW32545   7.012   1.515   2.583
10549SOL    HW132546   6.912   1.523   2.594
10549SOL    HW232547   0.027   1.494   2.672
10550SOL     OW32548   5.695   5.873   2.981
10550SOL    HW132549   5.604   5.845   2.950
10550SOL    HW232550   5.764   5.834   2.921
10551SOL     OW32551   4.634   0.576   4.707
10551SOL    HW132552   4.591   0.610   4.791
10551SOL    HW232553   4.729   0.606   4.704
10552SOL     OW32554   2.637   6.397   3.534
10552SOL    HW132555   2.594   6.354   3.613
10552SOL    HW232556   2.570   6.408   3.461
10553SOL     OW32557   5.240   5.434   1.496
10553SOL    HW132558   5.251   5.529   1.526
10553SOL    HW232559   5.155   5.425   1.444
10554SOL     OW32560   6.119   5.697   1.498
10554SOL    HW132561   6.118   5.726   1.593
10554SOL    HW232562   6.046   5.744   1.448
10555SOL     OW32563   3.736   3.135   1.772
10555SOL    HW132564   3.739   3.180   1.683
10555SOL    HW232565   3.641   3.118   1.798
10556SOL     OW32566   2.572   2.225   2.078
10556SOL    HW132567   2.635   2.257   2.007
10556SOL    HW232568   2.619   2.224   2.166
10557SOL     OW32569   0.899   3.671   3.084
10557SOL    HW132570   0.885   3.577   3.053
10557SOL    HW232571   0.887   3.733   3.007
10558SOL     OW32572   4.303   4.856   4.352
10558SOL    HW132573   4.381   4.918   4.340
10558SOL    HW232574   4.313   4.776   4.293
10559SOL     OW32575   3.627   5.773   1.264
10559SOL    HW132576   3.724   5.796   1.275
10559SOL    HW232577   3.616   5.674   1.262
10560SOL     OW32578   5.656   6.904   3.602
10560SOL    HW132579   5.748   6.917   3.638
10560SOL    HW232580   5.642   6.966   3.524
10561SOL     OW32581   0.855   5.154   6.162
10561SOL    HW132582   0.814   5.095   6.232
10561SOL    HW232583   0.800   5.150   6.079
10562SOL     OW32584   3.627   6.516   2.509
10562SOL    HW132585   3.726   6.527   2.514
10562SOL    HW232586   3.602   6.420   2.524
10563SOL     OW32587   2.090   6.090   2.122
10563SOL    HW132588   2.088   5.999   2.165
10563SOL    HW232589   2.060   6.083   2.027
10564SOL     OW32590   5.286   4.519   3.474
10564SOL    HW132591   5.337   4.554   3.395
10564SOL    HW232592   5.323   4.431   3.501
10565SOL     OW32593   0.447   1.519   5.014
10565SOL    HW132594   0.389   1.540   5.093
10565SOL    HW232595   0.469   1.421   5.014
10566SOL     OW32596   4.135   1.882   0.946
10566SOL    HW132597   4.088   1.881   1.034
10566SOL    HW232598   4.083   1.936   0.880
10567SOL     OW32599   2.935   2.626   6.765
10567SOL    HW132600   2.885   2.581   6.691
10567SOL    HW232601   2.887   2.612   6.852
10568SOL     OW32602   5.568   2.334   5.740
10568SOL    HW132603   5.484   2.343   5.685
10568SOL    HW232604   5.594   2.423   5.777
10569SOL     OW32605   5.156   0.443   0.860
10569SOL    HW132606   5.182   0.454   0.764
10569SOL    HW232607   5.182   0.352   0.891
10570SOL     OW32608   1.657   3.932   3.048
10570SOL    HW132609   1.736   3.994   3.052
10570SOL    HW232610   1.660   3.879   2.963
10571SOL     OW32611   0.418   3.892   5.461
10571SOL    HW132612   0.412   3.884   5.560
10571SOL    HW232613   0.515   3.896   5.434
10572SOL     OW32614   6.288   4.647   0.688
10572SOL    HW132615   6.239   4.598   0.616
10572SOL    HW232616   6.353   4.711   0.647
10573SOL     OW32617   6.305   2.694   3.247
10573SOL    HW132618   6.355   2.661   3.328
10573SOL    HW232619   6.270   2.786   3.265
10574SOL     OW32620   5.662   2.391   2.794
10574SOL    HW132621   5.703   2.447   2.865
10574SOL    HW232622   5.647   2.446   2.712
10575SOL     OW32623   5.238   6.715   2.786
10575SOL    HW132624   5.178   6.790   2.758
10575SOL    HW232625   5.238   6.644   2.716
10576SOL     OW32626   1.675   2.839   4.770
10576SOL    HW132627   1.766   2.817   4.804
10576SOL    HW232628   1.638   2.760   4.721
10577SOL     OW32629   3.797   4.769   6.945
10577SOL    HW132630   3.820   4.697   7.010
10577SOL    HW232631   3.699   4.785   6.946
10578SOL     OW32632   1.292   3.603   2.499
10578SOL    HW132633   1.287   3.513   2.543
10578SOL    HW232634   1.200   3.633   2.473
10579SOL     OW32635   7.024   2.887   7.006
10579SOL    HW132636   0.037   2.972   6.973
10579SOL    HW232637   6.931   2.877   6.971
10580SOL     OW32638   5.693   6.141   0.034
10580SOL    HW132639   5.643   6.227   0.026
10580SOL    HW232640   5.713   6.124   0.131
10581SOL     OW32641   3.930   0.814   2.561
10581SOL    HW132642   3.963   0.908   2.556
10581SOL    HW232643   3.891   0.797   2.652
10582SOL     OW32644   6.790   3.189   6.740
10582SOL    HW132645   6.832   3.113   6.789
10582SOL    HW232646   6.817   3.275   6.782
10583SOL     OW32647   4.324   2.302   5.544
10583SOL    HW132648   4.383   2.334   5.470
10583SOL    HW232649   4.367   2.225   5.590
10584SOL     OW32650   6.382   0.923   3.975
10584SOL    HW132651   6.373   0.824   3.967
10584SOL    HW232652   6.479   0.947   3.982
10585SOL     OW32653   1.478   1.516   5.116
10585SOL    HW132654   1.523   1.427   5.121
10585SOL    HW232655   1.448   1.533   5.022
10586SOL     OW32656   4.460   3.565   6.074
10586SOL    HW132657   4.399   3.642   6.092
10586SOL    HW232658   4.539   3.596   6.021
10587SOL     OW32659   2.342   5.251   4.922
10587SOL    HW132660   2.339   5.297   5.011
10587SOL    HW232661   2.317   5.155   4.934
10588SOL     OW32662   1.362   4.060   4.116
10588SOL    HW132663   1.427   3.984   4.108
10588SOL    HW232664   1.296   4.055   4.041
10589SOL     OW32665   6.000   0.160   3.683
10589SOL    HW132666   6.089   0.158   3.637
10589SOL    HW232667   5.995   0.240   3.742
10590SOL     OW32668   0.968   5.651   2.352
10590SOL    HW132669   0.900   5.713   2.390
10590SOL    HW232670   1.050   5.651   2.409
10591SOL     OW32671   6.663   4.094   2.443
10591SOL    HW132672   6.596   4.156   2.402
10591SOL    HW232673   6.699   4.135   2.527
10592SOL     OW32674   6.964   2.909   4.625
10592SOL    HW132675   0.030   2.913   4.661
10592SOL    HW232676   6.909   2.845   4.679
10593SOL     OW32677   3.611   5.878   3.544
10593SOL    HW132678   3.625   5.909   3.638
10593SOL    HW232679   3.517   5.897   3.517
10594SOL     OW32680   3.605   5.741   3.921
10594SOL    HW132681   3.684   5.780   3.873
10594SOL    HW232682   3.575   5.803   3.993
10595SOL     OW32683   5.124   6.439   1.075
10595SOL    HW132684   5.041   6.495   1.084
10595SOL    HW232685   5.127   6.372   1.149
10596SOL     OW32686   5.527   3.666   0.125
10596SOL    HW132687   5.448   3.664   0.188
10596SOL    HW232688   5.494   3.668   0.031
10597SOL     OW32689   1.658   6.717   5.432
10597SOL    HW132690   1.628   6.641   5.374
10597SOL    HW232691   1.608   6.715   5.518
10598SOL     OW32692   3.666   1.191   0.897
10598SOL    HW132693   3.701   1.149   0.813
10598SOL    HW232694   3.596   1.258   0.874
10599SOL     OW32695   0.799   2.082   0.763
10599SOL    HW132696   0.727   2.088   0.832
10599SOL    HW232697   0.888   2.073   0.809
10600SOL     OW32698   4.345   1.472   1.665
10600SOL    HW132699   4.268   1.526   1.697
10600SOL    HW232700   4.332   1.377   1.690
10601SOL     OW32701   1.869   1.547   4.862
10601SOL    HW132702   1.798   1.597   4.912
10601SOL    HW232703   1.878   1.455   4.899
10602SOL     OW32704   6.918   6.618   1.427
10602SOL    HW132705   6.823   6.646   1.418
10602SOL    HW232706   6.923   6.519   1.436
10603SOL     OW32707   6.106   0.475   2.814
10603SOL    HW132708   6.181   0.521   2.860
10603SOL    HW232709   6.110   0.493   2.716
10604SOL     OW32710   5.657   2.376   5.283
10604SOL    HW132711   5.635   2.459   5.335
10604SOL    HW232712   5.592   2.364   5.209
10605SOL     OW32713   4.338   2.200   1.500
10605SOL    HW132714   4.287   2.115   1.494
10605SOL    HW232715   4.275   2.277   1.511
10606SOL     OW32716   5.975   1.624   0.797
10606SOL    HW132717   5.944   1.577   0.715
10606SOL    HW232718   5.972   1.561   0.875
10607SOL     OW32719   2.663   4.804   0.836
10607SOL    HW132720   2.580   4.859   0.840
10607SOL    HW232721   2.640   4.708   0.821
10608SOL     OW32722   5.720   3.818   2.945
10608SOL    HW132723   5.678   3.899   2.906
10608SOL    HW232724   5.785   3.846   3.016
10609SOL     OW32725   5.744   6.588   6.418
10609SOL    HW132726   5.830   6.637   6.433
10609SOL    HW232727   5.673   6.628   6.476
10610SOL     OW32728   0.386   1.916   2.819
10610SOL    HW132729   0.428   1.857   2.888
10610SOL    HW232730   0.457   1.969   2.773
10611SOL     OW32731   4.329   5.171   5.356
10611SOL    HW132732   4.423   5.154   5.387
10611SOL    HW232733   4.280   5.223   5.427
10612SOL     OW32734   5.516   2.722   3.461
10612SOL    HW132735   5.445   2.789   3.440
10612SOL    HW232736   5.489   2.670   3.542
10613SOL     OW32737   5.078   5.316   4.777
10613SOL    HW132738   5.111   5.364   4.696
10613SOL    HW232739   4.978   5.311   4.775
10614SOL     OW32740   3.971   2.198   6.634
10614SOL    HW132741   3.920   2.277   6.669
10614SOL    HW232742   3.998   2.216   6.540
10615SOL     OW32743   2.692   2.462   5.114
10615SOL    HW132744   2.619   2.530   5.107
10615SOL    HW232745   2.663   2.378   5.067
10616SOL     OW32746   1.432   5.633   0.227
10616SOL    HW132747   1.377   5.574   0.285
10616SOL    HW232748   1.501   5.680   0.283
10617SOL     OW32749   1.821   2.707   0.448
10617SOL    HW132750   1.757   2.784   0.449
10617SOL    HW232751   1.771   2.623   0.423
10618SOL     OW32752   0.477   4.872   4.331
10618SOL    HW132753   0.535   4.791   4.327
10618SOL    HW232754   0.418   4.876   4.251
10619SOL     OW32755   1.335   3.095   0.712
10619SOL    HW132756   1.292   3.011   0.746
10619SOL    HW232757   1.266   3.151   0.666
10620SOL     OW32758   3.418   0.779   5.334
10620SOL    HW132759   3.357   0.733   5.270
10620SOL    HW232760   3.393   0.875   5.341
10621SOL     OW32761   0.670   4.044   4.352
10621SOL    HW132762   0.707   4.111   4.416
10621SOL    HW232763   0.581   4.012   4.385
10622SOL     OW32764   4.142   2.023   5.841
10622SOL    HW132765   4.107   2.051   5.930
10622SOL    HW232766   4.066   2.018   5.776
10623SOL     OW32767   5.486   4.962   5.453
10623SOL    HW132768   5.399   5.012   5.454
10623SOL    HW232769   5.507   4.930   5.546
10624SOL     OW32770   6.684   1.567   6.173
10624SOL    HW132771   6.711   1.579   6.268
10624SOL    HW232772   6.760   1.525   6.122
10625SOL     OW32773   5.727   5.567   6.944
10625SOL    HW132774   5.743   5.476   6.981
10625SOL    HW232775   5.672   5.560   6.861
10626SOL     OW32776   5.530   3.311   2.277
10626SOL    HW132777   5.460   3.353   2.335
10626SOL    HW232778   5.531   3.212   2.293
10627SOL     OW32779   6.020   4.795   5.568
10627SOL    HW132780   5.972   4.747   5.494
10627SOL    HW232781   5.958   4.809   5.645
10628SOL     OW32782   2.433   5.594   1.695
10628SOL    HW132783   2.411   5.688   1.672
10628SOL    HW232784   2.367   5.559   1.761
10629SOL     OW32785   4.288   5.035   4.097
10629SOL    HW132786   4.243   5.073   4.017
10629SOL    HW232787   4.223   5.031   4.173
10630SOL     OW32788   3.876   0.985   1.333
10630SOL    HW132789   3.843   1.061   1.278
10630SOL    HW232790   3.964   0.953   1.298
10631SOL     OW32791   3.563   5.690   1.718
10631SOL    HW132792   3.627   5.641   1.659
10631SOL    HW232793   3.577   5.788   1.709
10632SOL     OW32794   5.788   6.672   4.303
10632SOL    HW132795   5.858   6.735   4.336
10632SOL    HW232796   5.698   6.713   4.315
10633SOL     OW32797   2.389   3.048   0.532
10633SOL    HW132798   2.343   2.966   0.565
10633SOL    HW232799   2.385   3.119   0.602
10634SOL     OW32800   0.957   4.386   0.342
10634SOL    HW132801   1.006   4.401   0.256
10634SOL    HW232802   0.935   4.474   0.384
10635SOL     OW32803   3.093   4.479   6.661
10635SOL    HW132804   3.062   4.566   6.623
10635SOL    HW232805   3.052   4.403   6.611
10636SOL     OW32806   6.478   3.343   0.694
10636SOL    HW132807   6.488   3.259   0.640
10636SOL    HW232808   6.410   3.328   0.765
10637SOL     OW32809   2.678   0.576   6.024
10637SOL    HW132810   2.750   0.644   6.040
10637SOL    HW232811   2.589   0.617   6.045
10638SOL     OW32812   5.572   5.086   6.987
10638SOL    HW132813   5.657   5.094   0.012
10638SOL    HW232814   5.525   5.174   6.987
10639SOL     OW32815   6.376   5.019   0.233
10639SOL    HW132816   6.378   4.932   0.183
10639SOL    HW232817   6.343   5.004   0.326
10640SOL     OW32818   3.575   6.397   3.886
10640SOL    HW132819   3.649   6.364   3.827
10640SOL    HW232820   3.489   6.355   3.856
10641SOL     OW32821   1.005   1.249   3.608
10641SOL    HW132822   0.992   1.229   3.705
10641SOL    HW232823   0.916   1.265   3.565
10642SOL     OW32824   0.048   2.034   6.320
10642SOL    HW132825   0.112   2.050   6.395
10642SOL    HW232826   0.098   2.025   6.234
10643SOL     OW32827   2.998   5.148   5.845
10643SOL    HW132828   3.088   5.133   5.804
10643SOL    HW232829   2.993   5.242   5.879
10644SOL     OW32830   0.305   3.559   3.519
10644SOL    HW132831   0.286   3.654   3.496
10644SOL    HW232832   0.352   3.515   3.442
10645SOL     OW32833   2.101   2.905   3.288
10645SOL    HW132834   2.061   2.989   3.250
10645SOL    HW232835   2.174   2.872   3.228
10646SOL     OW32836   5.064   0.722   2.969
10646SOL    HW132837   5.032   0.740   3.062
10646SOL    HW232838   5.039   0.798   2.910
10647SOL     OW32839   4.157   5.443   4.820
10647SOL    HW132840   4.067   5.400   4.822
10647SOL    HW232841   4.220   5.391   4.878
10648SOL     OW32842   4.804   4.077   5.642
10648SOL    HW132843   4.803   4.079   5.742
10648SOL    HW232844   4.733   4.138   5.607
10649SOL     OW32845   6.223   3.223   3.734
10649SOL    HW132846   6.184   3.132   3.719
10649SOL    HW232847   6.317   3.226   3.699
10650SOL     OW32848   0.888   6.843   2.546
10650SOL    HW132849   0.834   6.770   2.504
10650SOL    HW232850   0.853   6.860   2.639
10651SOL     OW32851   2.054   5.966   6.079
10651SOL    HW132852   2.022   6.058   6.101
10651SOL    HW232853   1.976   5.906   6.063
10652SOL     OW32854   2.556   0.695   6.900
10652SOL    HW132855   2.501   0.622   6.858
10652SOL    HW232856   2.609   0.657   6.976
10653SOL     OW32857   5.395   6.321   4.594
10653SOL    HW132858   5.347   6.242   4.557
10653SOL    HW232859   5.436   6.374   4.520
10654SOL     OW32860   6.634   1.480   4.117
10654SOL    HW132861   6.696   1.534   4.174
10654SOL    HW232862   6.554   1.536   4.093
10655SOL     OW32863   6.550   5.515   0.879
10655SOL    HW132864   6.580   5.575   0.805
10655SOL    HW232865   6.504   5.570   0.950
10656SOL     OW32866   6.080   1.119   5.965
10656SOL    HW132867   6.104   1.037   5.911
10656SOL    HW232868   6.011   1.095   6.032
10657SOL     OW32869   4.694   6.621   5.634
10657SOL    HW132870   4.681   6.690   5.562
10657SOL    HW232871   4.655   6.654   5.720
10658SOL     OW32872   0.624   1.231   5.860
10658SOL    HW132873   0.708   1.183   5.883
10658SOL    HW232874   0.547   1.188   5.906
10659SOL     OW32875   0.014   5.711   6.934
10659SOL    HW132876   0.084   5.781   6.938
10659SOL    HW232877   0.045   5.635   6.877
10660SOL     OW32878   6.109   2.775   6.537
10660SOL    HW132879   6.025   2.750   6.489
10660SOL    HW232880   6.132   2.704   6.604
10661SOL     OW32881   3.663   5.766   5.949
10661SOL    HW132882   3.646   5.800   6.041
10661SOL    HW232883   3.613   5.822   5.883
10662SOL     OW32884   3.026   1.099   0.860
10662SOL    HW132885   2.965   1.176   0.838
10662SOL    HW232886   3.098   1.131   0.922
10663SOL     OW32887   0.231   3.149   3.975
10663SOL    HW132888   0.268   3.241   3.986
10663SOL    HW232889   0.280   3.103   3.901
10664SOL     OW32890   1.106   6.223   4.874
10664SOL    HW132891   1.016   6.190   4.900
10664SOL    HW232892   1.130   6.187   4.784
10665SOL     OW32893   3.538   4.007   0.250
10665SOL    HW132894   3.636   4.025   0.254
10665SOL    HW232895   3.501   4.044   0.165
10666SOL     OW32896   4.358   3.465   1.020
10666SOL    HW132897   4.455   3.440   1.023
10666SOL    HW232898   4.305   3.400   1.074
10667SOL     OW32899   5.628   2.784   3.859
10667SOL    HW132900   5.661   2.741   3.943
10667SOL    HW232901   5.623   2.883   3.871
10668SOL     OW32902   3.346   3.578   6.020
10668SOL    HW132903   3.328   3.644   6.093
10668SOL    HW232904   3.439   3.544   6.029
10669SOL     OW32905   6.392   2.480   1.679
10669SOL    HW132906   6.299   2.498   1.711
10669SOL    HW232907   6.448   2.449   1.756
10670SOL     OW32908   4.728   4.915   3.698
10670SOL    HW132909   4.727   4.815   3.706
10670SOL    HW232910   4.658   4.953   3.759
10671SOL     OW32911   2.158   3.287   4.727
10671SOL    HW132912   2.120   3.359   4.785
10671SOL    HW232913   2.177   3.206   4.782
10672SOL     OW32914   6.168   4.385   1.341
10672SOL    HW132915   6.105   4.307   1.341
10672SOL    HW232916   6.133   4.456   1.402
10673SOL     OW32917   2.787   1.246   1.139
10673SOL    HW132918   2.738   1.283   1.217
10673SOL    HW232919   2.733   1.174   1.096
10674SOL     OW32920   3.908   3.461   4.484
10674SOL    HW132921   3.999   3.500   4.494
10674SOL    HW232922   3.913   3.362   4.499
10675SOL     OW32923   3.666   6.216   5.442
10675SOL    HW132924   3.743   6.190   5.384
10675SOL    HW232925   3.588   6.240   5.384
10676SOL     OW32926   1.573   1.032   4.955
10676SOL    HW132927   1.639   0.982   5.012
10676SOL    HW232928   1.623   1.090   4.891
10677SOL     OW32929   0.329   2.082   6.907
10677SOL    HW132930   0.321   2.139   6.989
10677SOL    HW232931   0.284   2.127   6.830
10678SOL     OW32932   3.825   5.241   2.500
10678SOL    HW132933   3.848   5.151   2.464
10678SOL    HW232934   3.760   5.231   2.576
10679SOL     OW32935   4.979   3.874   0.381
10679SOL    HW132936   4.998   3.962   0.338
10679SOL    HW232937   4.943   3.810   0.313
10680SOL     OW32938   5.013   0.927   5.441
10680SOL    HW132939   5.087   0.975   5.394
10680SOL    HW232940   4.930   0.983   5.440
10681SOL     OW32941   2.373   3.318   5.305
10681SOL    HW132942   2.460   3.366   5.322
10681SOL    HW232943   2.391   3.221   5.292
10682SOL     OW32944   5.010   3.402   6.168
10682SOL    HW132945   5.038   3.437   6.257
10682SOL    HW232946   4.910   3.410   6.159
10683SOL     OW32947   2.251   0.833   3.147
10683SOL    HW132948   2.195   0.794   3.074
10683SOL    HW232949   2.326   0.771   3.169
10684SOL     OW32950   4.997   4.578   1.396
10684SOL    HW132951   5.089   4.594   1.431
10684SOL    HW232952   4.931   4.589   1.470
10685SOL     OW32953   1.217   6.837   2.328
10685SOL    HW132954   1.119   6.840   2.306
10685SOL    HW232955   1.261   6.920   2.294
10686SOL     OW32956   2.571   1.418   6.533
10686SOL    HW132957   2.504   1.345   6.550
10686SOL    HW232958   2.662   1.378   6.523
10687SOL     OW32959   0.900   3.495   3.363
10687SOL    HW132960   0.812   3.482   3.410
10687SOL    HW232961   0.914   3.592   3.344
10688SOL     OW32962   5.107   1.320   3.595
10688SOL    HW132963   5.112   1.396   3.530
10688SOL    HW232964   5.199   1.291   3.620
10689SOL     OW32965   1.054   1.266   2.635
10689SOL    HW132966   1.010   1.271   2.724
10689SOL    HW232967   1.152   1.282   2.645
10690SOL     OW32968   1.013   6.512   4.913
10690SOL    HW132969   1.077   6.569   4.862
10690SOL    HW232970   1.038   6.416   4.902
10691SOL     OW32971   3.236   6.461   1.426
10691SOL    HW132972   3.307   6.508   1.480
10691SOL    HW232973   3.170   6.419   1.488
10692SOL     OW32974   2.926   1.796   4.197
10692SOL    HW132975   3.008   1.747   4.170
10692SOL    HW232976   2.884   1.838   4.116
10693SOL     OW32977   0.804   4.768   0.836
10693SOL    HW132978   0.823   4.683   0.787
10693SOL    HW232979   0.728   4.816   0.792
10694SOL     OW32980   4.596   0.787   4.962
10694SOL    HW132981   4.502   0.758   4.944
10694SOL    HW232982   4.626   0.747   5.048
10695SOL     OW32983   5.027   4.394   1.662
10695SOL    HW132984   4.971   4.449   1.600
10695SOL    HW232985   5.019   4.430   1.755
10696SOL     OW32986   6.227   4.452   4.526
10696SOL    HW132987   6.202   4.392   4.450
10696SOL    HW232988   6.268   4.397   4.599
10697SOL     OW32989   3.158   5.300   4.969
10697SOL    HW132990   3.252   5.317   4.998
10697SOL    HW232991   3.112   5.242   5.036
10698SOL     OW32992   3.813   3.935   0.048
10698SOL    HW132993   3.825   3.839   0.072
10698SOL    HW232994   3.752   3.943   6.996
10699SOL     OW32995   3.734   3.287   1.039
10699SOL    HW132996   3.644   3.264   1.002
10699SOL    HW232997   3.762   3.377   1.004
10700SOL     OW32998   5.012   0.375   1.358
10700SOL    HW132999   5.017   0.338   1.265
10700SOL    HW233000   4.917   0.383   1.386
10701SOL     OW33001   3.474   6.242   6.425
10701SOL    HW133002   3.470   6.173   6.498
10701SOL    HW233003   3.569   6.263   6.404
10702SOL     OW33004   5.711   1.533   1.857
10702SOL    HW133005   5.707   1.620   1.905
10702SOL    HW233006   5.704   1.458   1.924
10703SOL     OW33007   0.475   1.875   5.432
10703SOL    HW133008   0.506   1.947   5.369
10703SOL    HW233009   0.396   1.909   5.484
10704SOL     OW33010   5.294   6.765   2.355
10704SOL    HW133011   5.310   6.790   2.260
10704SOL    HW233012   5.345   6.828   2.415
10705SOL     OW33013   4.609   3.259   0.594
10705SOL    HW133014   4.666   3.209   0.529
10705SOL    HW233015   4.551   3.324   0.545
10706SOL     OW33016   3.576   0.961   1.559
10706SOL    HW133017   3.550   1.057   1.556
10706SOL    HW233018   3.620   0.935   1.473
10707SOL     OW33019   4.888   6.646   3.427
10707SOL    HW133020   4.926   6.672   3.338
10707SOL    HW233021   4.935   6.565   3.461
10708SOL     OW33022   4.192   1.054   1.655
10708SOL    HW133023   4.100   1.090   1.670
10708SOL    HW233024   4.188   0.955   1.643
10709SOL     OW33025   6.242   4.424   2.626
10709SOL    HW133026   6.163   4.406   2.567
10709SOL    HW233027   6.230   4.377   2.713
10710SOL     OW33028   4.545   1.919   3.531
10710SOL    HW133029   4.455   1.950   3.500
10710SOL    HW233030   4.533   1.843   3.595
10711SOL     OW33031   2.994   6.760   2.488
10711SOL    HW133032   3.083   6.764   2.532
10711SOL    HW233033   2.923   6.791   2.551
10712SOL     OW33034   5.250   0.233   3.491
10712SOL    HW133035   5.342   0.193   3.495
10712SOL    HW233036   5.232   0.284   3.574
10713SOL     OW33037   1.539   4.267   1.394
10713SOL    HW133038   1.449   4.251   1.434
10713SOL    HW233039   1.552   4.365   1.378
10714SOL     OW33040   2.980   3.979   5.130
10714SOL    HW133041   2.887   3.944   5.146
10714SOL    HW233042   3.016   3.938   5.046
10715SOL     OW33043   5.820   0.875   2.128
10715SOL    HW133044   5.769   0.958   2.106
10715SOL    HW233045   5.763   0.816   2.186
10716SOL     OW33046   5.284   1.028   3.121
10716SOL    HW133047   5.190   0.997   3.128
10716SOL    HW233048   5.295   1.114   3.172
10717SOL     OW33049   2.545   2.917   6.866
10717SOL    HW133050   2.529   3.013   6.888
10717SOL    HW233051   2.643   2.898   6.868
10718SOL     OW33052   1.670   4.853   6.406
10718SOL    HW133053   1.700   4.908   6.328
10718SOL    HW233054   1.724   4.769   6.411
10719SOL     OW33055   0.328   5.784   4.750
10719SOL    HW133056   0.390   5.760   4.675
10719SOL    HW233057   0.240   5.738   4.737
10720SOL     OW33058   0.358   5.072   3.167
10720SOL    HW133059   0.363   4.987   3.115
10720SOL    HW233060   0.449   5.093   3.204
10721SOL     OW33061   4.812   3.243   5.983
10721SOL    HW133062   4.898   3.199   6.006
10721SOL    HW233063   4.820   3.288   5.894
10722SOL     OW33064   0.135   3.483   5.544
10722SOL    HW133065   0.197   3.471   5.466
10722SOL    HW233066   0.088   3.397   5.563
10723SOL     OW33067   5.404   6.873   0.826
10723SOL    HW133068   5.498   6.841   0.839
10723SOL    HW233069   5.350   6.849   0.907
10724SOL     OW33070   0.323   6.439   6.743
10724SOL    HW133071   0.333   6.416   6.840
10724SOL    HW233072   0.245   6.499   6.730
10725SOL     OW33073   2.031   6.096   5.725
10725SOL    HW133074   2.118   6.053   5.701
10725SOL    HW233075   1.966   6.084   5.650
10726SOL     OW33076   4.353   1.135   3.728
10726SOL    HW133077   4.388   1.228   3.714
10726SOL    HW233078   4.276   1.137   3.792
10727SOL     OW33079   2.251   6.451   6.180
10727SOL    HW133080   2.190   6.504   6.239
10727SOL    HW233081   2.200   6.419   6.100
10728SOL     OW33082   5.202   5.889   0.815
10728SOL    HW133083   5.246   5.917   0.730
10728SOL    HW233084   5.177   5.793   0.810
10729SOL     OW33085   6.127   2.137   1.144
10729SOL    HW133086   6.120   2.037   1.145
10729SOL    HW233087   6.191   2.166   1.216
10730SOL     OW33088   4.398   0.254   2.596
10730SOL    HW133089   4.382   0.254   2.498
10730SOL    HW233090   4.471   0.189   2.618
10731SOL     OW33091   4.455   6.934   1.097
10731SOL    HW133092   4.476   6.856   1.037
10731SOL    HW233093   4.366   6.919   1.140
10732SOL     OW33094   0.841   3.518   5.681
10732SOL    HW133095   0.797   3.495   5.767
10732SOL    HW233096   0.935   3.547   5.698
10733SOL     OW33097   5.890   1.626   0.541
10733SOL    HW133098   5.852   1.578   0.462
10733SOL    HW233099   5.831   1.703   0.565
10734SOL     OW33100   6.529   3.091   1.669
10734SOL    HW133101   6.558   3.158   1.737
10734SOL    HW233102   6.571   3.111   1.581
10735SOL     OW33103   0.362   4.850   2.999
10735SOL    HW133104   0.457   4.821   2.992
10735SOL    HW233105   0.305   4.794   2.939
10736SOL     OW33106   2.188   0.486   3.753
10736SOL    HW133107   2.180   0.514   3.848
10736SOL    HW233108   2.220   0.391   3.748
10737SOL     OW33109   6.692   2.224   0.953
10737SOL    HW133110   6.763   2.168   0.910
10737SOL    HW233111   6.642   2.274   0.882
10738SOL     OW33112   4.240   0.167   3.525
10738SOL    HW133113   4.311   0.214   3.473
10738SOL    HW233114   4.273   0.077   3.553
10739SOL     OW33115   2.793   1.835   1.922
10739SOL    HW133116   2.826   1.839   2.016
10739SOL    HW233117   2.816   1.921   1.875
10740SOL     OW33118   4.432   5.334   2.991
10740SOL    HW133119   4.335   5.317   3.009
10740SOL    HW233120   4.450   5.325   2.894
10741SOL     OW33121   3.812   0.755   2.799
10741SOL    HW133122   3.717   0.777   2.780
10741SOL    HW233123   3.839   0.797   2.886
10742SOL     OW33124   6.738   5.504   0.609
10742SOL    HW133125   6.685   5.427   0.645
10742SOL    HW233126   6.731   5.582   0.671
10743SOL     OW33127   2.417   2.583   5.202
10743SOL    HW133128   2.368   2.615   5.121
10743SOL    HW233129   2.390   2.637   5.282
10744SOL     OW33130   5.343   1.998   0.627
10744SOL    HW133131   5.248   2.021   0.604
10744SOL    HW233132   5.378   2.066   0.692
10745SOL     OW33133   6.664   5.776   6.426
10745SOL    HW133134   6.746   5.834   6.429
10745SOL    HW233135   6.603   5.801   6.502
10746SOL     OW33136   1.090   4.213   5.898
10746SOL    HW133137   1.151   4.245   5.825
10746SOL    HW233138   1.024   4.149   5.859
10747SOL     OW33139   3.393   2.107   4.324
10747SOL    HW133140   3.459   2.098   4.249
10747SOL    HW233141   3.441   2.099   4.411
10748SOL     OW33142   4.954   1.622   2.213
10748SOL    HW133143   4.865   1.651   2.177
10748SOL    HW233144   4.948   1.527   2.243
10749SOL     OW33145   2.552   0.388   6.612
10749SOL    HW133146   2.645   0.415   6.584
10749SOL    HW233147   2.557   0.306   6.668
10750SOL     OW33148   4.056   0.178   6.324
10750SOL    HW133149   3.961   0.208   6.324
10750SOL    HW233150   4.063   0.087   6.364
10751SOL     OW33151   2.119   5.393   4.083
10751SOL    HW133152   2.215   5.413   4.101
10751SOL    HW233153   2.077   5.471   4.035
10752SOL     OW33154   5.222   4.740   4.027
10752SOL    HW133155   5.165   4.676   3.976
10752SOL    HW233156   5.229   4.709   4.122
10753SOL     OW33157   6.634   3.357   4.333
10753SOL    HW133158   6.541   3.341   4.366
10753SOL    HW233159   6.664   3.278   4.280
10754SOL     OW33160   1.153   0.066   2.626
10754SOL    HW133161   1.077   0.001   2.629
10754SOL    HW233162   1.197   0.069   2.716
10755SOL     OW33163   6.203   5.853   2.182
10755SOL    HW133164   6.283   5.794   2.180
10755SOL    HW233165   6.190   5.896   2.093
10756SOL     OW33166   0.813   0.015   5.252
10756SOL    HW133167   0.748   0.076   5.208
10756SOL    HW233168   0.898   0.013   5.199
10757SOL     OW33169   2.587   3.149   1.081
10757SOL    HW133170   2.621   3.060   1.111
10757SOL    HW233171   2.665   3.211   1.068
10758SOL     OW33172   0.605   5.066   4.147
10758SOL    HW133173   0.546   5.043   4.224
10758SOL    HW233174   0.643   4.982   4.108
10759SOL     OW33175   0.067   1.497   6.627
10759SOL    HW133176   0.119   1.460   6.704
10759SOL    HW233177   7.000   1.515   6.656
10760SOL     OW33178   5.614   1.335   4.611
10760SOL    HW133179   5.706   1.369   4.628
10760SOL    HW233180   5.577   1.379   4.529
10761SOL     OW33181   2.706   4.929   5.543
10761SOL    HW133182   2.653   4.845   5.545
10761SOL    HW233183   2.801   4.909   5.566
10762SOL     OW33184   3.009   1.469   4.898
10762SOL    HW133185   2.994   1.420   4.812
10762SOL    HW233186   3.009   1.404   4.974
10763SOL     OW33187   4.152   6.404   3.739
10763SOL    HW133188   4.222   6.471   3.762
10763SOL    HW233189   4.189   6.312   3.751
10764SOL     OW33190   4.873   0.070   4.755
10764SOL    HW133191   4.890   0.167   4.742
10764SOL    HW233192   4.783   0.046   4.720
10765SOL     OW33193   5.755   3.672   0.471
10765SOL    HW133194   5.843   3.691   0.427
10765SOL    HW233195   5.681   3.709   0.415
10766SOL     OW33196   3.425   3.602   1.370
10766SOL    HW133197   3.479   3.629   1.291
10766SOL    HW233198   3.484   3.556   1.437
10767SOL     OW33199   4.611   1.777   2.336
10767SOL    HW133200   4.647   1.868   2.314
10767SOL    HW233201   4.574   1.734   2.254
10768SOL     OW33202   5.882   4.775   6.883
10768SOL    HW133203   5.921   4.849   6.937
10768SOL    HW233204   5.956   4.725   6.837
10769SOL     OW33205   1.632   3.908   5.309
10769SOL    HW133206   1.581   3.888   5.393
10769SOL    HW233207   1.726   3.932   5.331
10770SOL     OW33208   3.701   5.994   3.778
10770SOL    HW133209   3.794   6.022   3.754
10770SOL    HW233210   3.688   6.002   3.877
10771SOL     OW33211   2.139   1.330   4.135
10771SOL    HW133212   2.105   1.379   4.055
10771SOL    HW233213   2.235   1.307   4.121
10772SOL     OW33214   5.254   5.397   3.185
10772SOL    HW133215   5.169   5.353   3.215
10772SOL    HW233216   5.311   5.331   3.137
10773SOL     OW33217   5.950   4.376   3.235
10773SOL    HW133218   5.899   4.394   3.319
10773SOL    HW233219   5.888   4.341   3.165
10774SOL     OW33220   0.412   0.124   3.222
10774SOL    HW133221   0.485   0.148   3.285
10774SOL    HW233222   0.341   0.074   3.271
10775SOL     OW33223   0.511   3.430   1.623
10775SOL    HW133224   0.564   3.509   1.591
10775SOL    HW233225   0.519   3.422   1.722
10776SOL     OW33226   1.452   0.541   6.271
10776SOL    HW133227   1.514   0.504   6.340
10776SOL    HW233228   1.478   0.636   6.250
10777SOL     OW33229   2.458   5.707   1.108
10777SOL    HW133230   2.380   5.688   1.168
10777SOL    HW233231   2.526   5.635   1.116
10778SOL     OW33232   5.981   5.568   2.351
10778SOL    HW133233   6.011   5.474   2.333
10778SOL    HW233234   5.881   5.570   2.354
10779SOL     OW33235   4.922   2.764   3.791
10779SOL    HW133236   4.829   2.743   3.823
10779SOL    HW233237   4.923   2.854   3.749
10780SOL     OW33238   6.433   0.369   2.699
10780SOL    HW133239   6.396   0.356   2.607
10780SOL    HW233240   6.444   0.467   2.716
10781SOL     OW33241   3.485   0.127   4.053
10781SOL    HW133242   3.402   0.142   3.999
10781SOL    HW233243   3.498   0.029   4.067
10782SOL     OW33244   6.172   5.313   3.574
10782SOL    HW133245   6.255   5.368   3.579
10782SOL    HW233246   6.093   5.371   3.592
10783SOL     OW33247   0.039   1.941   3.576
10783SOL    HW133248   0.028   1.862   3.516
10783SOL    HW233249   0.131   1.939   3.617
10784SOL     OW33250   2.766   1.656   4.389
10784SOL    HW133251   2.806   1.700   4.308
10784SOL    HW233252   2.737   1.727   4.453
10785SOL     OW33253   1.250   3.606   6.281
10785SOL    HW133254   1.281   3.511   6.287
10785SOL    HW233255   1.323   3.667   6.310
10786SOL     OW33256   0.366   4.715   3.630
10786SOL    HW133257   0.353   4.757   3.541
10786SOL    HW233258   0.352   4.616   3.623
10787SOL     OW33259   1.691   2.307   6.082
10787SOL    HW133260   1.652   2.278   6.169
10787SOL    HW233261   1.786   2.335   6.096
10788SOL     OW33262   5.884   3.923   6.003
10788SOL    HW133263   5.876   3.978   6.086
10788SOL    HW233264   5.981   3.906   5.984
10789SOL     OW33265   5.889   1.853   0.963
10789SOL    HW133266   5.983   1.875   0.992
10789SOL    HW233267   5.891   1.809   0.874
10790SOL     OW33268   6.871   6.506   3.107
10790SOL    HW133269   6.966   6.475   3.111
10790SOL    HW233270   6.866   6.594   3.059
10791SOL     OW33271   0.664   6.412   2.746
10791SOL    HW133272   0.704   6.483   2.804
10791SOL    HW233273   0.654   6.447   2.653
10792SOL     OW33274   3.803   4.152   5.582
10792SOL    HW133275   3.703   4.155   5.582
10792SOL    HW233276   3.834   4.086   5.513
10793SOL     OW33277   6.205   3.547   4.322
10793SOL    HW133278   6.211   3.597   4.408
10793SOL    HW233279   6.196   3.611   4.246
10794SOL     OW33280   3.261   4.118   3.907
10794SOL    HW133281   3.328   4.168   3.962
10794SOL    HW233282   3.194   4.076   3.967
10795SOL     OW33283   6.938   5.234   3.241
10795SOL    HW133284   6.880   5.257   3.163
10795SOL    HW233285   6.956   5.135   3.241
10796SOL     OW33286   1.309   5.926   5.542
10796SOL    HW133287   1.296   5.847   5.602
10796SOL    HW233288   1.274   6.008   5.586
10797SOL     OW33289   3.612   2.515   0.269
10797SOL    HW133290   3.581   2.511   0.174
10797SOL    HW233291   3.568   2.592   0.316
10798SOL     OW33292   6.688   1.287   0.988
10798SOL    HW133293   6.762   1.268   1.053
10798SOL    HW233294   6.720   1.269   0.895
10799SOL     OW33295   4.896   2.178   1.188
10799SOL    HW133296   4.804   2.180   1.228
10799SOL    HW233297   4.949   2.106   1.233
10800SOL     OW33298   0.280   6.668   1.943
10800SOL    HW133299   0.311   6.666   1.848
10800SOL    HW233300   0.338   6.608   1.998
10801SOL     OW33301   1.731   0.721   1.156
10801SOL    HW133302   1.819   0.675   1.162
10801SOL    HW233303   1.723   0.788   1.229
10802SOL     OW33304   6.300   0.971   3.442
10802SOL    HW133305   6.331   0.883   3.406
10802SOL    HW233306   6.307   0.971   3.541
10803SOL     OW33307   2.167   5.356   6.098
10803SOL    HW133308   2.171   5.455   6.116
10803SOL    HW233309   2.238   5.331   6.032
10804SOL     OW33310   6.970   2.949   4.361
10804SOL    HW133311   0.038   2.945   4.329
10804SOL    HW233312   6.965   2.920   4.456
10805SOL     OW33313   6.337   1.262   6.610
10805SOL    HW133314   6.290   1.174   6.611
10805SOL    HW233315   6.346   1.294   6.516
10806SOL     OW33316   1.510   5.184   0.041
10806SOL    HW133317   1.459   5.237   0.109
10806SOL    HW233318   1.604   5.219   0.036
10807SOL     OW33319   3.043   6.047   5.329
10807SOL    HW133320   3.143   6.047   5.330
10807SOL    HW233321   3.010   5.956   5.304
10808SOL     OW33322   0.948   3.102   6.198
10808SOL    HW133323   0.897   3.162   6.259
10808SOL    HW233324   1.022   3.153   6.153
10809SOL     OW33325   1.813   0.361   4.848
10809SOL    HW133326   1.902   0.318   4.858
10809SOL    HW233327   1.800   0.429   4.921
10810SOL     OW33328   6.404   0.422   4.019
10810SOL    HW133329   6.403   0.412   3.919
10810SOL    HW233330   6.318   0.388   4.057
10811SOL     OW33331   5.207   4.965   4.681
10811SOL    HW133332   5.157   4.882   4.704
10811SOL    HW233333   5.179   5.039   4.742
10812SOL     OW33334   6.567   3.154   0.384
10812SOL    HW133335   6.569   3.127   0.481
10812SOL    HW233336   6.654   3.132   0.342
10813SOL     OW33337   0.652   3.069   6.272
10813SOL    HW133338   0.664   3.070   6.173
10813SOL    HW233339   0.601   2.987   6.299
10814SOL     OW33340   3.103   1.483   0.839
10814SOL    HW133341   3.038   1.422   0.793
10814SOL    HW233342   3.125   1.446   0.929
10815SOL     OW33343   5.493   0.974   4.479
10815SOL    HW133344   5.591   0.995   4.482
10815SOL    HW233345   5.480   0.880   4.445
10816SOL     OW33346   3.383   2.946   4.706
10816SOL    HW133347   3.285   2.964   4.707
10816SOL    HW233348   3.414   2.927   4.800
10817SOL     OW33349   1.418   6.471   3.872
10817SOL    HW133350   1.464   6.475   3.960
10817SOL    HW233351   1.427   6.560   3.826
10818SOL     OW33352   3.844   4.449   6.817
10818SOL    HW133353   3.887   4.538   6.831
10818SOL    HW233354   3.771   4.436   6.884
10819SOL     OW33355   6.343   6.592   5.518
10819SOL    HW133356   6.412   6.594   5.446
10819SOL    HW233357   6.269   6.530   5.491
10820SOL     OW33358   2.647   4.339   5.878
10820SOL    HW133359   2.653   4.430   5.921
10820SOL    HW233360   2.581   4.283   5.928
10821SOL     OW33361   4.726   5.330   2.830
10821SOL    HW133362   4.647   5.270   2.823
10821SOL    HW233363   4.739   5.358   2.925
10822SOL     OW33364   5.663   1.194   2.259
10822SOL    HW133365   5.606   1.123   2.300
10822SOL    HW233366   5.754   1.190   2.299
10823SOL     OW33367   5.799   6.560   1.263
10823SOL    HW133368   5.746   6.476   1.276
10823SOL    HW233369   5.785   6.594   1.170
10824SOL     OW33370   1.045   2.932   4.049
10824SOL    HW133371   1.004   2.868   4.114
10824SOL    HW233372   1.121   2.980   4.093
10825SOL     OW33373   0.426   2.711   0.662
10825SOL    HW133374   0.505   2.649   0.671
10825SOL    HW233375   0.436   2.786   0.727
10826SOL     OW33376   0.052   3.481   3.040
10826SOL    HW133377   0.076   3.527   2.955
10826SOL    HW233378   6.981   3.491   3.057
10827SOL     OW33379   0.056   3.943   4.769
10827SOL    HW133380   0.149   3.907   4.780
10827SOL    HW233381   0.009   3.891   4.697
10828SOL     OW33382   6.530   4.260   5.249
10828SOL    HW133383   6.477   4.286   5.330
10828SOL    HW233384   6.594   4.187   5.274
10829SOL     OW33385   3.533   2.995   5.333
10829SOL    HW133386   3.595   3.012   5.257
10829SOL    HW233387   3.471   2.920   5.310
10830SOL     OW33388   4.958   2.113   3.156
10830SOL    HW133389   5.027   2.096   3.086
10830SOL    HW233390   4.870   2.132   3.113
10831SOL     OW33391   4.033   6.879   3.767
10831SOL    HW133392   4.030   6.831   3.679
10831SOL    HW233393   3.946   6.925   3.782
10832SOL     OW33394   6.644   2.644   0.006
10832SOL    HW133395   6.640   2.739   7.003
10832SOL    HW233396   6.602   2.586   6.963
10833SOL     OW33397   0.816   1.300   6.953
10833SOL    HW133398   0.733   1.346   6.984
10833SOL    HW233399   0.831   1.321   6.856
10834SOL     OW33400   6.203   6.567   1.432
10834SOL    HW133401   6.290   6.585   1.479
10834SOL    HW233402   6.154   6.653   1.417
10835SOL     OW33403   7.013   2.329   5.374
10835SOL    HW133404   6.969   2.354   5.461
10835SOL    HW233405   0.083   2.351   5.379
10836SOL     OW33406   0.187   1.259   3.369
10836SOL    HW133407   0.109   1.217   3.324
10836SOL    HW233408   0.267   1.255   3.309
10837SOL     OW33409   0.420   3.245   3.739
10837SOL    HW133410   0.386   3.295   3.819
10837SOL    HW233411   0.352   3.248   3.666
10838SOL     OW33412   0.631   5.944   2.322
10838SOL    HW133413   0.558   5.894   2.275
10838SOL    HW233414   0.592   5.995   2.399
10839SOL     OW33415   4.651   2.842   0.407
10839SOL    HW133416   4.679   2.801   0.320
10839SOL    HW233417   4.552   2.833   0.419
10840SOL     OW33418   2.096   0.383   1.715
10840SOL    HW133419   2.091   0.288   1.682
10840SOL    HW233420   2.116   0.443   1.638
10841SOL     OW33421   2.060   5.540   4.887
10841SOL    HW133422   2.085   5.499   4.975
10841SOL    HW233423   2.123   5.509   4.816
10842SOL     OW33424   5.780   4.605   2.444
10842SOL    HW133425   5.762   4.702   2.452
10842SOL    HW233426   5.703   4.553   2.480
10843SOL     OW33427   2.911   1.726   1.411
10843SOL    HW133428   2.979   1.786   1.454
10843SOL    HW233429   2.937   1.708   1.316
10844SOL     OW33430   1.511   5.183   5.388
10844SOL    HW133431   1.477   5.261   5.335
10844SOL    HW233432   1.610   5.179   5.383
10845SOL     OW33433   4.049   6.937   4.318
10845SOL    HW133434   4.125   6.969   4.262
10845SOL    HW233435   4.059   6.972   4.411
10846SOL     OW33436   5.766   0.218   6.099
10846SOL    HW133437   5.815   0.131   6.090
10846SOL    HW233438   5.735   0.230   6.193
10847SOL     OW33439   3.302   0.369   6.406
10847SOL    HW133440   3.209   0.392   6.376
10847SOL    HW233441   3.297   0.318   6.492
10848SOL     OW33442   1.712   4.226   1.637
10848SOL    HW133443   1.675   4.271   1.555
10848SOL    HW233444   1.791   4.171   1.611
10849SOL     OW33445   2.332   6.471   2.930
10849SOL    HW133446   2.407   6.428   2.980
10849SOL    HW233447   2.306   6.412   2.853
10850SOL     OW33448   4.284   4.349   0.834
10850SOL    HW133449   4.334   4.275   0.788
10850SOL    HW233450   4.283   4.430   0.775
10851SOL     OW33451   1.545   4.481   0.721
10851SOL    HW133452   1.499   4.422   0.654
10851SOL    HW233453   1.595   4.553   0.673
10852SOL     OW33454   2.471   2.060   2.439
10852SOL    HW133455   2.403   2.035   2.507
10852SOL    HW233456   2.474   2.159   2.428
10853SOL     OW33457   3.331   1.508   6.037
10853SOL    HW133458   3.285   1.567   5.971
10853SOL    HW233459   3.427   1.496   6.009
10854SOL     OW33460   2.926   6.122   5.889
10854SOL    HW133461   2.936   6.104   5.792
10854SOL    HW233462   2.831   6.149   5.909
10855SOL     OW33463   4.181   1.738   0.136
10855SOL    HW133464   4.251   1.692   0.081
10855SOL    HW233465   4.221   1.819   0.180
10856SOL     OW33466   1.133   1.353   0.512
10856SOL    HW133467   1.046   1.349   0.560
10856SOL    HW233468   1.149   1.266   0.464
10857SOL     OW33469   6.695   2.893   2.239
10857SOL    HW133470   6.698   2.946   2.323
10857SOL    HW233471   6.646   2.807   2.255
10858SOL     OW33472   2.676   6.300   2.069
10858SOL    HW133473   2.643   6.272   2.159
10858SOL    HW233474   2.746   6.370   2.079
10859SOL     OW33475   1.640   5.232   3.706
10859SOL    HW133476   1.663   5.280   3.621
10859SOL    HW233477   1.544   5.205   3.704
10860SOL     OW33478   6.872   4.300   3.443
10860SOL    HW133479   6.850   4.213   3.399
10860SOL    HW233480   6.859   4.292   3.542
10861SOL     OW33481   3.525   2.868   5.626
10861SOL    HW133482   3.447   2.809   5.607
10861SOL    HW233483   3.554   2.913   5.542
10862SOL     OW33484   0.841   0.706   5.037
10862SOL    HW133485   0.886   0.790   5.009
10862SOL    HW233486   0.843   0.640   4.962
10863SOL     OW33487   2.427   6.318   4.552
10863SOL    HW133488   2.510   6.262   4.554
10863SOL    HW233489   2.416   6.364   4.640
10864SOL     OW33490   3.617   6.326   2.869
10864SOL    HW133491   3.613   6.259   2.795
10864SOL    HW233492   3.604   6.418   2.831
10865SOL     OW33493   6.458   1.764   5.890
10865SOL    HW133494   6.384   1.697   5.882
10865SOL    HW233495   6.499   1.758   5.981
10866SOL     OW33496   5.202   5.126   0.052
10866SOL    HW133497   5.249   5.122   0.140
10866SOL    HW233498   5.262   5.171   7.012
10867SOL     OW33499   3.083   1.600   6.978
10867SOL    HW133500   3.023   1.679   6.989
10867SOL    HW233501   3.125   1.578   0.039
10868SOL     OW33502   2.619   2.393   3.266
10868SOL    HW133503   2.666   2.391   3.355
10868SOL    HW233504   2.564   2.310   3.255
10869NA      NA33505   6.467   2.475   5.622
10870NA      NA33506   4.272   4.569   5.322
10871NA      NA33507   2.224   3.609   1.762
10872NA      NA33508   4.774   3.664   5.325
10873NA      NA33509   4.104   2.390   5.338
10874NA      NA33510   3.763   4.776   1.721
10875NA      NA33511   6.612   5.968   4.547
10876NA      NA33512   3.594   3.433   4.809
10877NA      NA33513   4.671   6.587   6.392
10878NA      NA33514   2.830   0.459   5.043
10879NA      NA33515   0.544   4.793   2.482
10880NA      NA33516   2.782   0.565   2.738
10881NA      NA33517   3.500   4.288   1.303
10882NA      NA33518   3.506   3.014   2.893
   7.02661   7.02661   7.02661
