Generated by trjconv : CNT in water t= 581.00000
33518
    1C        C    1   2.838   2.765   4.747
    1C        C    2   2.894   2.718   4.867
    1C        C    3   2.838   2.770   4.985
    1C        C    4   2.843   2.768   4.260
    1C        C    5   2.897   2.721   4.382
    1C        C    6   2.836   2.764   4.502
    1C        C    7   3.008   2.640   4.623
    1C        C    8   2.891   2.720   4.624
    1C        C    9   3.073   2.605   4.743
    1C        C   10   3.008   2.635   4.864
    1C        C   11   3.178   2.493   4.975
    1C        C   12   3.057   2.562   4.973
    1C        C   13   2.845   2.768   3.769
    1C        C   14   2.901   2.724   3.891
    1C        C   15   2.846   2.771   4.013
    1C        C   16   3.013   2.645   4.138
    1C        C   17   2.897   2.726   4.136
    1C        C   18   3.076   2.611   4.260
    1C        C   19   3.016   2.645   4.383
    1C        C   20   3.209   2.558   4.502
    1C        C   21   3.075   2.604   4.504
    1C        C   22   3.277   2.536   4.624
    1C        C   23   3.204   2.550   4.744
    1C        C   24   3.409   2.484   4.863
    1C        C   25   3.267   2.501   4.863
    1C        C   26   3.485   2.473   4.980
    1C        C   27   2.848   2.768   3.280
    1C        C   28   2.905   2.727   3.403
    1C        C   29   2.846   2.768   3.524
    1C        C   30   3.015   2.642   3.648
    1C        C   31   2.897   2.720   3.647
    1C        C   32   3.077   2.607   3.770
    1C        C   33   3.016   2.641   3.893
    1C        C   34   3.210   2.562   4.015
    1C        C   35   3.077   2.610   4.017
    1C        C   36   3.277   2.536   4.136
    1C        C   37   3.208   2.561   4.257
    1C        C   38   3.414   2.513   4.381
    1C        C   39   3.276   2.541   4.379
    1C        C   40   3.486   2.504   4.502
    1C        C   41   3.416   2.510   4.625
    1C        C   42   3.628   2.482   4.744
    1C        C   43   3.486   2.481   4.744
    1C        C   44   3.703   2.487   4.864
    1C        C   45   3.624   2.472   4.979
    1C        C   46   2.835   2.749   2.793
    1C        C   47   2.891   2.706   2.916
    1C        C   48   2.840   2.760   3.036
    1C        C   49   3.019   2.645   3.160
    1C        C   50   2.901   2.722   3.158
    1C        C   51   3.082   2.612   3.282
    1C        C   52   3.019   2.643   3.404
    1C        C   53   3.210   2.556   3.526
    1C        C   54   3.078   2.606   3.527
    1C        C   55   3.279   2.538   3.647
    1C        C   56   3.209   2.557   3.768
    1C        C   57   3.414   2.514   3.893
    1C        C   58   3.275   2.539   3.892
    1C        C   59   3.486   2.507   4.014
    1C        C   60   3.416   2.513   4.137
    1C        C   61   3.627   2.505   4.259
    1C        C   62   3.486   2.503   4.259
    1C        C   63   3.699   2.508   4.380
    1C        C   64   3.627   2.500   4.501
    1C        C   65   3.835   2.537   4.622
    1C        C   66   3.699   2.499   4.623
    1C        C   67   3.905   2.561   4.742
    1C        C   68   3.839   2.525   4.862
    1C        C   69   4.048   2.589   4.978
    1C        C   70   3.922   2.528   4.974
    1C        C   71   2.825   2.734   2.309
    1C        C   72   2.883   2.692   2.431
    1C        C   73   2.831   2.745   2.551
    1C        C   74   3.010   2.627   2.673
    1C        C   75   2.891   2.702   2.672
    1C        C   76   3.072   2.592   2.796
    1C        C   77   3.009   2.629   2.917
    1C        C   78   3.208   2.549   3.035
    1C        C   79   3.076   2.601   3.038
    1C        C   80   3.279   2.535   3.157
    1C        C   81   3.213   2.558   3.280
    1C        C   82   3.415   2.504   3.401
    1C        C   83   3.276   2.532   3.403
    1C        C   84   3.486   2.499   3.523
    1C        C   85   3.417   2.510   3.646
    1C        C   86   3.626   2.506   3.769
    1C        C   87   3.484   2.506   3.770
    1C        C   88   3.697   2.513   3.891
    1C        C   89   3.628   2.503   4.013
    1C        C   90   3.835   2.543   4.134
    1C        C   91   3.697   2.509   4.136
    1C        C   92   3.901   2.570   4.256
    1C        C   93   3.836   2.543   4.378
    1C        C   94   4.026   2.633   4.499
    1C        C   95   3.903   2.564   4.501
    1C        C   96   4.089   2.670   4.619
    1C        C   97   4.031   2.626   4.740
    1C        C   98   4.192   2.763   4.861
    1C        C   99   4.098   2.655   4.862
    1C        C  100   4.215   2.840   4.975
    1C        C  101   2.823   2.732   2.069
    1C        C  102   2.987   2.591   2.191
    1C        C  103   2.874   2.678   2.188
    1C        C  104   3.063   2.574   2.310
    1C        C  105   3.002   2.616   2.430
    1C        C  106   3.203   2.541   2.548
    1C        C  107   3.071   2.591   2.551
    1C        C  108   3.271   2.525   2.671
    1C        C  109   3.202   2.537   2.793
    1C        C  110   3.411   2.490   2.915
    1C        C  111   3.273   2.519   2.914
    1C        C  112   3.486   2.485   3.035
    1C        C  113   3.416   2.504   3.157
    1C        C  114   3.627   2.495   3.278
    1C        C  115   3.485   2.493   3.279
    1C        C  116   3.696   2.509   3.400
    1C        C  117   3.628   2.501   3.523
    1C        C  118   3.834   2.542   3.644
    1C        C  119   3.696   2.512   3.647
    1C        C  120   3.901   2.561   3.767
    1C        C  121   3.835   2.545   3.890
    1C        C  122   4.025   2.637   4.011
    1C        C  123   3.901   2.569   4.013
    1C        C  124   4.087   2.674   4.133
    1C        C  125   4.027   2.635   4.255
    1C        C  126   4.192   2.767   4.377
    1C        C  127   4.086   2.673   4.377
    1C        C  128   4.243   2.822   4.497
    1C        C  129   4.194   2.765   4.616
    1C        C  130   4.321   2.934   4.739
    1C        C  131   4.242   2.816   4.739
    1C        C  132   4.356   3.002   4.858
    1C        C  133   4.290   2.958   4.974
    1C        C  134   3.166   2.466   2.084
    1C        C  135   3.032   2.506   2.085
    1C        C  136   3.258   2.473   2.190
    1C        C  137   3.194   2.518   2.307
    1C        C  138   3.405   2.477   2.429
    1C        C  139   3.266   2.502   2.428
    1C        C  140   3.481   2.478   2.548
    1C        C  141   3.409   2.494   2.669
    1C        C  142   3.620   2.492   2.789
    1C        C  143   3.479   2.486   2.791
    1C        C  144   3.696   2.497   2.909
    1C        C  145   3.627   2.490   3.032
    1C        C  146   3.833   2.532   3.153
    1C        C  147   3.696   2.498   3.155
    1C        C  148   3.902   2.554   3.275
    1C        C  149   3.835   2.537   3.398
    1C        C  150   4.027   2.625   3.523
    1C        C  151   3.900   2.563   3.520
    1C        C  152   4.085   2.665   3.645
    1C        C  153   4.027   2.624   3.767
    1C        C  154   4.197   2.756   3.886
    1C        C  155   4.086   2.669   3.888
    1C        C  156   4.247   2.806   4.008
    1C        C  157   4.199   2.759   4.133
    1C        C  158   4.333   2.925   4.253
    1C        C  159   4.244   2.815   4.255
    1C        C  160   4.375   2.985   4.374
    1C        C  161   4.331   2.933   4.497
    1C        C  162   4.440   3.114   4.615
    1C        C  163   4.368   2.993   4.619
    1C        C  164   4.469   3.184   4.735
    1C        C  165   4.431   3.121   4.856
    1C        C  166   4.514   3.319   4.969
    1C        C  167   4.475   3.185   4.972
    1C        C  168   3.473   2.424   2.071
    1C        C  169   3.398   2.453   2.186
    1C        C  170   3.615   2.466   2.304
    1C        C  171   3.472   2.463   2.306
    1C        C  172   3.691   2.478   2.423
    1C        C  173   3.622   2.478   2.546
    1C        C  174   3.828   2.535   2.666
    1C        C  175   3.692   2.495   2.668
    1C        C  176   3.897   2.555   2.787
    1C        C  177   3.833   2.529   2.910
    1C        C  178   4.028   2.615   3.031
    1C        C  179   3.901   2.554   3.031
    1C        C  180   4.085   2.658   3.152
    1C        C  181   4.028   2.619   3.275
    1C        C  182   4.195   2.746   3.396
    1C        C  183   4.087   2.655   3.399
    1C        C  184   4.243   2.800   3.517
    1C        C  185   4.198   2.750   3.641
    1C        C  186   4.334   2.915   3.762
    1C        C  187   4.249   2.802   3.763
    1C        C  188   4.373   2.975   3.883
    1C        C  189   4.333   2.918   4.006
    1C        C  190   4.440   3.102   4.124
    1C        C  191   4.370   2.979   4.128
    1C        C  192   4.463   3.171   4.246
    1C        C  193   4.438   3.111   4.371
    1C        C  194   4.502   3.314   4.490
    1C        C  195   4.469   3.177   4.492
    1C        C  196   4.518   3.388   4.610
    1C        C  197   4.510   3.320   4.733
    1C        C  198   4.552   3.536   4.851
    1C        C  199   4.526   3.395   4.852
    1C        C  200   4.584   3.621   4.962
    1C        C  201   3.612   2.411   2.072
    1C        C  202   3.825   2.502   2.184
    1C        C  203   3.689   2.457   2.184
    1C        C  204   3.898   2.534   2.302
    1C        C  205   3.828   2.513   2.423
    1C        C  206   4.023   2.609   2.543
    1C        C  207   3.895   2.547   2.542
    1C        C  208   4.085   2.653   2.662
    1C        C  209   4.022   2.621   2.785
    1C        C  210   4.198   2.738   2.905
    1C        C  211   4.086   2.652   2.907
    1C        C  212   4.246   2.794   3.026
    1C        C  213   4.195   2.748   3.149
    1C        C  214   4.329   2.907   3.270
    1C        C  215   4.247   2.792   3.272
    1C        C  216   4.367   2.970   3.391
    1C        C  217   4.329   2.912   3.515
    1C        C  218   4.428   3.099   3.637
    1C        C  219   4.369   2.971   3.637
    1C        C  220   4.462   3.166   3.757
    1C        C  221   4.438   3.100   3.880
    1C        C  222   4.499   3.304   4.000
    1C        C  223   4.469   3.166   4.002
    1C        C  224   4.513   3.376   4.121
    1C        C  225   4.503   3.306   4.244
    1C        C  226   4.521   3.520   4.365
    1C        C  227   4.508   3.379   4.365
    1C        C  228   4.521   3.595   4.484
    1C        C  229   4.531   3.529   4.608
    1C        C  230   4.504   3.742   4.723
    1C        C  231   4.540   3.605   4.727
    1C        C  232   4.498   3.819   4.841
    1C        C  233   4.544   3.755   4.957
    1C        C  234   4.013   2.606   2.064
    1C        C  235   3.896   2.531   2.067
    1C        C  236   4.082   2.644   2.180
    1C        C  237   4.020   2.607   2.302
    1C        C  238   4.199   2.729   2.420
    1C        C  239   4.085   2.644   2.422
    1C        C  240   4.257   2.776   2.540
    1C        C  241   4.199   2.736   2.662
    1C        C  242   4.333   2.903   2.781
    1C        C  243   4.248   2.791   2.783
    1C        C  244   4.372   2.963   2.903
    1C        C  245   4.331   2.907   3.026
    1C        C  246   4.431   3.094   3.145
    1C        C  247   4.366   2.969   3.149
    1C        C  248   4.455   3.160   3.268
    1C        C  249   4.428   3.097   3.392
    1C        C  250   4.491   3.300   3.513
    1C        C  251   4.448   3.165   3.514
    1C        C  252   4.505   3.373   3.633
    1C        C  253   4.496   3.303   3.756
    1C        C  254   4.519   3.514   3.878
    1C        C  255   4.510   3.373   3.877
    1C        C  256   4.513   3.587   3.998
    1C        C  257   4.515   3.517   4.121
    1C        C  258   4.489   3.728   4.239
    1C        C  259   4.516   3.589   4.242
    1C        C  260   4.467   3.800   4.359
    1C        C  261   4.489   3.733   4.481
    1C        C  262   4.421   3.937   4.599
    1C        C  263   4.476   3.807   4.601
    1C        C  264   4.394   4.004   4.720
    1C        C  265   4.431   3.943   4.842
    1C        C  266   4.324   4.131   4.956
    1C        C  267   4.391   4.009   4.959
    1C        C  268   4.268   2.765   2.066
    1C        C  269   4.196   2.727   2.180
    1C        C  270   4.341   2.889   2.295
    1C        C  271   4.252   2.778   2.299
    1C        C  272   4.378   2.953   2.416
    1C        C  273   4.338   2.892   2.537
    1C        C  274   4.442   3.081   2.661
    1C        C  275   4.375   2.956   2.657
    1C        C  276   4.466   3.153   2.780
    1C        C  277   4.442   3.086   2.902
    1C        C  278   4.501   3.292   3.024
    1C        C  279   4.468   3.155   3.023
    1C        C  280   4.505   3.365   3.145
    1C        C  281   4.490   3.297   3.267
    1C        C  282   4.512   3.508   3.389
    1C        C  283   4.504   3.367   3.389
    1C        C  284   4.514   3.583   3.508
    1C        C  285   4.515   3.514   3.632
    1C        C  286   4.492   3.723   3.751
    1C        C  287   4.515   3.584   3.755
    1C        C  288   4.471   3.792   3.872
    1C        C  289   4.493   3.727   3.995
    1C        C  290   4.427   3.930   4.113
    1C        C  291   4.472   3.796   4.117
    1C        C  292   4.394   3.996   4.234
    1C        C  293   4.421   3.933   4.358
    1C        C  294   4.324   4.127   4.477
    1C        C  295   4.393   4.004   4.477
    1C        C  296   4.281   4.185   4.598
    1C        C  297   4.325   4.129   4.720
    1C        C  298   4.196   4.309   4.837
    1C        C  299   4.282   4.195   4.839
    1C        C  300   4.168   4.396   4.948
    1C        C  301   4.348   2.878   2.060
    1C        C  302   4.466   3.066   2.174
    1C        C  303   4.395   2.942   2.175
    1C        C  304   4.483   3.139   2.295
    1C        C  305   4.448   3.076   2.417
    1C        C  306   4.502   3.282   2.533
    1C        C  307   4.472   3.144   2.538
    1C        C  308   4.505   3.357   2.653
    1C        C  309   4.495   3.291   2.778
    1C        C  310   4.519   3.499   2.898
    1C        C  311   4.517   3.358   2.900
    1C        C  312   4.511   3.573   3.018
    1C        C  313   4.514   3.506   3.143
    1C        C  314   4.492   3.717   3.263
    1C        C  315   4.514   3.577   3.265
    1C        C  316   4.473   3.789   3.382
    1C        C  317   4.486   3.721   3.506
    1C        C  318   4.423   3.923   3.625
    1C        C  319   4.473   3.790   3.628
    1C        C  320   4.392   3.986   3.748
    1C        C  321   4.423   3.925   3.871
    1C        C  322   4.321   4.115   3.988
    1C        C  323   4.394   3.994   3.991
    1C        C  324   4.279   4.170   4.111
    1C        C  325   4.318   4.115   4.235
    1C        C  326   4.182   4.283   4.353
    1C        C  327   4.279   4.180   4.354
    1C        C  328   4.131   4.336   4.473
    1C        C  329   4.186   4.289   4.594
    1C        C  330   4.020   4.429   4.714
    1C        C  331   4.135   4.345   4.714
    1C        C  332   3.967   4.487   4.831
    1C        C  333   4.053   4.476   4.941
    1C        C  334   4.549   3.263   2.061
    1C        C  335   4.530   3.124   2.060
    1C        C  336   4.529   3.348   2.171
    1C        C  337   4.510   3.279   2.292
    1C        C  338   4.521   3.494   2.410
    1C        C  339   4.514   3.353   2.412
    1C        C  340   4.515   3.568   2.530
    1C        C  341   4.516   3.497   2.653
    1C        C  342   4.498   3.708   2.773
    1C        C  343   4.515   3.568   2.775
    1C        C  344   4.479   3.781   2.893
    1C        C  345   4.486   3.712   3.017
    1C        C  346   4.423   3.914   3.133
    1C        C  347   4.470   3.781   3.139
    1C        C  348   4.395   3.981   3.254
    1C        C  349   4.426   3.922   3.379
    1C        C  350   4.320   4.104   3.501
    1C        C  351   4.396   3.985   3.502
    1C        C  352   4.276   4.165   3.621
    1C        C  353   4.318   4.107   3.742
    1C        C  354   4.175   4.264   3.866
    1C        C  355   4.273   4.163   3.864
    1C        C  356   4.119   4.313   3.986
    1C        C  357   4.174   4.265   4.107
    1C        C  358   4.013   4.405   4.230
    1C        C  359   4.127   4.322   4.228
    1C        C  360   3.949   4.443   4.350
    1C        C  361   4.013   4.414   4.473
    1C        C  362   3.823   4.513   4.591
    1C        C  363   3.953   4.459   4.593
    1C        C  364   3.757   4.541   4.712
    1C        C  365   3.835   4.536   4.829
    1C        C  366   3.628   4.593   4.949
    1C        C  367   3.765   4.569   4.946
    1C        C  368   4.513   3.561   2.047
    1C        C  369   4.523   3.489   2.167
    1C        C  370   4.499   3.703   2.284
    1C        C  371   4.518   3.563   2.287
    1C        C  372   4.476   3.772   2.404
    1C        C  373   4.493   3.708   2.529
    1C        C  374   4.426   3.907   2.647
    1C        C  375   4.483   3.778   2.651
    1C        C  376   4.394   3.973   2.768
    1C        C  377   4.430   3.913   2.891
    1C        C  378   4.324   4.101   3.010
    1C        C  379   4.395   3.979   3.011
    1C        C  380   4.275   4.155   3.131
    1C        C  381   4.315   4.098   3.254
    1C        C  382   4.170   4.250   3.377
    1C        C  383   4.272   4.153   3.377
    1C        C  384   4.116   4.301   3.497
    1C        C  385   4.171   4.260   3.621
    1C        C  386   4.002   4.386   3.744
    1C        C  387   4.120   4.308   3.743
    1C        C  388   3.941   4.425   3.865
    1C        C  389   3.999   4.387   3.988
    1C        C  390   3.815   4.491   4.108
    1C        C  391   3.944   4.434   4.110
    1C        C  392   3.748   4.519   4.229
    1C        C  393   3.821   4.502   4.349
    1C        C  394   3.613   4.551   4.475
    1C        C  395   3.753   4.530   4.469
    1C        C  396   3.542   4.568   4.596
    1C        C  397   3.617   4.562   4.716
    1C        C  398   3.406   4.558   4.839
    1C        C  399   3.546   4.576   4.837
    1C        C  400   3.336   4.514   4.952
    1C        C  401   4.505   3.700   2.048
    1C        C  402   4.450   3.913   2.166
    1C        C  403   4.491   3.778   2.164
    1C        C  404   4.409   3.977   2.285
    1C        C  405   4.435   3.908   2.406
    1C        C  406   4.328   4.096   2.527
    1C        C  407   4.402   3.975   2.525
    1C        C  408   4.275   4.147   2.647
    1C        C  409   4.315   4.090   2.770
    1C        C  410   4.169   4.248   2.889
    1C        C  411   4.275   4.155   2.889
    1C        C  412   4.114   4.293   3.011
    1C        C  413   4.170   4.250   3.133
    1C        C  414   3.993   4.368   3.252
    1C        C  415   4.113   4.294   3.255
    1C        C  416   3.932   4.406   3.373
    1C        C  417   3.997   4.378   3.496
    1C        C  418   3.810   4.469   3.621
    1C        C  419   3.941   4.415   3.620
    1C        C  420   3.741   4.496   3.741
    1C        C  421   3.811   4.482   3.862
    1C        C  422   3.609   4.535   3.986
    1C        C  423   3.747   4.508   3.985
    1C        C  424   3.539   4.542   4.109
    1C        C  425   3.608   4.538   4.232
    1C        C  426   3.398   4.551   4.355
    1C        C  427   3.539   4.553   4.354
    1C        C  428   3.328   4.549   4.478
    1C        C  429   3.401   4.558   4.599
    1C        C  430   3.191   4.520   4.722
    1C        C  431   3.329   4.554   4.720
    1C        C  432   3.120   4.499   4.843
    1C        C  433   3.198   4.496   4.959
    1C        C  434   4.379   4.116   2.050
    1C        C  435   4.440   3.991   2.050
    1C        C  436   4.298   4.158   2.161
    1C        C  437   4.330   4.095   2.284
    1C        C  438   4.177   4.244   2.402
    1C        C  439   4.281   4.149   2.405
    1C        C  440   4.120   4.292   2.523
    1C        C  441   4.175   4.246   2.644
    1C        C  442   4.001   4.372   2.766
    1C        C  443   4.117   4.291   2.765
    1C        C  444   3.935   4.407   2.886
    1C        C  445   3.996   4.371   3.008
    1C        C  446   3.802   4.459   3.130
    1C        C  447   3.932   4.404   3.130
    1C        C  448   3.739   4.489   3.253
    1C        C  449   3.806   4.470   3.376
    1C        C  450   3.604   4.522   3.497
    1C        C  451   3.742   4.492   3.500
    1C        C  452   3.536   4.542   3.620
    1C        C  453   3.605   4.534   3.743
    1C        C  454   3.394   4.548   3.866
    1C        C  455   3.536   4.546   3.866
    1C        C  456   3.325   4.544   3.989
    1C        C  457   3.398   4.548   4.110
    1C        C  458   3.191   4.509   4.236
    1C        C  459   3.328   4.541   4.233
    1C        C  460   3.123   4.491   4.358
    1C        C  461   3.190   4.517   4.479
    1C        C  462   2.994   4.438   4.604
    1C        C  463   3.122   4.497   4.601
    1C        C  464   2.927   4.402   4.723
    1C        C  465   2.985   4.450   4.844
    1C        C  466   2.802   4.337   4.961
    1C        C  467   2.904   4.433   4.960
    1C        C  468   4.123   4.289   2.042
    1C        C  469   4.185   4.247   2.160
    1C        C  470   4.004   4.369   2.278
    1C        C  471   4.126   4.295   2.280
    1C        C  472   3.938   4.400   2.399
    1C        C  473   4.001   4.369   2.521
    1C        C  474   3.808   4.457   2.641
    1C        C  475   3.939   4.403   2.643
    1C        C  476   3.739   4.485   2.761
    1C        C  477   3.805   4.463   2.884
    1C        C  478   3.602   4.519   3.009
    1C        C  479   3.741   4.490   3.006
    1C        C  480   3.532   4.532   3.130
    1C        C  481   3.602   4.521   3.253
    1C        C  482   3.391   4.530   3.377
    1C        C  483   3.532   4.530   3.376
    1C        C  484   3.321   4.534   3.500
    1C        C  485   3.395   4.547   3.619
    1C        C  486   3.188   4.508   3.745
    1C        C  487   3.326   4.540   3.743
    1C        C  488   3.127   4.477   3.869
    1C        C  489   3.187   4.512   3.992
    1C        C  490   2.999   4.417   4.114
    1C        C  491   3.122   4.486   4.114
    1C        C  492   2.940   4.385   4.238
    1C        C  493   2.997   4.426   4.361
    1C        C  494   2.825   4.305   4.484
    1C        C  495   2.934   4.395   4.483
    1C        C  496   2.772   4.255   4.604
    1C        C  497   2.820   4.310   4.725
    1C        C  498   2.670   4.159   4.847
    1C        C  499   2.759   4.269   4.846
    1C        C  500   2.595   4.115   4.957
    1C        C  501   3.999   4.351   2.039
    1C        C  502   3.814   4.464   2.154
    1C        C  503   3.940   4.401   2.156
    1C        C  504   3.742   4.481   2.275
    1C        C  505   3.809   4.456   2.397
    1C        C  506   3.603   4.508   2.519
    1C        C  507   3.741   4.479   2.518
    1C        C  508   3.531   4.523   2.640
    1C        C  509   3.601   4.516   2.762
    1C        C  510   3.392   4.525   2.883
    1C        C  511   3.533   4.522   2.886
    1C        C  512   3.321   4.526   3.005
    1C        C  513   3.391   4.535   3.128
    1C        C  514   3.186   4.496   3.254
    1C        C  515   3.324   4.527   3.252
    1C        C  516   3.120   4.477   3.377
    1C        C  517   3.183   4.502   3.501
    1C        C  518   2.996   4.413   3.622
    1C        C  519   3.117   4.486   3.625
    1C        C  520   2.943   4.370   3.746
    1C        C  521   3.004   4.407   3.868
    1C        C  522   2.838   4.280   3.996
    1C        C  523   2.946   4.371   3.991
    1C        C  524   2.788   4.233   4.120
    1C        C  525   2.832   4.293   4.240
    1C        C  526   2.699   4.132   4.363
    1C        C  527   2.781   4.247   4.363
    1C        C  528   2.663   4.073   4.486
    1C        C  529   2.690   4.139   4.608
    1C        C  530   2.587   3.955   4.728
    1C        C  531   2.648   4.083   4.730
    1C        C  532   2.540   3.898   4.850
    1C        C  533   2.528   3.992   4.958
    1C        C  534   3.615   4.556   2.034
    1C        C  535   3.747   4.508   2.039
    1C        C  536   3.535   4.535   2.151
    1C        C  537   3.602   4.507   2.273
    1C        C  538   3.392   4.519   2.396
    1C        C  539   3.533   4.515   2.396
    1C        C  540   3.318   4.519   2.517
    1C        C  541   3.390   4.521   2.639
    1C        C  542   3.182   4.491   2.763
    1C        C  543   3.320   4.518   2.762
    1C        C  544   3.116   4.469   2.886
    1C        C  545   3.184   4.489   3.009
    1C        C  546   2.995   4.404   3.135
    1C        C  547   3.117   4.474   3.132
    1C        C  548   2.939   4.362   3.258
    1C        C  549   2.996   4.410   3.378
    1C        C  550   2.829   4.281   3.504
    1C        C  551   2.937   4.371   3.501
    1C        C  552   2.778   4.233   3.627
    1C        C  553   2.831   4.284   3.748
    1C        C  554   2.704   4.119   3.874
    1C        C  555   2.787   4.233   3.873
    1C        C  556   2.661   4.064   3.997
    1C        C  557   2.696   4.125   4.119
    1C        C  558   2.603   3.939   4.246
    1C        C  559   2.662   4.067   4.243
    1C        C  560   2.574   3.874   4.369
    1C        C  561   2.600   3.946   4.488
    1C        C  562   2.539   3.744   4.615
    1C        C  563   2.568   3.882   4.609
    1C        C  564   2.516   3.676   4.737
    1C        C  565   2.517   3.757   4.854
    1C        C  566   2.530   3.545   4.975
    1C        C  567   2.524   3.684   4.973
    1C        C  568   3.323   4.478   2.039
    1C        C  569   3.394   4.515   2.154
    1C        C  570   3.182   4.473   2.280
    1C        C  571   3.319   4.512   2.275
    1C        C  572   3.112   4.459   2.401
    1C        C  573   3.181   4.484   2.522
    1C        C  574   2.985   4.403   2.645
    1C        C  575   3.111   4.466   2.643
    1C        C  576   2.928   4.366   2.769
    1C        C  577   2.993   4.400   2.890
    1C        C  578   2.827   4.273   3.013
    1C        C  579   2.936   4.363   3.013
    1C        C  580   2.778   4.223   3.136
    1C        C  581   2.831   4.271   3.258
    1C        C  582   2.695   4.114   3.384
    1C        C  583   2.784   4.224   3.383
    1C        C  584   2.664   4.053   3.507
    1C        C  585   2.702   4.114   3.629
    1C        C  586   2.598   3.933   3.755
    1C        C  587   2.667   4.057   3.753
    1C        C  588   2.572   3.870   3.879
    1C        C  589   2.604   3.935   4.000
    1C        C  590   2.536   3.737   4.125
    1C        C  591   2.576   3.872   4.124
    1C        C  592   2.527   3.667   4.248
    1C        C  593   2.541   3.737   4.370
    1C        C  594   2.510   3.531   4.496
    1C        C  595   2.526   3.671   4.494
    1C        C  596   2.511   3.460   4.618
    1C        C  597   2.512   3.534   4.739
    1C        C  598   2.532   3.323   4.862
    1C        C  599   2.523   3.464   4.861
    1C        C  600   2.528   3.242   4.976
    1C        C  601   3.189   4.448   2.040
    1C        C  602   2.980   4.393   2.157
    1C        C  603   3.115   4.441   2.159
    1C        C  604   2.923   4.357   2.282
    1C        C  605   2.984   4.401   2.401
    1C        C  606   2.818   4.270   2.527
    1C        C  607   2.927   4.360   2.524
    1C        C  608   2.769   4.223   2.651
    1C        C  609   2.821   4.273   2.772
    1C        C  610   2.685   4.109   2.893
    1C        C  611   2.774   4.219   2.893
    1C        C  612   2.651   4.051   3.017
    1C        C  613   2.693   4.111   3.138
    1C        C  614   2.594   3.927   3.265
    1C        C  615   2.655   4.054   3.262
    1C        C  616   2.567   3.866   3.389
    1C        C  617   2.597   3.929   3.512
    1C        C  618   2.536   3.727   3.637
    1C        C  619   2.574   3.863   3.635
    1C        C  620   2.517   3.661   3.761
    1C        C  621   2.532   3.734   3.881
    1C        C  622   2.509   3.526   4.006
    1C        C  623   2.519   3.667   4.004
    1C        C  624   2.513   3.456   4.129
    1C        C  625   2.515   3.526   4.251
    1C        C  626   2.533   3.318   4.378
    1C        C  627   2.515   3.458   4.375
    1C        C  628   2.558   3.251   4.500
    1C        C  629   2.534   3.321   4.620
    1C        C  630   2.590   3.116   4.742
    1C        C  631   2.548   3.251   4.742
    1C        C  632   2.611   3.045   4.864
    1C        C  633   2.555   3.105   4.981
    1C        C  634   2.783   4.302   2.052
    1C        C  635   2.890   4.393   2.046
    1C        C  636   2.745   4.229   2.165
    1C        C  637   2.808   4.273   2.284
    1C        C  638   2.676   4.109   2.408
    1C        C  639   2.763   4.220   2.407
    1C        C  640   2.641   4.048   2.531
    1C        C  641   2.691   4.105   2.650
    1C        C  642   2.595   3.915   2.776
    1C        C  643   2.654   4.043   2.772
    1C        C  644   2.565   3.855   2.900
    1C        C  645   2.590   3.924   3.021
    1C        C  646   2.532   3.722   3.148
    1C        C  647   2.566   3.859   3.144
    1C        C  648   2.520   3.654   3.271
    1C        C  649   2.534   3.729   3.391
    1C        C  650   2.512   3.518   3.518
    1C        C  651   2.523   3.659   3.513
    1C        C  652   2.520   3.449   3.641
    1C        C  653   2.518   3.520   3.763
    1C        C  654   2.531   3.311   3.889
    1C        C  655   2.512   3.451   3.886
    1C        C  656   2.550   3.244   4.012
    1C        C  657   2.533   3.316   4.133
    1C        C  658   2.601   3.117   4.257
    1C        C  659   2.548   3.248   4.256
    1C        C  660   2.630   3.051   4.378
    1C        C  661   2.599   3.115   4.501
    1C        C  662   2.704   2.932   4.623
    1C        C  663   2.625   3.049   4.623
    1C        C  664   2.745   2.873   4.744
    1C        C  665   2.696   2.929   4.865
    1C        C  666   2.746   2.875   4.984
    1C        C  667   2.672   4.025   2.051
    1C        C  668   2.683   4.103   2.167
    1C        C  669   2.596   3.908   2.291
    1C        C  670   2.647   4.040   2.288
    1C        C  671   2.564   3.844   2.413
    1C        C  672   2.584   3.918   2.532
    1C        C  673   2.528   3.714   2.658
    1C        C  674   2.568   3.849   2.654
    1C        C  675   2.515   3.646   2.781
    1C        C  676   2.532   3.718   2.902
    1C        C  677   2.515   3.510   3.029
    1C        C  678   2.524   3.651   3.026
    1C        C  679   2.510   3.440   3.152
    1C        C  680   2.509   3.513   3.273
    1C        C  681   2.527   3.306   3.400
    1C        C  682   2.508   3.446   3.397
    1C        C  683   2.545   3.237   3.522
    1C        C  684   2.532   3.308   3.643
    1C        C  685   2.602   3.111   3.769
    1C        C  686   2.550   3.243   3.767
    1C        C  687   2.630   3.048   3.892
    1C        C  688   2.599   3.112   4.014
    1C        C  689   2.711   2.932   4.137
    1C        C  690   2.633   3.050   4.137
    1C        C  691   2.749   2.873   4.259
    1C        C  692   2.703   2.930   4.380
    1C        C  693   2.744   2.872   4.501
    1C        C  694   2.629   3.891   2.056
    1C        C  695   2.523   3.703   2.171
    1C        C  696   2.574   3.835   2.172
    1C        C  697   2.506   3.638   2.295
    1C        C  698   2.520   3.710   2.416
    1C        C  699   2.490   3.502   2.540
    1C        C  700   2.503   3.642   2.539
    1C        C  701   2.497   3.434   2.664
    1C        C  702   2.501   3.505   2.786
    1C        C  703   2.522   3.296   2.910
    1C        C  704   2.510   3.436   2.909
    1C        C  705   2.541   3.228   3.033
    1C        C  706   2.532   3.301   3.154
    1C        C  707   2.590   3.102   3.279
    1C        C  708   2.546   3.236   3.279
    1C        C  709   2.623   3.041   3.402
    1C        C  710   2.592   3.104   3.525
    1C        C  711   2.703   2.924   3.646
    1C        C  712   2.626   3.043   3.648
    1C        C  713   2.753   2.875   3.768
    1C        C  714   2.713   2.933   3.890
    1C        C  715   2.752   2.876   4.014
    1C        C  716   2.446   3.500   2.060
    1C        C  717   2.493   3.632   2.054
    1C        C  718   2.465   3.423   2.179
    1C        C  719   2.484   3.498   2.298
    1C        C  720   2.515   3.288   2.422
    1C        C  721   2.487   3.426   2.420
    1C        C  722   2.531   3.223   2.546
    1C        C  723   2.522   3.295   2.668
    1C        C  724   2.587   3.092   2.789
    1C        C  725   2.538   3.225   2.789
    1C        C  726   2.618   3.028   2.911
    1C        C  727   2.588   3.095   3.032
    1C        C  728   2.707   2.926   3.156
    1C        C  729   2.622   3.038   3.157
    1C        C  730   2.751   2.872   3.279
    1C        C  731   2.706   2.927   3.401
    1C        C  732   2.748   2.870   3.523
    1C        C  733   2.491   3.200   2.068
    1C        C  734   2.492   3.282   2.181
    1C        C  735   2.579   3.084   2.302
    1C        C  736   2.526   3.216   2.302
    1C        C  737   2.613   3.022   2.424
    1C        C  738   2.584   3.092   2.544
    1C        C  739   2.693   2.910   2.668
    1C        C  740   2.620   3.030   2.666
    1C        C  741   2.739   2.852   2.789
    1C        C  742   2.695   2.910   2.910
    1C        C  743   2.746   2.865   3.034
    1C        C  744   2.544   3.071   2.069
    1C        C  745   2.684   2.898   2.186
    1C        C  746   2.607   3.016   2.181
    1C        C  747   2.731   2.840   2.307
    1C        C  748   2.688   2.903   2.426
    1C        C  749   2.735   2.849   2.548
    1C        C  750   2.736   2.841   2.069
    1C        C  751   3.660   2.306   1.979
    1C        O  752   3.690   2.190   2.019
    1C        O  753   3.670   2.338   1.843
    1C        C  754   4.630   3.053   1.978
    1C        O  755   4.613   3.007   1.862
    1C        O  756   4.747   2.992   2.025
    1C        C  757   4.442   4.207   1.952
    1C        O  758   4.511   4.312   1.970
    1C        O  759   4.406   4.185   1.819
    1C        C  760   3.594   4.678   1.954
    1C        O  761   3.630   4.784   2.011
    1C        O  762   3.607   4.682   1.814
    1C        C  763   2.839   4.521   1.992
    1C        O  764   2.889   4.582   1.894
    1C        O  765   2.754   4.600   2.070
    1C        C  766   2.333   3.481   1.967
    1C        O  767   2.341   3.439   1.848
    1C        O  768   2.214   3.428   2.019
    1C        C  769   4.700   3.585   5.047
    1C        O  770   4.684   3.562   5.170
    1C        O  771   4.830   3.634   5.029
    1C        C  772   4.283   4.443   5.028
    1C        O  773   4.296   4.403   5.147
    1C        O  774   4.329   4.574   5.010
    1C        C  775   4.130   2.545   5.094
    1C        O  776   4.178   2.431   5.117
    1C        O  777   4.131   2.627   5.208
    1C        C  778   2.869   4.551   5.043
    1C        O  779   2.850   4.662   4.985
    1C        O  780   2.922   4.563   5.172
    1C        C  781   2.473   3.030   5.079
    1C        O  782   2.398   2.933   5.053
    1C        O  783   2.474   3.066   5.213
    1C        C  784   2.425   3.997   5.064
    1C        O  785   2.305   4.027   5.039
    1C        O  786   2.457   3.972   5.198
    1C        C  787   2.937   2.408   2.028
    1C        O  788   2.894   2.412   1.910
    1C        O  789   2.874   2.313   2.109
    1C        C  790   3.177   2.369   5.056
    1C        O  791   3.150   2.253   5.013
    1C        O  792   3.208   2.361   5.192
    1C        H  793   4.345   2.968   5.065
    1C        H  794   4.212   2.791   5.070
    1C        H  795   4.529   3.117   5.034
    1C        H  796   4.541   3.360   5.064
    1C        H  797   4.555   3.816   5.044
    1C        H  798   4.458   3.995   5.041
    1C        H  799   4.275   4.158   5.048
    1C        H  800   4.021   4.514   5.036
    1C        H  801   3.826   4.603   5.027
    1C        H  802   3.583   4.635   5.037
    1C        H  803   3.393   4.485   5.038
    1C        H  804   3.163   4.432   5.038
    1C        H  805   3.904   2.455   5.051
    1C        H  806   3.674   2.420   5.058
    1C        H  807   3.013   2.581   5.069
    1C        H  808   3.438   2.416   5.058
    1C        H  809   2.826   2.702   5.066
    1C        H  810   2.745   2.932   5.075
    1C        H  811   2.512   3.292   5.070
    1C        H  812   2.546   3.502   5.072
    1C        H  813   2.543   3.734   5.066
    1C        H  814   2.630   4.150   5.052
    1C        H  815   2.730   4.337   5.040
    1C        H  816   2.693   2.868   1.975
    1C        H  817   2.814   2.669   1.983
    1C        H  818   3.203   2.444   1.986
    1C        H  819   3.426   2.451   1.979
    1C        H  820   3.869   2.475   1.980
    1C        H  821   4.035   2.655   1.972
    1C        H  822   4.253   2.709   1.975
    1C        H  823   4.347   2.934   1.968
    1C        H  824   4.611   3.304   1.983
    1C        H  825   4.463   3.511   1.966
    1C        H  826   4.469   3.740   1.956
    1C        H  827   3.804   4.534   1.953
    1C        H  828   3.930   4.311   1.967
    1C        H  829   4.183   4.301   1.954
    1C        H  830   4.469   3.949   1.956
    1C        H  831   2.641   3.830   1.969
    1C        H  832   2.627   4.077   1.969
    1C        H  833   2.737   4.278   1.958
    1C        H  834   3.358   4.500   1.941
    1C        H  835   3.149   4.407   1.949
    1C        H  836   2.496   3.001   2.003
    1C        H  837   2.421   3.228   1.992
    1C        H  838   2.469   3.692   1.969
    2V3OU   H29  839   2.799   3.546   6.342
    2V3OU   C27  840   2.785   3.504   6.445
    2V3OU   H27  841   2.726   3.572   6.513
    2V3OU   H28  842   2.733   3.406   6.437
    2V3OU   O11  843   2.909   3.471   6.508
    2V3OU   C15  844   2.919   3.391   6.620
    2V3OU   C13  845   3.050   3.369   6.665
    2V3OU   C14  846   3.072   3.264   6.755
    2V3OU   C16  847   2.968   3.185   6.801
    2V3OU    H6  848   2.991   3.098   6.864
    2V3OU   C12  849   3.212   3.227   6.786
    2V3OU    O2  850   3.240   3.117   6.840
    2V3OU   C10  851   3.325   3.306   6.735
    2V3OU    C8  852   3.456   3.269   6.764
    2V3OU   O10  853   3.481   3.156   6.836
    2V3OU   H26  854   3.396   3.110   6.846
    2V3OU    C6  855   3.564   3.349   6.715
    2V3OU    C5  856   3.538   3.464   6.641
    2V3OU    C4  857   3.701   3.292   6.723
    2V3OU    H4  858   3.722   3.226   6.812
    2V3OU    H5  859   3.710   3.225   6.632
    2V3OU    C2  860   3.814   3.394   6.709
    2V3OU    O6  861   3.806   3.476   6.826
    2V3OU   H21  862   3.764   3.556   6.793
    2V3OU    C3  863   3.778   3.491   6.596
    2V3OU    H2  864   3.856   3.570   6.581
    2V3OU    H3  865   3.781   3.434   6.500
    2V3OU   C25  866   3.950   3.326   6.692
    2V3OU    O7  867   4.001   3.299   6.583
    2V3OU   C26  868   4.027   3.288   6.817
    2V3OU   H22  869   4.062   3.378   6.873
    2V3OU   H23  870   4.109   3.217   6.790
    2V3OU    O8  871   3.960   3.209   6.913
    2V3OU   H24  872   3.925   3.259   6.988
    2V3OU    C1  873   3.644   3.563   6.603
    2V3OU    H1  874   3.625   3.615   6.504
    2V3OU    O3  875   3.657   3.656   6.711
    2V3OU   C19  876   3.614   3.792   6.694
    2V3OU    H9  877   3.526   3.790   6.624
    2V3OU    O4  878   3.709   3.852   6.608
    2V3OU   C20  879   3.839   3.874   6.662
    2V3OU   H10  880   3.893   3.777   6.682
    2V3OU   C24  881   3.608   3.857   6.832
    2V3OU   H16  882   3.545   3.795   6.900
    2V3OU   H17  883   3.561   3.959   6.830
    2V3OU   C23  884   3.748   3.871   6.892
    2V3OU   H15  885   3.792   3.766   6.903
    2V3OU    N1  886   3.739   3.948   7.014
    2V3OU   H19  887   3.807   3.923   0.062
    2V3OU   H20  888   3.645   3.935   0.025
    2V3OU   C21  889   3.840   3.951   6.794
    2V3OU   H11  890   3.944   3.924   6.830
    2V3OU    O5  891   3.824   4.092   6.803
    2V3OU   H18  892   3.778   4.098   6.888
    2V3OU   C22  893   3.910   3.948   6.549
    2V3OU   H12  894   3.859   4.047   6.538
    2V3OU   H13  895   3.899   3.894   6.452
    2V3OU   H14  896   4.019   3.959   6.572
    2V3OU   C11  897   3.158   3.468   6.654
    2V3OU    O1  898   3.126   3.587   6.633
    2V3OU    C9  899   3.300   3.426   6.663
    2V3OU    C7  900   3.404   3.504   6.613
    2V3OU    O9  901   3.379   3.619   6.543
    2V3OU   H25  902   3.282   3.617   6.531
    2V3OU   C17  903   2.815   3.310   6.671
    2V3OU    H7  904   2.712   3.336   6.647
    2V3OU   C18  905   2.836   3.208   6.763
    2V3OU    H8  906   2.749   3.150   6.796
    3SOL     OW  907   3.063   3.708   5.015
    3SOL    HW1  908   3.144   3.714   4.957
    3SOL    HW2  909   3.041   3.798   5.051
    4SOL     OW  910   1.243   0.458   0.319
    4SOL    HW1  911   1.341   0.445   0.333
    4SOL    HW2  912   1.222   0.555   0.321
    5SOL     OW  913   4.069   1.757   0.622
    5SOL    HW1  914   4.062   1.832   0.557
    5SOL    HW2  915   4.021   1.781   0.706
    6SOL     OW  916   2.908   2.192   1.753
    6SOL    HW1  917   2.894   2.259   1.826
    6SOL    HW2  918   2.908   2.239   1.664
    7SOL     OW  919   1.800   3.030   4.508
    7SOL    HW1  920   1.826   3.120   4.472
    7SOL    HW2  921   1.806   3.030   4.607
    8SOL     OW  922   1.518   1.856   6.069
    8SOL    HW1  923   1.587   1.896   6.131
    8SOL    HW2  924   1.431   1.848   6.117
    9SOL     OW  925   2.202   2.272   5.610
    9SOL    HW1  926   2.244   2.219   5.684
    9SOL    HW2  927   2.236   2.241   5.522
   10SOL     OW  928   5.507   4.950   1.048
   10SOL    HW1  929   5.597   4.990   1.029
   10SOL    HW2  930   5.513   4.889   1.128
   11SOL     OW  931   2.842   1.271   0.892
   11SOL    HW1  932   2.895   1.321   0.961
   11SOL    HW2  933   2.900   1.250   0.814
   12SOL     OW  934   5.761   5.180   1.226
   12SOL    HW1  935   5.810   5.123   1.293
   12SOL    HW2  936   5.753   5.130   1.139
   13SOL     OW  937   4.542   5.767   1.671
   13SOL    HW1  938   4.581   5.675   1.659
   13SOL    HW2  939   4.443   5.762   1.660
   14SOL     OW  940   4.380   5.996   0.894
   14SOL    HW1  941   4.368   5.945   0.809
   14SOL    HW2  942   4.388   6.094   0.874
   15SOL     OW  943   0.475   0.351   6.436
   15SOL    HW1  944   0.448   0.434   6.388
   15SOL    HW2  945   0.573   0.353   6.454
   16SOL     OW  946   1.735   4.765   5.445
   16SOL    HW1  947   1.758   4.810   5.359
   16SOL    HW2  948   1.675   4.824   5.499
   17SOL     OW  949   6.916   2.238   4.194
   17SOL    HW1  950   7.004   2.195   4.174
   17SOL    HW2  951   6.844   2.194   4.140
   18SOL     OW  952   2.402   0.192   5.501
   18SOL    HW1  953   2.430   0.280   5.540
   18SOL    HW2  954   2.316   0.204   5.452
   19SOL     OW  955   4.426   5.887   2.924
   19SOL    HW1  956   4.497   5.819   2.903
   19SOL    HW2  957   4.354   5.845   2.979
   20SOL     OW  958   7.002   1.768   4.746
   20SOL    HW1  959   0.069   1.816   4.731
   20SOL    HW2  960   6.968   1.734   4.658
   21SOL     OW  961   1.964   3.197   1.933
   21SOL    HW1  962   1.926   3.105   1.917
   21SOL    HW2  963   1.889   3.262   1.943
   22SOL     OW  964   0.319   0.611   0.433
   22SOL    HW1  965   0.249   0.541   0.446
   22SOL    HW2  966   0.286   0.680   0.369
   23SOL     OW  967   0.488   5.683   0.480
   23SOL    HW1  968   0.491   5.645   0.572
   23SOL    HW2  969   0.581   5.708   0.451
   24SOL     OW  970   4.716   0.657   6.597
   24SOL    HW1  971   4.673   0.730   6.650
   24SOL    HW2  972   4.815   0.660   6.611
   25SOL     OW  973   1.619   0.711   5.754
   25SOL    HW1  974   1.691   0.665   5.702
   25SOL    HW2  975   1.537   0.720   5.697
   26SOL     OW  976   2.373   6.828   5.558
   26SOL    HW1  977   2.320   6.744   5.572
   26SOL    HW2  978   2.363   6.858   5.464
   27SOL     OW  979   6.887   0.379   2.511
   27SOL    HW1  980   6.912   0.361   2.416
   27SOL    HW2  981   6.849   0.471   2.519
   28SOL     OW  982   1.878   0.723   5.149
   28SOL    HW1  983   1.820   0.725   5.231
   28SOL    HW2  984   1.920   0.812   5.135
   29SOL     OW  985   5.613   0.708   1.382
   29SOL    HW1  986   5.572   0.770   1.316
   29SOL    HW2  987   5.688   0.754   1.430
   30SOL     OW  988   5.008   6.905   4.657
   30SOL    HW1  989   4.940   6.934   4.724
   30SOL    HW2  990   4.964   6.846   4.589
   31SOL     OW  991   6.326   3.909   4.332
   31SOL    HW1  992   6.246   3.860   4.368
   31SOL    HW2  993   6.358   3.863   4.249
   32SOL     OW  994   3.370   1.232   1.771
   32SOL    HW1  995   3.356   1.323   1.733
   32SOL    HW2  996   3.453   1.192   1.731
   33SOL     OW  997   1.882   4.260   5.098
   33SOL    HW1  998   1.791   4.219   5.089
   33SOL    HW2  999   1.890   4.305   5.187
   34SOL     OW 1000   2.827   6.849   5.432
   34SOL    HW1 1001   2.807   6.931   5.377
   34SOL    HW2 1002   2.744   6.820   5.479
   35SOL     OW 1003   1.359   3.152   4.839
   35SOL    HW1 1004   1.332   3.139   4.934
   35SOL    HW2 1005   1.282   3.131   4.779
   36SOL     OW 1006   5.389   1.278   4.206
   36SOL    HW1 1007   5.482   1.271   4.170
   36SOL    HW2 1008   5.355   1.371   4.193
   37SOL     OW 1009   1.146   5.504   3.988
   37SOL    HW1 1010   1.130   5.406   3.983
   37SOL    HW2 1011   1.059   5.551   4.005
   38SOL     OW 1012   0.463   3.339   1.599
   38SOL    HW1 1013   0.460   3.241   1.584
   38SOL    HW2 1014   0.478   3.357   1.697
   39SOL     OW 1015   6.470   5.222   1.298
   39SOL    HW1 1016   6.485   5.290   1.369
   39SOL    HW2 1017   6.392   5.165   1.323
   40SOL     OW 1018   4.172   0.632   6.256
   40SOL    HW1 1019   4.259   0.617   6.303
   40SOL    HW2 1020   4.188   0.646   6.159
   41SOL     OW 1021   0.056   3.856   1.082
   41SOL    HW1 1022   0.008   3.830   0.998
   41SOL    HW2 1023   0.130   3.920   1.059
   42SOL     OW 1024   2.688   3.553   0.883
   42SOL    HW1 1025   2.598   3.574   0.919
   42SOL    HW2 1026   2.679   3.494   0.803
   43SOL     OW 1027   4.898   0.670   3.691
   43SOL    HW1 1028   4.886   0.571   3.694
   43SOL    HW2 1029   4.929   0.697   3.600
   44SOL     OW 1030   0.220   0.998   6.812
   44SOL    HW1 1031   0.130   0.959   6.831
   44SOL    HW2 1032   0.210   1.084   6.763
   45SOL     OW 1033   2.123   3.637   5.899
   45SOL    HW1 1034   2.165   3.665   5.985
   45SOL    HW2 1035   2.078   3.549   5.911
   46SOL     OW 1036   0.973   4.774   4.301
   46SOL    HW1 1037   0.985   4.675   4.306
   46SOL    HW2 1038   1.020   4.810   4.220
   47SOL     OW 1039   0.019   4.110   5.826
   47SOL    HW1 1040   0.079   4.035   5.800
   47SOL    HW2 1041   0.025   4.124   5.925
   48SOL     OW 1042   0.744   4.081   0.180
   48SOL    HW1 1043   0.783   4.165   0.217
   48SOL    HW2 1044   0.670   4.103   0.116
   49SOL     OW 1045   3.174   0.462   0.263
   49SOL    HW1 1046   3.136   0.456   0.171
   49SOL    HW2 1047   3.273   0.455   0.259
   50SOL     OW 1048   4.814   1.596   5.503
   50SOL    HW1 1049   4.830   1.500   5.528
   50SOL    HW2 1050   4.864   1.618   5.419
   51SOL     OW 1051   1.213   6.107   2.040
   51SOL    HW1 1052   1.215   6.025   2.097
   51SOL    HW2 1053   1.267   6.091   1.957
   52SOL     OW 1054   5.366   3.095   3.019
   52SOL    HW1 1055   5.351   3.148   2.936
   52SOL    HW2 1056   5.295   3.118   3.086
   53SOL     OW 1057   3.950   6.668   1.147
   53SOL    HW1 1058   3.914   6.649   1.056
   53SOL    HW2 1059   4.008   6.750   1.143
   54SOL     OW 1060   1.011   1.820   5.825
   54SOL    HW1 1061   0.952   1.897   5.802
   54SOL    HW2 1062   1.095   1.853   5.868
   55SOL     OW 1063   2.404   3.602   6.366
   55SOL    HW1 1064   2.434   3.625   6.459
   55SOL    HW2 1065   2.440   3.671   6.302
   56SOL     OW 1066   1.932   2.252   6.987
   56SOL    HW1 1067   1.895   2.169   6.946
   56SOL    HW2 1068   1.862   2.324   6.983
   57SOL     OW 1069   4.270   5.734   1.623
   57SOL    HW1 1070   4.230   5.659   1.677
   57SOL    HW2 1071   4.281   5.704   1.528
   58SOL     OW 1072   0.298   0.583   0.002
   58SOL    HW1 1073   0.284   0.633   0.088
   58SOL    HW2 1074   0.393   0.592   6.993
   59SOL     OW 1075   4.327   3.203   6.938
   59SOL    HW1 1076   4.420   3.204   6.973
   59SOL    HW2 1077   4.267   3.253   7.001
   60SOL     OW 1078   6.500   2.494   2.287
   60SOL    HW1 1079   6.524   2.591   2.295
   60SOL    HW2 1080   6.580   2.438   2.306
   61SOL     OW 1081   1.551   5.311   2.609
   61SOL    HW1 1082   1.553   5.356   2.698
   61SOL    HW2 1083   1.473   5.345   2.556
   62SOL     OW 1084   4.951   3.298   3.201
   62SOL    HW1 1085   5.001   3.213   3.186
   62SOL    HW2 1086   4.902   3.292   3.288
   63SOL     OW 1087   4.407   6.924   6.354
   63SOL    HW1 1088   4.325   6.960   6.310
   63SOL    HW2 1089   4.421   6.829   6.325
   64SOL     OW 1090   2.611   1.795   6.814
   64SOL    HW1 1091   2.609   1.707   6.862
   64SOL    HW2 1092   2.536   1.852   6.846
   65SOL     OW 1093   0.806   5.450   4.992
   65SOL    HW1 1094   0.845   5.359   4.980
   65SOL    HW2 1095   0.861   5.517   4.941
   66SOL     OW 1096   4.337   1.368   1.329
   66SOL    HW1 1097   4.295   1.456   1.351
   66SOL    HW2 1098   4.418   1.355   1.387
   67SOL     OW 1099   0.084   2.883   2.340
   67SOL    HW1 1100   0.014   2.910   2.406
   67SOL    HW2 1101   0.168   2.858   2.388
   68SOL     OW 1102   0.462   1.089   6.150
   68SOL    HW1 1103   0.497   1.002   6.183
   68SOL    HW2 1104   0.518   1.164   6.186
   69SOL     OW 1105   1.697   0.774   6.275
   69SOL    HW1 1106   1.599   0.754   6.267
   69SOL    HW2 1107   1.722   0.782   6.371
   70SOL     OW 1108   4.941   5.012   2.962
   70SOL    HW1 1109   4.994   4.961   3.030
   70SOL    HW2 1110   4.964   5.109   2.968
   71SOL     OW 1111   5.321   1.444   5.651
   71SOL    HW1 1112   5.297   1.358   5.696
   71SOL    HW2 1113   5.380   1.498   5.711
   72SOL     OW 1114   6.948   1.861   2.872
   72SOL    HW1 1115   6.893   1.858   2.789
   72SOL    HW2 1116   6.888   1.879   2.950
   73SOL     OW 1117   2.645   1.123   1.072
   73SOL    HW1 1118   2.600   1.158   0.991
   73SOL    HW2 1119   2.710   1.191   1.107
   74SOL     OW 1120   2.390   0.580   0.677
   74SOL    HW1 1121   2.370   0.628   0.591
   74SOL    HW2 1122   2.364   0.638   0.754
   75SOL     OW 1123   2.490   2.694   1.273
   75SOL    HW1 1124   2.548   2.699   1.192
   75SOL    HW2 1125   2.395   2.712   1.248
   76SOL     OW 1126   2.905   5.347   6.399
   76SOL    HW1 1127   2.859   5.303   6.477
   76SOL    HW2 1128   2.959   5.279   6.350
   77SOL     OW 1129   0.211   4.608   4.826
   77SOL    HW1 1130   0.160   4.642   4.747
   77SOL    HW2 1131   0.300   4.574   4.795
   78SOL     OW 1132   5.007   1.385   0.766
   78SOL    HW1 1133   4.948   1.452   0.720
   78SOL    HW2 1134   4.969   1.293   0.752
   79SOL     OW 1135   2.243   4.051   4.279
   79SOL    HW1 1136   2.227   3.953   4.289
   79SOL    HW2 1137   2.282   4.069   4.189
   80SOL     OW 1138   4.086   2.230   5.417
   80SOL    HW1 1139   4.019   2.157   5.402
   80SOL    HW2 1140   4.154   2.200   5.483
   81SOL     OW 1141   2.651   4.772   3.032
   81SOL    HW1 1142   2.618   4.702   2.969
   81SOL    HW2 1143   2.626   4.863   2.998
   82SOL     OW 1144   2.503   0.597   1.591
   82SOL    HW1 1145   2.527   0.642   1.505
   82SOL    HW2 1146   2.407   0.570   1.589
   83SOL     OW 1147   6.084   2.464   3.520
   83SOL    HW1 1148   6.164   2.499   3.472
   83SOL    HW2 1149   6.087   2.493   3.616
   84SOL     OW 1150   4.851   2.571   2.751
   84SOL    HW1 1151   4.875   2.591   2.656
   84SOL    HW2 1152   4.877   2.477   2.773
   85SOL     OW 1153   2.113   5.268   2.778
   85SOL    HW1 1154   2.017   5.296   2.774
   85SOL    HW2 1155   2.166   5.318   2.709
   86SOL     OW 1156   4.304   1.104   6.317
   86SOL    HW1 1157   4.306   1.043   6.396
   86SOL    HW2 1158   4.398   1.122   6.287
   87SOL     OW 1159   3.103   2.382   6.686
   87SOL    HW1 1160   3.039   2.388   6.763
   87SOL    HW2 1161   3.197   2.391   6.720
   88SOL     OW 1162   1.287   2.256   0.592
   88SOL    HW1 1163   1.279   2.351   0.622
   88SOL    HW2 1164   1.341   2.205   0.659
   89SOL     OW 1165   4.115   3.668   5.852
   89SOL    HW1 1166   4.121   3.718   5.766
   89SOL    HW2 1167   4.200   3.617   5.867
   90SOL     OW 1168   6.848   4.314   1.687
   90SOL    HW1 1169   6.765   4.312   1.743
   90SOL    HW2 1170   6.916   4.252   1.726
   91SOL     OW 1171   5.191   5.069   0.469
   91SOL    HW1 1172   5.272   5.013   0.485
   91SOL    HW2 1173   5.156   5.102   0.557
   92SOL     OW 1174   6.274   6.316   7.002
   92SOL    HW1 1175   6.188   6.361   0.007
   92SOL    HW2 1176   6.262   6.267   6.916
   93SOL     OW 1177   3.012   3.144   2.742
   93SOL    HW1 1178   3.037   3.237   2.769
   93SOL    HW2 1179   2.964   3.148   2.654
   94SOL     OW 1180   3.439   1.228   4.178
   94SOL    HW1 1181   3.408   1.324   4.177
   94SOL    HW2 1182   3.440   1.195   4.273
   95SOL     OW 1183   1.026   6.457   4.212
   95SOL    HW1 1184   0.938   6.480   4.253
   95SOL    HW2 1185   1.037   6.358   4.209
   96SOL     OW 1186   0.404   6.634   0.225
   96SOL    HW1 1187   0.484   6.660   0.170
   96SOL    HW2 1188   0.435   6.587   0.308
   97SOL     OW 1189   3.247   4.958   4.357
   97SOL    HW1 1190   3.282   4.941   4.450
   97SOL    HW2 1191   3.179   4.889   4.334
   98SOL     OW 1192   6.572   2.028   4.974
   98SOL    HW1 1193   6.628   2.108   4.951
   98SOL    HW2 1194   6.502   2.015   4.904
   99SOL     OW 1195   4.817   4.240   5.032
   99SOL    HW1 1196   4.734   4.271   4.986
   99SOL    HW2 1197   4.807   4.250   5.130
  100SOL     OW 1198   2.398   2.003   5.591
  100SOL    HW1 1199   2.468   2.054   5.540
  100SOL    HW2 1200   2.381   2.047   5.679
  101SOL     OW 1201   5.275   3.044   2.604
  101SOL    HW1 1202   5.358   2.988   2.596
  101SOL    HW2 1203   5.279   3.118   2.538
  102SOL     OW 1204   4.715   6.344   1.154
  102SOL    HW1 1205   4.655   6.410   1.110
  102SOL    HW2 1206   4.809   6.377   1.150
  103SOL     OW 1207   2.362   2.042   0.950
  103SOL    HW1 1208   2.452   2.045   0.907
  103SOL    HW2 1209   2.291   2.046   0.880
  104SOL     OW 1210   0.839   3.616   1.604
  104SOL    HW1 1211   0.868   3.526   1.571
  104SOL    HW2 1212   0.780   3.659   1.536
  105SOL     OW 1213   0.292   1.928   4.636
  105SOL    HW1 1214   0.251   1.994   4.573
  105SOL    HW2 1215   0.248   1.936   4.725
  106SOL     OW 1216   5.428   3.600   1.598
  106SOL    HW1 1217   5.334   3.635   1.600
  106SOL    HW2 1218   5.490   3.668   1.637
  107SOL     OW 1219   4.508   0.388   2.565
  107SOL    HW1 1220   4.547   0.378   2.656
  107SOL    HW2 1221   4.580   0.373   2.496
  108SOL     OW 1222   4.025   1.143   5.316
  108SOL    HW1 1223   3.958   1.176   5.383
  108SOL    HW2 1224   4.103   1.205   5.315
  109SOL     OW 1225   2.256   1.566   4.430
  109SOL    HW1 1226   2.307   1.644   4.395
  109SOL    HW2 1227   2.222   1.586   4.522
  110SOL     OW 1228   4.383   4.911   5.508
  110SOL    HW1 1229   4.455   4.871   5.563
  110SOL    HW2 1230   4.422   4.947   5.423
  111SOL     OW 1231   6.967   3.282   0.524
  111SOL    HW1 1232   0.024   3.218   0.528
  111SOL    HW2 1233   6.881   3.231   0.520
  112SOL     OW 1234   3.676   6.405   4.564
  112SOL    HW1 1235   3.667   6.503   4.578
  112SOL    HW2 1236   3.642   6.357   4.645
  113SOL     OW 1237   1.524   4.956   2.386
  113SOL    HW1 1238   1.624   4.951   2.383
  113SOL    HW2 1239   1.488   4.880   2.439
  114SOL     OW 1240   6.869   2.550   2.061
  114SOL    HW1 1241   6.821   2.601   1.989
  114SOL    HW2 1242   6.804   2.492   2.109
  115SOL     OW 1243   4.338   1.136   3.081
  115SOL    HW1 1244   4.310   1.211   3.141
  115SOL    HW2 1245   4.399   1.171   3.010
  116SOL     OW 1246   6.035   5.885   6.548
  116SOL    HW1 1247   6.086   5.962   6.510
  116SOL    HW2 1248   6.050   5.804   6.491
  117SOL     OW 1249   2.038   1.535   0.502
  117SOL    HW1 1250   1.971   1.535   0.577
  117SOL    HW2 1251   2.043   1.442   0.464
  118SOL     OW 1252   1.323   2.496   1.428
  118SOL    HW1 1253   1.397   2.496   1.495
  118SOL    HW2 1254   1.247   2.439   1.462
  119SOL     OW 1255   5.414   5.426   4.600
  119SOL    HW1 1256   5.339   5.369   4.634
  119SOL    HW2 1257   5.480   5.441   4.673
  120SOL     OW 1258   4.425   1.687   3.953
  120SOL    HW1 1259   4.376   1.600   3.957
  120SOL    HW2 1260   4.410   1.729   3.864
  121SOL     OW 1261   6.675   4.949   5.539
  121SOL    HW1 1262   6.756   5.008   5.549
  121SOL    HW2 1263   6.705   4.854   5.528
  122SOL     OW 1264   0.449   4.800   5.485
  122SOL    HW1 1265   0.448   4.709   5.526
  122SOL    HW2 1266   0.473   4.867   5.554
  123SOL     OW 1267   0.717   2.033   0.852
  123SOL    HW1 1268   0.808   2.074   0.854
  123SOL    HW2 1269   0.688   2.020   0.757
  124SOL     OW 1270   2.093   3.496   6.500
  124SOL    HW1 1271   2.095   3.593   6.524
  124SOL    HW2 1272   2.186   3.462   6.488
  125SOL     OW 1273   4.138   3.155   1.388
  125SOL    HW1 1274   4.071   3.149   1.461
  125SOL    HW2 1275   4.099   3.119   1.303
  126SOL     OW 1276   3.577   3.366   5.262
  126SOL    HW1 1277   3.660   3.355   5.316
  126SOL    HW2 1278   3.498   3.331   5.313
  127SOL     OW 1279   0.002   4.426   5.909
  127SOL    HW1 1280   0.029   4.400   5.816
  127SOL    HW2 1281   7.012   4.343   5.965
  128SOL     OW 1282   4.893   4.429   5.851
  128SOL    HW1 1283   4.809   4.397   5.808
  128SOL    HW2 1284   4.871   4.474   5.938
  129SOL     OW 1285   0.786   5.517   2.384
  129SOL    HW1 1286   0.703   5.509   2.439
  129SOL    HW2 1287   0.855   5.567   2.435
  130SOL     OW 1288   6.621   4.159   4.715
  130SOL    HW1 1289   6.635   4.228   4.644
  130SOL    HW2 1290   6.543   4.101   4.690
  131SOL     OW 1291   0.757   3.148   1.895
  131SOL    HW1 1292   0.806   3.093   1.963
  131SOL    HW2 1293   0.721   3.088   1.824
  132SOL     OW 1294   3.899   3.954   2.470
  132SOL    HW1 1295   3.918   3.968   2.567
  132SOL    HW2 1296   3.964   3.888   2.432
  133SOL     OW 1297   4.373   4.169   5.590
  133SOL    HW1 1298   4.394   4.073   5.608
  133SOL    HW2 1299   4.303   4.200   5.654
  134SOL     OW 1300   6.985   2.064   0.015
  134SOL    HW1 1301   0.036   2.014   6.986
  134SOL    HW2 1302   6.968   2.152   6.989
  135SOL     OW 1303   4.571   5.233   3.838
  135SOL    HW1 1304   4.503   5.306   3.832
  135SOL    HW2 1305   4.574   5.198   3.931
  136SOL     OW 1306   3.889   5.924   6.014
  136SOL    HW1 1307   3.961   5.891   6.075
  136SOL    HW2 1308   3.913   6.016   5.982
  137SOL     OW 1309   2.013   4.222   6.996
  137SOL    HW1 1310   2.053   4.263   6.915
  137SOL    HW2 1311   2.035   4.277   0.056
  138SOL     OW 1312   0.602   6.174   1.464
  138SOL    HW1 1313   0.525   6.236   1.451
  138SOL    HW2 1314   0.680   6.205   1.409
  139SOL     OW 1315   1.183   0.055   1.154
  139SOL    HW1 1316   1.216   0.013   1.069
  139SOL    HW2 1317   1.125   7.011   1.203
  140SOL     OW 1318   2.932   0.021   2.914
  140SOL    HW1 1319   3.016   7.004   2.954
  140SOL    HW2 1320   2.875   6.965   2.883
  141SOL     OW 1321   2.604   1.843   0.144
  141SOL    HW1 1322   2.540   1.770   0.166
  141SOL    HW2 1323   2.556   1.917   0.096
  142SOL     OW 1324   1.658   4.746   6.169
  142SOL    HW1 1325   1.613   4.661   6.194
  142SOL    HW2 1326   1.724   4.729   6.096
  143SOL     OW 1327   5.114   6.289   2.237
  143SOL    HW1 1328   5.098   6.337   2.151
  143SOL    HW2 1329   5.101   6.191   2.222
  144SOL     OW 1330   2.346   5.067   3.431
  144SOL    HW1 1331   2.334   5.044   3.527
  144SOL    HW2 1332   2.361   4.983   3.378
  145SOL     OW 1333   6.332   5.894   3.060
  145SOL    HW1 1334   6.328   5.987   3.025
  145SOL    HW2 1335   6.254   5.842   3.026
  146SOL     OW 1336   6.748   1.101   4.207
  146SOL    HW1 1337   6.814   1.159   4.255
  146SOL    HW2 1338   6.768   1.101   4.109
  147SOL     OW 1339   6.411   0.026   5.356
  147SOL    HW1 1340   6.449   0.082   5.282
  147SOL    HW2 1341   6.345   6.980   5.318
  148SOL     OW 1342   1.966   6.877   3.479
  148SOL    HW1 1343   1.972   6.806   3.409
  148SOL    HW2 1344   1.870   6.893   3.502
  149SOL     OW 1345   1.622   2.255   4.845
  149SOL    HW1 1346   1.685   2.310   4.900
  149SOL    HW2 1347   1.650   2.259   4.749
  150SOL     OW 1348   5.158   2.608   4.853
  150SOL    HW1 1349   5.076   2.558   4.826
  150SOL    HW2 1350   5.131   2.695   4.895
  151SOL     OW 1351   5.940   2.874   1.908
  151SOL    HW1 1352   5.847   2.906   1.920
  151SOL    HW2 1353   5.939   2.786   1.860
  152SOL     OW 1354   6.151   2.122   0.181
  152SOL    HW1 1355   6.102   2.209   0.174
  152SOL    HW2 1356   6.248   2.140   0.198
  153SOL     OW 1357   2.135   1.957   4.171
  153SOL    HW1 1358   2.133   1.955   4.071
  153SOL    HW2 1359   2.044   1.935   4.207
  154SOL     OW 1360   0.472   1.694   3.636
  154SOL    HW1 1361   0.432   1.631   3.702
  154SOL    HW2 1362   0.553   1.738   3.676
  155SOL     OW 1363   5.732   5.087   3.233
  155SOL    HW1 1364   5.733   5.051   3.139
  155SOL    HW2 1365   5.645   5.065   3.277
  156SOL     OW 1366   4.401   6.961   1.057
  156SOL    HW1 1367   4.379   7.008   0.971
  156SOL    HW2 1368   4.458   0.001   1.113
  157SOL     OW 1369   4.917   0.967   0.826
  157SOL    HW1 1370   4.952   0.938   0.737
  157SOL    HW2 1371   4.993   1.000   0.882
  158SOL     OW 1372   1.243   2.779   5.536
  158SOL    HW1 1373   1.243   2.878   5.521
  158SOL    HW2 1374   1.320   2.754   5.595
  159SOL     OW 1375   0.199   5.028   6.730
  159SOL    HW1 1376   0.114   4.985   6.702
  159SOL    HW2 1377   0.276   4.979   6.690
  160SOL     OW 1378   3.955   6.977   1.806
  160SOL    HW1 1379   3.856   6.978   1.790
  160SOL    HW2 1380   3.975   6.921   1.886
  161SOL     OW 1381   5.591   6.670   0.956
  161SOL    HW1 1382   5.494   6.688   0.942
  161SOL    HW2 1383   5.603   6.582   1.003
  162SOL     OW 1384   4.188   0.200   5.050
  162SOL    HW1 1385   4.165   0.113   5.006
  162SOL    HW2 1386   4.253   0.251   4.994
  163SOL     OW 1387   1.380   3.513   2.732
  163SOL    HW1 1388   1.281   3.500   2.739
  163SOL    HW2 1389   1.400   3.609   2.711
  164SOL     OW 1390   1.738   2.508   2.324
  164SOL    HW1 1391   1.689   2.590   2.353
  164SOL    HW2 1392   1.836   2.525   2.328
  165SOL     OW 1393   0.506   5.753   5.072
  165SOL    HW1 1394   0.459   5.766   4.985
  165SOL    HW2 1395   0.577   5.823   5.082
  166SOL     OW 1396   0.568   5.289   3.655
  166SOL    HW1 1397   0.657   5.266   3.617
  166SOL    HW2 1398   0.499   5.285   3.584
  167SOL     OW 1399   0.525   1.361   3.378
  167SOL    HW1 1400   0.529   1.364   3.478
  167SOL    HW2 1401   0.437   1.398   3.348
  168SOL     OW 1402   3.439   4.024   4.627
  168SOL    HW1 1403   3.392   4.087   4.564
  168SOL    HW2 1404   3.417   3.930   4.603
  169SOL     OW 1405   4.918   3.025   6.036
  169SOL    HW1 1406   4.868   2.938   6.036
  169SOL    HW2 1407   4.924   3.060   6.130
  170SOL     OW 1408   6.438   5.334   2.755
  170SOL    HW1 1409   6.485   5.249   2.779
  170SOL    HW2 1410   6.390   5.323   2.668
  171SOL     OW 1411   3.679   3.125   0.953
  171SOL    HW1 1412   3.670   3.084   1.043
  171SOL    HW2 1413   3.594   3.171   0.928
  172SOL     OW 1414   1.783   0.965   0.202
  172SOL    HW1 1415   1.743   0.934   0.116
  172SOL    HW2 1416   1.789   0.888   0.266
  173SOL     OW 1417   5.461   0.870   4.877
  173SOL    HW1 1418   5.492   0.964   4.859
  173SOL    HW2 1419   5.521   0.828   4.945
  174SOL     OW 1420   6.234   4.755   4.422
  174SOL    HW1 1421   6.275   4.846   4.428
  174SOL    HW2 1422   6.230   4.713   4.512
  175SOL     OW 1423   0.589   5.372   2.552
  175SOL    HW1 1424   0.580   5.437   2.628
  175SOL    HW2 1425   0.499   5.355   2.512
  176SOL     OW 1426   5.950   3.922   0.855
  176SOL    HW1 1427   5.895   3.865   0.917
  176SOL    HW2 1428   5.917   3.911   0.761
  177SOL     OW 1429   5.229   2.511   3.385
  177SOL    HW1 1430   5.205   2.418   3.356
  177SOL    HW2 1431   5.300   2.547   3.324
  178SOL     OW 1432   1.819   4.957   4.513
  178SOL    HW1 1433   1.898   5.013   4.488
  178SOL    HW2 1434   1.744   5.017   4.542
  179SOL     OW 1435   2.994   3.871   2.578
  179SOL    HW1 1436   2.926   3.862   2.505
  179SOL    HW2 1437   2.961   3.824   2.660
  180SOL     OW 1438   4.527   0.611   5.790
  180SOL    HW1 1439   4.437   0.576   5.764
  180SOL    HW2 1440   4.598   0.558   5.746
  181SOL     OW 1441   3.169   6.703   5.101
  181SOL    HW1 1442   3.076   6.671   5.119
  181SOL    HW2 1443   3.233   6.626   5.108
  182SOL     OW 1444   3.253   2.658   5.562
  182SOL    HW1 1445   3.333   2.717   5.545
  182SOL    HW2 1446   3.231   2.659   5.659
  183SOL     OW 1447   2.168   0.940   2.976
  183SOL    HW1 1448   2.177   1.013   3.044
  183SOL    HW2 1449   2.258   0.906   2.952
  184SOL     OW 1450   5.814   6.934   3.955
  184SOL    HW1 1451   5.884   6.961   3.889
  184SOL    HW2 1452   5.823   6.837   3.976
  185SOL     OW 1453   0.407   5.901   5.440
  185SOL    HW1 1454   0.491   5.897   5.494
  185SOL    HW2 1455   0.414   5.976   5.374
  186SOL     OW 1456   3.352   5.510   0.676
  186SOL    HW1 1457   3.302   5.528   0.592
  186SOL    HW2 1458   3.367   5.411   0.685
  187SOL     OW 1459   3.692   5.412   0.474
  187SOL    HW1 1460   3.691   5.383   0.569
  187SOL    HW2 1461   3.682   5.512   0.469
  188SOL     OW 1462   1.331   4.164   4.000
  188SOL    HW1 1463   1.360   4.093   3.936
  188SOL    HW2 1464   1.389   4.244   3.989
  189SOL     OW 1465   6.189   3.849   5.640
  189SOL    HW1 1466   6.172   3.795   5.558
  189SOL    HW2 1467   6.131   3.931   5.639
  190SOL     OW 1468   6.057   6.263   6.749
  190SOL    HW1 1469   6.016   6.297   6.833
  190SOL    HW2 1470   6.082   6.167   6.760
  191SOL     OW 1471   2.355   3.439   6.023
  191SOL    HW1 1472   2.301   3.484   6.094
  191SOL    HW2 1473   2.422   3.504   5.986
  192SOL     OW 1474   0.988   6.827   0.511
  192SOL    HW1 1475   0.893   6.850   0.533
  192SOL    HW2 1476   1.022   6.890   0.442
  193SOL     OW 1477   2.691   6.468   1.686
  193SOL    HW1 1478   2.690   6.388   1.627
  193SOL    HW2 1479   2.770   6.526   1.664
  194SOL     OW 1480   4.131   6.234   3.592
  194SOL    HW1 1481   4.172   6.263   3.506
  194SOL    HW2 1482   4.060   6.299   3.618
  195SOL     OW 1483   3.273   1.246   1.468
  195SOL    HW1 1484   3.190   1.191   1.459
  195SOL    HW2 1485   3.353   1.190   1.446
  196SOL     OW 1486   3.901   3.192   1.500
  196SOL    HW1 1487   3.856   3.254   1.435
  196SOL    HW2 1488   3.915   3.240   1.587
  197SOL     OW 1489   0.611   6.816   1.480
  197SOL    HW1 1490   0.706   6.796   1.456
  197SOL    HW2 1491   0.550   6.764   1.419
  198SOL     OW 1492   5.969   0.302   5.702
  198SOL    HW1 1493   6.040   0.234   5.722
  198SOL    HW2 1494   5.879   0.258   5.701
  199SOL     OW 1495   1.863   0.899   3.255
  199SOL    HW1 1496   1.765   0.918   3.268
  199SOL    HW2 1497   1.892   0.932   3.165
  200SOL     OW 1498   1.837   3.387   3.449
  200SOL    HW1 1499   1.742   3.415   3.434
  200SOL    HW2 1500   1.841   3.325   3.527
  201SOL     OW 1501   5.017   1.186   6.818
  201SOL    HW1 1502   4.936   1.223   6.772
  201SOL    HW2 1503   5.012   1.206   6.916
  202SOL     OW 1504   4.291   0.824   3.022
  202SOL    HW1 1505   4.249   0.768   3.093
  202SOL    HW2 1506   4.314   0.914   3.059
  203SOL     OW 1507   5.549   2.871   0.926
  203SOL    HW1 1508   5.570   2.894   0.831
  203SOL    HW2 1509   5.633   2.842   0.972
  204SOL     OW 1510   2.425   5.941   0.708
  204SOL    HW1 1511   2.329   5.921   0.688
  204SOL    HW2 1512   2.460   5.872   0.771
  205SOL     OW 1513   5.217   0.602   1.242
  205SOL    HW1 1514   5.306   0.558   1.246
  205SOL    HW2 1515   5.145   0.533   1.247
  206SOL     OW 1516   6.974   5.678   1.470
  206SOL    HW1 1517   0.001   5.763   1.443
  206SOL    HW2 1518   0.022   5.608   1.489
  207SOL     OW 1519   6.642   2.470   5.516
  207SOL    HW1 1520   6.568   2.483   5.581
  207SOL    HW2 1521   6.655   2.372   5.500
  208SOL     OW 1522   4.933   3.437   1.390
  208SOL    HW1 1523   5.001   3.501   1.354
  208SOL    HW2 1524   4.941   3.350   1.342
  209SOL     OW 1525   6.352   0.594   4.251
  209SOL    HW1 1526   6.342   0.692   4.234
  209SOL    HW2 1527   6.348   0.577   4.350
  210SOL     OW 1528   4.949   2.442   6.865
  210SOL    HW1 1529   4.874   2.404   6.919
  210SOL    HW2 1530   5.034   2.396   6.891
  211SOL     OW 1531   0.180   4.465   2.311
  211SOL    HW1 1532   0.099   4.457   2.252
  211SOL    HW2 1533   0.259   4.427   2.265
  212SOL     OW 1534   1.277   5.532   4.910
  212SOL    HW1 1535   1.297   5.628   4.888
  212SOL    HW2 1536   1.233   5.527   4.999
  213SOL     OW 1537   4.267   2.304   1.690
  213SOL    HW1 1538   4.292   2.258   1.775
  213SOL    HW2 1539   4.234   2.397   1.711
  214SOL     OW 1540   0.415   5.522   4.008
  214SOL    HW1 1541   0.417   5.426   3.980
  214SOL    HW2 1542   0.447   5.579   3.932
  215SOL     OW 1543   4.092   3.643   3.717
  215SOL    HW1 1544   4.127   3.630   3.810
  215SOL    HW2 1545   4.063   3.555   3.680
  216SOL     OW 1546   3.969   6.700   4.676
  216SOL    HW1 1547   3.892   6.651   4.717
  216SOL    HW2 1548   3.981   6.670   4.582
  217SOL     OW 1549   6.291   2.123   5.004
  217SOL    HW1 1550   6.237   2.059   5.059
  217SOL    HW2 1551   6.271   2.217   5.035
  218SOL     OW 1552   2.526   4.383   5.921
  218SOL    HW1 1553   2.537   4.446   5.998
  218SOL    HW2 1554   2.613   4.374   5.873
  219SOL     OW 1555   3.601   6.413   6.591
  219SOL    HW1 1556   3.524   6.355   6.617
  219SOL    HW2 1557   3.648   6.444   6.673
  220SOL     OW 1558   1.233   5.044   0.396
  220SOL    HW1 1559   1.290   5.126   0.401
  220SOL    HW2 1560   1.278   4.976   0.338
  221SOL     OW 1561   6.294   4.283   4.817
  221SOL    HW1 1562   6.332   4.372   4.842
  221SOL    HW2 1563   6.216   4.296   4.755
  222SOL     OW 1564   1.677   0.459   4.468
  222SOL    HW1 1565   1.592   0.510   4.476
  222SOL    HW2 1566   1.684   0.393   4.543
  223SOL     OW 1567   5.746   5.478   1.742
  223SOL    HW1 1568   5.719   5.575   1.744
  223SOL    HW2 1569   5.809   5.460   1.818
  224SOL     OW 1570   5.289   4.314   2.491
  224SOL    HW1 1571   5.231   4.234   2.508
  224SOL    HW2 1572   5.233   4.389   2.455
  225SOL     OW 1573   4.314   5.986   2.048
  225SOL    HW1 1574   4.221   5.949   2.043
  225SOL    HW2 1575   4.358   5.957   2.132
  226SOL     OW 1576   1.671   5.849   2.211
  226SOL    HW1 1577   1.604   5.825   2.141
  226SOL    HW2 1578   1.761   5.857   2.168
  227SOL     OW 1579   0.660   3.921   2.663
  227SOL    HW1 1580   0.565   3.896   2.644
  227SOL    HW2 1581   0.668   4.021   2.665
  228SOL     OW 1582   3.954   5.837   3.588
  228SOL    HW1 1583   3.926   5.786   3.669
  228SOL    HW2 1584   4.049   5.866   3.598
  229SOL     OW 1585   5.913   6.218   2.668
  229SOL    HW1 1586   5.874   6.134   2.704
  229SOL    HW2 1587   6.012   6.219   2.684
  230SOL     OW 1588   1.222   4.443   5.305
  230SOL    HW1 1589   1.142   4.481   5.260
  230SOL    HW2 1590   1.237   4.489   5.393
  231SOL     OW 1591   0.346   1.776   6.500
  231SOL    HW1 1592   0.355   1.814   6.593
  231SOL    HW2 1593   0.303   1.686   6.505
  232SOL     OW 1594   1.946   3.094   7.019
  232SOL    HW1 1595   2.011   3.054   6.956
  232SOL    HW2 1596   1.973   3.188   0.021
  233SOL     OW 1597   3.619   6.916   0.556
  233SOL    HW1 1598   3.523   6.892   0.572
  233SOL    HW2 1599   3.634   6.929   0.459
  234SOL     OW 1600   1.537   4.864   0.005
  234SOL    HW1 1601   1.453   4.868   0.060
  234SOL    HW2 1602   1.615   4.843   0.065
  235SOL     OW 1603   4.004   3.211   5.905
  235SOL    HW1 1604   4.011   3.248   5.812
  235SOL    HW2 1605   3.982   3.114   5.900
  236SOL     OW 1606   6.996   0.268   6.660
  236SOL    HW1 1607   6.909   0.256   6.613
  236SOL    HW2 1608   6.984   0.252   6.758
  237SOL     OW 1609   6.211   0.032   2.251
  237SOL    HW1 1610   6.244   0.088   2.327
  237SOL    HW2 1611   6.111   0.031   2.251
  238SOL     OW 1612   0.831   2.057   2.963
  238SOL    HW1 1613   0.863   2.131   2.903
  238SOL    HW2 1614   0.773   1.995   2.910
  239SOL     OW 1615   6.626   5.016   6.516
  239SOL    HW1 1616   6.652   4.957   6.592
  239SOL    HW2 1617   6.654   4.973   6.430
  240SOL     OW 1618   0.123   2.878   4.193
  240SOL    HW1 1619   0.132   2.837   4.102
  240SOL    HW2 1620   0.171   2.822   4.261
  241SOL     OW 1621   6.454   2.609   4.246
  241SOL    HW1 1622   6.504   2.686   4.206
  241SOL    HW2 1623   6.410   2.639   4.331
  242SOL     OW 1624   2.804   2.298   3.356
  242SOL    HW1 1625   2.889   2.261   3.321
  242SOL    HW2 1626   2.802   2.290   3.456
  243SOL     OW 1627   4.946   1.367   6.470
  243SOL    HW1 1628   5.044   1.384   6.475
  243SOL    HW2 1629   4.925   1.279   6.514
  244SOL     OW 1630   1.361   0.512   5.914
  244SOL    HW1 1631   1.348   0.507   5.815
  244SOL    HW2 1632   1.430   0.580   5.936
  245SOL     OW 1633   4.855   1.853   4.758
  245SOL    HW1 1634   4.925   1.862   4.828
  245SOL    HW2 1635   4.782   1.793   4.791
  246SOL     OW 1636   5.904   3.855   4.386
  246SOL    HW1 1637   5.974   3.851   4.315
  246SOL    HW2 1638   5.830   3.791   4.364
  247SOL     OW 1639   2.057   0.274   2.999
  247SOL    HW1 1640   2.137   0.258   2.940
  247SOL    HW2 1641   2.088   0.302   3.090
  248SOL     OW 1642   6.787   2.689   3.389
  248SOL    HW1 1643   6.802   2.672   3.292
  248SOL    HW2 1644   6.777   2.788   3.404
  249SOL     OW 1645   2.147   6.047   4.977
  249SOL    HW1 1646   2.055   6.012   4.958
  249SOL    HW2 1647   2.210   5.971   4.991
  250SOL     OW 1648   5.717   3.082   6.792
  250SOL    HW1 1649   5.779   3.018   6.748
  250SOL    HW2 1650   5.670   3.137   6.723
  251SOL     OW 1651   2.342   0.066   1.988
  251SOL    HW1 1652   2.406   7.011   2.006
  251SOL    HW2 1653   2.388   0.154   2.003
  252SOL     OW 1654   6.655   2.900   6.652
  252SOL    HW1 1655   6.713   2.830   6.693
  252SOL    HW2 1656   6.643   2.975   6.717
  253SOL     OW 1657   1.755   4.508   5.576
  253SOL    HW1 1658   1.756   4.581   5.508
  253SOL    HW2 1659   1.765   4.548   5.667
  254SOL     OW 1660   4.711   3.321   6.857
  254SOL    HW1 1661   4.792   3.265   6.876
  254SOL    HW2 1662   4.663   3.340   6.942
  255SOL     OW 1663   4.221   2.289   2.099
  255SOL    HW1 1664   4.286   2.272   2.025
  255SOL    HW2 1665   4.134   2.246   2.077
  256SOL     OW 1666   0.437   6.399   1.455
  256SOL    HW1 1667   0.456   6.467   1.384
  256SOL    HW2 1668   0.341   6.373   1.451
  257SOL     OW 1669   3.150   5.877   6.488
  257SOL    HW1 1670   3.217   5.928   6.433
  257SOL    HW2 1671   3.092   5.822   6.428
  258SOL     OW 1672   4.881   5.614   4.304
  258SOL    HW1 1673   4.916   5.650   4.217
  258SOL    HW2 1674   4.789   5.649   4.319
  259SOL     OW 1675   0.028   1.178   2.119
  259SOL    HW1 1676   0.091   1.114   2.162
  259SOL    HW2 1677   6.959   1.133   2.107
  260SOL     OW 1678   5.966   6.818   5.590
  260SOL    HW1 1679   5.995   6.722   5.593
  260SOL    HW2 1680   6.044   6.877   5.607
  261SOL     OW 1681   0.639   1.401   3.155
  261SOL    HW1 1682   0.590   1.374   3.238
  261SOL    HW2 1683   0.664   1.497   3.161
  262SOL     OW 1684   1.885   5.379   1.028
  262SOL    HW1 1685   1.826   5.419   0.957
  262SOL    HW2 1686   1.829   5.349   1.105
  263SOL     OW 1687   0.915   5.187   4.868
  263SOL    HW1 1688   0.823   5.175   4.905
  263SOL    HW2 1689   0.980   5.135   4.923
  264SOL     OW 1690   3.679   3.842   0.789
  264SOL    HW1 1691   3.616   3.861   0.865
  264SOL    HW2 1692   3.653   3.895   0.709
  265SOL     OW 1693   4.552   5.436   4.192
  265SOL    HW1 1694   4.627   5.373   4.175
  265SOL    HW2 1695   4.587   5.520   4.235
  266SOL     OW 1696   4.365   3.828   6.901
  266SOL    HW1 1697   4.389   3.855   6.994
  266SOL    HW2 1698   4.442   3.778   6.860
  267SOL     OW 1699   2.589   1.781   6.385
  267SOL    HW1 1700   2.684   1.806   6.368
  267SOL    HW2 1701   2.535   1.864   6.399
  268SOL     OW 1702   1.343   3.767   2.569
  268SOL    HW1 1703   1.281   3.768   2.490
  268SOL    HW2 1704   1.310   3.831   2.638
  269SOL     OW 1705   3.078   1.205   6.225
  269SOL    HW1 1706   3.133   1.123   6.213
  269SOL    HW2 1707   3.003   1.206   6.159
  270SOL     OW 1708   5.554   5.163   4.654
  270SOL    HW1 1709   5.588   5.242   4.705
  270SOL    HW2 1710   5.458   5.148   4.674
  271SOL     OW 1711   2.366   0.845   0.213
  271SOL    HW1 1712   2.277   0.884   0.193
  271SOL    HW2 1713   2.418   0.909   0.271
  272SOL     OW 1714   5.481   4.364   0.156
  272SOL    HW1 1715   5.526   4.394   0.072
  272SOL    HW2 1716   5.456   4.444   0.211
  273SOL     OW 1717   0.547   5.781   4.298
  273SOL    HW1 1718   0.553   5.853   4.228
  273SOL    HW2 1719   0.571   5.693   4.257
  274SOL     OW 1720   5.086   3.177   2.234
  274SOL    HW1 1721   5.090   3.243   2.159
  274SOL    HW2 1722   5.179   3.158   2.266
  275SOL     OW 1723   5.798   4.830   5.471
  275SOL    HW1 1724   5.735   4.845   5.395
  275SOL    HW2 1725   5.750   4.783   5.546
  276SOL     OW 1726   0.911   0.411   4.612
  276SOL    HW1 1727   0.812   0.430   4.613
  276SOL    HW2 1728   0.960   0.495   4.590
  277SOL     OW 1729   4.291   3.425   5.910
  277SOL    HW1 1730   4.233   3.349   5.940
  277SOL    HW2 1731   4.361   3.390   5.847
  278SOL     OW 1732   6.249   4.922   1.797
  278SOL    HW1 1733   6.246   4.982   1.717
  278SOL    HW2 1734   6.163   4.873   1.806
  279SOL     OW 1735   6.660   3.269   4.214
  279SOL    HW1 1736   6.740   3.300   4.162
  279SOL    HW2 1737   6.677   3.178   4.252
  280SOL     OW 1738   4.522   0.874   2.834
  280SOL    HW1 1739   4.466   0.940   2.782
  280SOL    HW2 1740   4.468   0.838   2.910
  281SOL     OW 1741   5.169   5.759   5.867
  281SOL    HW1 1742   5.183   5.678   5.923
  281SOL    HW2 1743   5.118   5.828   5.919
  282SOL     OW 1744   0.704   1.822   6.855
  282SOL    HW1 1745   0.746   1.836   6.765
  282SOL    HW2 1746   0.658   1.734   6.857
  283SOL     OW 1747   6.216   4.145   1.957
  283SOL    HW1 1748   6.143   4.213   1.950
  283SOL    HW2 1749   6.206   4.094   2.042
  284SOL     OW 1750   5.819   6.974   2.603
  284SOL    HW1 1751   5.875   0.009   2.664
  284SOL    HW2 1752   5.768   0.014   2.541
  285SOL     OW 1753   4.888   6.177   6.239
  285SOL    HW1 1754   4.985   6.194   6.258
  285SOL    HW2 1755   4.835   6.191   6.322
  286SOL     OW 1756   3.537   5.733   5.353
  286SOL    HW1 1757   3.495   5.823   5.352
  286SOL    HW2 1758   3.557   5.704   5.260
  287SOL     OW 1759   3.786   6.369   0.953
  287SOL    HW1 1760   3.871   6.363   0.901
  287SOL    HW2 1761   3.781   6.457   1.000
  288SOL     OW 1762   3.133   0.977   0.683
  288SOL    HW1 1763   3.098   1.008   0.771
  288SOL    HW2 1764   3.233   0.981   0.683
  289SOL     OW 1765   5.170   4.901   4.750
  289SOL    HW1 1766   5.111   4.874   4.826
  289SOL    HW2 1767   5.239   4.831   4.734
  290SOL     OW 1768   2.732   1.113   4.834
  290SOL    HW1 1769   2.672   1.119   4.913
  290SOL    HW2 1770   2.704   1.036   4.777
  291SOL     OW 1771   6.041   1.375   4.978
  291SOL    HW1 1772   6.101   1.411   4.906
  291SOL    HW2 1773   6.056   1.427   5.062
  292SOL     OW 1774   2.089   0.667   3.862
  292SOL    HW1 1775   2.062   0.653   3.767
  292SOL    HW2 1776   2.164   0.733   3.867
  293SOL     OW 1777   5.681   0.909   3.168
  293SOL    HW1 1778   5.658   0.960   3.085
  293SOL    HW2 1779   5.741   0.833   3.144
  294SOL     OW 1780   6.555   0.908   6.616
  294SOL    HW1 1781   6.581   0.813   6.627
  294SOL    HW2 1782   6.525   0.923   6.521
  295SOL     OW 1783   0.564   1.028   5.014
  295SOL    HW1 1784   0.613   1.090   5.076
  295SOL    HW2 1785   0.579   0.934   5.043
  296SOL     OW 1786   6.963   1.080   6.639
  296SOL    HW1 1787   6.960   1.011   6.711
  296SOL    HW2 1788   7.004   1.164   6.675
  297SOL     OW 1789   5.164   4.253   2.813
  297SOL    HW1 1790   5.113   4.322   2.762
  297SOL    HW2 1791   5.109   4.170   2.822
  298SOL     OW 1792   3.991   6.720   5.174
  298SOL    HW1 1793   3.964   6.774   5.094
  298SOL    HW2 1794   3.943   6.633   5.173
  299SOL     OW 1795   0.159   1.142   6.041
  299SOL    HW1 1796   0.254   1.153   6.070
  299SOL    HW2 1797   0.100   1.200   6.097
  300SOL     OW 1798   4.149   6.168   4.532
  300SOL    HW1 1799   4.050   6.171   4.522
  300SOL    HW2 1800   4.174   6.191   4.626
  301SOL     OW 1801   6.553   6.849   5.118
  301SOL    HW1 1802   6.528   6.776   5.181
  301SOL    HW2 1803   6.512   6.831   5.028
  302SOL     OW 1804   0.662   6.667   2.204
  302SOL    HW1 1805   0.686   6.661   2.301
  302SOL    HW2 1806   0.745   6.673   2.149
  303SOL     OW 1807   4.853   5.629   2.687
  303SOL    HW1 1808   4.765   5.585   2.707
  303SOL    HW2 1809   4.912   5.565   2.638
  304SOL     OW 1810   1.425   1.449   4.941
  304SOL    HW1 1811   1.452   1.353   4.954
  304SOL    HW2 1812   1.507   1.504   4.929
  305SOL     OW 1813   2.958   1.887   1.296
  305SOL    HW1 1814   3.056   1.875   1.281
  305SOL    HW2 1815   2.917   1.798   1.319
  306SOL     OW 1816   0.455   6.450   2.989
  306SOL    HW1 1817   0.513   6.385   3.037
  306SOL    HW2 1818   0.482   6.543   3.014
  307SOL     OW 1819   3.949   3.784   4.935
  307SOL    HW1 1820   4.028   3.790   4.875
  307SOL    HW2 1821   3.898   3.700   4.917
  308SOL     OW 1822   6.236   3.076   1.101
  308SOL    HW1 1823   6.226   3.049   1.005
  308SOL    HW2 1824   6.304   3.016   1.145
  309SOL     OW 1825   1.956   5.166   0.409
  309SOL    HW1 1826   2.006   5.201   0.488
  309SOL    HW2 1827   1.922   5.074   0.429
  310SOL     OW 1828   5.052   6.328   5.461
  310SOL    HW1 1829   5.061   6.398   5.532
  310SOL    HW2 1830   5.070   6.238   5.500
  311SOL     OW 1831   1.544   6.420   2.096
  311SOL    HW1 1832   1.629   6.373   2.117
  311SOL    HW2 1833   1.524   6.411   1.998
  312SOL     OW 1834   3.221   0.563   4.417
  312SOL    HW1 1835   3.220   0.643   4.357
  312SOL    HW2 1836   3.310   0.517   4.409
  313SOL     OW 1837   3.741   3.177   3.485
  313SOL    HW1 1838   3.650   3.218   3.482
  313SOL    HW2 1839   3.796   3.224   3.555
  314SOL     OW 1840   2.237   4.588   6.198
  314SOL    HW1 1841   2.316   4.650   6.198
  314SOL    HW2 1842   2.173   4.616   6.269
  315SOL     OW 1843   5.813   0.188   4.767
  315SOL    HW1 1844   5.760   0.123   4.822
  315SOL    HW2 1845   5.804   0.165   4.670
  316SOL     OW 1846   4.044   1.089   4.903
  316SOL    HW1 1847   4.143   1.093   4.917
  316SOL    HW2 1848   4.021   1.129   4.814
  317SOL     OW 1849   0.529   1.378   1.894
  317SOL    HW1 1850   0.613   1.416   1.933
  317SOL    HW2 1851   0.552   1.307   1.827
  318SOL     OW 1852   1.102   1.599   3.702
  318SOL    HW1 1853   1.120   1.660   3.780
  318SOL    HW2 1854   1.038   1.643   3.639
  319SOL     OW 1855   0.309   1.983   2.136
  319SOL    HW1 1856   0.268   2.064   2.178
  319SOL    HW2 1857   0.280   1.978   2.040
  320SOL     OW 1858   5.168   1.147   6.571
  320SOL    HW1 1859   5.131   1.160   6.663
  320SOL    HW2 1860   5.211   1.231   6.540
  321SOL     OW 1861   4.077   3.470   1.356
  321SOL    HW1 1862   4.099   3.374   1.371
  321SOL    HW2 1863   3.980   3.485   1.378
  322SOL     OW 1864   2.919   1.989   0.511
  322SOL    HW1 1865   2.867   1.908   0.538
  322SOL    HW2 1866   2.990   1.963   0.446
  323SOL     OW 1867   0.553   4.392   1.954
  323SOL    HW1 1868   0.498   4.454   2.010
  323SOL    HW2 1869   0.523   4.397   1.858
  324SOL     OW 1870   6.279   0.316   3.678
  324SOL    HW1 1871   6.273   0.369   3.593
  324SOL    HW2 1872   6.361   0.343   3.728
  325SOL     OW 1873   6.560   2.673   0.729
  325SOL    HW1 1874   6.495   2.599   0.710
  325SOL    HW2 1875   6.540   2.752   0.671
  326SOL     OW 1876   6.236   5.784   6.184
  326SOL    HW1 1877   6.264   5.876   6.157
  326SOL    HW2 1878   6.138   5.783   6.203
  327SOL     OW 1879   4.220   6.109   6.338
  327SOL    HW1 1880   4.152   6.104   6.411
  327SOL    HW2 1881   4.288   6.179   6.361
  328SOL     OW 1882   2.158   4.330   3.493
  328SOL    HW1 1883   2.123   4.404   3.435
  328SOL    HW2 1884   2.224   4.367   3.558
  329SOL     OW 1885   3.145   3.015   2.942
  329SOL    HW1 1886   3.087   3.050   2.869
  329SOL    HW2 1887   3.235   3.059   2.937
  330SOL     OW 1888   2.312   4.021   6.536
  330SOL    HW1 1889   2.303   3.982   6.445
  330SOL    HW2 1890   2.397   3.989   6.579
  331SOL     OW 1891   5.073   5.683   3.841
  331SOL    HW1 1892   5.167   5.719   3.841
  331SOL    HW2 1893   5.009   5.757   3.821
  332SOL     OW 1894   6.493   2.231   2.836
  332SOL    HW1 1895   6.471   2.326   2.860
  332SOL    HW2 1896   6.410   2.176   2.837
  333SOL     OW 1897   3.228   6.430   3.705
  333SOL    HW1 1898   3.133   6.420   3.677
  333SOL    HW2 1899   3.233   6.484   3.789
  334SOL     OW 1900   3.801   3.380   4.644
  334SOL    HW1 1901   3.745   3.319   4.701
  334SOL    HW2 1902   3.880   3.329   4.609
  335SOL     OW 1903   4.048   1.212   0.338
  335SOL    HW1 1904   4.130   1.262   0.369
  335SOL    HW2 1905   4.076   1.129   0.290
  336SOL     OW 1906   3.806   2.052   4.805
  336SOL    HW1 1907   3.826   2.124   4.872
  336SOL    HW2 1908   3.731   2.081   4.746
  337SOL     OW 1909   1.168   1.997   5.114
  337SOL    HW1 1910   1.176   2.038   5.205
  337SOL    HW2 1911   1.144   2.067   5.048
  338SOL     OW 1912   4.964   1.412   1.838
  338SOL    HW1 1913   5.026   1.461   1.900
  338SOL    HW2 1914   4.874   1.454   1.842
  339SOL     OW 1915   3.303   4.887   5.506
  339SOL    HW1 1916   3.280   4.960   5.569
  339SOL    HW2 1917   3.399   4.897   5.477
  340SOL     OW 1918   5.493   3.959   4.716
  340SOL    HW1 1919   5.510   3.945   4.814
  340SOL    HW2 1920   5.485   3.870   4.671
  341SOL     OW 1921   6.121   0.411   1.571
  341SOL    HW1 1922   6.111   0.503   1.608
  341SOL    HW2 1923   6.120   0.344   1.645
  342SOL     OW 1924   4.828   1.019   1.380
  342SOL    HW1 1925   4.729   1.004   1.374
  342SOL    HW2 1926   4.861   1.059   1.295
  343SOL     OW 1927   5.638   0.636   1.875
  343SOL    HW1 1928   5.653   0.582   1.792
  343SOL    HW2 1929   5.541   0.655   1.885
  344SOL     OW 1930   6.520   2.821   1.347
  344SOL    HW1 1931   6.454   2.806   1.273
  344SOL    HW2 1932   6.571   2.905   1.330
  345SOL     OW 1933   0.376   3.490   3.676
  345SOL    HW1 1934   0.286   3.465   3.640
  345SOL    HW2 1935   0.418   3.409   3.719
  346SOL     OW 1936   0.821   0.324   3.128
  346SOL    HW1 1937   0.883   0.249   3.107
  346SOL    HW2 1938   0.784   0.362   3.043
  347SOL     OW 1939   1.819   4.099   1.501
  347SOL    HW1 1940   1.839   4.017   1.449
  347SOL    HW2 1941   1.762   4.161   1.446
  348SOL     OW 1942   5.789   5.026   1.007
  348SOL    HW1 1943   5.833   5.104   0.962
  348SOL    HW2 1944   5.818   4.941   0.961
  349SOL     OW 1945   6.064   5.541   0.000
  349SOL    HW1 1946   6.061   5.585   6.931
  349SOL    HW2 1947   5.972   5.534   0.037
  350SOL     OW 1948   2.420   0.193   0.660
  350SOL    HW1 1949   2.401   0.102   0.623
  350SOL    HW2 1950   2.447   0.254   0.586
  351SOL     OW 1951   3.571   4.260   1.084
  351SOL    HW1 1952   3.494   4.216   1.038
  351SOL    HW2 1953   3.652   4.202   1.074
  352SOL     OW 1954   3.812   0.743   2.187
  352SOL    HW1 1955   3.842   0.741   2.283
  352SOL    HW2 1956   3.731   0.685   2.177
  353SOL     OW 1957   2.814   5.928   0.542
  353SOL    HW1 1958   2.809   5.946   0.444
  353SOL    HW2 1959   2.770   6.002   0.592
  354SOL     OW 1960   2.214   2.277   0.401
  354SOL    HW1 1961   2.161   2.197   0.431
  354SOL    HW2 1962   2.263   2.255   0.317
  355SOL     OW 1963   0.342   2.546   2.151
  355SOL    HW1 1964   0.347   2.532   2.052
  355SOL    HW2 1965   0.376   2.637   2.174
  356SOL     OW 1966   3.117   0.095   5.950
  356SOL    HW1 1967   3.097   0.018   5.889
  356SOL    HW2 1968   3.096   0.068   6.044
  357SOL     OW 1969   6.374   6.089   4.557
  357SOL    HW1 1970   6.451   6.105   4.494
  357SOL    HW2 1971   6.334   5.999   4.539
  358SOL     OW 1972   3.486   5.876   0.178
  358SOL    HW1 1973   3.425   5.799   0.161
  358SOL    HW2 1974   3.577   5.855   0.143
  359SOL     OW 1975   1.717   2.426   0.820
  359SOL    HW1 1976   1.790   2.481   0.861
  359SOL    HW2 1977   1.756   2.366   0.751
  360SOL     OW 1978   2.003   4.311   2.850
  360SOL    HW1 1979   1.983   4.221   2.810
  360SOL    HW2 1980   2.065   4.361   2.790
  361SOL     OW 1981   6.201   3.089   2.264
  361SOL    HW1 1982   6.193   3.108   2.362
  361SOL    HW2 1983   6.272   3.147   2.224
  362SOL     OW 1984   4.022   3.661   2.990
  362SOL    HW1 1985   4.045   3.665   2.893
  362SOL    HW2 1986   4.102   3.631   3.043
  363SOL     OW 1987   4.815   5.292   0.724
  363SOL    HW1 1988   4.826   5.338   0.812
  363SOL    HW2 1989   4.899   5.244   0.701
  364SOL     OW 1990   1.191   0.707   0.427
  364SOL    HW1 1991   1.280   0.752   0.435
  364SOL    HW2 1992   1.163   0.671   0.515
  365SOL     OW 1993   4.781   0.419   4.020
  365SOL    HW1 1994   4.812   0.458   4.107
  365SOL    HW2 1995   4.703   0.471   3.986
  366SOL     OW 1996   5.245   1.692   0.171
  366SOL    HW1 1997   5.281   1.777   0.133
  366SOL    HW2 1998   5.320   1.636   0.204
  367SOL     OW 1999   6.132   0.162   6.855
  367SOL    HW1 2000   6.209   0.108   6.823
  367SOL    HW2 2001   6.106   0.134   6.947
  368SOL     OW 2002   2.695   1.323   5.840
  368SOL    HW1 2003   2.707   1.272   5.755
  368SOL    HW2 2004   2.599   1.318   5.869
  369SOL     OW 2005   4.930   3.758   0.139
  369SOL    HW1 2006   4.933   3.778   0.237
  369SOL    HW2 2007   5.009   3.799   0.093
  370SOL     OW 2008   1.787   2.033   3.654
  370SOL    HW1 2009   1.703   1.989   3.624
  370SOL    HW2 2010   1.862   2.007   3.592
  371SOL     OW 2011   2.917   4.526   0.602
  371SOL    HW1 2012   2.878   4.437   0.577
  371SOL    HW2 2013   2.843   4.590   0.625
  372SOL     OW 2014   2.997   6.116   5.938
  372SOL    HW1 2015   3.077   6.176   5.934
  372SOL    HW2 2016   2.919   6.162   5.896
  373SOL     OW 2017   5.463   4.295   2.851
  373SOL    HW1 2018   5.377   4.270   2.806
  373SOL    HW2 2019   5.487   4.224   2.917
  374SOL     OW 2020   2.514   2.490   2.356
  374SOL    HW1 2021   2.503   2.577   2.307
  374SOL    HW2 2022   2.457   2.492   2.439
  375SOL     OW 2023   0.255   5.366   3.613
  375SOL    HW1 2024   0.222   5.359   3.707
  375SOL    HW2 2025   0.301   5.454   3.600
  376SOL     OW 2026   4.592   0.754   3.598
  376SOL    HW1 2027   4.676   0.722   3.641
  376SOL    HW2 2028   4.552   0.681   3.543
  377SOL     OW 2029   2.536   3.203   6.108
  377SOL    HW1 2030   2.449   3.176   6.149
  377SOL    HW2 2031   2.521   3.273   6.038
  378SOL     OW 2032   4.304   0.586   1.353
  378SOL    HW1 2033   4.249   0.626   1.279
  378SOL    HW2 2034   4.366   0.517   1.315
  379SOL     OW 2035   3.160   3.511   0.245
  379SOL    HW1 2036   3.121   3.436   0.298
  379SOL    HW2 2037   3.248   3.483   0.207
  380SOL     OW 2038   4.703   1.815   0.105
  380SOL    HW1 2039   4.615   1.789   0.146
  380SOL    HW2 2040   4.734   1.901   0.146
  381SOL     OW 2041   0.544   3.254   2.231
  381SOL    HW1 2042   0.470   3.234   2.166
  381SOL    HW2 2043   0.590   3.168   2.256
  382SOL     OW 2044   6.142   0.316   0.680
  382SOL    HW1 2045   6.097   0.277   0.600
  382SOL    HW2 2046   6.134   0.253   0.757
  383SOL     OW 2047   5.300   3.250   1.058
  383SOL    HW1 2048   5.208   3.251   1.018
  383SOL    HW2 2049   5.298   3.296   1.147
  384SOL     OW 2050   0.748   2.900   4.708
  384SOL    HW1 2051   0.680   2.827   4.710
  384SOL    HW2 2052   0.833   2.866   4.667
  385SOL     OW 2053   4.984   3.174   0.012
  385SOL    HW1 2054   4.959   3.096   6.976
  385SOL    HW2 2055   5.080   3.197   7.017
  386SOL     OW 2056   3.237   5.901   5.264
  386SOL    HW1 2057   3.230   5.945   5.174
  386SOL    HW2 2058   3.193   5.811   5.260
  387SOL     OW 2059   2.220   6.451   3.794
  387SOL    HW1 2060   2.199   6.542   3.760
  387SOL    HW2 2061   2.304   6.454   3.847
  388SOL     OW 2062   1.231   5.610   5.566
  388SOL    HW1 2063   1.232   5.510   5.569
  388SOL    HW2 2064   1.221   5.640   5.471
  389SOL     OW 2065   3.563   2.369   0.049
  389SOL    HW1 2066   3.648   2.381   7.017
  389SOL    HW2 2067   3.518   2.285   0.021
  390SOL     OW 2068   3.386   1.503   4.165
  390SOL    HW1 2069   3.299   1.474   4.125
  390SOL    HW2 2070   3.374   1.593   4.208
  391SOL     OW 2071   0.694   1.459   0.443
  391SOL    HW1 2072   0.683   1.363   0.419
  391SOL    HW2 2073   0.605   1.503   0.449
  392SOL     OW 2074   4.257   5.588   4.290
  392SOL    HW1 2075   4.303   5.504   4.260
  392SOL    HW2 2076   4.319   5.666   4.279
  393SOL     OW 2077   6.110   3.061   5.932
  393SOL    HW1 2078   6.046   3.132   5.902
  393SOL    HW2 2079   6.152   3.018   5.852
  394SOL     OW 2080   1.842   1.176   6.467
  394SOL    HW1 2081   1.868   1.222   6.382
  394SOL    HW2 2082   1.824   1.244   6.538
  395SOL     OW 2083   6.911   3.149   0.931
  395SOL    HW1 2084   6.954   3.061   0.908
  395SOL    HW2 2085   6.855   3.179   0.854
  396SOL     OW 2086   4.029   2.777   5.642
  396SOL    HW1 2087   4.009   2.852   5.578
  396SOL    HW2 2088   3.991   2.692   5.606
  397SOL     OW 2089   4.649   7.011   6.464
  397SOL    HW1 2090   4.710   6.951   6.413
  397SOL    HW2 2091   4.562   6.965   6.480
  398SOL     OW 2092   6.270   4.283   2.538
  398SOL    HW1 2093   6.296   4.235   2.455
  398SOL    HW2 2094   6.209   4.226   2.592
  399SOL     OW 2095   2.974   5.696   1.415
  399SOL    HW1 2096   3.058   5.643   1.402
  399SOL    HW2 2097   2.900   5.657   1.359
  400SOL     OW 2098   2.282   4.439   5.821
  400SOL    HW1 2099   2.375   4.420   5.853
  400SOL    HW2 2100   2.252   4.367   5.758
  401SOL     OW 2101   6.144   1.417   1.504
  401SOL    HW1 2102   6.224   1.367   1.538
  401SOL    HW2 2103   6.073   1.418   1.575
  402SOL     OW 2104   0.541   5.554   0.732
  402SOL    HW1 2105   0.514   5.627   0.794
  402SOL    HW2 2106   0.617   5.503   0.772
  403SOL     OW 2107   5.041   4.853   0.645
  403SOL    HW1 2108   5.070   4.874   0.551
  403SOL    HW2 2109   4.943   4.872   0.653
  404SOL     OW 2110   7.002   5.836   4.742
  404SOL    HW1 2111   0.026   5.924   4.762
  404SOL    HW2 2112   0.034   5.788   4.671
  405SOL     OW 2113   1.093   1.388   1.446
  405SOL    HW1 2114   1.022   1.441   1.493
  405SOL    HW2 2115   1.141   1.332   1.513
  406SOL     OW 2116   1.036   3.053   3.967
  406SOL    HW1 2117   1.026   3.150   3.990
  406SOL    HW2 2118   1.079   3.045   3.877
  407SOL     OW 2119   3.389   2.043   3.899
  407SOL    HW1 2120   3.340   2.065   3.984
  407SOL    HW2 2121   3.333   2.070   3.820
  408SOL     OW 2122   2.310   0.344   3.775
  408SOL    HW1 2123   2.340   0.438   3.783
  408SOL    HW2 2124   2.221   0.333   3.821
  409SOL     OW 2125   0.052   4.566   4.505
  409SOL    HW1 2126   0.151   4.579   4.510
  409SOL    HW2 2127   0.021   4.513   4.584
  410SOL     OW 2128   2.691   6.499   6.034
  410SOL    HW1 2129   2.660   6.505   6.129
  410SOL    HW2 2130   2.651   6.419   5.991
  411SOL     OW 2131   0.266   4.142   5.632
  411SOL    HW1 2132   0.200   4.180   5.696
  411SOL    HW2 2133   0.333   4.212   5.608
  412SOL     OW 2134   3.386   6.428   2.910
  412SOL    HW1 2135   3.384   6.523   2.882
  412SOL    HW2 2136   3.306   6.408   2.968
  413SOL     OW 2137   1.881   0.489   1.911
  413SOL    HW1 2138   1.911   0.577   1.875
  413SOL    HW2 2139   1.886   0.489   2.011
  414SOL     OW 2140   5.050   4.766   1.133
  414SOL    HW1 2141   5.131   4.708   1.129
  414SOL    HW2 2142   4.971   4.716   1.097
  415SOL     OW 2143   3.887   0.006   3.089
  415SOL    HW1 2144   3.980   7.012   3.054
  415SOL    HW2 2145   3.821   7.006   3.018
  416SOL     OW 2146   3.725   5.774   0.087
  416SOL    HW1 2147   3.811   5.747   0.130
  416SOL    HW2 2148   3.743   5.803   7.014
  417SOL     OW 2149   5.108   5.473   0.768
  417SOL    HW1 2150   5.067   5.533   0.700
  417SOL    HW2 2151   5.063   5.487   0.856
  418SOL     OW 2152   0.156   5.236   6.556
  418SOL    HW1 2153   0.084   5.282   6.608
  418SOL    HW2 2154   0.176   5.147   6.597
  419SOL     OW 2155   4.934   5.373   6.502
  419SOL    HW1 2156   5.029   5.359   6.476
  419SOL    HW2 2157   4.930   5.437   6.579
  420SOL     OW 2158   5.740   3.816   6.695
  420SOL    HW1 2159   5.660   3.792   6.750
  420SOL    HW2 2160   5.712   3.875   6.619
  421SOL     OW 2161   1.570   5.963   6.248
  421SOL    HW1 2162   1.642   5.939   6.183
  421SOL    HW2 2163   1.487   5.914   6.225
  422SOL     OW 2164   6.304   3.692   6.448
  422SOL    HW1 2165   6.274   3.712   6.355
  422SOL    HW2 2166   6.254   3.613   6.484
  423SOL     OW 2167   1.059   3.382   6.147
  423SOL    HW1 2168   0.966   3.402   6.179
  423SOL    HW2 2169   1.121   3.455   6.176
  424SOL     OW 2170   2.190   4.341   6.058
  424SOL    HW1 2171   2.212   4.425   6.108
  424SOL    HW2 2172   2.219   4.351   5.963
  425SOL     OW 2173   2.654   0.665   0.687
  425SOL    HW1 2174   2.685   0.691   0.595
  425SOL    HW2 2175   2.566   0.619   0.680
  426SOL     OW 2176   0.662   3.572   0.353
  426SOL    HW1 2177   0.654   3.494   0.292
  426SOL    HW2 2178   0.574   3.590   0.397
  427SOL     OW 2179   3.813   2.999   0.060
  427SOL    HW1 2180   3.718   3.030   0.052
  427SOL    HW2 2181   3.861   3.057   0.126
  428SOL     OW 2182   3.851   1.374   4.687
  428SOL    HW1 2183   3.754   1.399   4.689
  428SOL    HW2 2184   3.907   1.456   4.682
  429SOL     OW 2185   3.827   6.435   0.322
  429SOL    HW1 2186   3.857   6.419   0.416
  429SOL    HW2 2187   3.742   6.487   0.323
  430SOL     OW 2188   2.871   0.787   4.516
  430SOL    HW1 2189   2.838   0.716   4.578
  430SOL    HW2 2190   2.907   0.864   4.570
  431SOL     OW 2191   3.825   0.937   6.650
  431SOL    HW1 2192   3.759   0.914   6.722
  431SOL    HW2 2193   3.784   0.920   6.561
  432SOL     OW 2194   6.342   1.354   1.018
  432SOL    HW1 2195   6.414   1.306   1.068
  432SOL    HW2 2196   6.337   1.319   0.925
  433SOL     OW 2197   3.371   6.314   4.973
  433SOL    HW1 2198   3.307   6.301   4.898
  433SOL    HW2 2199   3.330   6.373   5.042
  434SOL     OW 2200   6.452   3.153   0.759
  434SOL    HW1 2201   6.442   3.249   0.733
  434SOL    HW2 2202   6.483   3.101   0.680
  435SOL     OW 2203   3.788   3.102   0.705
  435SOL    HW1 2204   3.740   3.153   0.777
  435SOL    HW2 2205   3.862   3.048   0.745
  436SOL     OW 2206   2.496   1.487   1.109
  436SOL    HW1 2207   2.405   1.524   1.125
  436SOL    HW2 2208   2.492   1.418   1.037
  437SOL     OW 2209   6.286   6.427   6.025
  437SOL    HW1 2210   6.292   6.487   5.945
  437SOL    HW2 2211   6.226   6.350   6.003
  438SOL     OW 2212   1.319   3.459   0.607
  438SOL    HW1 2213   1.385   3.503   0.668
  438SOL    HW2 2214   1.232   3.447   0.654
  439SOL     OW 2215   6.393   5.075   1.569
  439SOL    HW1 2216   6.353   5.165   1.552
  439SOL    HW2 2217   6.476   5.085   1.625
  440SOL     OW 2218   1.504   3.250   2.558
  440SOL    HW1 2219   1.571   3.312   2.517
  440SOL    HW2 2220   1.496   3.269   2.656
  441SOL     OW 2221   0.104   1.345   3.246
  441SOL    HW1 2222   0.148   1.270   3.296
  441SOL    HW2 2223   0.152   1.431   3.266
  442SOL     OW 2224   1.270   5.251   6.275
  442SOL    HW1 2225   1.214   5.180   6.233
  442SOL    HW2 2226   1.224   5.285   6.357
  443SOL     OW 2227   0.222   4.708   6.074
  443SOL    HW1 2228   0.176   4.657   6.001
  443SOL    HW2 2229   0.154   4.747   6.135
  444SOL     OW 2230   5.394   3.041   6.777
  444SOL    HW1 2231   5.453   3.086   6.710
  444SOL    HW2 2232   5.441   3.034   6.864
  445SOL     OW 2233   1.365   3.390   3.236
  445SOL    HW1 2234   1.396   3.429   3.323
  445SOL    HW2 2235   1.366   3.290   3.242
  446SOL     OW 2236   2.234   4.922   4.308
  446SOL    HW1 2237   2.157   4.860   4.317
  446SOL    HW2 2238   2.264   4.954   4.398
  447SOL     OW 2239   0.693   6.372   0.759
  447SOL    HW1 2240   0.636   6.398   0.681
  447SOL    HW2 2241   0.636   6.332   0.830
  448SOL     OW 2242   4.443   0.562   5.456
  448SOL    HW1 2243   4.353   0.527   5.483
  448SOL    HW2 2244   4.450   0.658   5.483
  449SOL     OW 2245   5.371   0.617   4.826
  449SOL    HW1 2246   5.384   0.714   4.847
  449SOL    HW2 2247   5.276   0.603   4.797
  450SOL     OW 2248   6.810   5.961   2.906
  450SOL    HW1 2249   6.817   6.060   2.910
  450SOL    HW2 2250   6.898   5.923   2.876
  451SOL     OW 2251   5.996   4.086   3.664
  451SOL    HW1 2252   6.068   4.140   3.620
  451SOL    HW2 2253   6.013   4.082   3.762
  452SOL     OW 2254   6.614   4.834   5.822
  452SOL    HW1 2255   6.566   4.916   5.791
  452SOL    HW2 2256   6.712   4.846   5.809
  453SOL     OW 2257   3.624   1.691   6.437
  453SOL    HW1 2258   3.662   1.783   6.443
  453SOL    HW2 2259   3.533   1.695   6.396
  454SOL     OW 2260   0.911   6.399   0.579
  454SOL    HW1 2261   0.970   6.330   0.538
  454SOL    HW2 2262   0.866   6.360   0.660
  455SOL     OW 2263   5.270   1.532   4.970
  455SOL    HW1 2264   5.318   1.446   4.952
  455SOL    HW2 2265   5.236   1.570   4.885
  456SOL     OW 2266   4.120   5.331   0.545
  456SOL    HW1 2267   4.060   5.406   0.572
  456SOL    HW2 2268   4.090   5.294   0.457
  457SOL     OW 2269   0.695   4.368   1.501
  457SOL    HW1 2270   0.783   4.358   1.546
  457SOL    HW2 2271   0.688   4.459   1.460
  458SOL     OW 2272   0.710   6.651   5.668
  458SOL    HW1 2273   0.786   6.714   5.688
  458SOL    HW2 2274   0.640   6.699   5.616
  459SOL     OW 2275   1.169   0.377   3.462
  459SOL    HW1 2276   1.222   0.444   3.410
  459SOL    HW2 2277   1.075   0.375   3.428
  460SOL     OW 2278   6.609   2.260   3.139
  460SOL    HW1 2279   6.610   2.259   3.039
  460SOL    HW2 2280   6.517   2.280   3.171
  461SOL     OW 2281   5.308   4.731   5.864
  461SOL    HW1 2282   5.257   4.814   5.886
  461SOL    HW2 2283   5.263   4.684   5.788
  462SOL     OW 2284   3.211   2.584   0.014
  462SOL    HW1 2285   3.121   2.541   0.025
  462SOL    HW2 2286   3.268   2.527   6.975
  463SOL     OW 2287   6.086   6.086   2.334
  463SOL    HW1 2288   6.101   6.173   2.382
  463SOL    HW2 2289   6.159   6.022   2.358
  464SOL     OW 2290   1.738   2.047   5.928
  464SOL    HW1 2291   1.761   1.950   5.930
  464SOL    HW2 2292   1.699   2.071   5.839
  465SOL     OW 2293   0.430   3.620   6.239
  465SOL    HW1 2294   0.347   3.674   6.226
  465SOL    HW2 2295   0.416   3.529   6.201
  466SOL     OW 2296   1.660   0.422   3.469
  466SOL    HW1 2297   1.713   0.494   3.515
  466SOL    HW2 2298   1.572   0.411   3.515
  467SOL     OW 2299   1.806   1.729   5.055
  467SOL    HW1 2300   1.795   1.820   5.094
  467SOL    HW2 2301   1.904   1.710   5.042
  468SOL     OW 2302   2.933   3.753   3.287
  468SOL    HW1 2303   2.935   3.785   3.382
  468SOL    HW2 2304   2.951   3.654   3.286
  469SOL     OW 2305   3.664   6.746   6.733
  469SOL    HW1 2306   3.710   6.790   6.656
  469SOL    HW2 2307   3.573   6.715   6.704
  470SOL     OW 2308   4.678   7.016   3.143
  470SOL    HW1 2309   4.700   0.067   3.077
  470SOL    HW2 2310   4.763   6.977   3.180
  471SOL     OW 2311   2.612   2.410   4.031
  471SOL    HW1 2312   2.706   2.431   4.005
  471SOL    HW2 2313   2.605   2.313   4.055
  472SOL     OW 2314   4.095   4.317   5.405
  472SOL    HW1 2315   4.184   4.277   5.387
  472SOL    HW2 2316   4.024   4.266   5.357
  473SOL     OW 2317   0.101   4.480   4.038
  473SOL    HW1 2318   0.199   4.461   4.028
  473SOL    HW2 2319   0.087   4.542   4.115
  474SOL     OW 2320   4.808   4.625   5.628
  474SOL    HW1 2321   4.829   4.686   5.705
  474SOL    HW2 2322   4.890   4.576   5.602
  475SOL     OW 2323   2.509   6.166   0.416
  475SOL    HW1 2324   2.474   6.165   0.322
  475SOL    HW2 2325   2.524   6.260   0.445
  476SOL     OW 2326   6.486   5.740   3.413
  476SOL    HW1 2327   6.451   5.654   3.449
  476SOL    HW2 2328   6.487   5.736   3.313
  477SOL     OW 2329   1.845   4.537   4.304
  477SOL    HW1 2330   1.868   4.511   4.210
  477SOL    HW2 2331   1.784   4.468   4.344
  478SOL     OW 2332   1.312   4.888   3.542
  478SOL    HW1 2333   1.408   4.871   3.564
  478SOL    HW2 2334   1.289   4.843   3.456
  479SOL     OW 2335   4.669   1.944   2.194
  479SOL    HW1 2336   4.597   1.967   2.128
  479SOL    HW2 2337   4.669   2.013   2.267
  480SOL     OW 2338   1.665   6.242   3.880
  480SOL    HW1 2339   1.658   6.341   3.868
  480SOL    HW2 2340   1.575   6.200   3.866
  481SOL     OW 2341   1.972   0.232   1.159
  481SOL    HW1 2342   1.887   0.233   1.107
  481SOL    HW2 2343   2.045   0.271   1.102
  482SOL     OW 2344   5.359   5.534   0.393
  482SOL    HW1 2345   5.406   5.542   0.480
  482SOL    HW2 2346   5.294   5.458   0.397
  483SOL     OW 2347   5.491   2.076   2.944
  483SOL    HW1 2348   5.525   2.170   2.938
  483SOL    HW2 2349   5.554   2.015   2.896
  484SOL     OW 2350   6.635   1.753   4.128
  484SOL    HW1 2351   6.574   1.786   4.200
  484SOL    HW2 2352   6.626   1.812   4.047
  485SOL     OW 2353   2.646   6.008   1.113
  485SOL    HW1 2354   2.680   5.930   1.059
  485SOL    HW2 2355   2.568   6.049   1.066
  486SOL     OW 2356   0.234   0.704   5.948
  486SOL    HW1 2357   0.225   0.687   6.046
  486SOL    HW2 2358   0.331   0.694   5.922
  487SOL     OW 2359   0.095   2.535   6.509
  487SOL    HW1 2360   7.018   2.558   6.521
  487SOL    HW2 2361   0.103   2.445   6.468
  488SOL     OW 2362   0.958   4.752   2.965
  488SOL    HW1 2363   0.991   4.844   2.945
  488SOL    HW2 2364   1.027   4.685   2.938
  489SOL     OW 2365   3.400   5.661   6.075
  489SOL    HW1 2366   3.404   5.744   6.130
  489SOL    HW2 2367   3.469   5.667   6.002
  490SOL     OW 2368   5.453   0.086   4.006
  490SOL    HW1 2369   5.363   0.125   3.992
  490SOL    HW2 2370   5.478   0.031   3.926
  491SOL     OW 2371   0.905   2.710   3.447
  491SOL    HW1 2372   0.885   2.622   3.404
  491SOL    HW2 2373   0.994   2.706   3.492
  492SOL     OW 2374   1.760   1.354   4.903
  492SOL    HW1 2375   1.852   1.371   4.867
  492SOL    HW2 2376   1.698   1.333   4.827
  493SOL     OW 2377   6.183   4.171   4.401
  493SOL    HW1 2378   6.240   4.089   4.404
  493SOL    HW2 2379   6.232   4.247   4.443
  494SOL     OW 2380   5.916   0.904   6.739
  494SOL    HW1 2381   5.840   0.843   6.714
  494SOL    HW2 2382   5.907   0.990   6.690
  495SOL     OW 2383   4.992   4.317   0.414
  495SOL    HW1 2384   5.083   4.281   0.394
  495SOL    HW2 2385   4.990   4.355   0.506
  496SOL     OW 2386   5.976   3.572   2.515
  496SOL    HW1 2387   6.009   3.659   2.480
  496SOL    HW2 2388   5.876   3.572   2.516
  497SOL     OW 2389   4.480   6.554   4.216
  497SOL    HW1 2390   4.441   6.548   4.124
  497SOL    HW2 2391   4.435   6.489   4.276
  498SOL     OW 2392   1.082   3.087   0.877
  498SOL    HW1 2393   1.152   3.019   0.900
  498SOL    HW2 2394   0.991   3.044   0.883
  499SOL     OW 2395   3.592   1.443   4.710
  499SOL    HW1 2396   3.521   1.372   4.713
  499SOL    HW2 2397   3.569   1.516   4.774
  500SOL     OW 2398   1.338   4.468   2.631
  500SOL    HW1 2399   1.349   4.377   2.592
  500SOL    HW2 2400   1.402   4.480   2.707
  501SOL     OW 2401   0.565   4.957   6.195
  501SOL    HW1 2402   0.640   5.006   6.150
  501SOL    HW2 2403   0.489   5.020   6.209
  502SOL     OW 2404   2.326   5.233   6.311
  502SOL    HW1 2405   2.289   5.230   6.404
  502SOL    HW2 2406   2.397   5.303   6.306
  503SOL     OW 2407   6.668   5.145   4.549
  503SOL    HW1 2408   6.673   5.045   4.544
  503SOL    HW2 2409   6.652   5.182   4.457
  504SOL     OW 2410   1.427   5.095   4.732
  504SOL    HW1 2411   1.401   5.185   4.766
  504SOL    HW2 2412   1.345   5.042   4.710
  505SOL     OW 2413   3.439   0.005   4.996
  505SOL    HW1 2414   3.457   6.928   4.976
  505SOL    HW2 2415   3.345   0.015   5.029
  506SOL     OW 2416   1.952   3.234   0.714
  506SOL    HW1 2417   1.858   3.269   0.715
  506SOL    HW2 2418   1.963   3.172   0.636
  507SOL     OW 2419   4.044   2.070   4.642
  507SOL    HW1 2420   4.049   1.991   4.581
  507SOL    HW2 2421   3.949   2.085   4.670
  508SOL     OW 2422   6.410   5.261   4.344
  508SOL    HW1 2423   6.459   5.313   4.274
  508SOL    HW2 2424   6.312   5.261   4.325
  509SOL     OW 2425   4.768   3.056   1.605
  509SOL    HW1 2426   4.710   3.040   1.685
  509SOL    HW2 2427   4.732   3.133   1.552
  510SOL     OW 2428   0.882   4.121   4.167
  510SOL    HW1 2429   0.866   4.023   4.180
  510SOL    HW2 2430   0.860   4.146   4.073
  511SOL     OW 2431   0.466   5.907   1.358
  511SOL    HW1 2432   0.543   5.971   1.365
  511SOL    HW2 2433   0.478   5.850   1.276
  512SOL     OW 2434   1.869   3.613   6.130
  512SOL    HW1 2435   1.852   3.590   6.226
  512SOL    HW2 2436   1.838   3.707   6.113
  513SOL     OW 2437   0.729   4.976   4.059
  513SOL    HW1 2438   0.776   4.955   3.973
  513SOL    HW2 2439   0.745   5.072   4.083
  514SOL     OW 2440   5.212   1.629   3.490
  514SOL    HW1 2441   5.171   1.702   3.544
  514SOL    HW2 2442   5.212   1.544   3.542
  515SOL     OW 2443   2.981   5.655   0.277
  515SOL    HW1 2444   3.065   5.708   0.277
  515SOL    HW2 2445   2.933   5.668   0.190
  516SOL     OW 2446   1.465   4.243   3.583
  516SOL    HW1 2447   1.542   4.214   3.526
  516SOL    HW2 2448   1.500   4.267   3.674
  517SOL     OW 2449   4.813   0.275   5.960
  517SOL    HW1 2450   4.783   0.310   5.871
  517SOL    HW2 2451   4.734   0.251   6.015
  518SOL     OW 2452   1.650   1.182   0.010
  518SOL    HW1 2453   1.562   1.138   7.014
  518SOL    HW2 2454   1.715   1.155   6.959
  519SOL     OW 2455   1.086   6.331   6.976
  519SOL    HW1 2456   1.142   6.359   6.898
  519SOL    HW2 2457   1.006   6.280   6.943
  520SOL     OW 2458   6.148   4.525   4.223
  520SOL    HW1 2459   6.185   4.616   4.241
  520SOL    HW2 2460   6.089   4.498   4.299
  521SOL     OW 2461   6.713   0.822   0.136
  521SOL    HW1 2462   6.614   0.813   0.126
  521SOL    HW2 2463   6.745   0.903   0.088
  522SOL     OW 2464   3.297   3.874   5.686
  522SOL    HW1 2465   3.346   3.791   5.664
  522SOL    HW2 2466   3.304   3.939   5.610
  523SOL     OW 2467   6.675   0.084   3.667
  523SOL    HW1 2468   6.620   0.001   3.676
  523SOL    HW2 2469   6.675   0.114   3.571
  524SOL     OW 2470   4.240   0.854   4.664
  524SOL    HW1 2471   4.335   0.852   4.633
  524SOL    HW2 2472   4.232   0.805   4.751
  525SOL     OW 2473   3.589   2.872   6.892
  525SOL    HW1 2474   3.546   2.879   6.802
  525SOL    HW2 2475   3.519   2.878   6.963
  526SOL     OW 2476   4.546   6.042   4.641
  526SOL    HW1 2477   4.543   5.947   4.672
  526SOL    HW2 2478   4.558   6.102   4.720
  527SOL     OW 2479   0.843   1.639   0.091
  527SOL    HW1 2480   0.774   1.698   0.131
  527SOL    HW2 2481   0.870   1.569   0.158
  528SOL     OW 2482   1.703   1.975   6.246
  528SOL    HW1 2483   1.732   2.056   6.195
  528SOL    HW2 2484   1.771   1.955   6.317
  529SOL     OW 2485   6.985   5.280   4.332
  529SOL    HW1 2486   6.956   5.336   4.409
  529SOL    HW2 2487   6.920   5.206   4.318
  530SOL     OW 2488   6.990   2.912   5.221
  530SOL    HW1 2489   0.016   3.001   5.219
  530SOL    HW2 2490   0.016   2.852   5.285
  531SOL     OW 2491   6.872   0.484   7.010
  531SOL    HW1 2492   6.857   0.399   6.960
  531SOL    HW2 2493   6.955   0.529   6.977
  532SOL     OW 2494   1.921   1.300   5.828
  532SOL    HW1 2495   1.897   1.247   5.909
  532SOL    HW2 2496   1.847   1.295   5.761
  533SOL     OW 2497   4.694   0.507   5.347
  533SOL    HW1 2498   4.612   0.523   5.403
  533SOL    HW2 2499   4.673   0.527   5.251
  534SOL     OW 2500   2.830   5.423   2.981
  534SOL    HW1 2501   2.831   5.324   2.998
  534SOL    HW2 2502   2.741   5.460   3.007
  535SOL     OW 2503   6.277   4.186   1.701
  535SOL    HW1 2504   6.257   4.162   1.796
  535SOL    HW2 2505   6.270   4.104   1.644
  536SOL     OW 2506   1.817   5.913   1.321
  536SOL    HW1 2507   1.846   5.989   1.379
  536SOL    HW2 2508   1.858   5.922   1.230
  537SOL     OW 2509   2.288   6.818   3.165
  537SOL    HW1 2510   2.272   6.772   3.252
  537SOL    HW2 2511   2.205   6.865   3.136
  538SOL     OW 2512   1.458   5.234   4.205
  538SOL    HW1 2513   1.392   5.305   4.229
  538SOL    HW2 2514   1.499   5.255   4.116
  539SOL     OW 2515   1.446   5.408   1.577
  539SOL    HW1 2516   1.409   5.443   1.663
  539SOL    HW2 2517   1.460   5.309   1.585
  540SOL     OW 2518   2.208   2.746   1.177
  540SOL    HW1 2519   2.207   2.670   1.242
  540SOL    HW2 2520   2.171   2.828   1.222
  541SOL     OW 2521   4.588   5.594   4.997
  541SOL    HW1 2522   4.581   5.663   4.926
  541SOL    HW2 2523   4.497   5.558   5.019
  542SOL     OW 2524   5.654   0.235   6.318
  542SOL    HW1 2525   5.743   0.205   6.351
  542SOL    HW2 2526   5.653   0.334   6.310
  543SOL     OW 2527   6.161   6.961   1.963
  543SOL    HW1 2528   6.228   6.968   2.037
  543SOL    HW2 2529   6.125   0.032   1.942
  544SOL     OW 2530   0.763   5.780   0.429
  544SOL    HW1 2531   0.830   5.780   0.502
  544SOL    HW2 2532   0.737   5.874   0.407
  545SOL     OW 2533   2.884   1.647   3.661
  545SOL    HW1 2534   2.956   1.588   3.624
  545SOL    HW2 2535   2.923   1.706   3.732
  546SOL     OW 2536   1.820   2.202   6.570
  546SOL    HW1 2537   1.833   2.153   6.656
  546SOL    HW2 2538   1.820   2.137   6.494
  547SOL     OW 2539   2.928   2.236   0.678
  547SOL    HW1 2540   2.915   2.159   0.615
  547SOL    HW2 2541   3.016   2.279   0.659
  548SOL     OW 2542   3.230   3.481   5.583
  548SOL    HW1 2543   3.195   3.560   5.533
  548SOL    HW2 2544   3.156   3.414   5.595
  549SOL     OW 2545   0.886   4.512   0.773
  549SOL    HW1 2546   0.860   4.421   0.803
  549SOL    HW2 2547   0.874   4.520   0.674
  550SOL     OW 2548   6.347   4.657   0.484
  550SOL    HW1 2549   6.365   4.565   0.450
  550SOL    HW2 2550   6.432   4.710   0.484
  551SOL     OW 2551   0.116   0.381   0.274
  551SOL    HW1 2552   0.075   0.467   0.244
  551SOL    HW2 2553   0.172   0.344   0.200
  552SOL     OW 2554   4.893   5.180   0.155
  552SOL    HW1 2555   4.919   5.215   0.065
  552SOL    HW2 2556   4.916   5.083   0.161
  553SOL     OW 2557   1.162   2.108   1.424
  553SOL    HW1 2558   1.197   2.019   1.393
  553SOL    HW2 2559   1.103   2.147   1.353
  554SOL     OW 2560   4.139   5.368   4.463
  554SOL    HW1 2561   4.201   5.344   4.538
  554SOL    HW2 2562   4.078   5.441   4.492
  555SOL     OW 2563   1.400   4.538   5.854
  555SOL    HW1 2564   1.353   4.496   5.776
  555SOL    HW2 2565   1.368   4.632   5.865
  556SOL     OW 2566   6.640   4.136   2.734
  556SOL    HW1 2567   6.640   4.092   2.824
  556SOL    HW2 2568   6.733   4.158   2.707
  557SOL     OW 2569   6.353   5.739   5.490
  557SOL    HW1 2570   6.396   5.676   5.555
  557SOL    HW2 2571   6.303   5.809   5.540
  558SOL     OW 2572   4.107   3.895   5.621
  558SOL    HW1 2573   4.158   3.911   5.537
  558SOL    HW2 2574   4.058   3.978   5.647
  559SOL     OW 2575   5.806   4.721   6.354
  559SOL    HW1 2576   5.873   4.680   6.416
  559SOL    HW2 2577   5.793   4.817   6.378
  560SOL     OW 2578   4.168   6.630   0.580
  560SOL    HW1 2579   4.168   6.669   0.488
  560SOL    HW2 2580   4.196   6.534   0.576
  561SOL     OW 2581   5.093   0.007   2.098
  561SOL    HW1 2582   5.042   0.020   2.013
  561SOL    HW2 2583   5.172   0.068   2.099
  562SOL     OW 2584   6.179   0.183   0.937
  562SOL    HW1 2585   6.197   0.103   0.879
  562SOL    HW2 2586   6.228   0.173   1.023
  563SOL     OW 2587   2.787   0.569   5.100
  563SOL    HW1 2588   2.804   0.668   5.104
  563SOL    HW2 2589   2.868   0.520   5.132
  564SOL     OW 2590   1.056   1.330   5.356
  564SOL    HW1 2591   1.104   1.251   5.394
  564SOL    HW2 2592   1.012   1.305   5.270
  565SOL     OW 2593   4.444   3.667   5.789
  565SOL    HW1 2594   4.401   3.593   5.842
  565SOL    HW2 2595   4.490   3.730   5.851
  566SOL     OW 2596   6.849   4.655   2.114
  566SOL    HW1 2597   6.841   4.556   2.103
  566SOL    HW2 2598   6.762   4.693   2.144
  567SOL     OW 2599   4.113   3.738   6.113
  567SOL    HW1 2600   4.156   3.656   6.149
  567SOL    HW2 2601   4.106   3.731   6.013
  568SOL     OW 2602   2.475   1.134   6.777
  568SOL    HW1 2603   2.535   1.117   6.699
  568SOL    HW2 2604   2.392   1.181   6.746
  569SOL     OW 2605   1.773   4.122   6.949
  569SOL    HW1 2606   1.772   4.071   6.862
  569SOL    HW2 2607   1.868   4.140   6.976
  570SOL     OW 2608   0.109   5.647   6.964
  570SOL    HW1 2609   0.195   5.597   6.951
  570SOL    HW2 2610   0.059   5.606   0.021
  571SOL     OW 2611   4.473   6.091   2.513
  571SOL    HW1 2612   4.529   6.026   2.564
  571SOL    HW2 2613   4.441   6.162   2.576
  572SOL     OW 2614   1.678   3.685   3.626
  572SOL    HW1 2615   1.758   3.740   3.603
  572SOL    HW2 2616   1.671   3.674   3.725
  573SOL     OW 2617   4.120   2.517   7.019
  573SOL    HW1 2618   4.127   2.448   0.072
  573SOL    HW2 2619   4.044   2.578   0.019
  574SOL     OW 2620   2.615   1.743   3.734
  574SOL    HW1 2621   2.622   1.747   3.834
  574SOL    HW2 2622   2.697   1.700   3.697
  575SOL     OW 2623   4.533   2.610   6.101
  575SOL    HW1 2624   4.453   2.551   6.112
  575SOL    HW2 2625   4.616   2.554   6.102
  576SOL     OW 2626   0.792   3.470   3.267
  576SOL    HW1 2627   0.800   3.371   3.256
  576SOL    HW2 2628   0.873   3.515   3.229
  577SOL     OW 2629   4.218   1.995   3.428
  577SOL    HW1 2630   4.130   1.948   3.425
  577SOL    HW2 2631   4.292   1.928   3.437
  578SOL     OW 2632   0.009   3.796   4.500
  578SOL    HW1 2633   0.021   3.824   4.595
  578SOL    HW2 2634   0.027   3.874   4.440
  579SOL     OW 2635   4.302   3.517   0.794
  579SOL    HW1 2636   4.380   3.530   0.857
  579SOL    HW2 2637   4.234   3.589   0.811
  580SOL     OW 2638   0.161   0.027   0.240
  580SOL    HW1 2639   0.255   7.013   0.247
  580SOL    HW2 2640   0.117   0.023   0.329
  581SOL     OW 2641   3.908   3.429   3.652
  581SOL    HW1 2642   3.821   3.440   3.701
  581SOL    HW2 2643   3.966   3.364   3.700
  582SOL     OW 2644   0.008   4.232   0.093
  582SOL    HW1 2645   6.948   4.192   0.136
  582SOL    HW2 2646   7.002   4.314   0.042
  583SOL     OW 2647   2.654   0.053   6.632
  583SOL    HW1 2648   2.746   0.073   6.599
  583SOL    HW2 2649   2.644   6.975   6.646
  584SOL     OW 2650   1.586   5.202   4.497
  584SOL    HW1 2651   1.517   5.161   4.556
  584SOL    HW2 2652   1.546   5.222   4.407
  585SOL     OW 2653   5.428   1.950   5.100
  585SOL    HW1 2654   5.419   1.986   5.193
  585SOL    HW2 2655   5.461   1.856   5.103
  586SOL     OW 2656   3.088   5.416   0.990
  586SOL    HW1 2657   3.176   5.462   0.996
  586SOL    HW2 2658   3.027   5.468   0.931
  587SOL     OW 2659   2.397   2.832   6.379
  587SOL    HW1 2660   2.358   2.774   6.308
  587SOL    HW2 2661   2.327   2.893   6.415
  588SOL     OW 2662   1.822   0.081   2.057
  588SOL    HW1 2663   1.792   0.001   2.109
  588SOL    HW2 2664   1.915   0.065   2.024
  589SOL     OW 2665   4.612   5.112   1.530
  589SOL    HW1 2666   4.665   5.036   1.567
  589SOL    HW2 2667   4.564   5.158   1.604
  590SOL     OW 2668   0.251   4.143   2.016
  590SOL    HW1 2669   0.303   4.160   1.932
  590SOL    HW2 2670   0.234   4.045   2.025
  591SOL     OW 2671   2.725   6.983   3.110
  591SOL    HW1 2672   2.797   6.977   3.041
  591SOL    HW2 2673   2.732   0.051   3.157
  592SOL     OW 2674   5.433   0.049   6.012
  592SOL    HW1 2675   5.352   0.103   6.038
  592SOL    HW2 2676   5.510   0.111   5.997
  593SOL     OW 2677   6.984   0.812   4.737
  593SOL    HW1 2678   6.950   0.838   4.647
  593SOL    HW2 2679   6.945   0.872   4.806
  594SOL     OW 2680   5.369   2.499   1.687
  594SOL    HW1 2681   5.299   2.557   1.644
  594SOL    HW2 2682   5.325   2.418   1.726
  595SOL     OW 2683   2.968   0.152   4.180
  595SOL    HW1 2684   3.042   0.088   4.160
  595SOL    HW2 2685   2.990   0.205   4.262
  596SOL     OW 2686   0.834   4.463   2.360
  596SOL    HW1 2687   0.838   4.380   2.305
  596SOL    HW2 2688   0.903   4.527   2.329
  597SOL     OW 2689   4.877   2.015   5.549
  597SOL    HW1 2690   4.922   2.010   5.638
  597SOL    HW2 2691   4.946   2.027   5.477
  598SOL     OW 2692   3.722   3.640   1.841
  598SOL    HW1 2693   3.653   3.690   1.893
  598SOL    HW2 2694   3.712   3.659   1.744
  599SOL     OW 2695   5.731   5.875   3.620
  599SOL    HW1 2696   5.746   5.973   3.624
  599SOL    HW2 2697   5.650   5.856   3.564
  600SOL     OW 2698   2.759   2.204   0.425
  600SOL    HW1 2699   2.831   2.137   0.439
  600SOL    HW2 2700   2.795   2.282   0.374
  601SOL     OW 2701   2.058   4.939   2.326
  601SOL    HW1 2702   2.091   4.845   2.335
  601SOL    HW2 2703   2.099   4.996   2.398
  602SOL     OW 2704   0.344   0.530   2.560
  602SOL    HW1 2705   0.370   0.626   2.571
  602SOL    HW2 2706   0.416   0.482   2.509
  603SOL     OW 2707   4.248   1.476   3.041
  603SOL    HW1 2708   4.220   1.553   2.983
  603SOL    HW2 2709   4.285   1.510   3.127
  604SOL     OW 2710   1.123   3.559   5.748
  604SOL    HW1 2711   1.169   3.625   5.807
  604SOL    HW2 2712   1.075   3.491   5.804
  605SOL     OW 2713   5.281   0.396   4.542
  605SOL    HW1 2714   5.373   0.423   4.517
  605SOL    HW2 2715   5.239   0.468   4.598
  606SOL     OW 2716   2.127   0.011   2.325
  606SOL    HW1 2717   2.215   6.986   2.341
  606SOL    HW2 2718   2.110   0.017   2.227
  607SOL     OW 2719   3.552   0.598   4.554
  607SOL    HW1 2720   3.648   0.623   4.558
  607SOL    HW2 2721   3.495   0.678   4.572
  608SOL     OW 2722   5.900   2.692   0.979
  608SOL    HW1 2723   5.887   2.698   0.879
  608SOL    HW2 2724   5.904   2.596   1.006
  609SOL     OW 2725   3.575   4.250   5.133
  609SOL    HW1 2726   3.514   4.328   5.119
  609SOL    HW2 2727   3.536   4.190   5.203
  610SOL     OW 2728   6.359   2.095   4.750
  610SOL    HW1 2729   6.317   2.100   4.840
  610SOL    HW2 2730   6.318   2.163   4.690
  611SOL     OW 2731   6.570   6.856   0.592
  611SOL    HW1 2732   6.547   6.761   0.615
  611SOL    HW2 2733   6.665   6.874   0.619
  612SOL     OW 2734   1.789   4.540   6.518
  612SOL    HW1 2735   1.737   4.456   6.506
  612SOL    HW2 2736   1.730   4.619   6.498
  613SOL     OW 2737   3.656   1.556   0.051
  613SOL    HW1 2738   3.600   1.485   0.094
  613SOL    HW2 2739   3.729   1.512   7.018
  614SOL     OW 2740   5.089   2.491   0.654
  614SOL    HW1 2741   5.107   2.525   0.562
  614SOL    HW2 2742   5.163   2.517   0.715
  615SOL     OW 2743   5.958   6.148   0.406
  615SOL    HW1 2744   5.882   6.152   0.340
  615SOL    HW2 2745   5.982   6.052   0.422
  616SOL     OW 2746   4.893   1.562   5.057
  616SOL    HW1 2747   4.926   1.481   5.008
  616SOL    HW2 2748   4.832   1.614   4.997
  617SOL     OW 2749   6.244   6.897   5.219
  617SOL    HW1 2750   6.254   6.801   5.191
  617SOL    HW2 2751   6.157   6.908   5.267
  618SOL     OW 2752   5.243   4.755   0.783
  618SOL    HW1 2753   5.250   4.817   0.861
  618SOL    HW2 2754   5.171   4.787   0.722
  619SOL     OW 2755   1.821   6.983   6.759
  619SOL    HW1 2756   1.884   6.947   6.691
  619SOL    HW2 2757   1.783   0.050   6.726
  620SOL     OW 2758   4.795   1.908   1.895
  620SOL    HW1 2759   4.745   1.863   1.969
  620SOL    HW2 2760   4.892   1.885   1.903
  621SOL     OW 2761   1.926   6.782   6.569
  621SOL    HW1 2762   1.915   6.688   6.603
  621SOL    HW2 2763   1.842   6.810   6.523
  622SOL     OW 2764   0.597   3.428   6.036
  622SOL    HW1 2765   0.574   3.335   6.067
  622SOL    HW2 2766   0.524   3.463   5.978
  623SOL     OW 2767   6.510   1.771   2.905
  623SOL    HW1 2768   6.476   1.713   2.831
  623SOL    HW2 2769   6.479   1.736   2.993
  624SOL     OW 2770   6.309   1.013   6.032
  624SOL    HW1 2771   6.320   0.920   6.067
  624SOL    HW2 2772   6.311   1.077   6.109
  625SOL     OW 2773   2.811   1.117   1.469
  625SOL    HW1 2774   2.743   1.160   1.529
  625SOL    HW2 2775   2.900   1.117   1.514
  626SOL     OW 2776   0.268   6.328   3.765
  626SOL    HW1 2777   0.284   6.329   3.863
  626SOL    HW2 2778   0.196   6.395   3.743
  627SOL     OW 2779   6.901   4.685   6.399
  627SOL    HW1 2780   6.913   4.774   6.355
  627SOL    HW2 2781   6.876   4.617   6.330
  628SOL     OW 2782   3.902   4.306   6.650
  628SOL    HW1 2783   3.829   4.374   6.643
  628SOL    HW2 2784   3.893   4.258   6.737
  629SOL     OW 2785   2.231   6.789   6.883
  629SOL    HW1 2786   2.328   6.769   6.872
  629SOL    HW2 2787   2.190   6.721   6.944
  630SOL     OW 2788   5.813   2.224   0.719
  630SOL    HW1 2789   5.838   2.142   0.668
  630SOL    HW2 2790   5.840   2.214   0.815
  631SOL     OW 2791   1.699   3.089   2.187
  631SOL    HW1 2792   1.628   3.029   2.153
  631SOL    HW2 2793   1.768   3.036   2.236
  632SOL     OW 2794   3.537   4.625   1.378
  632SOL    HW1 2795   3.575   4.606   1.469
  632SOL    HW2 2796   3.574   4.712   1.344
  633SOL     OW 2797   1.143   6.099   6.750
  633SOL    HW1 2798   1.149   6.061   6.842
  633SOL    HW2 2799   1.233   6.133   6.723
  634SOL     OW 2800   2.642   3.420   5.485
  634SOL    HW1 2801   2.672   3.336   5.440
  634SOL    HW2 2802   2.554   3.448   5.447
  635SOL     OW 2803   6.691   6.496   6.802
  635SOL    HW1 2804   6.686   6.531   6.896
  635SOL    HW2 2805   6.644   6.408   6.797
  636SOL     OW 2806   1.963   2.204   4.573
  636SOL    HW1 2807   2.007   2.270   4.633
  636SOL    HW2 2808   1.996   2.112   4.595
  637SOL     OW 2809   6.680   1.851   2.000
  637SOL    HW1 2810   6.667   1.950   1.993
  637SOL    HW2 2811   6.594   1.808   2.024
  638SOL     OW 2812   0.044   3.469   5.237
  638SOL    HW1 2813   6.981   3.520   5.257
  638SOL    HW2 2814   0.099   3.518   5.170
  639SOL     OW 2815   5.651   3.492   1.510
  639SOL    HW1 2816   5.678   3.397   1.490
  639SOL    HW2 2817   5.551   3.498   1.511
  640SOL     OW 2818   6.390   3.648   2.818
  640SOL    HW1 2819   6.293   3.642   2.843
  640SOL    HW2 2820   6.442   3.678   2.898
  641SOL     OW 2821   2.615   5.789   4.467
  641SOL    HW1 2822   2.648   5.798   4.373
  641SOL    HW2 2823   2.524   5.748   4.466
  642SOL     OW 2824   0.770   4.822   4.475
  642SOL    HW1 2825   0.836   4.830   4.400
  642SOL    HW2 2826   0.732   4.730   4.476
  643SOL     OW 2827   4.361   4.995   0.708
  643SOL    HW1 2828   4.388   4.991   0.612
  643SOL    HW2 2829   4.443   4.994   0.766
  644SOL     OW 2830   5.733   0.870   4.613
  644SOL    HW1 2831   5.647   0.848   4.659
  644SOL    HW2 2832   5.798   0.795   4.627
  645SOL     OW 2833   4.071   6.610   2.214
  645SOL    HW1 2834   4.156   6.558   2.215
  645SOL    HW2 2835   3.994   6.548   2.226
  646SOL     OW 2836   3.634   1.708   5.128
  646SOL    HW1 2837   3.644   1.801   5.091
  646SOL    HW2 2838   3.539   1.680   5.122
  647SOL     OW 2839   2.339   2.206   6.839
  647SOL    HW1 2840   2.380   2.297   6.838
  647SOL    HW2 2841   2.268   2.200   6.769
  648SOL     OW 2842   5.370   2.106   4.090
  648SOL    HW1 2843   5.319   2.120   4.175
  648SOL    HW2 2844   5.307   2.092   4.014
  649SOL     OW 2845   3.953   5.542   0.691
  649SOL    HW1 2846   3.934   5.576   0.783
  649SOL    HW2 2847   3.874   5.560   0.632
  650SOL     OW 2848   2.531   3.944   1.117
  650SOL    HW1 2849   2.631   3.946   1.115
  650SOL    HW2 2850   2.498   3.876   1.051
  651SOL     OW 2851   0.108   1.681   2.910
  651SOL    HW1 2852   0.046   1.758   2.924
  651SOL    HW2 2853   0.112   1.660   2.813
  652SOL     OW 2854   3.742   5.969   0.948
  652SOL    HW1 2855   3.688   6.039   0.901
  652SOL    HW2 2856   3.720   5.969   1.045
  653SOL     OW 2857   1.369   0.110   3.010
  653SOL    HW1 2858   1.427   0.032   2.986
  653SOL    HW2 2859   1.425   0.182   3.050
  654SOL     OW 2860   1.164   6.992   6.006
  654SOL    HW1 2861   1.255   0.003   6.034
  654SOL    HW2 2862   1.106   6.984   6.087
  655SOL     OW 2863   1.326   3.908   1.927
  655SOL    HW1 2864   1.245   3.871   1.881
  655SOL    HW2 2865   1.346   3.999   1.890
  656SOL     OW 2866   2.125   0.360   6.867
  656SOL    HW1 2867   2.146   0.370   6.964
  656SOL    HW2 2868   2.122   0.263   6.843
  657SOL     OW 2869   4.091   3.519   4.620
  657SOL    HW1 2870   4.083   3.420   4.628
  657SOL    HW2 2871   4.149   3.542   4.541
  658SOL     OW 2872   2.156   0.513   5.401
  658SOL    HW1 2873   2.203   0.566   5.472
  658SOL    HW2 2874   2.096   0.574   5.348
  659SOL     OW 2875   1.514   5.067   6.808
  659SOL    HW1 2876   1.529   4.994   6.875
  659SOL    HW2 2877   1.589   5.132   6.811
  660SOL     OW 2878   5.416   3.873   2.542
  660SOL    HW1 2879   5.374   3.872   2.451
  660SOL    HW2 2880   5.359   3.822   2.606
  661SOL     OW 2881   4.000   5.669   4.372
  661SOL    HW1 2882   3.961   5.718   4.294
  661SOL    HW2 2883   4.085   5.625   4.345
  662SOL     OW 2884   6.537   3.064   6.884
  662SOL    HW1 2885   6.611   3.125   6.912
  662SOL    HW2 2886   6.453   3.118   6.874
  663SOL     OW 2887   1.262   4.293   5.958
  663SOL    HW1 2888   1.327   4.245   6.017
  663SOL    HW2 2889   1.292   4.387   5.944
  664SOL     OW 2890   1.969   6.948   5.824
  664SOL    HW1 2891   2.046   6.911   5.877
  664SOL    HW2 2892   1.989   0.023   5.801
  665SOL     OW 2893   2.298   4.559   2.800
  665SOL    HW1 2894   2.272   4.519   2.888
  665SOL    HW2 2895   2.240   4.520   2.728
  666SOL     OW 2896   2.818   0.446   0.485
  666SOL    HW1 2897   2.778   0.496   0.409
  666SOL    HW2 2898   2.751   0.435   0.558
  667SOL     OW 2899   1.268   3.210   2.424
  667SOL    HW1 2900   1.301   3.116   2.436
  667SOL    HW2 2901   1.324   3.272   2.479
  668SOL     OW 2902   5.305   0.119   0.660
  668SOL    HW1 2903   5.262   0.064   0.732
  668SOL    HW2 2904   5.394   0.080   0.637
  669SOL     OW 2905   6.602   5.799   2.914
  669SOL    HW1 2906   6.677   5.865   2.909
  669SOL    HW2 2907   6.519   5.841   2.876
  670SOL     OW 2908   3.388   4.107   3.274
  670SOL    HW1 2909   3.423   4.141   3.187
  670SOL    HW2 2910   3.292   4.131   3.283
  671SOL     OW 2911   1.505   0.285   6.417
  671SOL    HW1 2912   1.408   0.265   6.427
  671SOL    HW2 2913   1.558   0.200   6.419
  672SOL     OW 2914   1.080   2.016   3.032
  672SOL    HW1 2915   1.116   1.926   3.011
  672SOL    HW2 2916   0.981   2.012   3.042
  673SOL     OW 2917   4.917   0.857   6.740
  673SOL    HW1 2918   5.014   0.836   6.752
  673SOL    HW2 2919   4.905   0.956   6.739
  674SOL     OW 2920   6.568   2.294   3.989
  674SOL    HW1 2921   6.611   2.384   3.977
  674SOL    HW2 2922   6.529   2.288   4.080
  675SOL     OW 2923   5.841   7.001   3.562
  675SOL    HW1 2924   5.890   0.060   3.599
  675SOL    HW2 2925   5.849   7.000   3.462
  676SOL     OW 2926   3.355   4.982   5.039
  676SOL    HW1 2927   3.441   5.031   5.030
  676SOL    HW2 2928   3.287   5.041   5.081
  677SOL     OW 2929   4.844   6.883   0.483
  677SOL    HW1 2930   4.803   6.968   0.451
  677SOL    HW2 2931   4.929   6.866   0.433
  678SOL     OW 2932   2.614   0.853   6.553
  678SOL    HW1 2933   2.581   0.788   6.622
  678SOL    HW2 2934   2.622   0.943   6.594
  679SOL     OW 2935   6.520   0.537   2.577
  679SOL    HW1 2936   6.596   0.574   2.524
  679SOL    HW2 2937   6.518   0.438   2.568
  680SOL     OW 2938   6.039   3.394   4.387
  680SOL    HW1 2939   6.108   3.466   4.376
  680SOL    HW2 2940   6.056   3.321   4.320
  681SOL     OW 2941   1.320   5.081   2.710
  681SOL    HW1 2942   1.368   5.002   2.672
  681SOL    HW2 2943   1.384   5.157   2.721
  682SOL     OW 2944   0.251   0.343   5.906
  682SOL    HW1 2945   0.307   0.267   5.940
  682SOL    HW2 2946   0.165   0.347   5.958
  683SOL     OW 2947   5.133   1.397   1.628
  683SOL    HW1 2948   5.054   1.409   1.688
  683SOL    HW2 2949   5.196   1.474   1.640
  684SOL     OW 2950   6.580   5.902   6.353
  684SOL    HW1 2951   6.556   5.982   6.408
  684SOL    HW2 2952   6.534   5.821   6.389
  685SOL     OW 2953   6.179   0.807   5.086
  685SOL    HW1 2954   6.219   0.880   5.141
  685SOL    HW2 2955   6.088   0.835   5.054
  686SOL     OW 2956   5.431   4.733   1.528
  686SOL    HW1 2957   5.345   4.705   1.572
  686SOL    HW2 2958   5.495   4.766   1.598
  687SOL     OW 2959   5.391   2.503   0.070
  687SOL    HW1 2960   5.328   2.426   0.079
  687SOL    HW2 2961   5.340   2.589   0.077
  688SOL     OW 2962   6.417   2.668   5.201
  688SOL    HW1 2963   6.420   2.571   5.177
  688SOL    HW2 2964   6.346   2.713   5.147
  689SOL     OW 2965   5.239   4.663   4.424
  689SOL    HW1 2966   5.313   4.722   4.457
  689SOL    HW2 2967   5.274   4.604   4.351
  690SOL     OW 2968   6.937   2.241   4.700
  690SOL    HW1 2969   6.914   2.155   4.746
  690SOL    HW2 2970   6.895   2.243   4.609
  691SOL     OW 2971   0.581   3.077   6.741
  691SOL    HW1 2972   0.591   2.979   6.756
  691SOL    HW2 2973   0.613   3.126   6.823
  692SOL     OW 2974   2.202   0.244   4.109
  692SOL    HW1 2975   2.225   0.153   4.142
  692SOL    HW2 2976   2.138   0.237   4.033
  693SOL     OW 2977   6.242   1.364   3.610
  693SOL    HW1 2978   6.172   1.292   3.613
  693SOL    HW2 2979   6.243   1.413   3.697
  694SOL     OW 2980   1.286   0.732   2.853
  694SOL    HW1 2981   1.338   0.713   2.769
  694SOL    HW2 2982   1.265   0.830   2.857
  695SOL     OW 2983   4.780   5.549   6.366
  695SOL    HW1 2984   4.847   5.479   6.391
  695SOL    HW2 2985   4.692   5.505   6.348
  696SOL     OW 2986   5.028   5.747   2.272
  696SOL    HW1 2987   5.110   5.691   2.260
  696SOL    HW2 2988   5.052   5.830   2.324
  697SOL     OW 2989   1.087   3.802   3.193
  697SOL    HW1 2990   1.061   3.812   3.097
  697SOL    HW2 2991   1.066   3.709   3.223
  698SOL     OW 2992   5.038   6.441   4.162
  698SOL    HW1 2993   5.021   6.351   4.202
  698SOL    HW2 2994   4.978   6.508   4.206
  699SOL     OW 2995   2.079   5.422   6.017
  699SOL    HW1 2996   2.084   5.474   5.932
  699SOL    HW2 2997   2.149   5.455   6.081
  700SOL     OW 2998   2.057   2.697   4.842
  700SOL    HW1 2999   2.155   2.707   4.863
  700SOL    HW2 3000   2.009   2.781   4.865
  701SOL     OW 3001   0.672   4.711   5.772
  701SOL    HW1 3002   0.581   4.734   5.806
  701SOL    HW2 3003   0.738   4.716   5.847
  702SOL     OW 3004   5.878   6.208   5.271
  702SOL    HW1 3005   5.909   6.186   5.364
  702SOL    HW2 3006   5.919   6.143   5.207
  703SOL     OW 3007   5.830   3.663   6.159
  703SOL    HW1 3008   5.894   3.621   6.095
  703SOL    HW2 3009   5.749   3.695   6.109
  704SOL     OW 3010   2.092   0.011   2.031
  704SOL    HW1 3011   2.187   0.039   2.013
  704SOL    HW2 3012   2.075   6.941   1.991
  705SOL     OW 3013   0.912   1.647   4.019
  705SOL    HW1 3014   0.901   1.644   4.118
  705SOL    HW2 3015   0.882   1.559   3.980
  706SOL     OW 3016   5.907   3.522   3.651
  706SOL    HW1 3017   5.828   3.486   3.700
  706SOL    HW2 3018   5.914   3.620   3.667
  707SOL     OW 3019   4.831   3.042   3.068
  707SOL    HW1 3020   4.822   3.141   3.074
  707SOL    HW2 3021   4.769   3.006   2.998
  708SOL     OW 3022   4.695   1.263   1.983
  708SOL    HW1 3023   4.781   1.242   2.029
  708SOL    HW2 3024   4.690   1.361   1.964
  709SOL     OW 3025   1.506   4.504   6.702
  709SOL    HW1 3026   1.529   4.422   6.649
  709SOL    HW2 3027   1.578   4.573   6.690
  710SOL     OW 3028   3.423   3.446   3.278
  710SOL    HW1 3029   3.427   3.376   3.349
  710SOL    HW2 3030   3.351   3.512   3.300
  711SOL     OW 3031   1.137   0.742   4.324
  711SOL    HW1 3032   1.142   0.646   4.297
  711SOL    HW2 3033   1.085   0.793   4.255
  712SOL     OW 3034   6.921   4.582   3.400
  712SOL    HW1 3035   6.937   4.635   3.317
  712SOL    HW2 3036   7.002   4.586   3.459
  713SOL     OW 3037   2.499   3.757   5.347
  713SOL    HW1 3038   2.459   3.820   5.281
  713SOL    HW2 3039   2.451   3.764   5.434
  714SOL     OW 3040   4.297   5.020   4.501
  714SOL    HW1 3041   4.252   5.072   4.428
  714SOL    HW2 3042   4.229   4.967   4.551
  715SOL     OW 3043   6.776   0.440   6.391
  715SOL    HW1 3044   6.843   0.386   6.341
  715SOL    HW2 3045   6.813   0.531   6.409
  716SOL     OW 3046   6.337   5.533   6.773
  716SOL    HW1 3047   6.394   5.528   6.691
  716SOL    HW2 3048   6.395   5.526   6.855
  717SOL     OW 3049   5.899   2.548   5.861
  717SOL    HW1 3050   5.887   2.462   5.910
  717SOL    HW2 3051   5.819   2.607   5.877
  718SOL     OW 3052   3.643   2.859   0.815
  718SOL    HW1 3053   3.717   2.842   0.749
  718SOL    HW2 3054   3.667   2.937   0.872
  719SOL     OW 3055   6.210   4.123   6.228
  719SOL    HW1 3056   6.164   4.211   6.214
  719SOL    HW2 3057   6.169   4.076   6.307
  720SOL     OW 3058   3.844   1.303   5.724
  720SOL    HW1 3059   3.752   1.312   5.687
  720SOL    HW2 3060   3.850   1.218   5.778
  721SOL     OW 3061   1.392   6.712   5.303
  721SOL    HW1 3062   1.454   6.733   5.378
  721SOL    HW2 3063   1.297   6.716   5.335
  722SOL     OW 3064   4.660   0.787   5.253
  722SOL    HW1 3065   4.562   0.771   5.242
  722SOL    HW2 3066   4.700   0.810   5.165
  723SOL     OW 3067   0.122   3.270   1.473
  723SOL    HW1 3068   0.138   3.298   1.378
  723SOL    HW2 3069   0.203   3.223   1.508
  724SOL     OW 3070   0.531   2.443   4.619
  724SOL    HW1 3071   0.554   2.406   4.709
  724SOL    HW2 3072   0.431   2.446   4.609
  725SOL     OW 3073   2.376   5.051   2.385
  725SOL    HW1 3074   2.387   5.135   2.439
  725SOL    HW2 3075   2.440   5.053   2.308
  726SOL     OW 3076   5.600   6.336   6.190
  726SOL    HW1 3077   5.660   6.262   6.159
  726SOL    HW2 3078   5.627   6.363   6.282
  727SOL     OW 3079   2.072   5.051   4.765
  727SOL    HW1 3080   2.010   5.124   4.795
  727SOL    HW2 3081   2.071   4.977   4.832
  728SOL     OW 3082   6.119   2.209   6.081
  728SOL    HW1 3083   6.172   2.133   6.043
  728SOL    HW2 3084   6.181   2.278   6.116
  729SOL     OW 3085   3.844   1.571   0.597
  729SOL    HW1 3086   3.848   1.571   0.696
  729SOL    HW2 3087   3.925   1.615   0.559
  730SOL     OW 3088   6.191   1.206   3.916
  730SOL    HW1 3089   6.134   1.288   3.911
  730SOL    HW2 3090   6.203   1.179   4.012
  731SOL     OW 3091   0.262   2.037   3.698
  731SOL    HW1 3092   0.337   2.102   3.707
  731SOL    HW2 3093   0.283   1.972   3.624
  732SOL     OW 3094   0.399   3.706   3.505
  732SOL    HW1 3095   0.406   3.608   3.527
  732SOL    HW2 3096   0.451   3.759   3.571
  733SOL     OW 3097   4.607   4.346   4.893
  733SOL    HW1 3098   4.566   4.324   4.805
  733SOL    HW2 3099   4.548   4.409   4.944
  734SOL     OW 3100   0.885   6.165   6.407
  734SOL    HW1 3101   0.812   6.118   6.456
  734SOL    HW2 3102   0.872   6.151   6.308
  735SOL     OW 3103   3.697   4.484   6.653
  735SOL    HW1 3104   3.690   4.510   6.749
  735SOL    HW2 3105   3.674   4.563   6.596
  736SOL     OW 3106   5.967   0.899   2.330
  736SOL    HW1 3107   5.982   0.918   2.427
  736SOL    HW2 3108   6.044   0.934   2.276
  737SOL     OW 3109   5.573   3.645   0.240
  737SOL    HW1 3110   5.480   3.657   0.206
  737SOL    HW2 3111   5.582   3.555   0.281
  738SOL     OW 3112   6.749   4.112   4.147
  738SOL    HW1 3113   6.719   4.207   4.150
  738SOL    HW2 3114   6.839   4.104   4.189
  739SOL     OW 3115   4.624   6.335   6.119
  739SOL    HW1 3116   4.618   6.402   6.194
  739SOL    HW2 3117   4.553   6.265   6.132
  740SOL     OW 3118   5.673   6.992   7.014
  740SOL    HW1 3119   5.602   0.042   7.013
  740SOL    HW2 3120   5.733   7.005   0.073
  741SOL     OW 3121   1.975   0.377   3.638
  741SOL    HW1 3122   1.998   0.282   3.615
  741SOL    HW2 3123   2.032   0.439   3.583
  742SOL     OW 3124   1.592   6.363   2.765
  742SOL    HW1 3125   1.614   6.369   2.668
  742SOL    HW2 3126   1.549   6.448   2.795
  743SOL     OW 3127   1.675   3.504   2.448
  743SOL    HW1 3128   1.716   3.444   2.380
  743SOL    HW2 3129   1.602   3.559   2.406
  744SOL     OW 3130   6.637   5.385   0.924
  744SOL    HW1 3131   6.583   5.403   1.007
  744SOL    HW2 3132   6.581   5.336   0.858
  745SOL     OW 3133   1.153   6.431   1.567
  745SOL    HW1 3134   1.133   6.333   1.566
  745SOL    HW2 3135   1.088   6.480   1.509
  746SOL     OW 3136   3.183   6.768   3.229
  746SOL    HW1 3137   3.124   6.746   3.307
  746SOL    HW2 3138   3.276   6.785   3.262
  747SOL     OW 3139   6.882   4.397   0.565
  747SOL    HW1 3140   6.900   4.459   0.641
  747SOL    HW2 3141   6.870   4.304   0.600
  748SOL     OW 3142   3.359   3.055   3.782
  748SOL    HW1 3143   3.352   3.012   3.692
  748SOL    HW2 3144   3.268   3.056   3.825
  749SOL     OW 3145   5.049   2.994   5.577
  749SOL    HW1 3146   5.145   2.965   5.576
  749SOL    HW2 3147   4.995   2.927   5.628
  750SOL     OW 3148   2.948   3.608   2.353
  750SOL    HW1 3149   2.908   3.536   2.297
  750SOL    HW2 3150   3.042   3.584   2.377
  751SOL     OW 3151   5.565   1.870   0.316
  751SOL    HW1 3152   5.665   1.873   0.303
  751SOL    HW2 3153   5.535   1.775   0.314
  752SOL     OW 3154   4.630   0.445   2.105
  752SOL    HW1 3155   4.533   0.421   2.113
  752SOL    HW2 3156   4.653   0.514   2.174
  753SOL     OW 3157   3.906   1.587   1.825
  753SOL    HW1 3158   3.958   1.524   1.767
  753SOL    HW2 3159   3.845   1.534   1.884
  754SOL     OW 3160   5.298   5.096   6.555
  754SOL    HW1 3161   5.368   5.130   6.617
  754SOL    HW2 3162   5.241   5.029   6.602
  755SOL     OW 3163   5.933   5.086   2.194
  755SOL    HW1 3164   6.014   5.070   2.138
  755SOL    HW2 3165   5.891   5.173   2.168
  756SOL     OW 3166   2.116   6.729   4.098
  756SOL    HW1 3167   2.181   6.654   4.110
  756SOL    HW2 3168   2.106   6.749   4.000
  757SOL     OW 3169   6.909   0.833   4.462
  757SOL    HW1 3170   6.935   0.745   4.422
  757SOL    HW2 3171   6.947   0.907   4.406
  758SOL     OW 3172   4.238   1.486   0.635
  758SOL    HW1 3173   4.184   1.437   0.704
  758SOL    HW2 3174   4.214   1.583   0.637
  759SOL     OW 3175   2.113   0.375   1.802
  759SOL    HW1 3176   2.019   0.393   1.830
  759SOL    HW2 3177   2.175   0.396   1.877
  760SOL     OW 3178   4.698   1.655   6.187
  760SOL    HW1 3179   4.678   1.696   6.098
  760SOL    HW2 3180   4.617   1.659   6.245
  761SOL     OW 3181   5.140   1.016   0.001
  761SOL    HW1 3182   5.164   1.003   6.925
  761SOL    HW2 3183   5.223   1.016   0.057
  762SOL     OW 3184   2.652   4.714   4.732
  762SOL    HW1 3185   2.749   4.706   4.757
  762SOL    HW2 3186   2.597   4.732   4.813
  763SOL     OW 3187   7.009   4.951   0.741
  763SOL    HW1 3188   6.943   4.920   0.811
  763SOL    HW2 3189   0.031   5.036   0.771
  764SOL     OW 3190   6.085   1.256   2.591
  764SOL    HW1 3191   6.084   1.157   2.580
  764SOL    HW2 3192   5.992   1.291   2.584
  765SOL     OW 3193   1.238   6.478   3.022
  765SOL    HW1 3194   1.303   6.520   2.958
  765SOL    HW2 3195   1.196   6.398   2.980
  766SOL     OW 3196   0.244   5.908   0.230
  766SOL    HW1 3197   0.315   5.858   0.181
  766SOL    HW2 3198   0.157   5.897   0.184
  767SOL     OW 3199   5.894   6.142   1.600
  767SOL    HW1 3200   5.800   6.133   1.569
  767SOL    HW2 3201   5.910   6.080   1.677
  768SOL     OW 3202   3.153   6.648   4.230
  768SOL    HW1 3203   3.152   6.723   4.297
  768SOL    HW2 3204   3.156   6.561   4.278
  769SOL     OW 3205   3.260   0.350   0.545
  769SOL    HW1 3206   3.308   0.268   0.575
  769SOL    HW2 3207   3.206   0.329   0.464
  770SOL     OW 3208   3.398   5.369   5.156
  770SOL    HW1 3209   3.481   5.421   5.176
  770SOL    HW2 3210   3.390   5.294   5.221
  771SOL     OW 3211   0.275   6.877   4.747
  771SOL    HW1 3212   0.364   6.921   4.755
  771SOL    HW2 3213   0.278   6.787   4.793
  772SOL     OW 3214   0.292   2.977   6.472
  772SOL    HW1 3215   0.360   3.008   6.406
  772SOL    HW2 3216   0.316   2.886   6.505
  773SOL     OW 3217   6.559   3.390   1.954
  773SOL    HW1 3218   6.500   3.426   1.882
  773SOL    HW2 3219   6.624   3.326   1.914
  774SOL     OW 3220   1.216   1.275   1.656
  774SOL    HW1 3221   1.178   1.277   1.748
  774SOL    HW2 3222   1.259   1.186   1.640
  775SOL     OW 3223   1.811   2.982   4.079
  775SOL    HW1 3224   1.842   2.936   4.162
  775SOL    HW2 3225   1.712   2.976   4.073
  776SOL     OW 3226   2.382   0.677   5.539
  776SOL    HW1 3227   2.453   0.725   5.487
  776SOL    HW2 3228   2.345   0.737   5.609
  777SOL     OW 3229   4.111   0.170   6.702
  777SOL    HW1 3230   4.131   0.075   6.724
  777SOL    HW2 3231   4.049   0.208   6.771
  778SOL     OW 3232   4.679   6.106   4.877
  778SOL    HW1 3233   4.612   6.072   4.943
  778SOL    HW2 3234   4.740   6.032   4.850
  779SOL     OW 3235   0.256   0.175   2.326
  779SOL    HW1 3236   0.207   0.151   2.410
  779SOL    HW2 3237   0.347   0.133   2.327
  780SOL     OW 3238   5.627   2.276   5.099
  780SOL    HW1 3239   5.572   2.306   5.177
  780SOL    HW2 3240   5.703   2.219   5.132
  781SOL     OW 3241   1.349   3.971   0.147
  781SOL    HW1 3242   1.279   3.994   0.079
  781SOL    HW2 3243   1.435   4.016   0.122
  782SOL     OW 3244   0.192   5.452   0.698
  782SOL    HW1 3245   0.277   5.411   0.665
  782SOL    HW2 3246   0.115   5.391   0.677
  783SOL     OW 3247   1.857   5.650   0.529
  783SOL    HW1 3248   1.818   5.740   0.549
  783SOL    HW2 3249   1.956   5.653   0.544
  784SOL     OW 3250   5.767   5.282   2.860
  784SOL    HW1 3251   5.726   5.325   2.940
  784SOL    HW2 3252   5.732   5.324   2.776
  785SOL     OW 3253   6.177   2.859   3.391
  785SOL    HW1 3254   6.250   2.879   3.457
  785SOL    HW2 3255   6.092   2.902   3.421
  786SOL     OW 3256   5.815   6.709   1.514
  786SOL    HW1 3257   5.909   6.744   1.514
  786SOL    HW2 3258   5.816   6.611   1.530
  787SOL     OW 3259   4.087   1.153   6.960
  787SOL    HW1 3260   4.087   1.248   6.992
  787SOL    HW2 3261   4.164   1.138   6.899
  788SOL     OW 3262   0.341   4.338   3.626
  788SOL    HW1 3263   0.339   4.279   3.707
  788SOL    HW2 3264   0.388   4.424   3.648
  789SOL     OW 3265   6.038   3.084   0.688
  789SOL    HW1 3266   6.111   3.037   0.738
  789SOL    HW2 3267   5.953   3.032   0.695
  790SOL     OW 3268   2.983   0.396   4.001
  790SOL    HW1 3269   2.947   0.440   4.084
  790SOL    HW2 3270   3.001   0.300   4.021
  791SOL     OW 3271   3.549   0.901   4.406
  791SOL    HW1 3272   3.611   0.858   4.472
  791SOL    HW2 3273   3.522   0.834   4.337
  792SOL     OW 3274   5.536   0.999   3.685
  792SOL    HW1 3275   5.610   0.946   3.726
  792SOL    HW2 3276   5.568   1.039   3.599
  793SOL     OW 3277   0.286   6.896   6.728
  793SOL    HW1 3278   0.237   6.810   6.738
  793SOL    HW2 3279   0.350   6.907   6.804
  794SOL     OW 3280   3.602   5.086   4.989
  794SOL    HW1 3281   3.642   5.029   4.917
  794SOL    HW2 3282   3.674   5.126   5.045
  795SOL     OW 3283   4.874   5.294   6.885
  795SOL    HW1 3284   4.895   5.377   6.937
  795SOL    HW2 3285   4.834   5.320   6.797
  796SOL     OW 3286   1.218   1.643   5.616
  796SOL    HW1 3287   1.186   1.737   5.615
  796SOL    HW2 3288   1.208   1.603   5.524
  797SOL     OW 3289   6.095   3.163   5.560
  797SOL    HW1 3290   6.159   3.162   5.484
  797SOL    HW2 3291   6.002   3.164   5.526
  798SOL     OW 3292   6.080   0.835   4.454
  798SOL    HW1 3293   6.163   0.891   4.453
  798SOL    HW2 3294   6.016   0.869   4.385
  799SOL     OW 3295   6.978   3.869   3.688
  799SOL    HW1 3296   6.955   3.896   3.594
  799SOL    HW2 3297   6.927   3.926   3.752
  800SOL     OW 3298   0.222   2.548   2.625
  800SOL    HW1 3299   0.272   2.469   2.589
  800SOL    HW2 3300   0.265   2.633   2.593
  801SOL     OW 3301   0.621   3.251   3.475
  801SOL    HW1 3302   0.581   3.258   3.566
  801SOL    HW2 3303   0.718   3.228   3.482
  802SOL     OW 3304   6.581   1.429   0.714
  802SOL    HW1 3305   6.521   1.350   0.732
  802SOL    HW2 3306   6.622   1.460   0.799
  803SOL     OW 3307   2.052   0.555   4.340
  803SOL    HW1 3308   2.003   0.473   4.369
  803SOL    HW2 3309   2.004   0.597   4.263
  804SOL     OW 3310   5.685   5.804   0.506
  804SOL    HW1 3311   5.719   5.859   0.582
  804SOL    HW2 3312   5.715   5.709   0.517
  805SOL     OW 3313   2.133   2.430   6.386
  805SOL    HW1 3314   2.106   2.461   6.477
  805SOL    HW2 3315   2.052   2.424   6.328
  806SOL     OW 3316   4.297   6.386   0.558
  806SOL    HW1 3317   4.395   6.369   0.565
  806SOL    HW2 3318   4.260   6.337   0.478
  807SOL     OW 3319   0.850   0.593   3.564
  807SOL    HW1 3320   0.891   0.655   3.630
  807SOL    HW2 3321   0.827   0.643   3.481
  808SOL     OW 3322   5.532   3.676   4.578
  808SOL    HW1 3323   5.476   3.593   4.586
  808SOL    HW2 3324   5.619   3.661   4.625
  809SOL     OW 3325   6.934   5.595   5.834
  809SOL    HW1 3326   6.948   5.541   5.751
  809SOL    HW2 3327   6.868   5.668   5.816
  810SOL     OW 3328   5.844   5.425   5.948
  810SOL    HW1 3329   5.879   5.355   6.010
  810SOL    HW2 3330   5.748   5.406   5.927
  811SOL     OW 3331   3.092   4.821   2.770
  811SOL    HW1 3332   3.034   4.744   2.745
  811SOL    HW2 3333   3.049   4.874   2.843
  812SOL     OW 3334   0.058   0.615   2.631
  812SOL    HW1 3335   0.153   0.595   2.655
  812SOL    HW2 3336   0.001   0.608   2.713
  813SOL     OW 3337   5.059   5.392   1.675
  813SOL    HW1 3338   5.004   5.310   1.693
  813SOL    HW2 3339   5.151   5.366   1.647
  814SOL     OW 3340   5.247   5.730   1.603
  814SOL    HW1 3341   5.263   5.673   1.685
  814SOL    HW2 3342   5.295   5.689   1.525
  815SOL     OW 3343   0.842   1.339   0.994
  815SOL    HW1 3344   0.866   1.433   1.019
  815SOL    HW2 3345   0.865   1.277   1.069
  816SOL     OW 3346   5.826   0.365   1.486
  816SOL    HW1 3347   5.801   0.283   1.434
  816SOL    HW2 3348   5.924   0.382   1.476
  817SOL     OW 3349   0.605   2.542   1.913
  817SOL    HW1 3350   0.540   2.466   1.909
  817SOL    HW2 3351   0.695   2.507   1.941
  818SOL     OW 3352   6.051   1.295   3.059
  818SOL    HW1 3353   5.995   1.338   2.987
  818SOL    HW2 3354   6.108   1.224   3.018
  819SOL     OW 3355   0.251   5.225   2.402
  819SOL    HW1 3356   0.252   5.130   2.434
  819SOL    HW2 3357   0.311   5.234   2.323
  820SOL     OW 3358   2.720   3.041   5.826
  820SOL    HW1 3359   2.687   3.133   5.804
  820SOL    HW2 3360   2.696   3.019   5.920
  821SOL     OW 3361   1.059   4.174   0.783
  821SOL    HW1 3362   1.156   4.199   0.781
  821SOL    HW2 3363   1.038   4.114   0.706
  822SOL     OW 3364   0.502   3.089   5.043
  822SOL    HW1 3365   0.479   3.176   5.085
  822SOL    HW2 3366   0.577   3.102   4.979
  823SOL     OW 3367   3.995   4.172   1.749
  823SOL    HW1 3368   4.019   4.207   1.839
  823SOL    HW2 3369   4.062   4.103   1.721
  824SOL     OW 3370   6.077   3.126   6.489
  824SOL    HW1 3371   6.075   3.027   6.482
  824SOL    HW2 3372   6.071   3.166   6.398
  825SOL     OW 3373   1.946   3.075   1.578
  825SOL    HW1 3374   2.031   3.024   1.563
  825SOL    HW2 3375   1.943   3.153   1.516
  826SOL     OW 3376   0.959   1.967   6.751
  826SOL    HW1 3377   0.988   1.884   6.799
  826SOL    HW2 3378   1.018   1.983   6.672
  827SOL     OW 3379   3.518   4.597   1.067
  827SOL    HW1 3380   3.477   4.651   0.995
  827SOL    HW2 3381   3.610   4.568   1.040
  828SOL     OW 3382   5.627   1.250   5.081
  828SOL    HW1 3383   5.606   1.347   5.092
  828SOL    HW2 3384   5.635   1.207   5.171
  829SOL     OW 3385   3.878   4.446   5.598
  829SOL    HW1 3386   3.877   4.471   5.501
  829SOL    HW2 3387   3.787   4.416   5.625
  830SOL     OW 3388   4.787   3.196   6.484
  830SOL    HW1 3389   4.724   3.138   6.432
  830SOL    HW2 3390   4.847   3.246   6.421
  831SOL     OW 3391   5.535   1.463   5.206
  831SOL    HW1 3392   5.479   1.473   5.289
  831SOL    HW2 3393   5.507   1.532   5.139
  832SOL     OW 3394   2.514   1.217   6.013
  832SOL    HW1 3395   2.576   1.140   6.026
  832SOL    HW2 3396   2.536   1.290   6.077
  833SOL     OW 3397   1.175   0.292   4.997
  833SOL    HW1 3398   1.165   0.370   5.058
  833SOL    HW2 3399   1.175   0.207   5.050
  834SOL     OW 3400   2.944   4.515   5.887
  834SOL    HW1 3401   2.876   4.582   5.917
  834SOL    HW2 3402   2.898   4.432   5.855
  835SOL     OW 3403   3.848   1.612   2.691
  835SOL    HW1 3404   3.897   1.567   2.765
  835SOL    HW2 3405   3.774   1.667   2.728
  836SOL     OW 3406   2.266   0.845   5.691
  836SOL    HW1 3407   2.264   0.939   5.655
  836SOL    HW2 3408   2.223   0.843   5.781
  837SOL     OW 3409   4.103   2.005   4.261
  837SOL    HW1 3410   4.176   2.068   4.289
  837SOL    HW2 3411   4.141   1.938   4.197
  838SOL     OW 3412   0.722   6.807   2.722
  838SOL    HW1 3413   0.783   6.850   2.789
  838SOL    HW2 3414   0.640   6.863   2.712
  839SOL     OW 3415   2.034   1.622   2.103
  839SOL    HW1 3416   2.085   1.636   2.187
  839SOL    HW2 3417   1.979   1.703   2.083
  840SOL     OW 3418   1.412   1.058   5.616
  840SOL    HW1 3419   1.435   1.147   5.577
  840SOL    HW2 3420   1.413   1.065   5.716
  841SOL     OW 3421   0.110   3.733   0.631
  841SOL    HW1 3422   0.189   3.783   0.669
  841SOL    HW2 3423   0.124   3.635   0.642
  842SOL     OW 3424   3.787   4.946   4.089
  842SOL    HW1 3425   3.871   4.916   4.133
  842SOL    HW2 3426   3.709   4.918   4.144
  843SOL     OW 3427   6.967   3.450   1.252
  843SOL    HW1 3428   0.029   3.505   1.266
  843SOL    HW2 3429   6.993   3.356   1.229
  844SOL     OW 3430   5.678   4.664   6.125
  844SOL    HW1 3431   5.672   4.574   6.082
  844SOL    HW2 3432   5.727   4.656   6.212
  845SOL     OW 3433   1.972   4.717   5.601
  845SOL    HW1 3434   2.031   4.638   5.584
  845SOL    HW2 3435   1.899   4.719   5.532
  846SOL     OW 3436   4.579   2.100   0.275
  846SOL    HW1 3437   4.570   2.171   0.345
  846SOL    HW2 3438   4.674   2.094   0.245
  847SOL     OW 3439   4.859   4.525   2.130
  847SOL    HW1 3440   4.806   4.446   2.096
  847SOL    HW2 3441   4.857   4.525   2.230
  848SOL     OW 3442   5.624   0.243   5.954
  848SOL    HW1 3443   5.657   0.236   5.860
  848SOL    HW2 3444   5.668   0.320   6.000
  849SOL     OW 3445   1.041   6.280   3.892
  849SOL    HW1 3446   1.060   6.198   3.947
  849SOL    HW2 3447   1.061   6.362   3.946
  850SOL     OW 3448   3.035   1.120   3.451
  850SOL    HW1 3449   3.050   1.172   3.535
  850SOL    HW2 3450   2.938   1.122   3.427
  851SOL     OW 3451   6.826   1.189   5.705
  851SOL    HW1 3452   6.812   1.095   5.674
  851SOL    HW2 3453   6.766   1.250   5.653
  852SOL     OW 3454   3.175   5.158   5.138
  852SOL    HW1 3455   3.100   5.139   5.075
  852SOL    HW2 3456   3.145   5.224   5.207
  853SOL     OW 3457   0.666   4.162   0.528
  853SOL    HW1 3458   0.725   4.204   0.597
  853SOL    HW2 3459   0.717   4.089   0.482
  854SOL     OW 3460   6.215   5.319   0.737
  854SOL    HW1 3461   6.171   5.368   0.662
  854SOL    HW2 3462   6.162   5.332   0.821
  855SOL     OW 3463   4.462   0.546   0.386
  855SOL    HW1 3464   4.415   0.622   0.432
  855SOL    HW2 3465   4.535   0.582   0.328
  856SOL     OW 3466   1.332   0.409   5.296
  856SOL    HW1 3467   1.307   0.503   5.274
  856SOL    HW2 3468   1.420   0.409   5.344
  857SOL     OW 3469   5.985   4.331   1.962
  857SOL    HW1 3470   5.936   4.417   1.971
  857SOL    HW2 3471   5.943   4.275   1.890
  858SOL     OW 3472   3.438   3.850   2.360
  858SOL    HW1 3473   3.520   3.822   2.410
  858SOL    HW2 3474   3.450   3.944   2.327
  859SOL     OW 3475   0.297   4.530   1.108
  859SOL    HW1 3476   0.221   4.569   1.160
  859SOL    HW2 3477   0.381   4.580   1.127
  860SOL     OW 3478   1.566   4.350   5.973
  860SOL    HW1 3479   1.495   4.387   5.914
  860SOL    HW2 3480   1.656   4.378   5.938
  861SOL     OW 3481   4.376   4.383   6.198
  861SOL    HW1 3482   4.290   4.333   6.193
  861SOL    HW2 3483   4.440   4.333   6.256
  862SOL     OW 3484   4.489   4.617   3.795
  862SOL    HW1 3485   4.491   4.633   3.697
  862SOL    HW2 3486   4.512   4.521   3.814
  863SOL     OW 3487   6.267   2.928   1.587
  863SOL    HW1 3488   6.278   3.023   1.556
  863SOL    HW2 3489   6.224   2.927   1.677
  864SOL     OW 3490   0.680   6.045   1.981
  864SOL    HW1 3491   0.614   6.087   1.919
  864SOL    HW2 3492   0.754   6.110   2.000
  865SOL     OW 3493   1.713   1.268   4.417
  865SOL    HW1 3494   1.813   1.266   4.406
  865SOL    HW2 3495   1.672   1.311   4.337
  866SOL     OW 3496   4.033   0.857   1.675
  866SOL    HW1 3497   4.113   0.892   1.626
  866SOL    HW2 3498   4.043   0.875   1.773
  867SOL     OW 3499   2.802   1.689   5.942
  867SOL    HW1 3500   2.884   1.745   5.939
  867SOL    HW2 3501   2.809   1.623   6.017
  868SOL     OW 3502   5.030   2.131   3.664
  868SOL    HW1 3503   4.952   2.189   3.643
  868SOL    HW2 3504   5.098   2.184   3.716
  869SOL     OW 3505   6.688   3.778   0.532
  869SOL    HW1 3506   6.718   3.689   0.495
  869SOL    HW2 3507   6.752   3.808   0.602
  870SOL     OW 3508   6.332   1.234   0.479
  870SOL    HW1 3509   6.348   1.331   0.496
  870SOL    HW2 3510   6.233   1.216   0.481
  871SOL     OW 3511   6.800   4.903   0.373
  871SOL    HW1 3512   6.771   4.815   0.337
  871SOL    HW2 3513   6.725   4.944   0.425
  872SOL     OW 3514   6.842   1.662   1.611
  872SOL    HW1 3515   6.781   1.626   1.681
  872SOL    HW2 3516   6.840   1.762   1.613
  873SOL     OW 3517   3.773   6.639   4.275
  873SOL    HW1 3518   3.758   6.603   4.183
  873SOL    HW2 3519   3.688   6.635   4.327
  874SOL     OW 3520   1.185   3.866   6.610
  874SOL    HW1 3521   1.160   3.831   6.519
  874SOL    HW2 3522   1.102   3.895   6.658
  875SOL     OW 3523   6.179   6.061   6.163
  875SOL    HW1 3524   6.106   6.043   6.098
  875SOL    HW2 3525   6.141   6.069   6.255
  876SOL     OW 3526   2.850   2.436   1.196
  876SOL    HW1 3527   2.944   2.429   1.164
  876SOL    HW2 3528   2.845   2.406   1.292
  877SOL     OW 3529   5.715   5.866   6.008
  877SOL    HW1 3530   5.631   5.834   5.964
  877SOL    HW2 3531   5.765   5.926   5.945
  878SOL     OW 3532   4.234   3.575   1.148
  878SOL    HW1 3533   4.324   3.532   1.140
  878SOL    HW2 3534   4.180   3.529   1.218
  879SOL     OW 3535   5.162   3.249   3.535
  879SOL    HW1 3536   5.068   3.232   3.506
  879SOL    HW2 3537   5.210   3.161   3.545
  880SOL     OW 3538   4.234   6.651   1.345
  880SOL    HW1 3539   4.281   6.594   1.278
  880SOL    HW2 3540   4.190   6.728   1.299
  881SOL     OW 3541   5.064   5.245   2.958
  881SOL    HW1 3542   5.128   5.225   3.033
  881SOL    HW2 3543   5.007   5.322   2.983
  882SOL     OW 3544   0.704   2.232   5.228
  882SOL    HW1 3545   0.668   2.311   5.278
  882SOL    HW2 3546   0.754   2.173   5.292
  883SOL     OW 3547   3.232   4.952   0.047
  883SOL    HW1 3548   3.183   4.892   0.109
  883SOL    HW2 3549   3.331   4.944   0.063
  884SOL     OW 3550   4.042   4.984   1.258
  884SOL    HW1 3551   4.034   4.885   1.251
  884SOL    HW2 3552   4.091   5.020   1.179
  885SOL     OW 3553   4.020   5.996   6.505
  885SOL    HW1 3554   3.943   6.002   6.567
  885SOL    HW2 3555   3.989   5.965   6.415
  886SOL     OW 3556   4.031   2.146   6.243
  886SOL    HW1 3557   3.933   2.167   6.247
  886SOL    HW2 3558   4.080   2.197   6.313
  887SOL     OW 3559   6.386   6.719   4.883
  887SOL    HW1 3560   6.323   6.642   4.894
  887SOL    HW2 3561   6.339   6.804   4.907
  888SOL     OW 3562   6.731   1.149   2.989
  888SOL    HW1 3563   6.763   1.176   3.080
  888SOL    HW2 3564   6.691   1.228   2.943
  889SOL     OW 3565   1.004   0.661   4.569
  889SOL    HW1 3566   0.943   0.733   4.601
  889SOL    HW2 3567   1.044   0.687   4.481
  890SOL     OW 3568   2.344   3.228   0.655
  890SOL    HW1 3569   2.389   3.166   0.591
  890SOL    HW2 3570   2.313   3.177   0.735
  891SOL     OW 3571   6.170   2.926   5.696
  891SOL    HW1 3572   6.140   3.004   5.641
  891SOL    HW2 3573   6.267   2.910   5.681
  892SOL     OW 3574   1.976   4.704   1.818
  892SOL    HW1 3575   2.073   4.685   1.801
  892SOL    HW2 3576   1.965   4.800   1.845
  893SOL     OW 3577   1.724   6.827   2.144
  893SOL    HW1 3578   1.772   6.791   2.065
  893SOL    HW2 3579   1.671   6.754   2.187
  894SOL     OW 3580   1.487   4.730   4.267
  894SOL    HW1 3581   1.572   4.751   4.314
  894SOL    HW2 3582   1.429   4.812   4.264
  895SOL     OW 3583   2.459   1.254   4.530
  895SOL    HW1 3584   2.518   1.334   4.541
  895SOL    HW2 3585   2.516   1.172   4.527
  896SOL     OW 3586   4.772   0.378   3.697
  896SOL    HW1 3587   4.843   0.320   3.737
  896SOL    HW2 3588   4.754   0.348   3.603
  897SOL     OW 3589   6.125   1.114   6.508
  897SOL    HW1 3590   6.124   1.016   6.491
  897SOL    HW2 3591   6.035   1.142   6.543
  898SOL     OW 3592   4.939   5.887   3.583
  898SOL    HW1 3593   4.937   5.835   3.497
  898SOL    HW2 3594   4.929   5.984   3.563
  899SOL     OW 3595   1.373   5.207   0.168
  899SOL    HW1 3596   1.362   5.301   0.134
  899SOL    HW2 3597   1.470   5.189   0.183
  900SOL     OW 3598   0.273   5.859   3.279
  900SOL    HW1 3599   0.232   5.770   3.296
  900SOL    HW2 3600   0.358   5.848   3.229
  901SOL     OW 3601   6.423   2.035   3.509
  901SOL    HW1 3602   6.487   1.976   3.559
  901SOL    HW2 3603   6.421   2.126   3.550
  902SOL     OW 3604   1.539   6.044   0.406
  902SOL    HW1 3605   1.444   6.014   0.414
  902SOL    HW2 3606   1.598   5.984   0.460
  903SOL     OW 3607   1.179   4.770   6.314
  903SOL    HW1 3608   1.193   4.714   6.233
  903SOL    HW2 3609   1.265   4.778   6.365
  904SOL     OW 3610   1.443   2.342   4.342
  904SOL    HW1 3611   1.347   2.351   4.317
  904SOL    HW2 3612   1.483   2.433   4.355
  905SOL     OW 3613   6.324   3.428   3.504
  905SOL    HW1 3614   6.416   3.451   3.471
  905SOL    HW2 3615   6.315   3.457   3.599
  906SOL     OW 3616   6.908   2.939   5.513
  906SOL    HW1 3617   6.859   2.851   5.519
  906SOL    HW2 3618   6.842   3.012   5.495
  907SOL     OW 3619   0.002   3.881   2.526
  907SOL    HW1 3620   6.929   3.872   2.489
  907SOL    HW2 3621   0.068   3.855   2.455
  908SOL     OW 3622   2.392   1.384   3.694
  908SOL    HW1 3623   2.484   1.416   3.718
  908SOL    HW2 3624   2.400   1.301   3.640
  909SOL     OW 3625   3.247   6.817   2.544
  909SOL    HW1 3626   3.224   6.766   2.461
  909SOL    HW2 3627   3.179   6.889   2.559
  910SOL     OW 3628   1.148   0.801   2.274
  910SOL    HW1 3629   1.056   0.817   2.311
  910SOL    HW2 3630   1.143   0.798   2.174
  911SOL     OW 3631   1.014   2.799   0.856
  911SOL    HW1 3632   0.969   2.858   0.789
  911SOL    HW2 3633   0.985   2.827   0.948
  912SOL     OW 3634   2.283   0.990   0.678
  912SOL    HW1 3635   2.318   0.921   0.615
  912SOL    HW2 3636   2.283   1.079   0.633
  913SOL     OW 3637   2.021   0.790   2.073
  913SOL    HW1 3638   2.100   0.810   2.130
  913SOL    HW2 3639   1.980   0.704   2.101
  914SOL     OW 3640   3.122   4.904   2.256
  914SOL    HW1 3641   3.070   4.857   2.185
  914SOL    HW2 3642   3.176   4.977   2.216
  915SOL     OW 3643   3.094   2.376   1.081
  915SOL    HW1 3644   3.073   2.422   0.995
  915SOL    HW2 3645   3.181   2.327   1.072
  916SOL     OW 3646   0.496   3.531   2.368
  916SOL    HW1 3647   0.493   3.446   2.315
  916SOL    HW2 3648   0.589   3.544   2.402
  917SOL     OW 3649   3.966   0.822   5.922
  917SOL    HW1 3650   4.048   0.830   5.979
  917SOL    HW2 3651   3.901   0.893   5.946
  918SOL     OW 3652   0.096   2.392   4.821
  918SOL    HW1 3653   0.142   2.334   4.888
  918SOL    HW2 3654   0.037   2.336   4.764
  919SOL     OW 3655   0.323   0.290   0.791
  919SOL    HW1 3656   0.421   0.294   0.775
  919SOL    HW2 3657   0.293   0.376   0.833
  920SOL     OW 3658   0.985   1.816   2.257
  920SOL    HW1 3659   0.973   1.850   2.164
  920SOL    HW2 3660   0.999   1.893   2.319
  921SOL     OW 3661   4.133   4.254   0.342
  921SOL    HW1 3662   4.155   4.195   0.264
  921SOL    HW2 3663   4.188   4.227   0.421
  922SOL     OW 3664   2.286   5.754   6.408
  922SOL    HW1 3665   2.225   5.809   6.464
  922SOL    HW2 3666   2.379   5.759   6.444
  923SOL     OW 3667   3.588   0.993   6.915
  923SOL    HW1 3668   3.546   0.956   6.997
  923SOL    HW2 3669   3.663   1.055   6.940
  924SOL     OW 3670   5.850   5.223   1.866
  924SOL    HW1 3671   5.865   5.124   1.873
  924SOL    HW2 3672   5.817   5.245   1.774
  925SOL     OW 3673   5.653   2.523   1.915
  925SOL    HW1 3674   5.606   2.451   1.967
  925SOL    HW2 3675   5.619   2.523   1.821
  926SOL     OW 3676   3.648   5.915   1.550
  926SOL    HW1 3677   3.713   5.990   1.545
  926SOL    HW2 3678   3.605   5.915   1.640
  927SOL     OW 3679   5.245   5.433   5.048
  927SOL    HW1 3680   5.192   5.497   4.993
  927SOL    HW2 3681   5.183   5.367   5.090
  928SOL     OW 3682   6.882   1.432   1.285
  928SOL    HW1 3683   6.841   1.517   1.251
  928SOL    HW2 3684   6.907   1.443   1.382
  929SOL     OW 3685   6.946   2.663   2.290
  929SOL    HW1 3686   6.933   2.605   2.210
  929SOL    HW2 3687   6.976   2.754   2.260
  930SOL     OW 3688   6.314   4.709   2.709
  930SOL    HW1 3689   6.403   4.751   2.725
  930SOL    HW2 3690   6.243   4.780   2.712
  931SOL     OW 3691   0.251   3.372   1.223
  931SOL    HW1 3692   0.279   3.311   1.148
  931SOL    HW2 3693   0.224   3.460   1.185
  932SOL     OW 3694   4.543   6.471   0.983
  932SOL    HW1 3695   4.542   6.565   0.950
  932SOL    HW2 3696   4.451   6.446   1.014
  933SOL     OW 3697   0.675   6.462   3.249
  933SOL    HW1 3698   0.726   6.516   3.315
  933SOL    HW2 3699   0.656   6.371   3.287
  934SOL     OW 3700   4.234   1.886   5.319
  934SOL    HW1 3701   4.303   1.816   5.300
  934SOL    HW2 3702   4.232   1.953   5.245
  935SOL     OW 3703   1.241   3.751   4.207
  935SOL    HW1 3704   1.220   3.780   4.113
  935SOL    HW2 3705   1.184   3.673   4.232
  936SOL     OW 3706   0.791   0.925   1.828
  936SOL    HW1 3707   0.858   0.908   1.756
  936SOL    HW2 3708   0.803   1.017   1.864
  937SOL     OW 3709   4.917   2.130   3.279
  937SOL    HW1 3710   4.852   2.196   3.241
  937SOL    HW2 3711   4.932   2.057   3.213
  938SOL     OW 3712   0.949   0.762   6.406
  938SOL    HW1 3713   0.955   0.802   6.314
  938SOL    HW2 3714   0.880   0.690   6.406
  939SOL     OW 3715   6.526   0.654   4.787
  939SOL    HW1 3716   6.574   0.698   4.712
  939SOL    HW2 3717   6.570   0.678   4.874
  940SOL     OW 3718   6.001   0.256   3.663
  940SOL    HW1 3719   6.101   0.255   3.667
  940SOL    HW2 3720   5.964   0.295   3.747
  941SOL     OW 3721   5.596   3.109   4.730
  941SOL    HW1 3722   5.628   3.041   4.664
  941SOL    HW2 3723   5.670   3.174   4.748
  942SOL     OW 3724   4.544   6.186   5.616
  942SOL    HW1 3725   4.625   6.230   5.655
  942SOL    HW2 3726   4.566   6.091   5.593
  943SOL     OW 3727   5.190   1.976   0.534
  943SOL    HW1 3728   5.231   2.066   0.519
  943SOL    HW2 3729   5.090   1.983   0.524
  944SOL     OW 3730   4.750   4.793   4.267
  944SOL    HW1 3731   4.775   4.887   4.243
  944SOL    HW2 3732   4.673   4.764   4.210
  945SOL     OW 3733   6.111   3.016   6.914
  945SOL    HW1 3734   6.080   3.101   6.872
  945SOL    HW2 3735   6.037   2.979   6.971
  946SOL     OW 3736   6.680   2.758   5.761
  946SOL    HW1 3737   6.748   2.785   5.693
  946SOL    HW2 3738   6.719   2.767   5.852
  947SOL     OW 3739   1.134   2.482   6.091
  947SOL    HW1 3740   1.189   2.440   6.163
  947SOL    HW2 3741   1.195   2.522   6.022
  948SOL     OW 3742   3.678   2.183   0.778
  948SOL    HW1 3743   3.705   2.215   0.688
  948SOL    HW2 3744   3.679   2.259   0.843
  949SOL     OW 3745   5.589   5.370   5.909
  949SOL    HW1 3746   5.510   5.411   5.864
  949SOL    HW2 3747   5.581   5.270   5.908
  950SOL     OW 3748   3.951   5.372   1.119
  950SOL    HW1 3749   3.862   5.325   1.111
  950SOL    HW2 3750   4.023   5.311   1.087
  951SOL     OW 3751   0.399   2.916   3.495
  951SOL    HW1 3752   0.445   2.991   3.447
  951SOL    HW2 3753   0.459   2.836   3.497
  952SOL     OW 3754   4.630   1.549   1.152
  952SOL    HW1 3755   4.538   1.544   1.113
  952SOL    HW2 3756   4.664   1.643   1.146
  953SOL     OW 3757   4.023   6.294   5.513
  953SOL    HW1 3758   4.117   6.267   5.533
  953SOL    HW2 3759   4.011   6.391   5.535
  954SOL     OW 3760   6.260   6.603   1.333
  954SOL    HW1 3761   6.253   6.541   1.254
  954SOL    HW2 3762   6.326   6.675   1.312
  955SOL     OW 3763   1.654   6.226   3.527
  955SOL    HW1 3764   1.717   6.207   3.602
  955SOL    HW2 3765   1.616   6.141   3.493
  956SOL     OW 3766   1.540   2.819   0.342
  956SOL    HW1 3767   1.512   2.856   0.431
  956SOL    HW2 3768   1.536   2.719   0.345
  957SOL     OW 3769   2.312   5.931   4.650
  957SOL    HW1 3770   2.274   6.023   4.638
  957SOL    HW2 3771   2.248   5.863   4.614
  958SOL     OW 3772   4.414   2.427   6.582
  958SOL    HW1 3773   4.442   2.502   6.521
  958SOL    HW2 3774   4.330   2.453   6.630
  959SOL     OW 3775   1.966   4.573   0.319
  959SOL    HW1 3776   1.978   4.638   0.243
  959SOL    HW2 3777   1.971   4.622   0.406
  960SOL     OW 3778   1.567   3.797   5.888
  960SOL    HW1 3779   1.639   3.865   5.900
  960SOL    HW2 3780   1.608   3.706   5.879
  961SOL     OW 3781   3.558   6.255   6.975
  961SOL    HW1 3782   3.649   6.221   6.952
  961SOL    HW2 3783   3.554   6.354   6.959
  962SOL     OW 3784   0.835   0.089   3.585
  962SOL    HW1 3785   0.875   0.065   3.673
  962SOL    HW2 3786   0.837   0.010   3.524
  963SOL     OW 3787   5.605   0.081   2.832
  963SOL    HW1 3788   5.597   0.068   2.733
  963SOL    HW2 3789   5.590   0.177   2.855
  964SOL     OW 3790   6.446   4.747   1.820
  964SOL    HW1 3791   6.381   4.819   1.796
  964SOL    HW2 3792   6.438   4.671   1.754
  965SOL     OW 3793   2.108   2.037   0.433
  965SOL    HW1 3794   2.200   2.020   0.397
  965SOL    HW2 3795   2.044   2.048   0.357
  966SOL     OW 3796   5.519   2.324   2.053
  966SOL    HW1 3797   5.451   2.322   2.127
  966SOL    HW2 3798   5.600   2.273   2.082
  967SOL     OW 3799   1.078   5.248   2.696
  967SOL    HW1 3800   1.154   5.186   2.715
  967SOL    HW2 3801   1.039   5.281   2.782
  968SOL     OW 3802   0.324   4.566   0.508
  968SOL    HW1 3803   0.258   4.630   0.546
  968SOL    HW2 3804   0.325   4.574   0.409
  969SOL     OW 3805   3.309   6.837   6.831
  969SOL    HW1 3806   3.299   6.936   6.836
  969SOL    HW2 3807   3.303   6.798   6.922
  970SOL     OW 3808   5.633   4.017   6.539
  970SOL    HW1 3809   5.569   4.006   6.464
  970SOL    HW2 3810   5.665   4.111   6.543
  971SOL     OW 3811   0.439   1.928   0.039
  971SOL    HW1 3812   0.501   1.854   0.064
  971SOL    HW2 3813   0.348   1.890   0.020
  972SOL     OW 3814   4.189   6.714   6.491
  972SOL    HW1 3815   4.260   6.746   6.555
  972SOL    HW2 3816   4.112   6.777   6.493
  973SOL     OW 3817   6.657   3.075   6.126
  973SOL    HW1 3818   6.562   3.088   6.096
  973SOL    HW2 3819   6.659   3.067   6.226
  974SOL     OW 3820   2.293   0.460   4.241
  974SOL    HW1 3821   2.272   0.377   4.190
  974SOL    HW2 3822   2.208   0.504   4.271
  975SOL     OW 3823   2.893   0.090   4.586
  975SOL    HW1 3824   2.917   0.157   4.516
  975SOL    HW2 3825   2.798   0.061   4.573
  976SOL     OW 3826   0.325   4.768   3.933
  976SOL    HW1 3827   0.423   4.785   3.928
  976SOL    HW2 3828   0.302   4.733   4.024
  977SOL     OW 3829   1.158   1.874   1.925
  977SOL    HW1 3830   1.207   1.787   1.930
  977SOL    HW2 3831   1.192   1.928   1.848
  978SOL     OW 3832   5.952   2.974   3.456
  978SOL    HW1 3833   5.945   3.072   3.437
  978SOL    HW2 3834   5.865   2.930   3.434
  979SOL     OW 3835   6.292   1.393   2.702
  979SOL    HW1 3836   6.200   1.354   2.697
  979SOL    HW2 3837   6.357   1.332   2.657
  980SOL     OW 3838   6.412   6.245   5.433
  980SOL    HW1 3839   6.455   6.326   5.471
  980SOL    HW2 3840   6.477   6.195   5.376
  981SOL     OW 3841   6.109   3.473   0.200
  981SOL    HW1 3842   6.121   3.442   0.295
  981SOL    HW2 3843   6.039   3.544   0.197
  982SOL     OW 3844   1.716   4.682   6.847
  982SOL    HW1 3845   1.703   4.585   6.868
  982SOL    HW2 3846   1.635   4.734   6.874
  983SOL     OW 3847   5.808   1.641   3.048
  983SOL    HW1 3848   5.732   1.701   3.071
  983SOL    HW2 3849   5.894   1.683   3.075
  984SOL     OW 3850   5.083   3.273   5.637
  984SOL    HW1 3851   5.063   3.180   5.607
  984SOL    HW2 3852   5.145   3.316   5.571
  985SOL     OW 3853   2.521   4.484   0.261
  985SOL    HW1 3854   2.503   4.413   0.329
  985SOL    HW2 3855   2.440   4.499   0.205
  986SOL     OW 3856   5.126   3.958   5.187
  986SOL    HW1 3857   5.035   3.919   5.174
  986SOL    HW2 3858   5.147   3.962   5.285
  987SOL     OW 3859   3.040   1.276   2.997
  987SOL    HW1 3860   3.131   1.297   2.963
  987SOL    HW2 3861   3.029   1.177   3.006
  988SOL     OW 3862   3.819   3.360   1.309
  988SOL    HW1 3863   3.851   3.331   1.218
  988SOL    HW2 3864   3.721   3.339   1.318
  989SOL     OW 3865   0.834   1.198   4.800
  989SOL    HW1 3866   0.745   1.162   4.772
  989SOL    HW2 3867   0.906   1.134   4.774
  990SOL     OW 3868   4.409   5.938   2.300
  990SOL    HW1 3869   4.359   5.858   2.335
  990SOL    HW2 3870   4.438   5.995   2.377
  991SOL     OW 3871   5.898   1.664   6.021
  991SOL    HW1 3872   5.908   1.589   6.086
  991SOL    HW2 3873   5.908   1.629   5.928
  992SOL     OW 3874   0.219   2.662   0.373
  992SOL    HW1 3875   0.265   2.623   0.293
  992SOL    HW2 3876   0.185   2.588   0.431
  993SOL     OW 3877   4.320   6.803   4.049
  993SOL    HW1 3878   4.269   6.720   4.029
  993SOL    HW2 3879   4.360   6.838   3.964
  994SOL     OW 3880   2.883   3.592   3.823
  994SOL    HW1 3881   2.786   3.569   3.819
  994SOL    HW2 3882   2.912   3.597   3.918
  995SOL     OW 3883   1.430   1.871   4.877
  995SOL    HW1 3884   1.454   1.960   4.915
  995SOL    HW2 3885   1.340   1.843   4.911
  996SOL     OW 3886   1.669   3.328   6.719
  996SOL    HW1 3887   1.687   3.246   6.773
  996SOL    HW2 3888   1.597   3.382   6.763
  997SOL     OW 3889   0.314   1.284   0.434
  997SOL    HW1 3890   0.223   1.319   0.411
  997SOL    HW2 3891   0.306   1.213   0.503
  998SOL     OW 3892   5.004   0.207   3.362
  998SOL    HW1 3893   5.069   0.209   3.286
  998SOL    HW2 3894   4.988   0.301   3.394
  999SOL     OW 3895   6.801   4.977   0.028
  999SOL    HW1 3896   6.893   4.949   0.054
  999SOL    HW2 3897   6.738   4.899   0.040
 1000SOL     OW 3898   3.717   1.791   4.696
 1000SOL    HW1 3899   3.623   1.773   4.722
 1000SOL    HW2 3900   3.749   1.875   4.740
 1001SOL     OW 3901   4.899   1.067   4.422
 1001SOL    HW1 3902   4.808   1.057   4.464
 1001SOL    HW2 3903   4.965   1.097   4.491
 1002SOL     OW 3904   0.274   1.247   0.132
 1002SOL    HW1 3905   0.220   1.271   0.213
 1002SOL    HW2 3906   0.212   1.229   0.055
 1003SOL     OW 3907   4.577   4.942   2.456
 1003SOL    HW1 3908   4.559   4.858   2.405
 1003SOL    HW2 3909   4.553   5.021   2.399
 1004SOL     OW 3910   5.978   5.983   0.011
 1004SOL    HW1 3911   6.072   6.009   0.030
 1004SOL    HW2 3912   5.915   6.051   0.049
 1005SOL     OW 3913   5.517   6.186   3.177
 1005SOL    HW1 3914   5.489   6.272   3.132
 1005SOL    HW2 3915   5.587   6.141   3.122
 1006SOL     OW 3916   1.705   5.328   0.375
 1006SOL    HW1 3917   1.736   5.332   0.280
 1006SOL    HW2 3918   1.781   5.301   0.434
 1007SOL     OW 3919   6.136   1.926   2.779
 1007SOL    HW1 3920   6.161   2.012   2.823
 1007SOL    HW2 3921   6.199   1.908   2.704
 1008SOL     OW 3922   3.395   1.554   5.317
 1008SOL    HW1 3923   3.305   1.593   5.338
 1008SOL    HW2 3924   3.421   1.489   5.388
 1009SOL     OW 3925   3.084   6.447   5.421
 1009SOL    HW1 3926   3.065   6.353   5.447
 1009SOL    HW2 3927   3.151   6.486   5.485
 1010SOL     OW 3928   5.092   6.529   5.635
 1010SOL    HW1 3929   5.085   6.554   5.732
 1010SOL    HW2 3930   5.061   6.606   5.579
 1011SOL     OW 3931   2.989   5.094   4.177
 1011SOL    HW1 3932   3.021   5.172   4.231
 1011SOL    HW2 3933   3.043   5.088   4.093
 1012SOL     OW 3934   3.169   6.137   1.033
 1012SOL    HW1 3935   3.156   6.075   1.110
 1012SOL    HW2 3936   3.266   6.161   1.026
 1013SOL     OW 3937   0.516   0.196   6.705
 1013SOL    HW1 3938   0.424   0.236   6.708
 1013SOL    HW2 3939   0.527   0.143   6.622
 1014SOL     OW 3940   5.960   0.321   6.663
 1014SOL    HW1 3941   6.010   0.283   6.740
 1014SOL    HW2 3942   5.870   0.277   6.657
 1015SOL     OW 3943   2.581   0.496   4.845
 1015SOL    HW1 3944   2.556   0.555   4.768
 1015SOL    HW2 3945   2.605   0.405   4.810
 1016SOL     OW 3946   4.381   3.206   1.488
 1016SOL    HW1 3947   4.291   3.209   1.446
 1016SOL    HW2 3948   4.378   3.153   1.572
 1017SOL     OW 3949   4.874   6.914   5.987
 1017SOL    HW1 3950   4.969   6.897   6.012
 1017SOL    HW2 3951   4.866   7.003   5.941
 1018SOL     OW 3952   1.219   1.635   1.582
 1018SOL    HW1 3953   1.251   1.668   1.671
 1018SOL    HW2 3954   1.253   1.542   1.567
 1019SOL     OW 3955   5.385   1.507   0.506
 1019SOL    HW1 3956   5.338   1.455   0.578
 1019SOL    HW2 3957   5.342   1.597   0.496
 1020SOL     OW 3958   4.038   1.938   1.596
 1020SOL    HW1 3959   3.953   1.988   1.583
 1020SOL    HW2 3960   4.115   1.999   1.576
 1021SOL     OW 3961   6.396   1.708   1.165
 1021SOL    HW1 3962   6.420   1.618   1.202
 1021SOL    HW2 3963   6.383   1.702   1.066
 1022SOL     OW 3964   3.331   3.283   0.178
 1022SOL    HW1 3965   3.263   3.212   0.162
 1022SOL    HW2 3966   3.343   3.297   0.277
 1023SOL     OW 3967   6.659   0.806   4.224
 1023SOL    HW1 3968   6.706   0.729   4.182
 1023SOL    HW2 3969   6.723   0.883   4.233
 1024SOL     OW 3970   6.321   2.503   3.724
 1024SOL    HW1 3971   6.260   2.537   3.796
 1024SOL    HW2 3972   6.401   2.563   3.716
 1025SOL     OW 3973   2.343   4.493   1.958
 1025SOL    HW1 3974   2.278   4.510   1.883
 1025SOL    HW2 3975   2.303   4.426   2.021
 1026SOL     OW 3976   0.632   2.835   6.268
 1026SOL    HW1 3977   0.668   2.927   6.258
 1026SOL    HW2 3978   0.532   2.836   6.263
 1027SOL     OW 3979   1.891   5.095   0.801
 1027SOL    HW1 3980   1.950   5.120   0.879
 1027SOL    HW2 3981   1.797   5.087   0.832
 1028SOL     OW 3982   0.302   5.504   6.690
 1028SOL    HW1 3983   0.303   5.476   6.786
 1028SOL    HW2 3984   0.376   5.458   6.641
 1029SOL     OW 3985   4.130   1.062   4.537
 1029SOL    HW1 3986   4.149   0.987   4.601
 1029SOL    HW2 3987   4.208   1.075   4.477
 1030SOL     OW 3988   4.340   5.065   4.817
 1030SOL    HW1 3989   4.417   5.034   4.763
 1030SOL    HW2 3990   4.294   4.986   4.859
 1031SOL     OW 3991   2.326   6.156   1.218
 1031SOL    HW1 3992   2.367   6.207   1.142
 1031SOL    HW2 3993   2.385   6.165   1.298
 1032SOL     OW 3994   1.174   2.136   5.338
 1032SOL    HW1 3995   1.079   2.165   5.351
 1032SOL    HW2 3996   1.234   2.192   5.394
 1033SOL     OW 3997   2.903   6.938   1.652
 1033SOL    HW1 3998   2.839   7.010   1.678
 1033SOL    HW2 3999   2.959   6.913   1.732
 1034SOL     OW 4000   0.090   5.677   2.360
 1034SOL    HW1 4001   0.034   5.632   2.290
 1034SOL    HW2 4002   0.033   5.734   2.418
 1035SOL     OW 4003   3.588   2.071   3.130
 1035SOL    HW1 4004   3.633   2.024   3.054
 1035SOL    HW2 4005   3.489   2.056   3.124
 1036SOL     OW 4006   4.853   6.866   6.350
 1036SOL    HW1 4007   4.927   6.838   6.411
 1036SOL    HW2 4008   4.891   6.921   6.275
 1037SOL     OW 4009   3.910   1.130   5.947
 1037SOL    HW1 4010   4.005   1.102   5.934
 1037SOL    HW2 4011   3.907   1.226   5.974
 1038SOL     OW 4012   2.814   1.899   5.220
 1038SOL    HW1 4013   2.870   1.923   5.142
 1038SOL    HW2 4014   2.758   1.819   5.198
 1039SOL     OW 4015   5.309   1.755   2.463
 1039SOL    HW1 4016   5.241   1.813   2.507
 1039SOL    HW2 4017   5.400   1.795   2.474
 1040SOL     OW 4018   5.732   4.761   4.574
 1040SOL    HW1 4019   5.740   4.857   4.599
 1040SOL    HW2 4020   5.819   4.728   4.537
 1041SOL     OW 4021   1.742   6.691   4.747
 1041SOL    HW1 4022   1.712   6.721   4.656
 1041SOL    HW2 4023   1.807   6.616   4.738
 1042SOL     OW 4024   4.943   4.145   0.756
 1042SOL    HW1 4025   4.904   4.164   0.846
 1042SOL    HW2 4026   4.942   4.046   0.739
 1043SOL     OW 4027   4.193   0.264   6.242
 1043SOL    HW1 4028   4.266   0.261   6.309
 1043SOL    HW2 4029   4.227   0.306   6.157
 1044SOL     OW 4030   3.577   4.159   3.855
 1044SOL    HW1 4031   3.551   4.134   3.762
 1044SOL    HW2 4032   3.666   4.120   3.877
 1045SOL     OW 4033   2.195   1.653   2.340
 1045SOL    HW1 4034   2.288   1.616   2.332
 1045SOL    HW2 4035   2.194   1.728   2.405
 1046SOL     OW 4036   2.811   1.072   2.367
 1046SOL    HW1 4037   2.897   1.116   2.390
 1046SOL    HW2 4038   2.757   1.059   2.450
 1047SOL     OW 4039   0.142   6.595   2.009
 1047SOL    HW1 4040   0.132   6.496   2.021
 1047SOL    HW2 4041   0.091   6.642   2.080
 1048SOL     OW 4042   6.970   3.714   4.990
 1048SOL    HW1 4043   7.011   3.676   4.907
 1048SOL    HW2 4044   6.871   3.697   4.989
 1049SOL     OW 4045   6.913   3.564   5.596
 1049SOL    HW1 4046   6.921   3.527   5.504
 1049SOL    HW2 4047   6.983   3.634   5.611
 1050SOL     OW 4048   2.988   0.566   1.395
 1050SOL    HW1 4049   3.072   0.542   1.348
 1050SOL    HW2 4050   2.909   0.526   1.348
 1051SOL     OW 4051   5.048   3.860   2.045
 1051SOL    HW1 4052   5.018   3.953   2.067
 1051SOL    HW2 4053   5.004   3.830   1.960
 1052SOL     OW 4054   2.784   6.794   3.990
 1052SOL    HW1 4055   2.686   6.791   4.013
 1052SOL    HW2 4056   2.803   6.876   3.937
 1053SOL     OW 4057   3.454   5.626   2.995
 1053SOL    HW1 4058   3.432   5.607   3.091
 1053SOL    HW2 4059   3.420   5.552   2.937
 1054SOL     OW 4060   3.583   6.657   5.214
 1054SOL    HW1 4061   3.541   6.680   5.126
 1054SOL    HW2 4062   3.609   6.742   5.261
 1055SOL     OW 4063   3.626   4.938   4.425
 1055SOL    HW1 4064   3.571   4.929   4.508
 1055SOL    HW2 4065   3.723   4.940   4.449
 1056SOL     OW 4066   2.730   5.582   0.322
 1056SOL    HW1 4067   2.733   5.620   0.414
 1056SOL    HW2 4068   2.823   5.575   0.285
 1057SOL     OW 4069   3.680   3.873   1.569
 1057SOL    HW1 4070   3.643   3.947   1.513
 1057SOL    HW2 4071   3.736   3.912   1.643
 1058SOL     OW 4072   2.824   0.445   2.114
 1058SOL    HW1 4073   2.819   0.503   2.033
 1058SOL    HW2 4074   2.819   0.349   2.087
 1059SOL     OW 4075   4.064   6.757   0.832
 1059SOL    HW1 4076   4.132   6.702   0.880
 1059SOL    HW2 4077   4.069   6.738   0.734
 1060SOL     OW 4078   3.691   1.818   4.134
 1060SOL    HW1 4079   3.661   1.735   4.089
 1060SOL    HW2 4080   3.633   1.895   4.106
 1061SOL     OW 4081   2.548   5.689   1.483
 1061SOL    HW1 4082   2.536   5.605   1.537
 1061SOL    HW2 4083   2.461   5.715   1.442
 1062SOL     OW 4084   5.204   3.932   4.916
 1062SOL    HW1 4085   5.172   3.945   5.009
 1062SOL    HW2 4086   5.145   3.868   4.868
 1063SOL     OW 4087   4.036   2.267   5.974
 1063SOL    HW1 4088   4.098   2.233   6.044
 1063SOL    HW2 4089   3.975   2.193   5.945
 1064SOL     OW 4090   0.718   3.154   2.917
 1064SOL    HW1 4091   0.703   3.214   2.838
 1064SOL    HW2 4092   0.684   3.062   2.896
 1065SOL     OW 4093   4.179   5.706   0.102
 1065SOL    HW1 4094   4.181   5.614   0.142
 1065SOL    HW2 4095   4.205   5.773   0.171
 1066SOL     OW 4096   5.532   0.306   3.371
 1066SOL    HW1 4097   5.570   0.302   3.463
 1066SOL    HW2 4098   5.533   0.214   3.330
 1067SOL     OW 4099   3.590   4.033   0.596
 1067SOL    HW1 4100   3.503   3.985   0.588
 1067SOL    HW2 4101   3.622   4.061   0.506
 1068SOL     OW 4102   1.251   5.316   2.260
 1068SOL    HW1 4103   1.308   5.383   2.308
 1068SOL    HW2 4104   1.277   5.314   2.164
 1069SOL     OW 4105   3.666   3.522   3.024
 1069SOL    HW1 4106   3.642   3.431   3.056
 1069SOL    HW2 4107   3.583   3.570   2.993
 1070SOL     OW 4108   1.444   6.496   0.227
 1070SOL    HW1 4109   1.428   6.582   0.179
 1070SOL    HW2 4110   1.539   6.468   0.214
 1071SOL     OW 4111   4.779   5.634   3.609
 1071SOL    HW1 4112   4.839   5.713   3.604
 1071SOL    HW2 4113   4.738   5.629   3.700
 1072SOL     OW 4114   4.515   5.496   3.568
 1072SOL    HW1 4115   4.612   5.475   3.575
 1072SOL    HW2 4116   4.480   5.463   3.480
 1073SOL     OW 4117   2.935   5.925   3.430
 1073SOL    HW1 4118   2.990   5.879   3.360
 1073SOL    HW2 4119   2.845   5.947   3.393
 1074SOL     OW 4120   2.283   4.961   3.668
 1074SOL    HW1 4121   2.345   4.922   3.735
 1074SOL    HW2 4122   2.194   4.978   3.710
 1075SOL     OW 4123   0.807   4.444   2.645
 1075SOL    HW1 4124   0.825   4.439   2.546
 1075SOL    HW2 4125   0.893   4.445   2.695
 1076SOL     OW 4126   5.331   3.606   3.200
 1076SOL    HW1 4127   5.322   3.668   3.278
 1076SOL    HW2 4128   5.291   3.517   3.224
 1077SOL     OW 4129   3.772   1.045   2.143
 1077SOL    HW1 4130   3.709   1.089   2.079
 1077SOL    HW2 4131   3.756   0.947   2.145
 1078SOL     OW 4132   6.295   2.624   2.156
 1078SOL    HW1 4133   6.217   2.571   2.124
 1078SOL    HW2 4134   6.371   2.562   2.179
 1079SOL     OW 4135   2.171   4.652   3.035
 1079SOL    HW1 4136   2.165   4.752   3.041
 1079SOL    HW2 4137   2.234   4.619   3.105
 1080SOL     OW 4138   2.470   5.437   3.839
 1080SOL    HW1 4139   2.441   5.342   3.849
 1080SOL    HW2 4140   2.554   5.441   3.785
 1081SOL     OW 4141   1.373   0.327   0.890
 1081SOL    HW1 4142   1.339   0.241   0.851
 1081SOL    HW2 4143   1.296   0.389   0.903
 1082SOL     OW 4144   1.621   0.501   1.173
 1082SOL    HW1 4145   1.663   0.450   1.098
 1082SOL    HW2 4146   1.684   0.571   1.205
 1083SOL     OW 4147   3.687   3.401   1.716
 1083SOL    HW1 4148   3.681   3.489   1.763
 1083SOL    HW2 4149   3.777   3.360   1.733
 1084SOL     OW 4150   5.893   4.153   1.780
 1084SOL    HW1 4151   5.991   4.155   1.763
 1084SOL    HW2 4152   5.844   4.158   1.693
 1085SOL     OW 4153   1.807   5.579   3.778
 1085SOL    HW1 4154   1.740   5.590   3.851
 1085SOL    HW2 4155   1.845   5.668   3.754
 1086SOL     OW 4156   2.636   6.239   2.241
 1086SOL    HW1 4157   2.724   6.224   2.195
 1086SOL    HW2 4158   2.563   6.246   2.172
 1087SOL     OW 4159   3.736   3.133   5.273
 1087SOL    HW1 4160   3.693   3.064   5.332
 1087SOL    HW2 4161   3.669   3.205   5.253
 1088SOL     OW 4162   0.001   5.319   2.462
 1088SOL    HW1 4163   0.092   5.291   2.430
 1088SOL    HW2 4164   6.952   5.256   2.426
 1089SOL     OW 4165   0.016   0.880   3.079
 1089SOL    HW1 4166   6.939   0.874   3.102
 1089SOL    HW2 4167   0.029   0.945   3.004
 1090SOL     OW 4168   2.840   2.302   6.828
 1090SOL    HW1 4169   2.831   2.207   6.858
 1090SOL    HW2 4170   2.790   2.315   6.743
 1091SOL     OW 4171   1.490   2.240   5.832
 1091SOL    HW1 4172   1.431   2.186   5.892
 1091SOL    HW2 4173   1.528   2.317   5.883
 1092SOL     OW 4174   3.000   4.794   1.607
 1092SOL    HW1 4175   2.944   4.829   1.533
 1092SOL    HW2 4176   2.960   4.709   1.642
 1093SOL     OW 4177   0.065   1.963   1.402
 1093SOL    HW1 4178   0.026   2.037   1.347
 1093SOL    HW2 4179   0.061   1.877   1.351
 1094SOL     OW 4180   0.996   5.904   2.627
 1094SOL    HW1 4181   0.954   5.845   2.696
 1094SOL    HW2 4182   0.980   6.000   2.651
 1095SOL     OW 4183   1.463   3.148   5.650
 1095SOL    HW1 4184   1.426   3.145   5.742
 1095SOL    HW2 4185   1.545   3.206   5.649
 1096SOL     OW 4186   3.700   2.978   2.239
 1096SOL    HW1 4187   3.664   2.914   2.170
 1096SOL    HW2 4188   3.770   2.932   2.294
 1097SOL     OW 4189   2.911   5.194   5.564
 1097SOL    HW1 4190   2.977   5.194   5.489
 1097SOL    HW2 4191   2.842   5.265   5.547
 1098SOL     OW 4192   2.940   0.778   2.879
 1098SOL    HW1 4193   3.019   0.723   2.854
 1098SOL    HW2 4194   2.970   0.861   2.925
 1099SOL     OW 4195   2.940   0.387   2.356
 1099SOL    HW1 4196   2.882   0.419   2.280
 1099SOL    HW2 4197   2.970   0.466   2.410
 1100SOL     OW 4198   6.719   0.942   0.375
 1100SOL    HW1 4199   6.713   0.890   0.290
 1100SOL    HW2 4200   6.639   0.921   0.432
 1101SOL     OW 4201   5.744   4.654   1.223
 1101SOL    HW1 4202   5.784   4.660   1.314
 1101SOL    HW2 4203   5.747   4.559   1.191
 1102SOL     OW 4204   6.847   4.403   4.151
 1102SOL    HW1 4205   6.898   4.486   4.172
 1102SOL    HW2 4206   6.755   4.427   4.121
 1103SOL     OW 4207   0.671   2.292   6.648
 1103SOL    HW1 4208   0.770   2.287   6.630
 1103SOL    HW2 4209   0.639   2.203   6.679
 1104SOL     OW 4210   2.861   5.410   5.858
 1104SOL    HW1 4211   2.867   5.417   5.758
 1104SOL    HW2 4212   2.773   5.370   5.883
 1105SOL     OW 4213   4.107   6.059   0.604
 1105SOL    HW1 4214   4.073   5.967   0.626
 1105SOL    HW2 4215   4.125   6.109   0.689
 1106SOL     OW 4216   1.021   1.705   6.902
 1106SOL    HW1 4217   0.959   1.700   6.980
 1106SOL    HW2 4218   1.021   1.618   6.854
 1107SOL     OW 4219   6.538   6.893   1.332
 1107SOL    HW1 4220   6.625   6.940   1.346
 1107SOL    HW2 4221   6.485   6.940   1.262
 1108SOL     OW 4222   1.064   1.269   0.215
 1108SOL    HW1 4223   1.070   1.331   0.137
 1108SOL    HW2 4224   1.059   1.174   0.181
 1109SOL     OW 4225   3.878   1.502   3.472
 1109SOL    HW1 4226   3.913   1.434   3.536
 1109SOL    HW2 4227   3.954   1.553   3.431
 1110SOL     OW 4228   3.825   3.350   3.237
 1110SOL    HW1 4229   3.736   3.305   3.246
 1110SOL    HW2 4230   3.838   3.413   3.313
 1111SOL     OW 4231   3.865   6.972   6.906
 1111SOL    HW1 4232   3.792   7.018   6.856
 1111SOL    HW2 4233   3.953   7.012   6.881
 1112SOL     OW 4234   0.934   1.509   2.516
 1112SOL    HW1 4235   0.837   1.507   2.541
 1112SOL    HW2 4236   0.989   1.476   2.593
 1113SOL     OW 4237   0.041   4.411   2.067
 1113SOL    HW1 4238   0.094   4.338   2.024
 1113SOL    HW2 4239   6.966   4.405   2.037
 1114SOL     OW 4240   5.934   1.187   5.696
 1114SOL    HW1 4241   5.848   1.237   5.697
 1114SOL    HW2 4242   5.943   1.136   5.610
 1115SOL     OW 4243   2.177   4.776   0.409
 1115SOL    HW1 4244   2.127   4.786   0.496
 1115SOL    HW2 4245   2.112   4.752   0.337
 1116SOL     OW 4246   3.276   6.547   6.463
 1116SOL    HW1 4247   3.199   6.531   6.524
 1116SOL    HW2 4248   3.299   6.463   6.415
 1117SOL     OW 4249   3.038   2.893   0.666
 1117SOL    HW1 4250   2.953   2.875   0.616
 1117SOL    HW2 4251   3.105   2.822   0.643
 1118SOL     OW 4252   1.479   2.388   0.929
 1118SOL    HW1 4253   1.467   2.294   0.896
 1118SOL    HW2 4254   1.557   2.430   0.883
 1119SOL     OW 4255   2.927   3.277   3.888
 1119SOL    HW1 4256   2.978   3.354   3.850
 1119SOL    HW2 4257   2.894   3.300   3.979
 1120SOL     OW 4258   3.473   1.263   3.454
 1120SOL    HW1 4259   3.402   1.193   3.459
 1120SOL    HW2 4260   3.431   1.354   3.459
 1121SOL     OW 4261   4.871   4.256   2.890
 1121SOL    HW1 4262   4.885   4.169   2.843
 1121SOL    HW2 4263   4.914   4.329   2.837
 1122SOL     OW 4264   4.941   4.993   6.875
 1122SOL    HW1 4265   4.843   4.978   6.867
 1122SOL    HW2 4266   4.961   5.089   6.856
 1123SOL     OW 4267   3.314   0.395   2.151
 1123SOL    HW1 4268   3.257   0.412   2.070
 1123SOL    HW2 4269   3.273   0.322   2.206
 1124SOL     OW 4270   2.637   5.078   3.518
 1124SOL    HW1 4271   2.539   5.098   3.513
 1124SOL    HW2 4272   2.651   4.979   3.516
 1125SOL     OW 4273   3.158   4.663   5.267
 1125SOL    HW1 4274   3.083   4.616   5.220
 1125SOL    HW2 4275   3.165   4.630   5.361
 1126SOL     OW 4276   6.227   0.477   1.986
 1126SOL    HW1 4277   6.291   0.419   2.037
 1126SOL    HW2 4278   6.151   0.503   2.046
 1127SOL     OW 4279   2.459   5.465   5.589
 1127SOL    HW1 4280   2.404   5.382   5.576
 1127SOL    HW2 4281   2.410   5.529   5.648
 1128SOL     OW 4282   2.516   1.921   5.253
 1128SOL    HW1 4283   2.560   2.011   5.258
 1128SOL    HW2 4284   2.475   1.899   5.342
 1129SOL     OW 4285   4.332   5.405   6.554
 1129SOL    HW1 4286   4.426   5.439   6.558
 1129SOL    HW2 4287   4.331   5.315   6.512
 1130SOL     OW 4288   1.081   5.211   5.188
 1130SOL    HW1 4289   1.086   5.152   5.107
 1130SOL    HW2 4290   1.106   5.158   5.269
 1131SOL     OW 4291   0.462   3.843   5.738
 1131SOL    HW1 4292   0.475   3.771   5.669
 1131SOL    HW2 4293   0.365   3.863   5.748
 1132SOL     OW 4294   5.288   6.848   4.897
 1132SOL    HW1 4295   5.332   6.889   4.817
 1132SOL    HW2 4296   5.321   6.754   4.908
 1133SOL     OW 4297   6.776   1.701   6.850
 1133SOL    HW1 4298   6.873   1.722   6.840
 1133SOL    HW2 4299   6.757   1.610   6.813
 1134SOL     OW 4300   0.489   3.261   5.438
 1134SOL    HW1 4301   0.481   3.315   5.522
 1134SOL    HW2 4302   0.402   3.215   5.420
 1135SOL     OW 4303   6.921   1.917   4.135
 1135SOL    HW1 4304   6.910   1.856   4.057
 1135SOL    HW2 4305   6.835   1.965   4.152
 1136SOL     OW 4306   3.726   5.497   4.017
 1136SOL    HW1 4307   3.714   5.444   3.933
 1136SOL    HW2 4308   3.636   5.530   4.048
 1137SOL     OW 4309   0.462   0.598   6.743
 1137SOL    HW1 4310   0.502   0.617   6.833
 1137SOL    HW2 4311   0.422   0.681   6.706
 1138SOL     OW 4312   1.225   2.578   5.833
 1138SOL    HW1 4313   1.312   2.607   5.874
 1138SOL    HW2 4314   1.243   2.530   5.747
 1139SOL     OW 4315   0.129   0.114   3.040
 1139SOL    HW1 4316   0.139   0.089   2.943
 1139SOL    HW2 4317   0.123   0.031   3.095
 1140SOL     OW 4318   4.419   2.031   3.226
 1140SOL    HW1 4319   4.334   2.052   3.275
 1140SOL    HW2 4320   4.427   2.090   3.146
 1141SOL     OW 4321   0.382   0.092   6.010
 1141SOL    HW1 4322   0.402   0.028   5.937
 1141SOL    HW2 4323   0.323   0.049   6.078
 1142SOL     OW 4324   6.004   0.490   5.290
 1142SOL    HW1 4325   6.067   0.413   5.294
 1142SOL    HW2 4326   5.995   0.522   5.195
 1143SOL     OW 4327   5.311   3.036   1.668
 1143SOL    HW1 4328   5.232   2.984   1.702
 1143SOL    HW2 4329   5.320   3.021   1.570
 1144SOL     OW 4330   1.208   6.994   4.493
 1144SOL    HW1 4331   1.230   0.070   4.511
 1144SOL    HW2 4332   1.181   6.950   4.579
 1145SOL     OW 4333   2.937   4.987   5.223
 1145SOL    HW1 4334   2.965   4.962   5.316
 1145SOL    HW2 4335   2.978   4.924   5.157
 1146SOL     OW 4336   6.025   2.112   1.958
 1146SOL    HW1 4337   6.064   2.103   1.867
 1146SOL    HW2 4338   5.971   2.030   1.979
 1147SOL     OW 4339   6.789   4.342   2.100
 1147SOL    HW1 4340   6.826   4.310   2.187
 1147SOL    HW2 4341   6.690   4.329   2.099
 1148SOL     OW 4342   5.758   6.979   6.201
 1148SOL    HW1 4343   5.746   0.058   6.201
 1148SOL    HW2 4344   5.692   6.937   6.139
 1149SOL     OW 4345   5.028   3.501   2.987
 1149SOL    HW1 4346   5.014   3.600   2.987
 1149SOL    HW2 4347   4.986   3.462   3.069
 1150SOL     OW 4348   2.650   6.075   5.043
 1150SOL    HW1 4349   2.652   6.070   5.143
 1150SOL    HW2 4350   2.572   6.022   5.009
 1151SOL     OW 4351   2.339   5.359   0.411
 1151SOL    HW1 4352   2.384   5.442   0.379
 1151SOL    HW2 4353   2.349   5.287   0.342
 1152SOL     OW 4354   6.713   1.036   3.560
 1152SOL    HW1 4355   6.684   1.115   3.506
 1152SOL    HW2 4356   6.675   1.043   3.653
 1153SOL     OW 4357   2.079   4.656   2.486
 1153SOL    HW1 4358   2.085   4.718   2.564
 1153SOL    HW2 4359   2.171   4.634   2.453
 1154SOL     OW 4360   1.538   3.772   1.815
 1154SOL    HW1 4361   1.626   3.817   1.799
 1154SOL    HW2 4362   1.497   3.807   1.899
 1155SOL     OW 4363   5.067   1.144   1.888
 1155SOL    HW1 4364   5.126   1.114   1.812
 1155SOL    HW2 4365   5.017   1.226   1.861
 1156SOL     OW 4366   2.687   0.879   4.131
 1156SOL    HW1 4367   2.619   0.809   4.154
 1156SOL    HW2 4368   2.777   0.851   4.165
 1157SOL     OW 4369   1.842   3.541   3.992
 1157SOL    HW1 4370   1.859   3.456   4.042
 1157SOL    HW2 4371   1.924   3.598   3.994
 1158SOL     OW 4372   4.894   5.378   5.250
 1158SOL    HW1 4373   4.904   5.420   5.160
 1158SOL    HW2 4374   4.972   5.317   5.267
 1159SOL     OW 4375   6.164   4.113   2.740
 1159SOL    HW1 4376   6.089   4.051   2.760
 1159SOL    HW2 4377   6.243   4.090   2.797
 1160SOL     OW 4378   2.599   2.598   1.534
 1160SOL    HW1 4379   2.591   2.499   1.545
 1160SOL    HW2 4380   2.561   2.626   1.446
 1161SOL     OW 4381   3.857   1.065   3.453
 1161SOL    HW1 4382   3.937   1.044   3.398
 1161SOL    HW2 4383   3.878   1.139   3.517
 1162SOL     OW 4384   3.244   5.183   1.751
 1162SOL    HW1 4385   3.222   5.228   1.665
 1162SOL    HW2 4386   3.168   5.123   1.777
 1163SOL     OW 4387   4.805   6.709   3.078
 1163SOL    HW1 4388   4.799   6.623   3.027
 1163SOL    HW2 4389   4.720   6.723   3.129
 1164SOL     OW 4390   6.600   4.515   4.100
 1164SOL    HW1 4391   6.522   4.470   4.142
 1164SOL    HW2 4392   6.568   4.577   4.028
 1165SOL     OW 4393   0.442   4.989   1.806
 1165SOL    HW1 4394   0.457   4.918   1.875
 1165SOL    HW2 4395   0.517   5.054   1.807
 1166SOL     OW 4396   3.685   0.821   6.009
 1166SOL    HW1 4397   3.664   0.912   6.045
 1166SOL    HW2 4398   3.709   0.760   6.084
 1167SOL     OW 4399   4.473   1.515   5.437
 1167SOL    HW1 4400   4.561   1.519   5.389
 1167SOL    HW2 4401   4.479   1.450   5.513
 1168SOL     OW 4402   5.277   1.025   4.082
 1168SOL    HW1 4403   5.205   1.018   4.151
 1168SOL    HW2 4404   5.341   1.097   4.108
 1169SOL     OW 4405   2.110   2.341   1.147
 1169SOL    HW1 4406   2.106   2.365   1.050
 1169SOL    HW2 4407   2.201   2.308   1.169
 1170SOL     OW 4408   2.439   0.982   1.970
 1170SOL    HW1 4409   2.387   0.920   1.910
 1170SOL    HW2 4410   2.500   1.039   1.915
 1171SOL     OW 4411   4.450   0.465   1.048
 1171SOL    HW1 4412   4.391   0.385   1.057
 1171SOL    HW2 4413   4.480   0.473   0.952
 1172SOL     OW 4414   3.690   3.233   6.005
 1172SOL    HW1 4415   3.712   3.239   5.908
 1172SOL    HW2 4416   3.687   3.325   6.045
 1173SOL     OW 4417   5.793   5.780   6.629
 1173SOL    HW1 4418   5.758   5.819   6.714
 1173SOL    HW2 4419   5.889   5.806   6.617
 1174SOL     OW 4420   3.802   5.677   6.842
 1174SOL    HW1 4421   3.727   5.698   6.780
 1174SOL    HW2 4422   3.783   5.592   6.891
 1175SOL     OW 4423   0.157   5.225   4.931
 1175SOL    HW1 4424   0.067   5.233   4.886
 1175SOL    HW2 4425   0.170   5.130   4.960
 1176SOL     OW 4426   6.360   3.410   1.763
 1176SOL    HW1 4427   6.367   3.510   1.763
 1176SOL    HW2 4428   6.428   3.371   1.701
 1177SOL     OW 4429   6.663   2.820   5.406
 1177SOL    HW1 4430   6.720   2.757   5.352
 1177SOL    HW2 4431   6.568   2.789   5.403
 1178SOL     OW 4432   4.535   5.141   2.200
 1178SOL    HW1 4433   4.458   5.204   2.209
 1178SOL    HW2 4434   4.620   5.193   2.194
 1179SOL     OW 4435   1.511   5.285   6.136
 1179SOL    HW1 4436   1.441   5.246   6.195
 1179SOL    HW2 4437   1.473   5.362   6.085
 1180SOL     OW 4438   2.324   0.964   4.200
 1180SOL    HW1 4439   2.257   1.018   4.250
 1180SOL    HW2 4440   2.407   1.018   4.186
 1181SOL     OW 4441   1.483   4.084   2.227
 1181SOL    HW1 4442   1.528   4.105   2.314
 1181SOL    HW2 4443   1.428   4.163   2.198
 1182SOL     OW 4444   6.982   3.622   4.082
 1182SOL    HW1 4445   6.955   3.525   4.083
 1182SOL    HW2 4446   6.998   3.650   3.987
 1183SOL     OW 4447   4.192   5.986   1.095
 1183SOL    HW1 4448   4.251   6.011   1.018
 1183SOL    HW2 4449   4.195   5.887   1.109
 1184SOL     OW 4450   4.124   2.925   7.011
 1184SOL    HW1 4451   4.123   3.017   6.973
 1184SOL    HW2 4452   4.030   2.893   0.004
 1185SOL     OW 4453   3.229   1.537   6.906
 1185SOL    HW1 4454   3.275   1.454   6.936
 1185SOL    HW2 4455   3.130   1.525   6.914
 1186SOL     OW 4456   3.929   6.979   4.982
 1186SOL    HW1 4457   3.844   6.940   4.948
 1186SOL    HW2 4458   4.006   6.939   4.933
 1187SOL     OW 4459   0.379   2.481   5.023
 1187SOL    HW1 4460   0.360   2.440   5.112
 1187SOL    HW2 4461   0.299   2.534   4.994
 1188SOL     OW 4462   1.732   0.878   5.944
 1188SOL    HW1 4463   1.672   0.926   6.008
 1188SOL    HW2 4464   1.683   0.861   5.858
 1189SOL     OW 4465   0.446   1.019   1.262
 1189SOL    HW1 4466   0.445   0.964   1.178
 1189SOL    HW2 4467   0.358   1.063   1.274
 1190SOL     OW 4468   3.192   5.942   1.583
 1190SOL    HW1 4469   3.168   5.846   1.592
 1190SOL    HW2 4470   3.112   5.994   1.552
 1191SOL     OW 4471   1.760   3.907   1.698
 1191SOL    HW1 4472   1.814   3.976   1.651
 1191SOL    HW2 4473   1.720   3.844   1.632
 1192SOL     OW 4474   3.409   5.483   2.752
 1192SOL    HW1 4475   3.405   5.578   2.724
 1192SOL    HW2 4476   3.501   5.463   2.788
 1193SOL     OW 4477   3.243   2.159   3.671
 1193SOL    HW1 4478   3.201   2.249   3.684
 1193SOL    HW2 4479   3.261   2.144   3.574
 1194SOL     OW 4480   6.678   2.560   2.960
 1194SOL    HW1 4481   6.660   2.623   2.885
 1194SOL    HW2 4482   6.595   2.508   2.981
 1195SOL     OW 4483   3.910   0.237   6.894
 1195SOL    HW1 4484   3.919   0.262   6.991
 1195SOL    HW2 4485   3.815   0.214   6.874
 1196SOL     OW 4486   1.412   5.379   3.211
 1196SOL    HW1 4487   1.447   5.305   3.269
 1196SOL    HW2 4488   1.365   5.447   3.268
 1197SOL     OW 4489   3.544   4.946   6.825
 1197SOL    HW1 4490   3.595   4.998   6.893
 1197SOL    HW2 4491   3.510   4.861   6.866
 1198SOL     OW 4492   3.279   1.033   3.117
 1198SOL    HW1 4493   3.319   1.043   3.026
 1198SOL    HW2 4494   3.349   1.050   3.187
 1199SOL     OW 4495   3.359   3.852   4.161
 1199SOL    HW1 4496   3.441   3.845   4.104
 1199SOL    HW2 4497   3.385   3.854   4.257
 1200SOL     OW 4498   4.799   4.008   1.362
 1200SOL    HW1 4499   4.726   4.069   1.332
 1200SOL    HW2 4500   4.791   3.991   1.460
 1201SOL     OW 4501   1.924   1.897   5.622
 1201SOL    HW1 4502   1.957   1.859   5.709
 1201SOL    HW2 4503   1.860   1.832   5.580
 1202SOL     OW 4504   6.071   6.767   4.295
 1202SOL    HW1 4505   6.105   6.691   4.239
 1202SOL    HW2 4506   6.147   6.826   4.321
 1203SOL     OW 4507   5.652   0.169   1.982
 1203SOL    HW1 4508   5.647   0.201   1.887
 1203SOL    HW2 4509   5.642   0.246   2.044
 1204SOL     OW 4510   2.433   6.959   0.339
 1204SOL    HW1 4511   2.337   6.982   0.354
 1204SOL    HW2 4512   2.485   0.021   0.317
 1205SOL     OW 4513   0.764   3.180   6.033
 1205SOL    HW1 4514   0.750   3.263   5.979
 1205SOL    HW2 4515   0.758   3.099   5.973
 1206SOL     OW 4516   6.474   1.460   5.767
 1206SOL    HW1 4517   6.453   1.456   5.865
 1206SOL    HW2 4518   6.416   1.396   5.718
 1207SOL     OW 4519   6.431   5.993   6.000
 1207SOL    HW1 4520   6.499   6.022   5.933
 1207SOL    HW2 4521   6.341   6.031   5.976
 1208SOL     OW 4522   3.697   3.776   3.286
 1208SOL    HW1 4523   3.764   3.850   3.292
 1208SOL    HW2 4524   3.694   3.742   3.192
 1209SOL     OW 4525   0.043   3.437   4.817
 1209SOL    HW1 4526   0.109   3.403   4.883
 1209SOL    HW2 4527   6.977   3.386   4.826
 1210SOL     OW 4528   2.495   0.306   4.042
 1210SOL    HW1 4529   2.529   0.400   4.045
 1210SOL    HW2 4530   2.396   0.307   4.058
 1211SOL     OW 4531   6.970   3.579   3.311
 1211SOL    HW1 4532   6.905   3.599   3.238
 1211SOL    HW2 4533   0.010   3.658   3.324
 1212SOL     OW 4534   1.150   4.416   3.238
 1212SOL    HW1 4535   1.117   4.450   3.151
 1212SOL    HW2 4536   1.225   4.474   3.270
 1213SOL     OW 4537   6.135   3.489   5.033
 1213SOL    HW1 4538   6.161   3.403   4.987
 1213SOL    HW2 4539   6.186   3.565   4.991
 1214SOL     OW 4540   0.515   1.971   1.020
 1214SOL    HW1 4541   0.520   1.938   1.114
 1214SOL    HW2 4542   0.607   1.971   0.979
 1215SOL     OW 4543   0.849   6.671   2.005
 1215SOL    HW1 4544   0.779   6.602   1.986
 1215SOL    HW2 4545   0.937   6.641   1.968
 1216SOL     OW 4546   2.153   6.980   1.041
 1216SOL    HW1 4547   2.197   6.991   1.130
 1216SOL    HW2 4548   2.205   6.916   0.985
 1217SOL     OW 4549   1.491   2.728   3.223
 1217SOL    HW1 4550   1.486   2.629   3.237
 1217SOL    HW2 4551   1.584   2.755   3.200
 1218SOL     OW 4552   0.039   4.273   3.638
 1218SOL    HW1 4553   0.036   4.350   3.574
 1218SOL    HW2 4554   0.017   4.306   3.730
 1219SOL     OW 4555   1.732   5.934   3.064
 1219SOL    HW1 4556   1.807   5.882   3.106
 1219SOL    HW2 4557   1.656   5.872   3.044
 1220SOL     OW 4558   6.753   4.541   3.000
 1220SOL    HW1 4559   6.665   4.560   2.956
 1220SOL    HW2 4560   6.758   4.444   3.024
 1221SOL     OW 4561   4.776   4.804   6.550
 1221SOL    HW1 4562   4.704   4.740   6.576
 1221SOL    HW2 4563   4.748   4.855   6.469
 1222SOL     OW 4564   6.615   5.037   0.969
 1222SOL    HW1 4565   6.542   5.092   0.930
 1222SOL    HW2 4566   6.597   4.941   0.953
 1223SOL     OW 4567   0.685   4.546   4.528
 1223SOL    HW1 4568   0.643   4.475   4.473
 1223SOL    HW2 4569   0.773   4.513   4.563
 1224SOL     OW 4570   4.019   5.073   1.539
 1224SOL    HW1 4571   4.035   5.070   1.440
 1224SOL    HW2 4572   3.933   5.119   1.558
 1225SOL     OW 4573   5.156   1.745   6.300
 1225SOL    HW1 4574   5.203   1.738   6.388
 1225SOL    HW2 4575   5.086   1.817   6.306
 1226SOL     OW 4576   5.759   5.528   0.522
 1226SOL    HW1 4577   5.784   5.467   0.446
 1226SOL    HW2 4578   5.842   5.554   0.571
 1227SOL     OW 4579   6.100   4.660   0.643
 1227SOL    HW1 4580   6.131   4.746   0.602
 1227SOL    HW2 4581   6.004   4.668   0.668
 1228SOL     OW 4582   3.991   3.886   5.236
 1228SOL    HW1 4583   3.944   3.818   5.291
 1228SOL    HW2 4584   3.937   3.903   5.153
 1229SOL     OW 4585   1.896   5.417   2.270
 1229SOL    HW1 4586   1.878   5.326   2.308
 1229SOL    HW2 4587   1.850   5.425   2.181
 1230SOL     OW 4588   5.428   4.625   0.272
 1230SOL    HW1 4589   5.374   4.707   0.254
 1230SOL    HW2 4590   5.524   4.651   0.287
 1231SOL     OW 4591   1.749   0.623   0.913
 1231SOL    HW1 4592   1.733   0.527   0.888
 1231SOL    HW2 4593   1.838   0.652   0.878
 1232SOL     OW 4594   2.354   1.445   5.878
 1232SOL    HW1 4595   2.399   1.368   5.924
 1232SOL    HW2 4596   2.418   1.521   5.871
 1233SOL     OW 4597   0.213   5.448   4.525
 1233SOL    HW1 4598   0.256   5.359   4.539
 1233SOL    HW2 4599   0.114   5.438   4.524
 1234SOL     OW 4600   6.855   4.334   5.020
 1234SOL    HW1 4601   6.783   4.399   5.043
 1234SOL    HW2 4602   6.889   4.290   5.103
 1235SOL     OW 4603   6.528   5.180   0.079
 1235SOL    HW1 4604   6.454   5.246   0.065
 1235SOL    HW2 4605   6.506   5.120   0.155
 1236SOL     OW 4606   0.597   0.565   2.863
 1236SOL    HW1 4607   0.672   0.500   2.876
 1236SOL    HW2 4608   0.633   0.658   2.861
 1237SOL     OW 4609   0.693   0.758   4.574
 1237SOL    HW1 4610   0.656   0.807   4.495
 1237SOL    HW2 4611   0.741   0.823   4.633
 1238SOL     OW 4612   0.572   1.201   4.189
 1238SOL    HW1 4613   0.590   1.285   4.138
 1238SOL    HW2 4614   0.548   1.224   4.283
 1239SOL     OW 4615   5.199   4.886   3.506
 1239SOL    HW1 4616   5.249   4.930   3.581
 1239SOL    HW2 4617   5.120   4.942   3.482
 1240SOL     OW 4618   0.965   4.126   1.783
 1240SOL    HW1 4619   1.008   4.089   1.701
 1240SOL    HW2 4620   0.928   4.051   1.838
 1241SOL     OW 4621   3.566   5.707   6.410
 1241SOL    HW1 4622   3.534   5.617   6.442
 1241SOL    HW2 4623   3.655   5.697   6.367
 1242SOL     OW 4624   2.199   5.543   0.798
 1242SOL    HW1 4625   2.260   5.600   0.854
 1242SOL    HW2 4626   2.241   5.453   0.785
 1243SOL     OW 4627   0.693   4.129   3.889
 1243SOL    HW1 4628   0.752   4.201   3.852
 1243SOL    HW2 4629   0.603   4.136   3.847
 1244SOL     OW 4630   6.717   6.518   4.509
 1244SOL    HW1 4631   6.677   6.536   4.599
 1244SOL    HW2 4632   6.732   6.604   4.461
 1245SOL     OW 4633   4.342   0.098   1.758
 1245SOL    HW1 4634   4.336   0.007   1.717
 1245SOL    HW2 4635   4.416   0.149   1.715
 1246SOL     OW 4636   5.197   2.697   2.450
 1246SOL    HW1 4637   5.127   2.640   2.407
 1246SOL    HW2 4638   5.159   2.740   2.532
 1247SOL     OW 4639   4.649   6.309   2.936
 1247SOL    HW1 4640   4.683   6.370   2.865
 1247SOL    HW2 4641   4.585   6.243   2.896
 1248SOL     OW 4642   6.939   0.547   4.778
 1248SOL    HW1 4643   6.964   0.515   4.870
 1248SOL    HW2 4644   6.963   0.643   4.768
 1249SOL     OW 4645   6.250   6.891   6.998
 1249SOL    HW1 4646   6.331   6.905   0.035
 1249SOL    HW2 4647   6.195   6.818   0.017
 1250SOL     OW 4648   0.397   4.155   4.878
 1250SOL    HW1 4649   0.349   4.174   4.792
 1250SOL    HW2 4650   0.489   4.194   4.873
 1251SOL     OW 4651   2.485   0.607   3.349
 1251SOL    HW1 4652   2.569   0.586   3.399
 1251SOL    HW2 4653   2.490   0.699   3.312
 1252SOL     OW 4654   2.409   4.981   6.216
 1252SOL    HW1 4655   2.366   5.063   6.255
 1252SOL    HW2 4656   2.503   5.002   6.190
 1253SOL     OW 4657   3.433   5.198   0.683
 1253SOL    HW1 4658   3.353   5.169   0.631
 1253SOL    HW2 4659   3.490   5.118   0.705
 1254SOL     OW 4660   6.925   0.784   3.739
 1254SOL    HW1 4661   6.828   0.786   3.762
 1254SOL    HW2 4662   6.943   0.849   3.665
 1255SOL     OW 4663   5.950   1.767   6.309
 1255SOL    HW1 4664   5.926   1.673   6.333
 1255SOL    HW2 4665   5.942   1.779   6.210
 1256SOL     OW 4666   6.459   6.220   6.240
 1256SOL    HW1 4667   6.482   6.138   6.187
 1256SOL    HW2 4668   6.368   6.252   6.215
 1257SOL     OW 4669   0.081   6.400   2.369
 1257SOL    HW1 4670   0.152   6.462   2.404
 1257SOL    HW2 4671   0.121   6.340   2.300
 1258SOL     OW 4672   5.149   5.736   6.551
 1258SOL    HW1 4673   5.237   5.692   6.569
 1258SOL    HW2 4674   5.076   5.684   6.595
 1259SOL     OW 4675   6.281   6.665   4.570
 1259SOL    HW1 4676   6.349   6.649   4.641
 1259SOL    HW2 4677   6.191   6.674   4.612
 1260SOL     OW 4678   3.013   0.997   0.950
 1260SOL    HW1 4679   2.967   0.919   0.907
 1260SOL    HW2 4680   3.025   0.977   1.048
 1261SOL     OW 4681   0.631   4.369   4.907
 1261SOL    HW1 4682   0.632   4.457   4.955
 1261SOL    HW2 4683   0.702   4.310   4.946
 1262SOL     OW 4684   4.408   6.741   0.933
 1262SOL    HW1 4685   4.400   6.759   0.835
 1262SOL    HW2 4686   4.409   6.828   0.983
 1263SOL     OW 4687   6.612   1.260   1.059
 1263SOL    HW1 4688   6.634   1.352   1.027
 1263SOL    HW2 4689   6.661   1.241   1.143
 1264SOL     OW 4690   5.603   2.739   5.017
 1264SOL    HW1 4691   5.641   2.670   4.956
 1264SOL    HW2 4692   5.553   2.694   5.091
 1265SOL     OW 4693   5.640   5.260   4.181
 1265SOL    HW1 4694   5.722   5.208   4.157
 1265SOL    HW2 4695   5.666   5.351   4.213
 1266SOL     OW 4696   2.443   0.568   3.749
 1266SOL    HW1 4697   2.505   0.547   3.825
 1266SOL    HW2 4698   2.438   0.667   3.738
 1267SOL     OW 4699   0.291   4.940   2.403
 1267SOL    HW1 4700   0.239   4.857   2.423
 1267SOL    HW2 4701   0.378   4.917   2.360
 1268SOL     OW 4702   6.728   4.904   6.747
 1268SOL    HW1 4703   6.716   4.941   6.839
 1268SOL    HW2 4704   6.796   4.831   6.749
 1269SOL     OW 4705   1.123   3.956   6.198
 1269SOL    HW1 4706   1.104   3.858   6.207
 1269SOL    HW2 4707   1.208   3.969   6.148
 1270SOL     OW 4708   1.684   2.234   3.811
 1270SOL    HW1 4709   1.587   2.223   3.834
 1270SOL    HW2 4710   1.719   2.149   3.773
 1271SOL     OW 4711   5.527   3.581   3.015
 1271SOL    HW1 4712   5.573   3.497   2.984
 1271SOL    HW2 4713   5.463   3.558   3.089
 1272SOL     OW 4714   5.683   6.703   0.413
 1272SOL    HW1 4715   5.636   6.692   0.501
 1272SOL    HW2 4716   5.616   6.700   0.339
 1273SOL     OW 4717   2.623   6.653   4.591
 1273SOL    HW1 4718   2.686   6.575   4.590
 1273SOL    HW2 4719   2.667   6.731   4.637
 1274SOL     OW 4720   5.088   2.391   2.001
 1274SOL    HW1 4721   5.115   2.345   2.085
 1274SOL    HW2 4722   5.156   2.373   1.929
 1275SOL     OW 4723   3.674   1.057   3.840
 1275SOL    HW1 4724   3.716   1.100   3.920
 1275SOL    HW2 4725   3.636   1.128   3.780
 1276SOL     OW 4726   5.291   6.599   3.371
 1276SOL    HW1 4727   5.254   6.690   3.390
 1276SOL    HW2 4728   5.256   6.568   3.282
 1277SOL     OW 4729   0.579   2.034   4.693
 1277SOL    HW1 4730   0.495   2.012   4.644
 1277SOL    HW2 4731   0.611   1.953   4.744
 1278SOL     OW 4732   2.969   1.670   4.960
 1278SOL    HW1 4733   2.958   1.637   4.867
 1278SOL    HW2 4734   2.984   1.769   4.959
 1279SOL     OW 4735   1.878   4.907   0.440
 1279SOL    HW1 4736   1.923   4.853   0.511
 1279SOL    HW2 4737   1.780   4.911   0.458
 1280SOL     OW 4738   1.133   6.155   3.024
 1280SOL    HW1 4739   1.203   6.116   2.965
 1280SOL    HW2 4740   1.172   6.175   3.114
 1281SOL     OW 4741   0.801   6.540   4.031
 1281SOL    HW1 4742   0.869   6.470   4.055
 1281SOL    HW2 4743   0.716   6.495   4.002
 1282SOL     OW 4744   1.896   6.489   2.704
 1282SOL    HW1 4745   1.815   6.546   2.685
 1282SOL    HW2 4746   1.885   6.444   2.792
 1283SOL     OW 4747   5.220   4.237   5.144
 1283SOL    HW1 4748   5.164   4.289   5.080
 1283SOL    HW2 4749   5.188   4.142   5.146
 1284SOL     OW 4750   2.659   2.011   3.106
 1284SOL    HW1 4751   2.686   2.000   3.202
 1284SOL    HW2 4752   2.735   2.052   3.055
 1285SOL     OW 4753   5.757   2.210   5.597
 1285SOL    HW1 4754   5.788   2.155   5.520
 1285SOL    HW2 4755   5.704   2.288   5.564
 1286SOL     OW 4756   5.434   5.878   0.664
 1286SOL    HW1 4757   5.492   5.828   0.599
 1286SOL    HW2 4758   5.351   5.908   0.617
 1287SOL     OW 4759   6.131   3.150   6.186
 1287SOL    HW1 4760   6.155   3.247   6.172
 1287SOL    HW2 4761   6.161   3.098   6.106
 1288SOL     OW 4762   7.001   3.088   3.564
 1288SOL    HW1 4763   7.006   3.143   3.481
 1288SOL    HW2 4764   6.906   3.081   3.593
 1289SOL     OW 4765   0.571   5.212   2.818
 1289SOL    HW1 4766   0.508   5.192   2.893
 1289SOL    HW2 4767   0.577   5.311   2.806
 1290SOL     OW 4768   6.442   6.943   2.162
 1290SOL    HW1 4769   6.394   6.864   2.123
 1290SOL    HW2 4770   6.375   7.007   2.200
 1291SOL     OW 4771   1.856   5.894   1.641
 1291SOL    HW1 4772   1.825   5.858   1.554
 1291SOL    HW2 4773   1.956   5.891   1.645
 1292SOL     OW 4774   1.703   6.595   0.856
 1292SOL    HW1 4775   1.773   6.655   0.816
 1292SOL    HW2 4776   1.642   6.562   0.783
 1293SOL     OW 4777   6.455   1.522   6.777
 1293SOL    HW1 4778   6.469   1.621   6.768
 1293SOL    HW2 4779   6.376   1.504   6.836
 1294SOL     OW 4780   0.511   1.810   4.024
 1294SOL    HW1 4781   0.447   1.825   4.099
 1294SOL    HW2 4782   0.601   1.847   4.048
 1295SOL     OW 4783   5.239   4.179   0.751
 1295SOL    HW1 4784   5.139   4.180   0.747
 1295SOL    HW2 4785   5.275   4.253   0.692
 1296SOL     OW 4786   3.568   1.474   0.825
 1296SOL    HW1 4787   3.528   1.389   0.860
 1296SOL    HW2 4788   3.517   1.552   0.860
 1297SOL     OW 4789   6.037   0.751   6.073
 1297SOL    HW1 4790   6.134   0.744   6.052
 1297SOL    HW2 4791   5.999   0.834   6.031
 1298SOL     OW 4792   6.144   2.959   3.119
 1298SOL    HW1 4793   6.216   2.938   3.052
 1298SOL    HW2 4794   6.171   2.923   3.209
 1299SOL     OW 4795   1.463   3.871   4.679
 1299SOL    HW1 4796   1.429   3.932   4.751
 1299SOL    HW2 4797   1.510   3.925   4.610
 1300SOL     OW 4798   3.600   2.910   3.085
 1300SOL    HW1 4799   3.660   2.913   3.165
 1300SOL    HW2 4800   3.600   2.817   3.047
 1301SOL     OW 4801   1.066   0.650   1.751
 1301SOL    HW1 4802   1.087   0.746   1.766
 1301SOL    HW2 4803   0.995   0.642   1.682
 1302SOL     OW 4804   2.751   5.981   5.688
 1302SOL    HW1 4805   2.830   5.953   5.633
 1302SOL    HW2 4806   2.768   6.072   5.725
 1303SOL     OW 4807   2.942   0.137   1.302
 1303SOL    HW1 4808   2.857   0.136   1.354
 1303SOL    HW2 4809   3.005   0.202   1.344
 1304SOL     OW 4810   3.662   0.913   5.736
 1304SOL    HW1 4811   3.654   0.877   5.829
 1304SOL    HW2 4812   3.717   0.850   5.681
 1305SOL     OW 4813   5.920   6.605   4.452
 1305SOL    HW1 4814   5.834   6.594   4.402
 1305SOL    HW2 4815   5.986   6.654   4.395
 1306SOL     OW 4816   1.619   5.180   3.881
 1306SOL    HW1 4817   1.667   5.098   3.850
 1306SOL    HW2 4818   1.655   5.207   3.971
 1307SOL     OW 4819   1.370   1.131   5.212
 1307SOL    HW1 4820   1.320   1.145   5.127
 1307SOL    HW2 4821   1.425   1.212   5.233
 1308SOL     OW 4822   4.177   6.419   3.153
 1308SOL    HW1 4823   4.090   6.469   3.149
 1308SOL    HW2 4824   4.232   6.454   3.228
 1309SOL     OW 4825   6.476   3.423   4.029
 1309SOL    HW1 4826   6.524   3.501   4.070
 1309SOL    HW2 4827   6.464   3.351   4.098
 1310SOL     OW 4828   5.756   3.703   5.646
 1310SOL    HW1 4829   5.844   3.707   5.693
 1310SOL    HW2 4830   5.695   3.774   5.682
 1311SOL     OW 4831   4.560   4.699   0.326
 1311SOL    HW1 4832   4.553   4.779   0.266
 1311SOL    HW2 4833   4.595   4.621   0.273
 1312SOL     OW 4834   6.735   1.224   1.882
 1312SOL    HW1 4835   6.741   1.152   1.951
 1312SOL    HW2 4836   6.783   1.306   1.915
 1313SOL     OW 4837   3.946   4.975   4.862
 1313SOL    HW1 4838   3.863   4.920   4.861
 1313SOL    HW2 4839   3.950   5.030   4.778
 1314SOL     OW 4840   0.281   1.028   6.444
 1314SOL    HW1 4841   0.369   1.048   6.402
 1314SOL    HW2 4842   0.259   1.099   6.511
 1315SOL     OW 4843   1.731   6.690   4.105
 1315SOL    HW1 4844   1.819   6.705   4.151
 1315SOL    HW2 4845   1.719   6.759   4.033
 1316SOL     OW 4846   3.481   5.787   3.967
 1316SOL    HW1 4847   3.564   5.842   3.980
 1316SOL    HW2 4848   3.459   5.783   3.869
 1317SOL     OW 4849   0.242   3.114   3.787
 1317SOL    HW1 4850   0.222   3.133   3.691
 1317SOL    HW2 4851   0.163   3.072   3.831
 1318SOL     OW 4852   0.796   6.802   2.446
 1318SOL    HW1 4853   0.878   6.848   2.412
 1318SOL    HW2 4854   0.777   6.834   2.539
 1319SOL     OW 4855   0.771   6.612   0.917
 1319SOL    HW1 4856   0.718   6.558   0.852
 1319SOL    HW2 4857   0.857   6.642   0.874
 1320SOL     OW 4858   5.131   5.228   5.263
 1320SOL    HW1 4859   5.067   5.152   5.272
 1320SOL    HW2 4860   5.214   5.209   5.315
 1321SOL     OW 4861   3.371   1.360   1.152
 1321SOL    HW1 4862   3.436   1.312   1.094
 1321SOL    HW2 4863   3.278   1.326   1.134
 1322SOL     OW 4864   4.554   1.255   6.318
 1322SOL    HW1 4865   4.556   1.192   6.241
 1322SOL    HW2 4866   4.639   1.307   6.321
 1323SOL     OW 4867   6.358   0.859   4.206
 1323SOL    HW1 4868   6.316   0.861   4.116
 1323SOL    HW2 4869   6.457   0.868   4.197
 1324SOL     OW 4870   1.106   2.413   0.269
 1324SOL    HW1 4871   1.020   2.464   0.261
 1324SOL    HW2 4872   1.101   2.352   0.348
 1325SOL     OW 4873   4.610   4.998   3.693
 1325SOL    HW1 4874   4.529   4.957   3.651
 1325SOL    HW2 4875   4.586   5.087   3.732
 1326SOL     OW 4876   5.467   4.023   4.371
 1326SOL    HW1 4877   5.408   4.036   4.450
 1326SOL    HW2 4878   5.563   4.025   4.399
 1327SOL     OW 4879   2.888   6.304   3.920
 1327SOL    HW1 4880   2.832   6.376   3.961
 1327SOL    HW2 4881   2.844   6.270   3.837
 1328SOL     OW 4882   2.337   1.877   1.609
 1328SOL    HW1 4883   2.395   1.814   1.557
 1328SOL    HW2 4884   2.301   1.831   1.690
 1329SOL     OW 4885   1.353   5.875   1.488
 1329SOL    HW1 4886   1.335   5.898   1.584
 1329SOL    HW2 4887   1.349   5.776   1.476
 1330SOL     OW 4888   5.493   6.651   1.768
 1330SOL    HW1 4889   5.524   6.695   1.684
 1330SOL    HW2 4890   5.566   6.654   1.836
 1331SOL     OW 4891   0.576   2.127   1.729
 1331SOL    HW1 4892   0.613   2.107   1.638
 1331SOL    HW2 4893   0.614   2.062   1.795
 1332SOL     OW 4894   4.836   2.099   0.769
 1332SOL    HW1 4895   4.879   2.177   0.813
 1332SOL    HW2 4896   4.740   2.093   0.798
 1333SOL     OW 4897   4.030   3.252   5.645
 1333SOL    HW1 4898   4.025   3.306   5.561
 1333SOL    HW2 4899   4.052   3.157   5.621
 1334SOL     OW 4900   1.888   3.277   4.432
 1334SOL    HW1 4901   1.863   3.316   4.343
 1334SOL    HW2 4902   1.892   3.350   4.500
 1335SOL     OW 4903   2.016   4.919   4.072
 1335SOL    HW1 4904   1.920   4.940   4.092
 1335SOL    HW2 4905   2.062   4.892   4.157
 1336SOL     OW 4906   0.028   6.544   5.314
 1336SOL    HW1 4907   0.039   6.635   5.275
 1336SOL    HW2 4908   6.967   6.501   5.274
 1337SOL     OW 4909   3.216   0.093   6.620
 1337SOL    HW1 4910   3.238   0.104   6.523
 1337SOL    HW2 4911   3.183   0.180   6.656
 1338SOL     OW 4912   3.888   4.837   0.900
 1338SOL    HW1 4913   3.961   4.782   0.941
 1338SOL    HW2 4914   3.832   4.779   0.841
 1339SOL     OW 4915   0.043   4.020   6.415
 1339SOL    HW1 4916   0.113   3.975   6.471
 1339SOL    HW2 4917   6.979   3.966   6.416
 1340SOL     OW 4918   2.836   2.040   6.072
 1340SOL    HW1 4919   2.934   2.032   6.094
 1340SOL    HW2 4920   2.820   2.008   5.979
 1341SOL     OW 4921   5.615   1.548   4.239
 1341SOL    HW1 4922   5.666   1.608   4.178
 1341SOL    HW2 4923   5.638   1.453   4.220
 1342SOL     OW 4924   0.206   6.803   0.436
 1342SOL    HW1 4925   0.246   6.711   0.434
 1342SOL    HW2 4926   0.184   6.828   0.530
 1343SOL     OW 4927   3.043   6.171   3.566
 1343SOL    HW1 4928   3.004   6.110   3.496
 1343SOL    HW2 4929   3.050   6.122   3.653
 1344SOL     OW 4930   4.909   1.752   2.410
 1344SOL    HW1 4931   4.896   1.747   2.311
 1344SOL    HW2 4932   4.964   1.674   2.440
 1345SOL     OW 4933   6.568   5.788   2.404
 1345SOL    HW1 4934   6.628   5.787   2.324
 1345SOL    HW2 4935   6.518   5.701   2.408
 1346SOL     OW 4936   6.766   1.848   3.076
 1346SOL    HW1 4937   6.683   1.840   3.022
 1346SOL    HW2 4938   6.762   1.930   3.133
 1347SOL     OW 4939   4.423   1.227   3.715
 1347SOL    HW1 4940   4.373   1.241   3.800
 1347SOL    HW2 4941   4.450   1.131   3.708
 1348SOL     OW 4942   5.137   6.200   4.836
 1348SOL    HW1 4943   5.145   6.157   4.926
 1348SOL    HW2 4944   5.102   6.293   4.846
 1349SOL     OW 4945   5.037   1.878   0.142
 1349SOL    HW1 4946   5.127   1.919   0.128
 1349SOL    HW2 4947   5.048   1.782   0.170
 1350SOL     OW 4948   3.750   1.333   4.394
 1350SOL    HW1 4949   3.792   1.302   4.480
 1350SOL    HW2 4950   3.708   1.422   4.408
 1351SOL     OW 4951   1.310   1.394   4.124
 1351SOL    HW1 4952   1.253   1.457   4.176
 1351SOL    HW2 4953   1.359   1.444   4.053
 1352SOL     OW 4954   0.990   6.043   4.586
 1352SOL    HW1 4955   0.897   6.081   4.581
 1352SOL    HW2 4956   1.054   6.106   4.542
 1353SOL     OW 4957   2.656   3.312   5.820
 1353SOL    HW1 4958   2.750   3.342   5.805
 1353SOL    HW2 4959   2.592   3.382   5.789
 1354SOL     OW 4960   0.153   6.502   6.867
 1354SOL    HW1 4961   0.207   6.443   6.928
 1354SOL    HW2 4962   0.095   6.562   6.922
 1355SOL     OW 4963   4.944   3.478   0.262
 1355SOL    HW1 4964   4.869   3.492   0.327
 1355SOL    HW2 4965   4.950   3.556   0.200
 1356SOL     OW 4966   3.460   2.906   2.689
 1356SOL    HW1 4967   3.366   2.909   2.655
 1356SOL    HW2 4968   3.517   2.854   2.626
 1357SOL     OW 4969   3.664   2.317   5.513
 1357SOL    HW1 4970   3.731   2.258   5.559
 1357SOL    HW2 4971   3.612   2.368   5.581
 1358SOL     OW 4972   1.573   2.933   5.476
 1358SOL    HW1 4973   1.524   3.004   5.527
 1358SOL    HW2 4974   1.512   2.896   5.405
 1359SOL     OW 4975   0.800   1.732   6.593
 1359SOL    HW1 4976   0.881   1.731   6.534
 1359SOL    HW2 4977   0.744   1.651   6.575
 1360SOL     OW 4978   3.307   3.197   4.599
 1360SOL    HW1 4979   3.274   3.281   4.556
 1360SOL    HW2 4980   3.231   3.153   4.647
 1361SOL     OW 4981   1.400   6.468   0.877
 1361SOL    HW1 4982   1.408   6.378   0.919
 1361SOL    HW2 4983   1.450   6.469   0.790
 1362SOL     OW 4984   3.520   1.079   6.677
 1362SOL    HW1 4985   3.504   1.178   6.676
 1362SOL    HW2 4986   3.526   1.048   6.771
 1363SOL     OW 4987   6.508   6.465   1.235
 1363SOL    HW1 4988   6.483   6.413   1.316
 1363SOL    HW2 4989   6.536   6.402   1.162
 1364SOL     OW 4990   1.145   3.339   0.813
 1364SOL    HW1 4991   1.112   3.248   0.839
 1364SOL    HW2 4992   1.126   3.404   0.886
 1365SOL     OW 4993   1.309   3.290   6.544
 1365SOL    HW1 4994   1.249   3.255   6.472
 1365SOL    HW2 4995   1.398   3.245   6.538
 1366SOL     OW 4996   3.603   1.151   1.686
 1366SOL    HW1 4997   3.644   1.223   1.630
 1366SOL    HW2 4998   3.659   1.069   1.681
 1367SOL     OW 4999   1.508   0.078   4.463
 1367SOL    HW1 5000   1.429   0.138   4.477
 1367SOL    HW2 5001   1.478   7.014   4.416
 1368SOL     OW 5002   1.630   6.238   4.938
 1368SOL    HW1 5003   1.651   6.236   5.036
 1368SOL    HW2 5004   1.690   6.174   4.890
 1369SOL     OW 5005   2.322   5.568   3.429
 1369SOL    HW1 5006   2.239   5.586   3.374
 1369SOL    HW2 5007   2.353   5.475   3.413
 1370SOL     OW 5008   6.916   3.057   2.908
 1370SOL    HW1 5009   6.966   2.977   2.940
 1370SOL    HW2 5010   6.978   3.119   2.860
 1371SOL     OW 5011   6.170   1.617   6.634
 1371SOL    HW1 5012   6.090   1.642   6.689
 1371SOL    HW2 5013   6.241   1.578   6.693
 1372SOL     OW 5014   5.208   2.809   2.157
 1372SOL    HW1 5015   5.279   2.798   2.227
 1372SOL    HW2 5016   5.120   2.777   2.193
 1373SOL     OW 5017   4.700   2.594   1.398
 1373SOL    HW1 5018   4.756   2.663   1.351
 1373SOL    HW2 5019   4.604   2.621   1.394
 1374SOL     OW 5020   3.673   4.104   3.327
 1374SOL    HW1 5021   3.657   4.189   3.378
 1374SOL    HW2 5022   3.635   4.113   3.235
 1375SOL     OW 5023   5.618   4.131   5.153
 1375SOL    HW1 5024   5.702   4.102   5.106
 1375SOL    HW2 5025   5.539   4.099   5.102
 1376SOL     OW 5026   3.319   4.797   5.915
 1376SOL    HW1 5027   3.253   4.871   5.930
 1376SOL    HW2 5028   3.409   4.836   5.894
 1377SOL     OW 5029   1.132   2.013   3.733
 1377SOL    HW1 5030   1.124   2.113   3.742
 1377SOL    HW2 5031   1.112   1.987   3.639
 1378SOL     OW 5032   4.365   2.415   4.209
 1378SOL    HW1 5033   4.434   2.487   4.206
 1378SOL    HW2 5034   4.274   2.455   4.211
 1379SOL     OW 5035   4.975   5.842   6.315
 1379SOL    HW1 5036   5.038   5.806   6.383
 1379SOL    HW2 5037   4.903   5.895   6.359
 1380SOL     OW 5038   0.066   5.968   4.238
 1380SOL    HW1 5039   0.028   5.937   4.151
 1380SOL    HW2 5040   0.140   5.908   4.266
 1381SOL     OW 5041   6.936   2.308   6.226
 1381SOL    HW1 5042   6.983   2.298   6.138
 1381SOL    HW2 5043   6.993   2.267   6.299
 1382SOL     OW 5044   4.406   2.223   5.793
 1382SOL    HW1 5045   4.331   2.180   5.742
 1382SOL    HW2 5046   4.382   2.318   5.813
 1383SOL     OW 5047   5.676   0.612   0.784
 1383SOL    HW1 5048   5.600   0.633   0.723
 1383SOL    HW2 5049   5.759   0.657   0.750
 1384SOL     OW 5050   5.681   2.244   2.607
 1384SOL    HW1 5051   5.713   2.232   2.513
 1384SOL    HW2 5052   5.687   2.340   2.633
 1385SOL     OW 5053   6.554   6.681   1.831
 1385SOL    HW1 5054   6.577   6.584   1.835
 1385SOL    HW2 5055   6.600   6.729   1.907
 1386SOL     OW 5056   1.703   0.352   4.191
 1386SOL    HW1 5057   1.722   0.403   4.275
 1386SOL    HW2 5058   1.692   0.255   4.213
 1387SOL     OW 5059   0.902   5.962   1.726
 1387SOL    HW1 5060   0.908   5.921   1.817
 1387SOL    HW2 5061   0.819   5.930   1.680
 1388SOL     OW 5062   6.591   0.955   1.790
 1388SOL    HW1 5063   6.615   1.032   1.731
 1388SOL    HW2 5064   6.662   0.884   1.783
 1389SOL     OW 5065   6.382   1.305   1.622
 1389SOL    HW1 5066   6.347   1.217   1.591
 1389SOL    HW2 5067   6.480   1.310   1.607
 1390SOL     OW 5068   0.941   1.627   4.294
 1390SOL    HW1 5069   0.895   1.695   4.351
 1390SOL    HW2 5070   0.898   1.538   4.309
 1391SOL     OW 5071   0.844   3.105   3.512
 1391SOL    HW1 5072   0.795   3.028   3.553
 1391SOL    HW2 5073   0.907   3.072   3.442
 1392SOL     OW 5074   5.876   5.240   3.764
 1392SOL    HW1 5075   5.915   5.154   3.731
 1392SOL    HW2 5076   5.776   5.236   3.757
 1393SOL     OW 5077   3.701   5.105   7.006
 1393SOL    HW1 5078   3.703   5.198   6.969
 1393SOL    HW2 5079   3.657   5.106   0.076
 1394SOL     OW 5080   1.274   6.693   6.680
 1394SOL    HW1 5081   1.282   6.670   6.582
 1394SOL    HW2 5082   1.223   6.778   6.690
 1395SOL     OW 5083   3.948   4.667   6.343
 1395SOL    HW1 5084   3.950   4.701   6.437
 1395SOL    HW2 5085   4.040   4.668   6.305
 1396SOL     OW 5086   4.947   5.767   3.348
 1396SOL    HW1 5087   4.891   5.821   3.286
 1396SOL    HW2 5088   4.942   5.670   3.322
 1397SOL     OW 5089   5.743   6.068   5.026
 1397SOL    HW1 5090   5.795   6.153   5.023
 1397SOL    HW2 5091   5.765   6.019   5.111
 1398SOL     OW 5092   1.346   6.954   5.530
 1398SOL    HW1 5093   1.259   6.914   5.559
 1398SOL    HW2 5094   1.328   0.011   5.468
 1399SOL     OW 5095   3.249   5.164   2.370
 1399SOL    HW1 5096   3.268   5.080   2.421
 1399SOL    HW2 5097   3.281   5.153   2.276
 1400SOL     OW 5098   1.202   0.002   3.617
 1400SOL    HW1 5099   1.222   0.015   3.520
 1400SOL    HW2 5100   1.260   0.063   3.671
 1401SOL     OW 5101   6.432   2.233   4.232
 1401SOL    HW1 5102   6.473   2.161   4.288
 1401SOL    HW2 5103   6.333   2.222   4.230
 1402SOL     OW 5104   5.639   2.398   0.093
 1402SOL    HW1 5105   5.594   2.316   0.128
 1402SOL    HW2 5106   5.569   2.467   0.072
 1403SOL     OW 5107   3.540   0.406   1.855
 1403SOL    HW1 5108   3.537   0.319   1.903
 1403SOL    HW2 5109   3.528   0.391   1.757
 1404SOL     OW 5110   4.123   1.012   0.156
 1404SOL    HW1 5111   4.163   0.923   0.177
 1404SOL    HW2 5112   4.142   1.035   0.060
 1405SOL     OW 5113   3.833   2.839   1.051
 1405SOL    HW1 5114   3.808   2.744   1.068
 1405SOL    HW2 5115   3.918   2.843   0.998
 1406SOL     OW 5116   0.920   3.411   2.331
 1406SOL    HW1 5117   0.859   3.407   2.252
 1406SOL    HW2 5118   1.013   3.431   2.301
 1407SOL     OW 5119   6.928   2.587   2.553
 1407SOL    HW1 5120   6.942   2.623   2.461
 1407SOL    HW2 5121   6.913   2.488   2.547
 1408SOL     OW 5122   6.296   5.226   6.434
 1408SOL    HW1 5123   6.341   5.140   6.413
 1408SOL    HW2 5124   6.361   5.287   6.479
 1409SOL     OW 5125   0.280   1.383   4.272
 1409SOL    HW1 5126   0.354   1.450   4.277
 1409SOL    HW2 5127   0.266   1.356   4.177
 1410SOL     OW 5128   6.718   1.971   6.993
 1410SOL    HW1 5129   6.777   2.004   0.046
 1410SOL    HW2 5130   6.733   1.873   6.979
 1411SOL     OW 5131   1.658   1.430   1.297
 1411SOL    HW1 5132   1.661   1.383   1.208
 1411SOL    HW2 5133   1.725   1.389   1.358
 1412SOL     OW 5134   1.792   2.572   0.292
 1412SOL    HW1 5135   1.825   2.666   0.305
 1412SOL    HW2 5136   1.847   2.527   0.221
 1413SOL     OW 5137   3.288   0.021   3.388
 1413SOL    HW1 5138   3.353   0.077   3.440
 1413SOL    HW2 5139   3.203   0.071   3.375
 1414SOL     OW 5140   1.646   1.168   2.540
 1414SOL    HW1 5141   1.580   1.239   2.513
 1414SOL    HW2 5142   1.659   1.171   2.639
 1415SOL     OW 5143   5.868   6.756   5.012
 1415SOL    HW1 5144   5.801   6.720   4.948
 1415SOL    HW2 5145   5.918   6.831   4.969
 1416SOL     OW 5146   4.839   5.513   3.363
 1416SOL    HW1 5147   4.838   5.555   3.454
 1416SOL    HW2 5148   4.816   5.416   3.371
 1417SOL     OW 5149   3.788   2.513   5.957
 1417SOL    HW1 5150   3.880   2.492   5.927
 1417SOL    HW2 5151   3.732   2.430   5.956
 1418SOL     OW 5152   3.225   4.089   3.565
 1418SOL    HW1 5153   3.169   4.086   3.648
 1418SOL    HW2 5154   3.167   4.071   3.486
 1419SOL     OW 5155   3.305   6.806   3.514
 1419SOL    HW1 5156   3.261   6.800   3.604
 1419SOL    HW2 5157   3.304   6.901   3.483
 1420SOL     OW 5158   0.898   6.272   2.926
 1420SOL    HW1 5159   0.875   6.367   2.945
 1420SOL    HW2 5160   0.984   6.249   2.971
 1421SOL     OW 5161   3.888   0.833   2.741
 1421SOL    HW1 5162   3.805   0.781   2.720
 1421SOL    HW2 5163   3.905   0.898   2.667
 1422SOL     OW 5164   2.236   6.159   0.864
 1422SOL    HW1 5165   2.148   6.205   0.876
 1422SOL    HW2 5166   2.222   6.060   0.868
 1423SOL     OW 5167   5.151   0.975   2.363
 1423SOL    HW1 5168   5.222   1.025   2.413
 1423SOL    HW2 5169   5.143   1.011   2.271
 1424SOL     OW 5170   6.934   5.556   2.810
 1424SOL    HW1 5171   6.840   5.591   2.802
 1424SOL    HW2 5172   6.984   5.608   2.879
 1425SOL     OW 5173   2.227   0.587   4.577
 1425SOL    HW1 5174   2.173   0.600   4.494
 1425SOL    HW2 5175   2.173   0.613   4.657
 1426SOL     OW 5176   1.710   1.436   5.979
 1426SOL    HW1 5177   1.800   1.467   5.950
 1426SOL    HW2 5178   1.647   1.436   5.901
 1427SOL     OW 5179   5.287   2.092   6.239
 1427SOL    HW1 5180   5.225   2.043   6.178
 1427SOL    HW2 5181   5.290   2.188   6.212
 1428SOL     OW 5182   5.389   0.930   0.817
 1428SOL    HW1 5183   5.437   0.861   0.872
 1428SOL    HW2 5184   5.326   0.885   0.755
 1429SOL     OW 5185   5.587   5.911   0.252
 1429SOL    HW1 5186   5.626   5.898   0.344
 1429SOL    HW2 5187   5.491   5.884   0.253
 1430SOL     OW 5188   3.221   4.923   2.528
 1430SOL    HW1 5189   3.162   4.883   2.599
 1430SOL    HW2 5190   3.185   4.900   2.438
 1431SOL     OW 5191   1.924   0.156   0.675
 1431SOL    HW1 5192   1.860   0.142   0.600
 1431SOL    HW2 5193   1.877   0.140   0.762
 1432SOL     OW 5194   3.316   7.014   1.395
 1432SOL    HW1 5195   3.388   6.988   1.331
 1432SOL    HW2 5196   3.322   6.956   1.476
 1433SOL     OW 5197   5.528   6.974   3.504
 1433SOL    HW1 5198   5.462   7.016   3.566
 1433SOL    HW2 5199   5.613   6.956   3.553
 1434SOL     OW 5200   0.900   1.027   5.406
 1434SOL    HW1 5201   0.993   1.021   5.371
 1434SOL    HW2 5202   0.899   1.003   5.503
 1435SOL     OW 5203   6.717   2.538   3.624
 1435SOL    HW1 5204   6.700   2.601   3.699
 1435SOL    HW2 5205   6.753   2.589   3.546
 1436SOL     OW 5206   5.232   3.284   1.456
 1436SOL    HW1 5207   5.245   3.351   1.382
 1436SOL    HW2 5208   5.143   3.299   1.499
 1437SOL     OW 5209   4.517   0.683   2.578
 1437SOL    HW1 5210   4.520   0.728   2.667
 1437SOL    HW2 5211   4.457   0.603   2.583
 1438SOL     OW 5212   2.491   0.357   1.987
 1438SOL    HW1 5213   2.557   0.410   2.040
 1438SOL    HW2 5214   2.510   0.368   1.890
 1439SOL     OW 5215   0.648   5.879   1.685
 1439SOL    HW1 5216   0.604   5.823   1.755
 1439SOL    HW2 5217   0.593   5.961   1.669
 1440SOL     OW 5218   2.162   2.566   1.656
 1440SOL    HW1 5219   2.207   2.625   1.590
 1440SOL    HW2 5220   2.230   2.526   1.718
 1441SOL     OW 5221   4.887   6.012   6.557
 1441SOL    HW1 5222   4.980   6.047   6.545
 1441SOL    HW2 5223   4.887   5.940   6.626
 1442SOL     OW 5224   5.268   5.993   1.636
 1442SOL    HW1 5225   5.195   6.017   1.701
 1442SOL    HW2 5226   5.276   5.894   1.630
 1443SOL     OW 5227   6.669   2.885   2.039
 1443SOL    HW1 5228   6.730   2.829   1.982
 1443SOL    HW2 5229   6.574   2.861   2.019
 1444SOL     OW 5230   0.388   6.352   5.369
 1444SOL    HW1 5231   0.322   6.420   5.338
 1444SOL    HW2 5232   0.457   6.397   5.426
 1445SOL     OW 5233   0.623   2.253   0.993
 1445SOL    HW1 5234   0.649   2.167   0.949
 1445SOL    HW2 5235   0.580   2.234   1.081
 1446SOL     OW 5236   6.719   5.174   1.171
 1446SOL    HW1 5237   6.635   5.205   1.215
 1446SOL    HW2 5238   6.698   5.136   1.081
 1447SOL     OW 5239   0.286   6.356   4.032
 1447SOL    HW1 5240   0.339   6.351   4.116
 1447SOL    HW2 5241   0.291   6.449   3.994
 1448SOL     OW 5242   1.538   1.477   5.747
 1448SOL    HW1 5243   1.496   1.417   5.678
 1448SOL    HW2 5244   1.594   1.546   5.701
 1449SOL     OW 5245   1.657   2.897   2.783
 1449SOL    HW1 5246   1.659   2.823   2.851
 1449SOL    HW2 5247   1.751   2.922   2.760
 1450SOL     OW 5248   3.313   1.950   2.963
 1450SOL    HW1 5249   3.251   1.895   2.907
 1450SOL    HW2 5250   3.365   2.012   2.905
 1451SOL     OW 5251   4.202   1.951   2.621
 1451SOL    HW1 5252   4.164   1.959   2.713
 1451SOL    HW2 5253   4.160   1.874   2.574
 1452SOL     OW 5254   4.303   2.833   5.646
 1452SOL    HW1 5255   4.343   2.753   5.692
 1452SOL    HW2 5256   4.204   2.822   5.640
 1453SOL     OW 5257   1.341   3.615   5.299
 1453SOL    HW1 5258   1.298   3.682   5.238
 1453SOL    HW2 5259   1.342   3.651   5.393
 1454SOL     OW 5260   2.999   2.008   2.467
 1454SOL    HW1 5261   3.095   1.996   2.439
 1454SOL    HW2 5262   2.945   1.933   2.429
 1455SOL     OW 5263   0.455   5.554   2.105
 1455SOL    HW1 5264   0.506   5.638   2.085
 1455SOL    HW2 5265   0.417   5.559   2.198
 1456SOL     OW 5266   6.795   5.520   3.989
 1456SOL    HW1 5267   6.746   5.551   4.070
 1456SOL    HW2 5268   6.748   5.441   3.950
 1457SOL     OW 5269   0.977   5.408   5.352
 1457SOL    HW1 5270   1.001   5.329   5.295
 1457SOL    HW2 5271   1.010   5.394   5.445
 1458SOL     OW 5272   6.588   5.327   4.731
 1458SOL    HW1 5273   6.531   5.394   4.682
 1458SOL    HW2 5274   6.633   5.268   4.664
 1459SOL     OW 5275   6.586   6.130   5.271
 1459SOL    HW1 5276   6.665   6.117   5.331
 1459SOL    HW2 5277   6.573   6.049   5.215
 1460SOL     OW 5278   1.654   5.637   4.779
 1460SOL    HW1 5279   1.630   5.662   4.873
 1460SOL    HW2 5280   1.592   5.566   4.746
 1461SOL     OW 5281   5.994   3.787   3.610
 1461SOL    HW1 5282   5.983   3.887   3.612
 1461SOL    HW2 5283   6.009   3.757   3.516
 1462SOL     OW 5284   0.728   1.499   2.030
 1462SOL    HW1 5285   0.654   1.562   2.006
 1462SOL    HW2 5286   0.784   1.540   2.102
 1463SOL     OW 5287   1.875   4.799   6.617
 1463SOL    HW1 5288   1.858   4.897   6.614
 1463SOL    HW2 5289   1.814   4.757   6.684
 1464SOL     OW 5290   0.920   4.420   5.137
 1464SOL    HW1 5291   0.945   4.450   5.230
 1464SOL    HW2 5292   0.827   4.385   5.138
 1465SOL     OW 5293   1.148   2.996   5.755
 1465SOL    HW1 5294   1.090   3.033   5.683
 1465SOL    HW2 5295   1.152   2.896   5.747
 1466SOL     OW 5296   5.941   0.755   2.801
 1466SOL    HW1 5297   5.951   0.656   2.799
 1466SOL    HW2 5298   5.990   0.792   2.880
 1467SOL     OW 5299   0.335   0.242   3.738
 1467SOL    HW1 5300   0.427   0.255   3.776
 1467SOL    HW2 5301   0.290   0.166   3.784
 1468SOL     OW 5302   3.453   6.585   3.579
 1468SOL    HW1 5303   3.417   6.674   3.550
 1468SOL    HW2 5304   3.382   6.516   3.570
 1469SOL     OW 5305   5.696   4.510   3.382
 1469SOL    HW1 5306   5.627   4.443   3.355
 1469SOL    HW2 5307   5.787   4.478   3.354
 1470SOL     OW 5308   6.544   2.135   2.290
 1470SOL    HW1 5309   6.623   2.188   2.321
 1470SOL    HW2 5310   6.461   2.171   2.332
 1471SOL     OW 5311   5.092   6.924   6.939
 1471SOL    HW1 5312   5.014   6.870   6.970
 1471SOL    HW2 5313   5.062   7.017   6.919
 1472SOL     OW 5314   2.334   0.670   6.729
 1472SOL    HW1 5315   2.369   0.580   6.704
 1472SOL    HW2 5316   2.316   0.724   6.647
 1473SOL     OW 5317   1.732   5.464   3.547
 1473SOL    HW1 5318   1.783   5.510   3.620
 1473SOL    HW2 5319   1.795   5.412   3.489
 1474SOL     OW 5320   1.440   3.849   1.533
 1474SOL    HW1 5321   1.531   3.842   1.492
 1474SOL    HW2 5322   1.448   3.879   1.628
 1475SOL     OW 5323   6.526   0.078   6.673
 1475SOL    HW1 5324   6.476   0.000   6.712
 1475SOL    HW2 5325   6.623   0.056   6.669
 1476SOL     OW 5326   5.498   0.424   6.885
 1476SOL    HW1 5327   5.512   0.420   6.786
 1476SOL    HW2 5328   5.403   0.405   6.906
 1477SOL     OW 5329   3.211   4.042   1.986
 1477SOL    HW1 5330   3.164   4.116   2.034
 1477SOL    HW2 5331   3.153   3.961   1.986
 1478SOL     OW 5332   5.042   4.164   6.315
 1478SOL    HW1 5333   5.087   4.184   6.229
 1478SOL    HW2 5334   5.100   4.105   6.370
 1479SOL     OW 5335   4.586   4.675   1.284
 1479SOL    HW1 5336   4.617   4.735   1.210
 1479SOL    HW2 5337   4.646   4.686   1.363
 1480SOL     OW 5338   3.033   1.804   3.840
 1480SOL    HW1 5339   2.957   1.866   3.856
 1480SOL    HW2 5340   3.099   1.811   3.914
 1481SOL     OW 5341   4.403   1.829   5.688
 1481SOL    HW1 5342   4.496   1.859   5.665
 1481SOL    HW2 5343   4.389   1.837   5.787
 1482SOL     OW 5344   6.374   1.439   1.852
 1482SOL    HW1 5345   6.389   1.379   1.773
 1482SOL    HW2 5346   6.434   1.411   1.926
 1483SOL     OW 5347   6.216   6.603   0.358
 1483SOL    HW1 5348   6.305   6.571   0.392
 1483SOL    HW2 5349   6.172   6.529   0.307
 1484SOL     OW 5350   3.091   6.217   4.750
 1484SOL    HW1 5351   3.022   6.206   4.679
 1484SOL    HW2 5352   3.058   6.177   4.835
 1485SOL     OW 5353   5.110   3.877   3.448
 1485SOL    HW1 5354   5.041   3.890   3.377
 1485SOL    HW2 5355   5.066   3.845   3.532
 1486SOL     OW 5356   5.915   6.345   4.206
 1486SOL    HW1 5357   5.892   6.269   4.145
 1486SOL    HW2 5358   5.887   6.321   4.299
 1487SOL     OW 5359   5.781   0.922   6.966
 1487SOL    HW1 5360   5.758   0.841   7.020
 1487SOL    HW2 5361   5.856   0.899   6.904
 1488SOL     OW 5362   6.907   2.894   2.532
 1488SOL    HW1 5363   6.882   2.800   2.555
 1488SOL    HW2 5364   6.852   2.957   2.586
 1489SOL     OW 5365   3.299   5.443   0.037
 1489SOL    HW1 5366   3.399   5.446   0.050
 1489SOL    HW2 5367   3.271   5.351   0.011
 1490SOL     OW 5368   5.816   2.792   2.579
 1490SOL    HW1 5369   5.819   2.869   2.641
 1490SOL    HW2 5370   5.725   2.786   2.537
 1491SOL     OW 5371   5.523   2.673   4.548
 1491SOL    HW1 5372   5.472   2.635   4.625
 1491SOL    HW2 5373   5.459   2.696   4.475
 1492SOL     OW 5374   1.334   2.528   1.973
 1492SOL    HW1 5375   1.369   2.439   2.003
 1492SOL    HW2 5376   1.253   2.514   1.917
 1493SOL     OW 5377   5.938   2.126   6.519
 1493SOL    HW1 5378   5.938   2.046   6.578
 1493SOL    HW2 5379   6.003   2.114   6.445
 1494SOL     OW 5380   1.560   3.720   6.659
 1494SOL    HW1 5381   1.508   3.806   6.664
 1494SOL    HW2 5382   1.560   3.676   6.749
 1495SOL     OW 5383   6.381   4.282   3.800
 1495SOL    HW1 5384   6.390   4.207   3.866
 1495SOL    HW2 5385   6.463   4.286   3.742
 1496SOL     OW 5386   6.687   6.291   5.604
 1496SOL    HW1 5387   6.714   6.195   5.614
 1496SOL    HW2 5388   6.760   6.350   5.638
 1497SOL     OW 5389   4.654   2.252   2.900
 1497SOL    HW1 5390   4.631   2.344   2.866
 1497SOL    HW2 5391   4.614   2.184   2.840
 1498SOL     OW 5392   3.280   4.577   0.864
 1498SOL    HW1 5393   3.250   4.659   0.912
 1498SOL    HW2 5394   3.309   4.508   0.931
 1499SOL     OW 5395   0.910   3.844   4.049
 1499SOL    HW1 5396   0.839   3.870   3.982
 1499SOL    HW2 5397   0.998   3.880   4.019
 1500SOL     OW 5398   2.559   5.517   1.963
 1500SOL    HW1 5399   2.532   5.462   2.042
 1500SOL    HW2 5400   2.576   5.611   1.991
 1501SOL     OW 5401   5.373   1.393   1.349
 1501SOL    HW1 5402   5.403   1.488   1.342
 1501SOL    HW2 5403   5.274   1.389   1.336
 1502SOL     OW 5404   0.425   5.941   6.045
 1502SOL    HW1 5405   0.364   5.982   6.113
 1502SOL    HW2 5406   0.398   5.972   5.954
 1503SOL     OW 5407   6.424   5.909   1.985
 1503SOL    HW1 5408   6.388   5.978   1.922
 1503SOL    HW2 5409   6.502   5.946   2.035
 1504SOL     OW 5410   1.757   0.196   3.350
 1504SOL    HW1 5411   1.845   0.164   3.384
 1504SOL    HW2 5412   1.727   0.275   3.405
 1505SOL     OW 5413   6.788   4.628   4.773
 1505SOL    HW1 5414   6.736   4.671   4.699
 1505SOL    HW2 5415   6.735   4.629   4.857
 1506SOL     OW 5416   1.169   1.036   0.953
 1506SOL    HW1 5417   1.112   1.057   0.874
 1506SOL    HW2 5418   1.112   1.030   1.035
 1507SOL     OW 5419   2.566   2.064   3.595
 1507SOL    HW1 5420   2.617   2.146   3.570
 1507SOL    HW2 5421   2.483   2.058   3.540
 1508SOL     OW 5422   1.437   0.890   1.910
 1508SOL    HW1 5423   1.502   0.966   1.921
 1508SOL    HW2 5424   1.389   0.900   1.823
 1509SOL     OW 5425   4.398   1.432   4.404
 1509SOL    HW1 5426   4.365   1.458   4.495
 1509SOL    HW2 5427   4.354   1.490   4.335
 1510SOL     OW 5428   2.519   6.685   5.162
 1510SOL    HW1 5429   2.565   6.756   5.216
 1510SOL    HW2 5430   2.430   6.719   5.131
 1511SOL     OW 5431   3.689   4.093   5.564
 1511SOL    HW1 5432   3.784   4.081   5.591
 1511SOL    HW2 5433   3.645   4.159   5.625
 1512SOL     OW 5434   5.229   6.233   0.809
 1512SOL    HW1 5435   5.167   6.156   0.820
 1512SOL    HW2 5436   5.220   6.271   0.717
 1513SOL     OW 5437   3.281   0.044   5.573
 1513SOL    HW1 5438   3.189   0.004   5.575
 1513SOL    HW2 5439   3.338   0.001   5.644
 1514SOL     OW 5440   3.040   1.725   0.153
 1514SOL    HW1 5441   3.102   1.698   0.227
 1514SOL    HW2 5442   3.065   1.676   0.070
 1515SOL     OW 5443   3.305   1.341   2.065
 1515SOL    HW1 5444   3.393   1.313   2.029
 1515SOL    HW2 5445   3.263   1.409   2.004
 1516SOL     OW 5446   6.795   6.959   6.637
 1516SOL    HW1 5447   6.864   7.005   6.581
 1516SOL    HW2 5448   6.825   6.865   6.657
 1517SOL     OW 5449   2.462   6.081   2.828
 1517SOL    HW1 5450   2.559   6.103   2.837
 1517SOL    HW2 5451   2.407   6.151   2.872
 1518SOL     OW 5452   1.231   2.712   6.791
 1518SOL    HW1 5453   1.220   2.634   6.853
 1518SOL    HW2 5454   1.241   2.796   6.844
 1519SOL     OW 5455   0.385   4.121   6.691
 1519SOL    HW1 5456   0.418   4.071   6.611
 1519SOL    HW2 5457   0.348   4.210   6.662
 1520SOL     OW 5458   0.030   6.594   3.495
 1520SOL    HW1 5459   0.111   6.653   3.487
 1520SOL    HW2 5460   7.012   6.578   3.405
 1521SOL     OW 5461   2.299   4.955   6.817
 1521SOL    HW1 5462   2.337   5.004   6.738
 1521SOL    HW2 5463   2.241   4.880   6.784
 1522SOL     OW 5464   6.118   6.641   3.784
 1522SOL    HW1 5465   6.180   6.717   3.766
 1522SOL    HW2 5466   6.024   6.670   3.763
 1523SOL     OW 5467   2.579   6.366   0.582
 1523SOL    HW1 5468   2.556   6.456   0.544
 1523SOL    HW2 5469   2.635   6.378   0.664
 1524SOL     OW 5470   2.161   2.761   4.498
 1524SOL    HW1 5471   2.157   2.809   4.585
 1524SOL    HW2 5472   2.158   2.827   4.423
 1525SOL     OW 5473   6.171   4.318   0.199
 1525SOL    HW1 5474   6.230   4.288   0.274
 1525SOL    HW2 5475   6.226   4.361   0.128
 1526SOL     OW 5476   0.774   1.459   1.441
 1526SOL    HW1 5477   0.741   1.473   1.534
 1526SOL    HW2 5478   0.714   1.394   1.394
 1527SOL     OW 5479   4.788   0.961   4.182
 1527SOL    HW1 5480   4.829   1.000   4.264
 1527SOL    HW2 5481   4.751   0.870   4.203
 1528SOL     OW 5482   3.811   3.460   2.401
 1528SOL    HW1 5483   3.891   3.431   2.348
 1528SOL    HW2 5484   3.753   3.382   2.419
 1529SOL     OW 5485   4.163   0.751   5.391
 1529SOL    HW1 5486   4.123   0.764   5.300
 1529SOL    HW2 5487   4.174   0.840   5.435
 1530SOL     OW 5488   2.687   0.109   1.780
 1530SOL    HW1 5489   2.613   0.048   1.752
 1530SOL    HW2 5490   2.667   0.202   1.748
 1531SOL     OW 5491   5.607   6.184   4.262
 1531SOL    HW1 5492   5.575   6.279   4.263
 1531SOL    HW2 5493   5.590   6.144   4.172
 1532SOL     OW 5494   2.724   5.350   2.301
 1532SOL    HW1 5495   2.694   5.359   2.396
 1532SOL    HW2 5496   2.668   5.281   2.255
 1533SOL     OW 5497   5.719   6.418   1.298
 1533SOL    HW1 5498   5.640   6.395   1.355
 1533SOL    HW2 5499   5.786   6.469   1.353
 1534SOL     OW 5500   2.148   4.750   6.711
 1534SOL    HW1 5501   2.100   4.674   6.667
 1534SOL    HW2 5502   2.152   4.828   6.648
 1535SOL     OW 5503   4.812   4.824   3.197
 1535SOL    HW1 5504   4.798   4.869   3.285
 1535SOL    HW2 5505   4.898   4.855   3.157
 1536SOL     OW 5506   4.519   4.200   6.381
 1536SOL    HW1 5507   4.579   4.150   6.320
 1536SOL    HW2 5508   4.476   4.136   6.446
 1537SOL     OW 5509   3.376   5.861   2.355
 1537SOL    HW1 5510   3.379   5.819   2.445
 1537SOL    HW2 5511   3.469   5.880   2.323
 1538SOL     OW 5512   2.044   1.248   0.432
 1538SOL    HW1 5513   1.987   1.195   0.495
 1538SOL    HW2 5514   2.136   1.256   0.469
 1539SOL     OW 5515   0.035   3.004   0.736
 1539SOL    HW1 5516   0.078   3.038   0.652
 1539SOL    HW2 5517   0.061   2.909   0.750
 1540SOL     OW 5518   3.856   5.666   3.819
 1540SOL    HW1 5519   3.955   5.666   3.835
 1540SOL    HW2 5520   3.809   5.641   3.904
 1541SOL     OW 5521   4.833   2.325   5.438
 1541SOL    HW1 5522   4.787   2.330   5.349
 1541SOL    HW2 5523   4.901   2.251   5.436
 1542SOL     OW 5524   0.566   4.556   2.731
 1542SOL    HW1 5525   0.498   4.504   2.680
 1542SOL    HW2 5526   0.658   4.527   2.703
 1543SOL     OW 5527   3.694   5.241   1.044
 1543SOL    HW1 5528   3.597   5.221   1.055
 1543SOL    HW2 5529   3.729   5.196   0.961
 1544SOL     OW 5530   4.120   3.388   4.202
 1544SOL    HW1 5531   4.022   3.388   4.222
 1544SOL    HW2 5532   4.160   3.299   4.225
 1545SOL     OW 5533   6.261   5.167   1.060
 1545SOL    HW1 5534   6.338   5.220   1.023
 1545SOL    HW2 5535   6.221   5.216   1.136
 1546SOL     OW 5536   6.493   6.502   5.561
 1546SOL    HW1 5537   6.503   6.584   5.618
 1546SOL    HW2 5538   6.563   6.436   5.587
 1547SOL     OW 5539   1.651   3.004   6.294
 1547SOL    HW1 5540   1.575   3.058   6.257
 1547SOL    HW2 5541   1.729   3.064   6.311
 1548SOL     OW 5542   6.585   2.195   0.358
 1548SOL    HW1 5543   6.680   2.186   0.329
 1548SOL    HW2 5544   6.525   2.165   0.285
 1549SOL     OW 5545   5.242   0.482   3.956
 1549SOL    HW1 5546   5.179   0.458   4.030
 1549SOL    HW2 5547   5.208   0.562   3.907
 1550SOL     OW 5548   3.119   3.913   4.439
 1550SOL    HW1 5549   3.199   3.853   4.435
 1550SOL    HW2 5550   3.037   3.859   4.419
 1551SOL     OW 5551   6.536   5.184   6.081
 1551SOL    HW1 5552   6.620   5.169   6.134
 1551SOL    HW2 5553   6.532   5.280   6.054
 1552SOL     OW 5554   2.055   4.023   1.045
 1552SOL    HW1 5555   2.081   3.930   1.019
 1552SOL    HW2 5556   1.958   4.026   1.067
 1553SOL     OW 5557   1.545   1.978   5.309
 1553SOL    HW1 5558   1.492   1.905   5.351
 1553SOL    HW2 5559   1.571   2.045   5.378
 1554SOL     OW 5560   4.868   1.889   3.489
 1554SOL    HW1 5561   4.955   1.931   3.462
 1554SOL    HW2 5562   4.867   1.794   3.459
 1555SOL     OW 5563   5.843   4.848   5.020
 1555SOL    HW1 5564   5.795   4.796   4.949
 1555SOL    HW2 5565   5.835   4.946   5.001
 1556SOL     OW 5566   1.445   1.121   5.886
 1556SOL    HW1 5567   1.428   1.060   5.964
 1556SOL    HW2 5568   1.446   1.216   5.917
 1557SOL     OW 5569   1.161   1.855   6.081
 1557SOL    HW1 5570   1.217   1.793   6.026
 1557SOL    HW2 5571   1.162   1.826   6.176
 1558SOL     OW 5572   6.572   0.117   4.501
 1558SOL    HW1 5573   6.531   0.088   4.588
 1558SOL    HW2 5574   6.500   0.154   4.441
 1559SOL     OW 5575   1.562   1.126   6.286
 1559SOL    HW1 5576   1.542   1.133   6.384
 1559SOL    HW2 5577   1.649   1.170   6.266
 1560SOL     OW 5578   6.979   0.420   0.620
 1560SOL    HW1 5579   6.916   0.495   0.599
 1560SOL    HW2 5580   6.929   0.334   0.622
 1561SOL     OW 5581   6.135   6.274   1.664
 1561SOL    HW1 5582   6.041   6.247   1.643
 1561SOL    HW2 5583   6.189   6.192   1.685
 1562SOL     OW 5584   5.317   6.839   4.343
 1562SOL    HW1 5585   5.347   6.897   4.419
 1562SOL    HW2 5586   5.289   6.750   4.378
 1563SOL     OW 5587   2.910   0.323   6.156
 1563SOL    HW1 5588   2.856   0.257   6.103
 1563SOL    HW2 5589   2.926   0.405   6.100
 1564SOL     OW 5590   1.452   2.708   2.959
 1564SOL    HW1 5591   1.441   2.724   3.057
 1564SOL    HW2 5592   1.367   2.670   2.922
 1565SOL     OW 5593   6.160   4.683   1.009
 1565SOL    HW1 5594   6.216   4.703   1.090
 1565SOL    HW2 5595   6.119   4.592   1.019
 1566SOL     OW 5596   6.145   4.779   2.373
 1566SOL    HW1 5597   6.177   4.873   2.356
 1566SOL    HW2 5598   6.056   4.765   2.329
 1567SOL     OW 5599   6.981   5.855   5.573
 1567SOL    HW1 5600   0.054   5.829   5.599
 1567SOL    HW2 5601   6.934   5.776   5.533
 1568SOL     OW 5602   0.279   6.541   0.532
 1568SOL    HW1 5603   0.233   6.470   0.586
 1568SOL    HW2 5604   0.371   6.512   0.509
 1569SOL     OW 5605   3.167   5.476   5.435
 1569SOL    HW1 5606   3.199   5.513   5.348
 1569SOL    HW2 5607   3.179   5.544   5.507
 1570SOL     OW 5608   2.857   1.792   2.007
 1570SOL    HW1 5609   2.768   1.796   2.052
 1570SOL    HW2 5610   2.851   1.837   1.918
 1571SOL     OW 5611   0.049   2.881   6.581
 1571SOL    HW1 5612   0.128   2.937   6.556
 1571SOL    HW2 5613   0.018   2.829   6.501
 1572SOL     OW 5614   0.559   5.555   3.768
 1572SOL    HW1 5615   0.545   5.467   3.722
 1572SOL    HW2 5616   0.532   5.629   3.707
 1573SOL     OW 5617   4.254   0.265   0.044
 1573SOL    HW1 5618   4.321   0.259   6.991
 1573SOL    HW2 5619   4.207   0.354   0.040
 1574SOL     OW 5620   5.170   3.715   1.672
 1574SOL    HW1 5621   5.146   3.770   1.592
 1574SOL    HW2 5622   5.100   3.645   1.686
 1575SOL     OW 5623   3.496   2.409   0.351
 1575SOL    HW1 5624   3.539   2.498   0.331
 1575SOL    HW2 5625   3.490   2.356   0.267
 1576SOL     OW 5626   6.328   5.341   3.376
 1576SOL    HW1 5627   6.297   5.295   3.459
 1576SOL    HW2 5628   6.419   5.379   3.391
 1577SOL     OW 5629   1.549   0.515   0.662
 1577SOL    HW1 5630   1.595   0.440   0.709
 1577SOL    HW2 5631   1.535   0.591   0.725
 1578SOL     OW 5632   6.157   6.123   4.724
 1578SOL    HW1 5633   6.111   6.037   4.700
 1578SOL    HW2 5634   6.226   6.144   4.655
 1579SOL     OW 5635   0.262   0.878   3.286
 1579SOL    HW1 5636   0.191   0.886   3.215
 1579SOL    HW2 5637   0.280   0.969   3.324
 1580SOL     OW 5638   3.338   4.053   5.479
 1580SOL    HW1 5639   3.431   4.071   5.445
 1580SOL    HW2 5640   3.279   4.129   5.453
 1581SOL     OW 5641   6.109   3.296   4.617
 1581SOL    HW1 5642   6.078   3.342   4.534
 1581SOL    HW2 5643   6.170   3.357   4.668
 1582SOL     OW 5644   6.321   6.584   4.007
 1582SOL    HW1 5645   6.247   6.608   3.944
 1582SOL    HW2 5646   6.284   6.529   4.082
 1583SOL     OW 5647   2.099   2.997   1.253
 1583SOL    HW1 5648   2.004   3.023   1.233
 1583SOL    HW2 5649   2.160   3.058   1.203
 1584SOL     OW 5650   2.246   0.290   6.432
 1584SOL    HW1 5651   2.231   0.234   6.350
 1584SOL    HW2 5652   2.343   0.294   6.453
 1585SOL     OW 5653   5.604   1.161   6.302
 1585SOL    HW1 5654   5.692   1.145   6.347
 1585SOL    HW2 5655   5.611   1.241   6.243
 1586SOL     OW 5656   4.135   3.458   3.157
 1586SOL    HW1 5657   4.158   3.361   3.157
 1586SOL    HW2 5658   4.125   3.489   3.252
 1587SOL     OW 5659   1.804   6.796   5.975
 1587SOL    HW1 5660   1.873   6.751   6.032
 1587SOL    HW2 5661   1.848   6.864   5.916
 1588SOL     OW 5662   6.426   4.257   0.355
 1588SOL    HW1 5663   6.462   4.201   0.281
 1588SOL    HW2 5664   6.502   4.290   0.412
 1589SOL     OW 5665   5.301   4.646   2.938
 1589SOL    HW1 5666   5.239   4.593   2.996
 1589SOL    HW2 5667   5.394   4.612   2.949
 1590SOL     OW 5668   2.210   6.219   4.354
 1590SOL    HW1 5669   2.183   6.247   4.262
 1590SOL    HW2 5670   2.301   6.177   4.351
 1591SOL     OW 5671   2.325   3.275   0.254
 1591SOL    HW1 5672   2.238   3.306   0.293
 1591SOL    HW2 5673   2.331   3.304   0.159
 1592SOL     OW 5674   3.830   3.637   3.983
 1592SOL    HW1 5675   3.837   3.668   3.889
 1592SOL    HW2 5676   3.916   3.656   4.031
 1593SOL     OW 5677   1.476   4.386   3.978
 1593SOL    HW1 5678   1.490   4.462   3.914
 1593SOL    HW2 5679   1.563   4.339   3.994
 1594SOL     OW 5680   0.540   5.796   1.994
 1594SOL    HW1 5681   0.608   5.868   1.986
 1594SOL    HW2 5682   0.452   5.829   1.959
 1595SOL     OW 5683   6.328   3.404   4.760
 1595SOL    HW1 5684   6.283   3.326   4.804
 1595SOL    HW2 5685   6.404   3.436   4.817
 1596SOL     OW 5686   3.301   4.895   6.654
 1596SOL    HW1 5687   3.388   4.927   6.689
 1596SOL    HW2 5688   3.230   4.906   6.723
 1597SOL     OW 5689   2.484   6.723   1.183
 1597SOL    HW1 5690   2.536   6.806   1.201
 1597SOL    HW2 5691   2.506   6.688   1.093
 1598SOL     OW 5692   6.897   5.862   1.719
 1598SOL    HW1 5693   6.866   5.781   1.770
 1598SOL    HW2 5694   6.981   5.840   1.670
 1599SOL     OW 5695   2.978   5.252   0.212
 1599SOL    HW1 5696   2.990   5.327   0.146
 1599SOL    HW2 5697   2.970   5.165   0.163
 1600SOL     OW 5698   3.445   1.727   4.754
 1600SOL    HW1 5699   3.371   1.777   4.799
 1600SOL    HW2 5700   3.418   1.703   4.661
 1601SOL     OW 5701   1.547   5.402   4.655
 1601SOL    HW1 5702   1.463   5.443   4.619
 1601SOL    HW2 5703   1.574   5.325   4.596
 1602SOL     OW 5704   6.908   3.182   1.577
 1602SOL    HW1 5705   6.996   3.211   1.540
 1602SOL    HW2 5706   6.881   3.244   1.651
 1603SOL     OW 5707   5.977   6.773   0.740
 1603SOL    HW1 5708   5.971   6.696   0.677
 1603SOL    HW2 5709   6.025   6.849   0.696
 1604SOL     OW 5710   1.080   5.214   4.631
 1604SOL    HW1 5711   1.077   5.157   4.549
 1604SOL    HW2 5712   1.005   5.189   4.692
 1605SOL     OW 5713   5.048   5.115   2.077
 1605SOL    HW1 5714   5.009   5.073   2.159
 1605SOL    HW2 5715   5.037   5.053   1.999
 1606SOL     OW 5716   5.964   5.328   4.664
 1606SOL    HW1 5717   5.987   5.262   4.593
 1606SOL    HW2 5718   6.043   5.339   4.725
 1607SOL     OW 5719   5.485   3.828   1.711
 1607SOL    HW1 5720   5.555   3.856   1.777
 1607SOL    HW2 5721   5.401   3.807   1.760
 1608SOL     OW 5722   2.326   6.784   0.928
 1608SOL    HW1 5723   2.357   6.689   0.916
 1608SOL    HW2 5724   2.405   6.844   0.933
 1609SOL     OW 5725   5.652   1.856   5.385
 1609SOL    HW1 5726   5.618   1.820   5.471
 1609SOL    HW2 5727   5.587   1.837   5.312
 1610SOL     OW 5728   4.325   6.504   3.394
 1610SOL    HW1 5729   4.295   6.570   3.463
 1610SOL    HW2 5730   4.424   6.506   3.386
 1611SOL     OW 5731   4.116   3.791   1.811
 1611SOL    HW1 5732   4.151   3.884   1.803
 1611SOL    HW2 5733   4.047   3.787   1.884
 1612SOL     OW 5734   2.832   0.334   4.723
 1612SOL    HW1 5735   2.911   0.388   4.693
 1612SOL    HW2 5736   2.822   0.254   4.664
 1613SOL     OW 5737   2.284   0.100   1.685
 1613SOL    HW1 5738   2.233   0.019   1.656
 1613SOL    HW2 5739   2.220   0.174   1.707
 1614SOL     OW 5740   6.838   1.996   5.293
 1614SOL    HW1 5741   6.923   1.986   5.345
 1614SOL    HW2 5742   6.822   1.913   5.239
 1615SOL     OW 5743   6.492   5.620   5.689
 1615SOL    HW1 5744   6.538   5.533   5.670
 1615SOL    HW2 5745   6.557   5.683   5.732
 1616SOL     OW 5746   2.384   1.751   6.032
 1616SOL    HW1 5747   2.433   1.826   5.987
 1616SOL    HW2 5748   2.388   1.764   6.131
 1617SOL     OW 5749   3.289   1.033   3.447
 1617SOL    HW1 5750   3.197   1.073   3.450
 1617SOL    HW2 5751   3.287   0.949   3.393
 1618SOL     OW 5752   5.174   2.971   1.936
 1618SOL    HW1 5753   5.188   2.910   2.014
 1618SOL    HW2 5754   5.088   3.020   1.947
 1619SOL     OW 5755   1.543   2.967   4.768
 1619SOL    HW1 5756   1.633   3.010   4.766
 1619SOL    HW2 5757   1.473   3.036   4.789
 1620SOL     OW 5758   3.291   5.725   1.366
 1620SOL    HW1 5759   3.383   5.747   1.334
 1620SOL    HW2 5760   3.249   5.806   1.406
 1621SOL     OW 5761   2.165   2.229   1.527
 1621SOL    HW1 5762   2.154   2.246   1.625
 1621SOL    HW2 5763   2.259   2.198   1.509
 1622SOL     OW 5764   2.439   2.388   5.260
 1622SOL    HW1 5765   2.501   2.462   5.283
 1622SOL    HW2 5766   2.374   2.419   5.191
 1623SOL     OW 5767   2.477   1.994   4.540
 1623SOL    HW1 5768   2.418   2.075   4.537
 1623SOL    HW2 5769   2.504   1.977   4.635
 1624SOL     OW 5770   1.872   0.652   0.035
 1624SOL    HW1 5771   1.844   0.745   0.012
 1624SOL    HW2 5772   1.971   0.644   0.030
 1625SOL     OW 5773   1.432   0.197   1.123
 1625SOL    HW1 5774   1.437   0.220   1.026
 1625SOL    HW2 5775   1.340   0.164   1.145
 1626SOL     OW 5776   2.377   3.309   6.383
 1626SOL    HW1 5777   2.385   3.407   6.366
 1626SOL    HW2 5778   2.369   3.260   6.296
 1627SOL     OW 5779   4.887   4.192   3.154
 1627SOL    HW1 5780   4.968   4.169   3.208
 1627SOL    HW2 5781   4.911   4.193   3.057
 1628SOL     OW 5782   3.902   3.269   0.181
 1628SOL    HW1 5783   3.848   3.352   0.166
 1628SOL    HW2 5784   3.935   3.268   0.276
 1629SOL     OW 5785   2.352   2.404   3.026
 1629SOL    HW1 5786   2.375   2.314   3.063
 1629SOL    HW2 5787   2.357   2.473   3.099
 1630SOL     OW 5788   5.722   4.675   4.078
 1630SOL    HW1 5789   5.771   4.757   4.107
 1630SOL    HW2 5790   5.719   4.610   4.154
 1631SOL     OW 5791   1.155   0.628   6.074
 1631SOL    HW1 5792   1.095   0.557   6.112
 1631SOL    HW2 5793   1.220   0.585   6.011
 1632SOL     OW 5794   4.068   6.852   0.080
 1632SOL    HW1 5795   4.150   6.817   0.034
 1632SOL    HW2 5796   3.995   6.864   0.012
 1633SOL     OW 5797   6.402   3.977   2.870
 1633SOL    HW1 5798   6.339   3.927   2.930
 1633SOL    HW2 5799   6.410   3.929   2.783
 1634SOL     OW 5800   3.407   0.855   1.095
 1634SOL    HW1 5801   3.338   0.783   1.091
 1634SOL    HW2 5802   3.450   0.866   1.006
 1635SOL     OW 5803   1.554   3.878   3.464
 1635SOL    HW1 5804   1.598   3.789   3.478
 1635SOL    HW2 5805   1.494   3.874   3.384
 1636SOL     OW 5806   2.645   6.108   0.703
 1636SOL    HW1 5807   2.624   6.191   0.651
 1636SOL    HW2 5808   2.568   6.045   0.699
 1637SOL     OW 5809   1.009   2.639   2.397
 1637SOL    HW1 5810   1.087   2.669   2.343
 1637SOL    HW2 5811   0.988   2.707   2.467
 1638SOL     OW 5812   1.033   2.230   5.916
 1638SOL    HW1 5813   1.001   2.218   6.010
 1638SOL    HW2 5814   1.050   2.326   5.898
 1639SOL     OW 5815   3.926   5.114   2.608
 1639SOL    HW1 5816   3.959   5.139   2.517
 1639SOL    HW2 5817   3.972   5.171   2.677
 1640SOL     OW 5818   5.351   6.850   0.454
 1640SOL    HW1 5819   5.407   6.920   0.497
 1640SOL    HW2 5820   5.394   6.821   0.368
 1641SOL     OW 5821   6.361   2.737   4.470
 1641SOL    HW1 5822   6.339   2.828   4.436
 1641SOL    HW2 5823   6.419   2.744   4.551
 1642SOL     OW 5824   0.415   2.136   1.261
 1642SOL    HW1 5825   0.500   2.092   1.288
 1642SOL    HW2 5826   0.353   2.140   1.339
 1643SOL     OW 5827   4.021   0.033   5.747
 1643SOL    HW1 5828   4.067   6.964   5.745
 1643SOL    HW2 5829   4.000   0.062   5.654
 1644SOL     OW 5830   3.803   1.072   0.903
 1644SOL    HW1 5831   3.844   1.153   0.860
 1644SOL    HW2 5832   3.870   0.997   0.903
 1645SOL     OW 5833   2.590   5.772   5.695
 1645SOL    HW1 5834   2.651   5.851   5.699
 1645SOL    HW2 5835   2.515   5.785   5.760
 1646SOL     OW 5836   2.581   3.234   0.357
 1646SOL    HW1 5837   2.641   3.299   0.310
 1646SOL    HW2 5838   2.486   3.257   0.337
 1647SOL     OW 5839   5.909   3.427   2.118
 1647SOL    HW1 5840   5.955   3.339   2.104
 1647SOL    HW2 5841   5.865   3.428   2.208
 1648SOL     OW 5842   2.984   0.827   3.400
 1648SOL    HW1 5843   3.022   0.905   3.451
 1648SOL    HW2 5844   2.995   0.843   3.302
 1649SOL     OW 5845   2.647   0.541   4.247
 1649SOL    HW1 5846   2.567   0.584   4.290
 1649SOL    HW2 5847   2.657   0.448   4.281
 1650SOL     OW 5848   3.019   0.271   4.416
 1650SOL    HW1 5849   2.997   0.367   4.398
 1650SOL    HW2 5850   3.104   0.266   4.468
 1651SOL     OW 5851   1.636   6.657   2.608
 1651SOL    HW1 5852   1.668   6.720   2.679
 1651SOL    HW2 5853   1.536   6.656   2.607
 1652SOL     OW 5854   3.880   3.742   1.423
 1652SOL    HW1 5855   3.804   3.769   1.483
 1652SOL    HW2 5856   3.964   3.786   1.455
 1653SOL     OW 5857   1.236   4.388   1.093
 1653SOL    HW1 5858   1.313   4.332   1.061
 1653SOL    HW2 5859   1.209   4.357   1.184
 1654SOL     OW 5860   1.026   2.589   4.018
 1654SOL    HW1 5861   1.106   2.602   4.076
 1654SOL    HW2 5862   0.989   2.678   3.992
 1655SOL     OW 5863   4.319   4.174   5.322
 1655SOL    HW1 5864   4.347   4.199   5.415
 1655SOL    HW2 5865   4.352   4.243   5.258
 1656SOL     OW 5866   0.244   3.239   1.884
 1656SOL    HW1 5867   0.160   3.187   1.896
 1656SOL    HW2 5868   0.222   3.336   1.874
 1657SOL     OW 5869   1.124   0.791   5.828
 1657SOL    HW1 5870   1.034   0.747   5.834
 1657SOL    HW2 5871   1.135   0.854   5.904
 1658SOL     OW 5872   6.197   6.803   3.061
 1658SOL    HW1 5873   6.286   6.763   3.083
 1658SOL    HW2 5874   6.202   6.847   2.972
 1659SOL     OW 5875   5.634   2.739   6.565
 1659SOL    HW1 5876   5.604   2.706   6.475
 1659SOL    HW2 5877   5.559   2.728   6.631
 1660SOL     OW 5878   2.228   5.550   3.702
 1660SOL    HW1 5879   2.317   5.512   3.727
 1660SOL    HW2 5880   2.231   5.583   3.607
 1661SOL     OW 5881   2.649   0.448   3.081
 1661SOL    HW1 5882   2.743   0.481   3.070
 1661SOL    HW2 5883   2.591   0.488   3.010
 1662SOL     OW 5884   0.393   0.848   3.698
 1662SOL    HW1 5885   0.347   0.761   3.713
 1662SOL    HW2 5886   0.393   0.869   3.600
 1663SOL     OW 5887   1.451   0.273   3.295
 1663SOL    HW1 5888   1.468   0.333   3.217
 1663SOL    HW2 5889   1.529   0.276   3.357
 1664SOL     OW 5890   1.607   5.666   4.276
 1664SOL    HW1 5891   1.631   5.583   4.326
 1664SOL    HW2 5892   1.624   5.652   4.179
 1665SOL     OW 5893   0.281   1.362   4.011
 1665SOL    HW1 5894   0.278   1.397   3.918
 1665SOL    HW2 5895   0.331   1.276   4.013
 1666SOL     OW 5896   5.741   2.473   6.539
 1666SOL    HW1 5897   5.683   2.545   6.579
 1666SOL    HW2 5898   5.733   2.390   6.594
 1667SOL     OW 5899   6.975   0.451   1.091
 1667SOL    HW1 5900   0.013   0.369   1.100
 1667SOL    HW2 5901   6.897   0.430   1.033
 1668SOL     OW 5902   2.287   0.362   4.770
 1668SOL    HW1 5903   2.322   0.451   4.740
 1668SOL    HW2 5904   2.315   0.292   4.704
 1669SOL     OW 5905   5.335   6.228   6.106
 1669SOL    HW1 5906   5.321   6.133   6.133
 1669SOL    HW2 5907   5.428   6.256   6.129
 1670SOL     OW 5908   7.011   3.485   6.051
 1670SOL    HW1 5909   0.043   3.495   6.136
 1670SOL    HW2 5910   6.947   3.408   6.059
 1671SOL     OW 5911   6.001   4.912   0.787
 1671SOL    HW1 5912   5.966   4.837   0.843
 1671SOL    HW2 5913   5.997   4.998   0.839
 1672SOL     OW 5914   1.913   4.393   2.462
 1672SOL    HW1 5915   1.965   4.479   2.462
 1672SOL    HW2 5916   1.924   4.348   2.373
 1673SOL     OW 5917   6.481   3.337   3.232
 1673SOL    HW1 5918   6.441   3.276   3.300
 1673SOL    HW2 5919   6.543   3.402   3.277
 1674SOL     OW 5920   2.466   5.595   0.337
 1674SOL    HW1 5921   2.420   5.680   0.362
 1674SOL    HW2 5922   2.565   5.609   0.335
 1675SOL     OW 5923   5.060   2.035   6.087
 1675SOL    HW1 5924   5.021   1.951   6.047
 1675SOL    HW2 5925   5.000   2.068   6.159
 1676SOL     OW 5926   2.982   2.031   3.516
 1676SOL    HW1 5927   3.072   2.043   3.558
 1676SOL    HW2 5928   2.966   2.104   3.450
 1677SOL     OW 5929   5.218   0.200   6.062
 1677SOL    HW1 5930   5.165   0.177   5.980
 1677SOL    HW2 5931   5.199   0.294   6.089
 1678SOL     OW 5932   4.794   6.466   2.231
 1678SOL    HW1 5933   4.874   6.525   2.246
 1678SOL    HW2 5934   4.754   6.485   2.142
 1679SOL     OW 5935   6.617   4.761   0.049
 1679SOL    HW1 5936   6.566   4.847   0.055
 1679SOL    HW2 5937   6.589   4.712   6.987
 1680SOL     OW 5938   0.142   2.338   5.697
 1680SOL    HW1 5939   0.138   2.431   5.731
 1680SOL    HW2 5940   0.070   2.324   5.629
 1681SOL     OW 5941   4.535   5.468   0.238
 1681SOL    HW1 5942   4.597   5.542   0.265
 1681SOL    HW2 5943   4.473   5.448   0.314
 1682SOL     OW 5944   0.311   3.258   5.991
 1682SOL    HW1 5945   0.383   3.261   5.922
 1682SOL    HW2 5946   0.225   3.230   5.949
 1683SOL     OW 5947   5.657   5.157   5.175
 1683SOL    HW1 5948   5.607   5.237   5.143
 1683SOL    HW2 5949   5.736   5.185   5.228
 1684SOL     OW 5950   0.484   6.940   4.369
 1684SOL    HW1 5951   0.579   6.915   4.386
 1684SOL    HW2 5952   0.439   6.866   4.317
 1685SOL     OW 5953   1.086   2.040   0.125
 1685SOL    HW1 5954   1.145   2.120   0.117
 1685SOL    HW2 5955   1.032   2.046   0.209
 1686SOL     OW 5956   1.563   6.868   5.922
 1686SOL    HW1 5957   1.516   6.810   5.988
 1686SOL    HW2 5958   1.660   6.844   5.920
 1687SOL     OW 5959   2.941   6.521   2.255
 1687SOL    HW1 5960   2.942   6.425   2.226
 1687SOL    HW2 5961   2.944   6.526   2.355
 1688SOL     OW 5962   0.719   1.794   3.737
 1688SOL    HW1 5963   0.786   1.809   3.664
 1688SOL    HW2 5964   0.718   1.874   3.797
 1689SOL     OW 5965   2.087   1.733   1.786
 1689SOL    HW1 5966   2.134   1.749   1.873
 1689SOL    HW2 5967   1.993   1.706   1.804
 1690SOL     OW 5968   1.067   2.248   0.467
 1690SOL    HW1 5969   1.158   2.244   0.509
 1690SOL    HW2 5970   1.004   2.297   0.527
 1691SOL     OW 5971   4.707   4.367   3.628
 1691SOL    HW1 5972   4.688   4.300   3.701
 1691SOL    HW2 5973   4.730   4.319   3.544
 1692SOL     OW 5974   0.808   6.740   3.846
 1692SOL    HW1 5975   0.808   6.674   3.922
 1692SOL    HW2 5976   0.715   6.749   3.809
 1693SOL     OW 5977   3.765   2.142   4.315
 1693SOL    HW1 5978   3.809   2.207   4.254
 1693SOL    HW2 5979   3.831   2.073   4.344
 1694SOL     OW 5980   6.549   5.909   5.090
 1694SOL    HW1 5981   6.494   5.920   5.007
 1694SOL    HW2 5982   6.512   5.833   5.144
 1695SOL     OW 5983   3.943   1.674   6.231
 1695SOL    HW1 5984   4.024   1.729   6.252
 1695SOL    HW2 5985   3.865   1.708   6.283
 1696SOL     OW 5986   3.830   5.877   1.878
 1696SOL    HW1 5987   3.752   5.830   1.919
 1696SOL    HW2 5988   3.841   5.844   1.784
 1697SOL     OW 5989   1.523   1.561   2.101
 1697SOL    HW1 5990   1.471   1.588   2.182
 1697SOL    HW2 5991   1.613   1.526   2.129
 1698SOL     OW 5992   4.848   1.580   0.007
 1698SOL    HW1 5993   4.820   1.557   6.935
 1698SOL    HW2 5994   4.783   1.646   0.046
 1699SOL     OW 5995   2.452   4.704   1.564
 1699SOL    HW1 5996   2.436   4.744   1.654
 1699SOL    HW2 5997   2.493   4.613   1.574
 1700SOL     OW 5998   6.032   2.955   4.222
 1700SOL    HW1 5999   6.035   3.039   4.168
 1700SOL    HW2 6000   6.122   2.938   4.263
 1701SOL     OW 6001   5.705   2.919   4.555
 1701SOL    HW1 6002   5.626   2.862   4.531
 1701SOL    HW2 6003   5.789   2.866   4.541
 1702SOL     OW 6004   5.266   2.688   1.552
 1702SOL    HW1 6005   5.171   2.685   1.521
 1702SOL    HW2 6006   5.322   2.738   1.486
 1703SOL     OW 6007   2.294   3.852   1.247
 1703SOL    HW1 6008   2.367   3.910   1.210
 1703SOL    HW2 6009   2.255   3.896   1.328
 1704SOL     OW 6010   0.066   1.635   2.052
 1704SOL    HW1 6011   0.068   1.667   2.146
 1704SOL    HW2 6012   0.158   1.614   2.021
 1705SOL     OW 6013   4.130   3.383   2.637
 1705SOL    HW1 6014   4.198   3.311   2.623
 1705SOL    HW2 6015   4.107   3.424   2.549
 1706SOL     OW 6016   2.569   0.814   6.028
 1706SOL    HW1 6017   2.585   0.716   6.015
 1706SOL    HW2 6018   2.472   0.830   6.044
 1707SOL     OW 6019   5.095   1.597   2.097
 1707SOL    HW1 6020   5.016   1.547   2.133
 1707SOL    HW2 6021   5.073   1.694   2.091
 1708SOL     OW 6022   0.573   4.231   1.184
 1708SOL    HW1 6023   0.553   4.232   1.282
 1708SOL    HW2 6024   0.488   4.236   1.132
 1709SOL     OW 6025   3.369   5.548   3.535
 1709SOL    HW1 6026   3.275   5.525   3.560
 1709SOL    HW2 6027   3.407   5.475   3.478
 1710SOL     OW 6028   6.729   4.100   4.961
 1710SOL    HW1 6029   6.787   4.178   4.986
 1710SOL    HW2 6030   6.680   4.120   4.877
 1711SOL     OW 6031   0.680   4.439   5.743
 1711SOL    HW1 6032   0.675   4.539   5.745
 1711SOL    HW2 6033   0.697   4.406   5.836
 1712SOL     OW 6034   1.650   4.402   2.287
 1712SOL    HW1 6035   1.735   4.350   2.300
 1712SOL    HW2 6036   1.665   4.497   2.316
 1713SOL     OW 6037   2.860   3.481   1.093
 1713SOL    HW1 6038   2.903   3.559   1.137
 1713SOL    HW2 6039   2.812   3.511   1.011
 1714SOL     OW 6040   4.583   1.252   1.416
 1714SOL    HW1 6041   4.670   1.259   1.464
 1714SOL    HW2 6042   4.549   1.158   1.422
 1715SOL     OW 6043   1.095   3.498   3.265
 1715SOL    HW1 6044   1.188   3.461   3.258
 1715SOL    HW2 6045   1.065   3.494   3.360
 1716SOL     OW 6046   6.992   0.074   0.053
 1716SOL    HW1 6047   0.048   0.051   0.114
 1716SOL    HW2 6048   6.926   7.019   0.053
 1717SOL     OW 6049   2.925   0.689   6.983
 1717SOL    HW1 6050   2.935   0.770   6.925
 1717SOL    HW2 6051   3.013   0.641   6.988
 1718SOL     OW 6052   1.979   3.837   5.565
 1718SOL    HW1 6053   2.061   3.801   5.609
 1718SOL    HW2 6054   1.916   3.762   5.545
 1719SOL     OW 6055   1.948   2.990   0.921
 1719SOL    HW1 6056   2.013   3.063   0.937
 1719SOL    HW2 6057   1.855   3.023   0.935
 1720SOL     OW 6058   0.103   2.433   2.323
 1720SOL    HW1 6059   0.044   2.491   2.380
 1720SOL    HW2 6060   0.171   2.490   2.278
 1721SOL     OW 6061   1.083   5.818   4.119
 1721SOL    HW1 6062   1.168   5.768   4.138
 1721SOL    HW2 6063   1.063   5.813   4.021
 1722SOL     OW 6064   5.461   6.974   1.891
 1722SOL    HW1 6065   5.507   0.037   1.923
 1722SOL    HW2 6066   5.498   6.948   1.802
 1723SOL     OW 6067   6.168   1.155   3.315
 1723SOL    HW1 6068   6.149   1.097   3.394
 1723SOL    HW2 6069   6.093   1.220   3.303
 1724SOL     OW 6070   4.636   0.615   0.162
 1724SOL    HW1 6071   4.711   0.670   0.126
 1724SOL    HW2 6072   4.569   0.597   0.090
 1725SOL     OW 6073   3.648   5.756   2.040
 1725SOL    HW1 6074   3.615   5.830   2.099
 1725SOL    HW2 6075   3.682   5.681   2.096
 1726SOL     OW 6076   6.025   4.375   4.712
 1726SOL    HW1 6077   6.010   4.457   4.768
 1726SOL    HW2 6078   5.976   4.298   4.753
 1727SOL     OW 6079   2.450   4.714   6.318
 1727SOL    HW1 6080   2.440   4.813   6.305
 1727SOL    HW2 6081   2.418   4.689   6.409
 1728SOL     OW 6082   5.018   5.450   3.593
 1728SOL    HW1 6083   5.002   5.524   3.658
 1728SOL    HW2 6084   4.943   5.383   3.599
 1729SOL     OW 6085   0.378   2.793   2.209
 1729SOL    HW1 6086   0.317   2.825   2.138
 1729SOL    HW2 6087   0.331   2.797   2.298
 1730SOL     OW 6088   4.554   2.201   4.765
 1730SOL    HW1 6089   4.551   2.194   4.865
 1730SOL    HW2 6090   4.465   2.175   4.728
 1731SOL     OW 6091   0.455   6.774   6.468
 1731SOL    HW1 6092   0.434   6.693   6.523
 1731SOL    HW2 6093   0.370   6.823   6.448
 1732SOL     OW 6094   1.181   4.207   0.088
 1732SOL    HW1 6095   1.255   4.272   0.072
 1732SOL    HW2 6096   1.109   4.221   0.019
 1733SOL     OW 6097   1.626   4.305   6.522
 1733SOL    HW1 6098   1.559   4.325   6.450
 1733SOL    HW2 6099   1.621   4.208   6.546
 1734SOL     OW 6100   5.642   4.076   0.769
 1734SOL    HW1 6101   5.559   4.023   0.756
 1734SOL    HW2 6102   5.710   4.049   0.700
 1735SOL     OW 6103   4.713   5.374   6.676
 1735SOL    HW1 6104   4.647   5.311   6.717
 1735SOL    HW2 6105   4.673   5.466   6.672
 1736SOL     OW 6106   3.673   3.059   0.458
 1736SOL    HW1 6107   3.721   3.102   0.535
 1736SOL    HW2 6108   3.711   2.968   0.442
 1737SOL     OW 6109   0.786   5.821   3.383
 1737SOL    HW1 6110   0.871   5.819   3.331
 1737SOL    HW2 6111   0.784   5.902   3.442
 1738SOL     OW 6112   0.823   1.250   2.114
 1738SOL    HW1 6113   0.883   1.219   2.040
 1738SOL    HW2 6114   0.770   1.328   2.083
 1739SOL     OW 6115   4.260   1.828   6.562
 1739SOL    HW1 6116   4.339   1.869   6.516
 1739SOL    HW2 6117   4.243   1.874   6.649
 1740SOL     OW 6118   0.667   2.023   6.482
 1740SOL    HW1 6119   0.654   1.954   6.553
 1740SOL    HW2 6120   0.748   2.077   6.502
 1741SOL     OW 6121   1.007   0.716   2.799
 1741SOL    HW1 6122   1.093   0.694   2.846
 1741SOL    HW2 6123   1.011   0.682   2.705
 1742SOL     OW 6124   6.266   6.171   4.085
 1742SOL    HW1 6125   6.237   6.257   4.127
 1742SOL    HW2 6126   6.199   6.143   4.017
 1743SOL     OW 6127   4.054   1.099   0.593
 1743SOL    HW1 6128   4.054   1.145   0.504
 1743SOL    HW2 6129   4.046   1.167   0.666
 1744SOL     OW 6130   3.884   6.059   1.538
 1744SOL    HW1 6131   3.947   6.033   1.611
 1744SOL    HW2 6132   3.937   6.093   1.460
 1745SOL     OW 6133   0.387   2.293   5.245
 1745SOL    HW1 6134   0.447   2.333   5.314
 1745SOL    HW2 6135   0.416   2.200   5.225
 1746SOL     OW 6136   2.904   0.805   6.615
 1746SOL    HW1 6137   2.810   0.805   6.582
 1746SOL    HW2 6138   2.951   0.723   6.582
 1747SOL     OW 6139   3.810   6.922   4.671
 1747SOL    HW1 6140   3.855   7.011   4.669
 1747SOL    HW2 6141   3.877   6.850   4.651
 1748SOL     OW 6142   5.995   0.932   1.989
 1748SOL    HW1 6143   5.995   0.898   2.083
 1748SOL    HW2 6144   6.089   0.952   1.960
 1749SOL     OW 6145   5.241   0.274   6.493
 1749SOL    HW1 6146   5.159   0.300   6.443
 1749SOL    HW2 6147   5.296   0.213   6.436
 1750SOL     OW 6148   3.560   0.755   2.875
 1750SOL    HW1 6149   3.599   0.763   2.967
 1750SOL    HW2 6150   3.551   0.846   2.834
 1751SOL     OW 6151   1.869   5.735   4.355
 1751SOL    HW1 6152   1.779   5.711   4.319
 1751SOL    HW2 6153   1.890   5.679   4.435
 1752SOL     OW 6154   6.861   1.978   6.066
 1752SOL    HW1 6155   6.950   1.975   6.113
 1752SOL    HW2 6156   6.876   2.001   5.970
 1753SOL     OW 6157   2.208   6.618   2.248
 1753SOL    HW1 6158   2.139   6.567   2.299
 1753SOL    HW2 6159   2.223   6.707   2.291
 1754SOL     OW 6160   3.417   2.945   3.535
 1754SOL    HW1 6161   3.410   2.986   3.444
 1754SOL    HW2 6162   3.513   2.940   3.563
 1755SOL     OW 6163   6.964   4.393   6.823
 1755SOL    HW1 6164   7.020   4.445   6.759
 1755SOL    HW2 6165   6.919   4.456   6.887
 1756SOL     OW 6166   5.669   4.769   5.217
 1756SOL    HW1 6167   5.660   4.670   5.204
 1756SOL    HW2 6168   5.727   4.808   5.145
 1757SOL     OW 6169   3.737   0.634   5.100
 1757SOL    HW1 6170   3.732   0.665   5.195
 1757SOL    HW2 6171   3.832   0.611   5.078
 1758SOL     OW 6172   2.586   1.395   3.354
 1758SOL    HW1 6173   2.565   1.322   3.418
 1758SOL    HW2 6174   2.505   1.452   3.341
 1759SOL     OW 6175   6.615   6.466   6.240
 1759SOL    HW1 6176   6.561   6.550   6.239
 1759SOL    HW2 6177   6.555   6.387   6.249
 1760SOL     OW 6178   4.630   6.327   3.201
 1760SOL    HW1 6179   4.644   6.422   3.229
 1760SOL    HW2 6180   4.624   6.322   3.102
 1761SOL     OW 6181   5.812   3.337   1.190
 1761SOL    HW1 6182   5.860   3.425   1.188
 1761SOL    HW2 6183   5.867   3.268   1.142
 1762SOL     OW 6184   5.828   2.915   0.333
 1762SOL    HW1 6185   5.894   2.985   0.306
 1762SOL    HW2 6186   5.762   2.902   0.259
 1763SOL     OW 6187   2.267   2.490   4.343
 1763SOL    HW1 6188   2.198   2.419   4.330
 1763SOL    HW2 6189   2.303   2.485   4.436
 1764SOL     OW 6190   6.492   3.899   3.209
 1764SOL    HW1 6191   6.570   3.860   3.258
 1764SOL    HW2 6192   6.488   3.997   3.225
 1765SOL     OW 6193   1.645   3.239   6.126
 1765SOL    HW1 6194   1.549   3.211   6.140
 1765SOL    HW2 6195   1.662   3.324   6.177
 1766SOL     OW 6196   5.730   4.317   5.316
 1766SOL    HW1 6197   5.674   4.248   5.270
 1766SOL    HW2 6198   5.752   4.287   5.409
 1767SOL     OW 6199   6.924   4.976   1.274
 1767SOL    HW1 6200   6.868   4.894   1.282
 1767SOL    HW2 6201   6.865   5.056   1.261
 1768SOL     OW 6202   6.201   0.180   3.123
 1768SOL    HW1 6203   6.195   0.275   3.154
 1768SOL    HW2 6204   6.297   0.157   3.106
 1769SOL     OW 6205   4.557   0.993   3.852
 1769SOL    HW1 6206   4.559   1.045   3.937
 1769SOL    HW2 6207   4.614   1.039   3.783
 1770SOL     OW 6208   3.408   5.984   5.486
 1770SOL    HW1 6209   3.467   6.064   5.494
 1770SOL    HW2 6210   3.355   5.991   5.401
 1771SOL     OW 6211   5.004   5.861   6.839
 1771SOL    HW1 6212   5.008   5.960   6.853
 1771SOL    HW2 6213   5.096   5.826   6.822
 1772SOL     OW 6214   2.235   5.700   2.729
 1772SOL    HW1 6215   2.292   5.676   2.808
 1772SOL    HW2 6216   2.283   5.767   2.672
 1773SOL     OW 6217   1.897   6.612   0.104
 1773SOL    HW1 6218   1.954   6.638   0.182
 1773SOL    HW2 6219   1.866   6.694   0.057
 1774SOL     OW 6220   2.439   5.115   1.718
 1774SOL    HW1 6221   2.470   5.167   1.639
 1774SOL    HW2 6222   2.513   5.107   1.784
 1775SOL     OW 6223   0.763   5.274   0.501
 1775SOL    HW1 6224   0.822   5.259   0.580
 1775SOL    HW2 6225   0.739   5.186   0.459
 1776SOL     OW 6226   3.045   5.848   4.973
 1776SOL    HW1 6227   3.124   5.908   4.983
 1776SOL    HW2 6228   3.063   5.783   4.899
 1777SOL     OW 6229   4.333   6.084   6.639
 1777SOL    HW1 6230   4.278   6.045   6.713
 1777SOL    HW2 6231   4.333   6.183   6.645
 1778SOL     OW 6232   0.424   3.514   5.853
 1778SOL    HW1 6233   0.486   3.479   5.784
 1778SOL    HW2 6234   0.352   3.569   5.810
 1779SOL     OW 6235   4.161   6.540   4.889
 1779SOL    HW1 6236   4.218   6.600   4.945
 1779SOL    HW2 6237   4.104   6.595   4.828
 1780SOL     OW 6238   3.880   2.000   7.001
 1780SOL    HW1 6239   3.936   2.014   0.062
 1780SOL    HW2 6240   3.787   2.032   7.020
 1781SOL     OW 6241   1.917   5.816   3.402
 1781SOL    HW1 6242   1.968   5.890   3.358
 1781SOL    HW2 6243   1.929   5.822   3.501
 1782SOL     OW 6244   3.194   1.490   4.590
 1782SOL    HW1 6245   3.201   1.563   4.522
 1782SOL    HW2 6246   3.285   1.462   4.618
 1783SOL     OW 6247   2.220   5.736   0.187
 1783SOL    HW1 6248   2.187   5.646   0.218
 1783SOL    HW2 6249   2.260   5.785   0.264
 1784SOL     OW 6250   1.700   6.323   6.602
 1784SOL    HW1 6251   1.671   6.240   6.555
 1784SOL    HW2 6252   1.742   6.299   6.690
 1785SOL     OW 6253   6.789   5.237   3.053
 1785SOL    HW1 6254   6.843   5.296   2.993
 1785SOL    HW2 6255   6.826   5.242   3.146
 1786SOL     OW 6256   3.711   2.526   1.519
 1786SOL    HW1 6257   3.675   2.532   1.612
 1786SOL    HW2 6258   3.652   2.578   1.457
 1787SOL     OW 6259   3.744   0.292   5.453
 1787SOL    HW1 6260   3.694   0.205   5.454
 1787SOL    HW2 6261   3.763   0.320   5.547
 1788SOL     OW 6262   1.796   5.106   5.120
 1788SOL    HW1 6263   1.822   5.202   5.127
 1788SOL    HW2 6264   1.719   5.096   5.057
 1789SOL     OW 6265   5.334   6.600   0.579
 1789SOL    HW1 6266   5.431   6.583   0.595
 1789SOL    HW2 6267   5.320   6.697   0.557
 1790SOL     OW 6268   2.024   6.795   2.772
 1790SOL    HW1 6269   2.008   6.872   2.710
 1790SOL    HW2 6270   2.062   6.718   2.720
 1791SOL     OW 6271   0.960   6.659   3.610
 1791SOL    HW1 6272   1.052   6.686   3.638
 1791SOL    HW2 6273   0.894   6.691   3.678
 1792SOL     OW 6274   0.850   3.438   4.522
 1792SOL    HW1 6275   0.921   3.395   4.578
 1792SOL    HW2 6276   0.877   3.531   4.499
 1793SOL     OW 6277   7.009   0.323   4.318
 1793SOL    HW1 6278   6.930   0.279   4.276
 1793SOL    HW2 6279   0.061   0.254   4.332
 1794SOL     OW 6280   4.706   5.775   6.170
 1794SOL    HW1 6281   4.671   5.685   6.198
 1794SOL    HW2 6282   4.800   5.766   6.139
 1795SOL     OW 6283   1.041   3.624   7.011
 1795SOL    HW1 6284   1.010   3.635   6.917
 1795SOL    HW2 6285   0.981   3.676   0.052
 1796SOL     OW 6286   3.826   0.096   5.201
 1796SOL    HW1 6287   3.738   0.136   5.174
 1796SOL    HW2 6288   3.863   0.044   5.125
 1797SOL     OW 6289   0.467   1.243   2.124
 1797SOL    HW1 6290   0.500   1.303   2.052
 1797SOL    HW2 6291   0.473   1.148   2.094
 1798SOL     OW 6292   6.207   1.508   3.222
 1798SOL    HW1 6293   6.143   1.469   3.288
 1798SOL    HW2 6294   6.224   1.442   3.149
 1799SOL     OW 6295   2.509   0.336   0.448
 1799SOL    HW1 6296   2.524   0.251   0.397
 1799SOL    HW2 6297   2.538   0.413   0.392
 1800SOL     OW 6298   2.813   4.773   2.253
 1800SOL    HW1 6299   2.788   4.698   2.192
 1800SOL    HW2 6300   2.862   4.736   2.332
 1801SOL     OW 6301   5.603   6.600   0.668
 1801SOL    HW1 6302   5.609   6.620   0.766
 1801SOL    HW2 6303   5.665   6.525   0.646
 1802SOL     OW 6304   6.140   5.304   4.289
 1802SOL    HW1 6305   6.080   5.287   4.367
 1802SOL    HW2 6306   6.084   5.315   4.207
 1803SOL     OW 6307   6.305   4.786   0.075
 1803SOL    HW1 6308   6.346   4.712   0.129
 1803SOL    HW2 6309   6.238   4.747   0.011
 1804SOL     OW 6310   3.053   3.876   5.841
 1804SOL    HW1 6311   3.144   3.874   5.799
 1804SOL    HW2 6312   3.027   3.971   5.859
 1805SOL     OW 6313   6.481   2.677   6.873
 1805SOL    HW1 6314   6.420   2.750   6.844
 1805SOL    HW2 6315   6.574   2.714   6.883
 1806SOL     OW 6316   6.478   6.376   0.448
 1806SOL    HW1 6317   6.558   6.317   0.461
 1806SOL    HW2 6318   6.464   6.393   0.351
 1807SOL     OW 6319   6.981   1.857   5.688
 1807SOL    HW1 6320   6.904   1.796   5.706
 1807SOL    HW2 6321   0.045   1.803   5.682
 1808SOL     OW 6322   2.629   4.991   3.902
 1808SOL    HW1 6323   2.630   5.019   3.998
 1808SOL    HW2 6324   2.701   4.924   3.886
 1809SOL     OW 6325   3.760   0.595   6.197
 1809SOL    HW1 6326   3.784   0.509   6.153
 1809SOL    HW2 6327   3.704   0.578   6.277
 1810SOL     OW 6328   2.930   6.467   3.206
 1810SOL    HW1 6329   2.853   6.518   3.167
 1810SOL    HW2 6330   3.016   6.501   3.167
 1811SOL     OW 6331   5.747   5.599   2.998
 1811SOL    HW1 6332   5.750   5.616   3.097
 1811SOL    HW2 6333   5.837   5.566   2.967
 1812SOL     OW 6334   4.321   5.168   5.384
 1812SOL    HW1 6335   4.279   5.085   5.423
 1812SOL    HW2 6336   4.351   5.228   5.458
 1813SOL     OW 6337   6.888   6.450   5.663
 1813SOL    HW1 6338   6.912   6.402   5.747
 1813SOL    HW2 6339   6.932   6.540   5.662
 1814SOL     OW 6340   4.791   0.458   2.685
 1814SOL    HW1 6341   4.891   0.453   2.691
 1814SOL    HW2 6342   4.762   0.553   2.697
 1815SOL     OW 6343   0.314   1.536   3.304
 1815SOL    HW1 6344   0.334   1.631   3.327
 1815SOL    HW2 6345   0.310   1.526   3.205
 1816SOL     OW 6346   1.203   5.338   0.427
 1816SOL    HW1 6347   1.128   5.403   0.417
 1816SOL    HW2 6348   1.226   5.299   0.338
 1817SOL     OW 6349   1.369   4.173   1.824
 1817SOL    HW1 6350   1.367   4.229   1.907
 1817SOL    HW2 6351   1.428   4.215   1.756
 1818SOL     OW 6352   0.450   1.557   2.650
 1818SOL    HW1 6353   0.399   1.512   2.577
 1818SOL    HW2 6354   0.430   1.656   2.648
 1819SOL     OW 6355   1.116   4.114   2.889
 1819SOL    HW1 6356   1.103   4.093   2.986
 1819SOL    HW2 6357   1.211   4.096   2.863
 1820SOL     OW 6358   5.660   6.377   2.890
 1820SOL    HW1 6359   5.706   6.425   2.964
 1820SOL    HW2 6360   5.631   6.443   2.820
 1821SOL     OW 6361   1.491   2.315   2.949
 1821SOL    HW1 6362   1.392   2.303   2.939
 1821SOL    HW2 6363   1.526   2.247   3.014
 1822SOL     OW 6364   2.959   3.384   2.203
 1822SOL    HW1 6365   3.043   3.425   2.167
 1822SOL    HW2 6366   2.957   3.287   2.181
 1823SOL     OW 6367   4.218   0.103   2.532
 1823SOL    HW1 6368   4.212   0.191   2.580
 1823SOL    HW2 6369   4.251   0.033   2.595
 1824SOL     OW 6370   4.730   1.526   1.927
 1824SOL    HW1 6371   4.717   1.602   1.991
 1824SOL    HW2 6372   4.661   1.530   1.855
 1825SOL     OW 6373   0.838   0.065   1.813
 1825SOL    HW1 6374   0.905   0.139   1.802
 1825SOL    HW2 6375   0.753   0.091   1.768
 1826SOL     OW 6376   2.723   5.798   6.238
 1826SOL    HW1 6377   2.727   5.791   6.138
 1826SOL    HW2 6378   2.815   5.790   6.276
 1827SOL     OW 6379   5.668   0.406   1.003
 1827SOL    HW1 6380   5.646   0.483   0.943
 1827SOL    HW2 6381   5.745   0.355   0.965
 1828SOL     OW 6382   2.841   2.754   0.526
 1828SOL    HW1 6383   2.901   2.694   0.474
 1828SOL    HW2 6384   2.768   2.701   0.568
 1829SOL     OW 6385   5.451   5.503   2.293
 1829SOL    HW1 6386   5.534   5.448   2.299
 1829SOL    HW2 6387   5.442   5.560   2.375
 1830SOL     OW 6388   4.655   6.897   4.654
 1830SOL    HW1 6389   4.668   6.958   4.733
 1830SOL    HW2 6390   4.731   6.910   4.590
 1831SOL     OW 6391   5.237   1.507   3.050
 1831SOL    HW1 6392   5.147   1.549   3.062
 1831SOL    HW2 6393   5.297   1.533   3.125
 1832SOL     OW 6394   5.397   2.748   6.717
 1832SOL    HW1 6395   5.368   2.835   6.756
 1832SOL    HW2 6396   5.360   2.673   6.772
 1833SOL     OW 6397   5.818   1.993   6.158
 1833SOL    HW1 6398   5.783   2.076   6.202
 1833SOL    HW2 6399   5.829   1.921   6.228
 1834SOL     OW 6400   2.685   4.415   6.884
 1834SOL    HW1 6401   2.725   4.493   6.933
 1834SOL    HW2 6402   2.687   4.334   6.944
 1835SOL     OW 6403   2.066   5.077   0.152
 1835SOL    HW1 6404   2.004   5.136   0.204
 1835SOL    HW2 6405   2.156   5.074   0.197
 1836SOL     OW 6406   0.782   6.535   0.359
 1836SOL    HW1 6407   0.840   6.493   0.428
 1836SOL    HW2 6408   0.813   6.507   0.268
 1837SOL     OW 6409   0.311   2.859   4.461
 1837SOL    HW1 6410   0.409   2.870   4.448
 1837SOL    HW2 6411   0.269   2.950   4.471
 1838SOL     OW 6412   0.588   2.799   4.492
 1838SOL    HW1 6413   0.600   2.722   4.430
 1838SOL    HW2 6414   0.576   2.765   4.586
 1839SOL     OW 6415   1.261   1.282   6.895
 1839SOL    HW1 6416   1.216   1.205   6.850
 1839SOL    HW2 6417   1.358   1.283   6.869
 1840SOL     OW 6418   0.966   5.312   1.461
 1840SOL    HW1 6419   0.984   5.395   1.514
 1840SOL    HW2 6420   0.956   5.234   1.523
 1841SOL     OW 6421   1.908   3.112   3.876
 1841SOL    HW1 6422   2.008   3.111   3.880
 1841SOL    HW2 6423   1.871   3.059   3.953
 1842SOL     OW 6424   1.323   5.826   6.241
 1842SOL    HW1 6425   1.318   5.803   6.144
 1842SOL    HW2 6426   1.299   5.745   6.295
 1843SOL     OW 6427   4.614   2.072   5.567
 1843SOL    HW1 6428   4.620   2.136   5.644
 1843SOL    HW2 6429   4.701   2.024   5.557
 1844SOL     OW 6430   5.534   4.969   3.737
 1844SOL    HW1 6431   5.510   4.908   3.812
 1844SOL    HW2 6432   5.557   4.915   3.656
 1845SOL     OW 6433   4.960   6.521   0.825
 1845SOL    HW1 6434   5.004   6.464   0.756
 1845SOL    HW2 6435   4.994   6.615   0.817
 1846SOL     OW 6436   3.764   1.642   5.540
 1846SOL    HW1 6437   3.713   1.559   5.562
 1846SOL    HW2 6438   3.859   1.632   5.569
 1847SOL     OW 6439   1.160   6.048   6.274
 1847SOL    HW1 6440   1.099   6.027   6.197
 1847SOL    HW2 6441   1.230   5.978   6.280
 1848SOL     OW 6442   2.094   1.139   4.196
 1848SOL    HW1 6443   2.028   1.204   4.160
 1848SOL    HW2 6444   2.179   1.186   4.217
 1849SOL     OW 6445   2.306   0.824   6.078
 1849SOL    HW1 6446   2.289   0.790   6.170
 1849SOL    HW2 6447   2.226   0.807   6.021
 1850SOL     OW 6448   5.175   1.710   1.656
 1850SOL    HW1 6449   5.123   1.733   1.574
 1850SOL    HW2 6450   5.270   1.738   1.644
 1851SOL     OW 6451   0.070   4.490   2.693
 1851SOL    HW1 6452   0.012   4.556   2.741
 1851SOL    HW2 6453   0.022   4.457   2.611
 1852SOL     OW 6454   5.411   1.546   5.897
 1852SOL    HW1 6455   5.463   1.631   5.907
 1852SOL    HW2 6456   5.313   1.566   5.897
 1853SOL     OW 6457   1.609   4.860   0.467
 1853SOL    HW1 6458   1.574   4.902   0.550
 1853SOL    HW2 6459   1.565   4.901   0.387
 1854SOL     OW 6460   2.507   5.205   4.154
 1854SOL    HW1 6461   2.587   5.145   4.143
 1854SOL    HW2 6462   2.507   5.244   4.245
 1855SOL     OW 6463   6.448   4.645   1.481
 1855SOL    HW1 6464   6.414   4.558   1.517
 1855SOL    HW2 6465   6.547   4.650   1.494
 1856SOL     OW 6466   5.591   3.294   0.154
 1856SOL    HW1 6467   5.591   3.221   0.087
 1856SOL    HW2 6468   5.561   3.379   0.111
 1857SOL     OW 6469   5.680   1.321   3.374
 1857SOL    HW1 6470   5.707   1.392   3.308
 1857SOL    HW2 6471   5.605   1.356   3.430
 1858SOL     OW 6472   5.153   4.439   2.285
 1858SOL    HW1 6473   5.109   4.523   2.319
 1858SOL    HW2 6474   5.185   4.455   2.191
 1859SOL     OW 6475   5.734   2.206   3.638
 1859SOL    HW1 6476   5.781   2.159   3.563
 1859SOL    HW2 6477   5.635   2.198   3.625
 1860SOL     OW 6478   3.822   2.178   5.091
 1860SOL    HW1 6479   3.818   2.079   5.104
 1860SOL    HW2 6480   3.838   2.222   5.180
 1861SOL     OW 6481   5.299   6.459   2.342
 1861SOL    HW1 6482   5.213   6.408   2.337
 1861SOL    HW2 6483   5.358   6.417   2.412
 1862SOL     OW 6484   2.662   2.330   0.796
 1862SOL    HW1 6485   2.754   2.326   0.758
 1862SOL    HW2 6486   2.615   2.243   0.780
 1863SOL     OW 6487   1.740   1.827   1.176
 1863SOL    HW1 6488   1.741   1.833   1.275
 1863SOL    HW2 6489   1.823   1.781   1.144
 1864SOL     OW 6490   0.410   6.669   3.274
 1864SOL    HW1 6491   0.459   6.584   3.255
 1864SOL    HW2 6492   0.354   6.693   3.195
 1865SOL     OW 6493   5.232   3.374   6.448
 1865SOL    HW1 6494   5.317   3.411   6.411
 1865SOL    HW2 6495   5.221   3.279   6.419
 1866SOL     OW 6496   5.924   5.410   1.561
 1866SOL    HW1 6497   5.838   5.414   1.612
 1866SOL    HW2 6498   5.971   5.498   1.569
 1867SOL     OW 6499   1.468   4.564   6.234
 1867SOL    HW1 6500   1.404   4.597   6.164
 1867SOL    HW2 6501   1.459   4.465   6.243
 1868SOL     OW 6502   6.622   4.197   5.321
 1868SOL    HW1 6503   6.583   4.107   5.302
 1868SOL    HW2 6504   6.717   4.199   5.291
 1869SOL     OW 6505   5.502   1.254   4.537
 1869SOL    HW1 6506   5.598   1.249   4.509
 1869SOL    HW2 6507   5.468   1.346   4.519
 1870SOL     OW 6508   2.124   3.986   4.865
 1870SOL    HW1 6509   2.179   3.960   4.945
 1870SOL    HW2 6510   2.120   4.086   4.859
 1871SOL     OW 6511   1.744   0.729   1.312
 1871SOL    HW1 6512   1.829   0.762   1.272
 1871SOL    HW2 6513   1.666   0.778   1.273
 1872SOL     OW 6514   1.604   5.602   6.303
 1872SOL    HW1 6515   1.690   5.554   6.288
 1872SOL    HW2 6516   1.622   5.694   6.338
 1873SOL     OW 6517   5.364   6.523   6.613
 1873SOL    HW1 6518   5.346   6.537   6.515
 1873SOL    HW2 6519   5.334   6.603   6.664
 1874SOL     OW 6520   0.558   3.563   2.724
 1874SOL    HW1 6521   0.607   3.598   2.644
 1874SOL    HW2 6522   0.481   3.622   2.744
 1875SOL     OW 6523   0.436   6.848   2.188
 1875SOL    HW1 6524   0.416   6.862   2.091
 1875SOL    HW2 6525   0.508   6.780   2.197
 1876SOL     OW 6526   1.964   6.374   4.416
 1876SOL    HW1 6527   2.056   6.348   4.387
 1876SOL    HW2 6528   1.898   6.347   4.345
 1877SOL     OW 6529   0.450   0.217   4.229
 1877SOL    HW1 6530   0.433   0.196   4.325
 1877SOL    HW2 6531   0.374   0.181   4.173
 1878SOL     OW 6532   6.780   2.802   6.008
 1878SOL    HW1 6533   6.877   2.816   6.026
 1878SOL    HW2 6534   6.727   2.874   6.055
 1879SOL     OW 6535   1.868   5.549   5.658
 1879SOL    HW1 6536   1.818   5.636   5.664
 1879SOL    HW2 6537   1.848   5.506   5.570
 1880SOL     OW 6538   6.491   0.633   3.969
 1880SOL    HW1 6539   6.482   0.633   4.068
 1880SOL    HW2 6540   6.486   0.538   3.936
 1881SOL     OW 6541   0.233   2.104   6.719
 1881SOL    HW1 6542   0.191   2.194   6.720
 1881SOL    HW2 6543   0.292   2.096   6.639
 1882SOL     OW 6544   0.742   6.821   0.319
 1882SOL    HW1 6545   0.753   6.728   0.355
 1882SOL    HW2 6546   0.737   6.818   0.220
 1883SOL     OW 6547   0.175   1.991   4.120
 1883SOL    HW1 6548   0.224   1.908   4.095
 1883SOL    HW2 6549   0.077   1.972   4.123
 1884SOL     OW 6550   5.952   2.282   1.678
 1884SOL    HW1 6551   5.898   2.224   1.739
 1884SOL    HW2 6552   5.995   2.226   1.607
 1885SOL     OW 6553   3.373   1.282   4.691
 1885SOL    HW1 6554   3.406   1.231   4.612
 1885SOL    HW2 6555   3.349   1.218   4.764
 1886SOL     OW 6556   0.446   6.142   3.652
 1886SOL    HW1 6557   0.477   6.178   3.564
 1886SOL    HW2 6558   0.389   6.210   3.698
 1887SOL     OW 6559   2.507   5.436   6.288
 1887SOL    HW1 6560   2.457   5.501   6.232
 1887SOL    HW2 6561   2.603   5.464   6.293
 1888SOL     OW 6562   1.992   0.034   3.193
 1888SOL    HW1 6563   2.060   0.053   3.263
 1888SOL    HW2 6564   2.037   0.015   3.106
 1889SOL     OW 6565   0.327   3.104   2.363
 1889SOL    HW1 6566   0.334   3.030   2.430
 1889SOL    HW2 6567   0.305   3.190   2.410
 1890SOL     OW 6568   1.626   5.955   4.767
 1890SOL    HW1 6569   1.604   5.970   4.671
 1890SOL    HW2 6570   1.636   5.857   4.784
 1891SOL     OW 6571   4.025   3.753   3.399
 1891SOL    HW1 6572   4.084   3.744   3.480
 1891SOL    HW2 6573   3.966   3.833   3.409
 1892SOL     OW 6574   6.909   0.593   2.871
 1892SOL    HW1 6575   6.809   0.586   2.865
 1892SOL    HW2 6576   6.943   0.527   2.937
 1893SOL     OW 6577   3.958   3.102   4.346
 1893SOL    HW1 6578   3.923   3.056   4.265
 1893SOL    HW2 6579   3.894   3.173   4.374
 1894SOL     OW 6580   3.328   2.923   4.486
 1894SOL    HW1 6581   3.303   3.010   4.529
 1894SOL    HW2 6582   3.253   2.890   4.430
 1895SOL     OW 6583   0.788   6.288   1.285
 1895SOL    HW1 6584   0.750   6.353   1.219
 1895SOL    HW2 6585   0.888   6.294   1.282
 1896SOL     OW 6586   5.954   3.132   1.052
 1896SOL    HW1 6587   5.884   3.067   1.083
 1896SOL    HW2 6588   6.045   3.098   1.076
 1897SOL     OW 6589   2.290   4.592   3.260
 1897SOL    HW1 6590   2.194   4.581   3.285
 1897SOL    HW2 6591   2.343   4.515   3.296
 1898SOL     OW 6592   1.673   6.080   2.341
 1898SOL    HW1 6593   1.589   6.119   2.303
 1898SOL    HW2 6594   1.683   5.986   2.311
 1899SOL     OW 6595   6.801   1.030   2.050
 1899SOL    HW1 6596   6.812   0.982   2.138
 1899SOL    HW2 6597   6.807   0.964   1.975
 1900SOL     OW 6598   3.030   6.278   6.369
 1900SOL    HW1 6599   3.013   6.204   6.303
 1900SOL    HW2 6600   3.125   6.308   6.362
 1901SOL     OW 6601   3.866   3.049   3.008
 1901SOL    HW1 6602   3.803   3.044   3.085
 1901SOL    HW2 6603   3.824   3.006   2.928
 1902SOL     OW 6604   1.129   6.738   5.383
 1902SOL    HW1 6605   1.108   6.701   5.474
 1902SOL    HW2 6606   1.061   6.706   5.317
 1903SOL     OW 6607   1.195   1.625   4.231
 1903SOL    HW1 6608   1.099   1.634   4.255
 1903SOL    HW2 6609   1.231   1.714   4.201
 1904SOL     OW 6610   6.161   5.567   1.753
 1904SOL    HW1 6611   6.096   5.587   1.827
 1904SOL    HW2 6612   6.241   5.521   1.790
 1905SOL     OW 6613   0.519   3.085   4.012
 1905SOL    HW1 6614   0.492   3.027   3.936
 1905SOL    HW2 6615   0.438   3.107   4.068
 1906SOL     OW 6616   0.461   5.969   4.081
 1906SOL    HW1 6617   0.412   5.926   4.005
 1906SOL    HW2 6618   0.503   6.054   4.050
 1907SOL     OW 6619   6.260   2.970   0.826
 1907SOL    HW1 6620   6.244   2.929   0.737
 1907SOL    HW2 6621   6.321   3.050   0.815
 1908SOL     OW 6622   3.980   0.614   2.004
 1908SOL    HW1 6623   3.911   0.654   2.066
 1908SOL    HW2 6624   4.024   0.686   1.952
 1909SOL     OW 6625   6.395   5.247   5.270
 1909SOL    HW1 6626   6.446   5.192   5.336
 1909SOL    HW2 6627   6.435   5.235   5.179
 1910SOL     OW 6628   0.409   6.114   5.244
 1910SOL    HW1 6629   0.333   6.107   5.180
 1910SOL    HW2 6630   0.416   6.207   5.279
 1911SOL     OW 6631   5.919   6.514   3.958
 1911SOL    HW1 6632   5.937   6.454   4.036
 1911SOL    HW2 6633   6.005   6.558   3.930
 1912SOL     OW 6634   3.314   4.899   1.893
 1912SOL    HW1 6635   3.366   4.815   1.911
 1912SOL    HW2 6636   3.311   4.915   1.794
 1913SOL     OW 6637   3.034   4.293   6.121
 1913SOL    HW1 6638   2.995   4.226   6.185
 1913SOL    HW2 6639   3.119   4.329   6.159
 1914SOL     OW 6640   4.262   3.882   0.394
 1914SOL    HW1 6641   4.168   3.875   0.427
 1914SOL    HW2 6642   4.311   3.953   0.445
 1915SOL     OW 6643   4.132   2.294   0.187
 1915SOL    HW1 6644   4.036   2.270   0.205
 1915SOL    HW2 6645   4.182   2.213   0.157
 1916SOL     OW 6646   3.491   1.524   2.704
 1916SOL    HW1 6647   3.438   1.489   2.627
 1916SOL    HW2 6648   3.520   1.618   2.685
 1917SOL     OW 6649   2.689   3.608   1.381
 1917SOL    HW1 6650   2.683   3.529   1.441
 1917SOL    HW2 6651   2.635   3.592   1.298
 1918SOL     OW 6652   5.283   2.773   4.423
 1918SOL    HW1 6653   5.251   2.685   4.390
 1918SOL    HW2 6654   5.219   2.845   4.396
 1919SOL     OW 6655   6.541   1.398   6.483
 1919SOL    HW1 6656   6.553   1.303   6.511
 1919SOL    HW2 6657   6.444   1.418   6.472
 1920SOL     OW 6658   4.712   3.670   0.665
 1920SOL    HW1 6659   4.723   3.769   0.657
 1920SOL    HW2 6660   4.665   3.648   0.751
 1921SOL     OW 6661   3.406   2.183   6.933
 1921SOL    HW1 6662   3.457   2.102   6.904
 1921SOL    HW2 6663   3.324   2.155   6.983
 1922SOL     OW 6664   3.772   3.598   4.836
 1922SOL    HW1 6665   3.721   3.524   4.881
 1922SOL    HW2 6666   3.812   3.565   4.751
 1923SOL     OW 6667   3.242   0.551   4.026
 1923SOL    HW1 6668   3.208   0.488   3.956
 1923SOL    HW2 6669   3.318   0.509   4.075
 1924SOL     OW 6670   5.495   0.972   1.244
 1924SOL    HW1 6671   5.413   0.989   1.299
 1924SOL    HW2 6672   5.471   0.978   1.147
 1925SOL     OW 6673   1.377   4.636   1.098
 1925SOL    HW1 6674   1.418   4.654   1.009
 1925SOL    HW2 6675   1.311   4.561   1.090
 1926SOL     OW 6676   3.002   6.550   1.834
 1926SOL    HW1 6677   2.939   6.543   1.912
 1926SOL    HW2 6678   2.954   6.590   1.756
 1927SOL     OW 6679   1.987   5.311   0.648
 1927SOL    HW1 6680   1.964   5.226   0.695
 1927SOL    HW2 6681   1.905   5.367   0.638
 1928SOL     OW 6682   0.680   4.206   2.691
 1928SOL    HW1 6683   0.725   4.294   2.676
 1928SOL    HW2 6684   0.678   4.187   2.789
 1929SOL     OW 6685   3.322   0.707   3.349
 1929SOL    HW1 6686   3.409   0.717   3.301
 1929SOL    HW2 6687   3.337   0.709   3.447
 1930SOL     OW 6688   3.700   3.440   0.110
 1930SOL    HW1 6689   3.665   3.417   0.201
 1930SOL    HW2 6690   3.623   3.451   0.047
 1931SOL     OW 6691   6.212   3.820   3.859
 1931SOL    HW1 6692   6.136   3.882   3.880
 1931SOL    HW2 6693   6.176   3.736   3.819
 1932SOL     OW 6694   4.703   1.066   1.786
 1932SOL    HW1 6695   4.699   1.130   1.862
 1932SOL    HW2 6696   4.784   1.084   1.730
 1933SOL     OW 6697   1.613   1.265   1.082
 1933SOL    HW1 6698   1.574   1.283   0.992
 1933SOL    HW2 6699   1.560   1.194   1.128
 1934SOL     OW 6700   6.481   0.755   6.883
 1934SOL    HW1 6701   6.403   0.807   6.917
 1934SOL    HW2 6702   6.484   0.760   6.783
 1935SOL     OW 6703   6.454   5.196   3.920
 1935SOL    HW1 6704   6.357   5.182   3.902
 1935SOL    HW2 6705   6.495   5.249   3.845
 1936SOL     OW 6706   5.562   3.536   6.619
 1936SOL    HW1 6707   5.540   3.632   6.633
 1936SOL    HW2 6708   5.619   3.526   6.537
 1937SOL     OW 6709   0.852   4.782   6.756
 1937SOL    HW1 6710   0.921   4.747   6.692
 1937SOL    HW2 6711   0.829   4.876   6.731
 1938SOL     OW 6712   6.644   1.630   6.457
 1938SOL    HW1 6713   6.591   1.546   6.471
 1938SOL    HW2 6714   6.658   1.645   6.359
 1939SOL     OW 6715   0.212   0.847   4.147
 1939SOL    HW1 6716   0.267   0.834   4.229
 1939SOL    HW2 6717   0.227   0.771   4.084
 1940SOL     OW 6718   1.038   5.517   1.630
 1940SOL    HW1 6719   1.053   5.608   1.593
 1940SOL    HW2 6720   1.079   5.511   1.721
 1941SOL     OW 6721   6.103   0.564   4.066
 1941SOL    HW1 6722   6.174   0.561   4.137
 1941SOL    HW2 6723   6.040   0.488   4.078
 1942SOL     OW 6724   0.541   6.139   1.735
 1942SOL    HW1 6725   0.532   6.136   1.635
 1942SOL    HW2 6726   0.457   6.177   1.775
 1943SOL     OW 6727   0.902   3.560   4.167
 1943SOL    HW1 6728   0.901   3.654   4.132
 1943SOL    HW2 6729   0.947   3.558   4.257
 1944SOL     OW 6730   0.035   3.650   3.822
 1944SOL    HW1 6731   0.003   3.714   3.753
 1944SOL    HW2 6732   0.126   3.678   3.853
 1945SOL     OW 6733   5.074   1.861   2.173
 1945SOL    HW1 6734   5.122   1.824   2.252
 1945SOL    HW2 6735   5.060   1.960   2.186
 1946SOL     OW 6736   5.845   5.048   6.894
 1946SOL    HW1 6737   5.801   5.034   6.806
 1946SOL    HW2 6738   5.943   5.026   6.886
 1947SOL     OW 6739   5.660   5.793   2.831
 1947SOL    HW1 6740   5.685   5.718   2.893
 1947SOL    HW2 6741   5.563   5.814   2.842
 1948SOL     OW 6742   5.226   3.351   3.266
 1948SOL    HW1 6743   5.129   3.348   3.244
 1948SOL    HW2 6744   5.239   3.322   3.361
 1949SOL     OW 6745   3.311   3.863   6.362
 1949SOL    HW1 6746   3.309   3.943   6.423
 1949SOL    HW2 6747   3.405   3.845   6.335
 1950SOL     OW 6748   3.486   3.844   3.726
 1950SOL    HW1 6749   3.539   3.858   3.642
 1950SOL    HW2 6750   3.440   3.930   3.751
 1951SOL     OW 6751   0.461   5.234   6.160
 1951SOL    HW1 6752   0.382   5.232   6.099
 1951SOL    HW2 6753   0.506   5.323   6.153
 1952SOL     OW 6754   5.445   4.072   0.284
 1952SOL    HW1 6755   5.491   4.158   0.259
 1952SOL    HW2 6756   5.477   3.999   0.225
 1953SOL     OW 6757   0.810   0.989   6.476
 1953SOL    HW1 6758   0.753   1.018   6.554
 1953SOL    HW2 6759   0.819   0.890   6.477
 1954SOL     OW 6760   3.799   6.553   2.923
 1954SOL    HW1 6761   3.730   6.590   2.985
 1954SOL    HW2 6762   3.762   6.547   2.830
 1955SOL     OW 6763   6.622   3.640   4.149
 1955SOL    HW1 6764   6.702   3.627   4.208
 1955SOL    HW2 6765   6.652   3.668   4.058
 1956SOL     OW 6766   4.576   1.530   1.704
 1956SOL    HW1 6767   4.646   1.543   1.634
 1956SOL    HW2 6768   4.522   1.615   1.713
 1957SOL     OW 6769   0.001   2.838   4.537
 1957SOL    HW1 6770   0.029   2.783   4.616
 1957SOL    HW2 6771   0.031   2.932   4.549
 1958SOL     OW 6772   5.150   2.269   0.372
 1958SOL    HW1 6773   5.222   2.242   0.435
 1958SOL    HW2 6774   5.061   2.257   0.416
 1959SOL     OW 6775   2.042   1.453   6.370
 1959SOL    HW1 6776   2.084   1.513   6.301
 1959SOL    HW2 6777   2.079   1.361   6.360
 1960SOL     OW 6778   4.856   4.748   1.998
 1960SOL    HW1 6779   4.763   4.778   1.975
 1960SOL    HW2 6780   4.852   4.660   2.045
 1961SOL     OW 6781   0.077   4.008   4.352
 1961SOL    HW1 6782   0.132   3.989   4.270
 1961SOL    HW2 6783   0.040   4.100   4.346
 1962SOL     OW 6784   0.431   6.886   2.698
 1962SOL    HW1 6785   0.444   6.975   2.655
 1962SOL    HW2 6786   0.430   6.815   2.629
 1963SOL     OW 6787   0.743   1.297   6.662
 1963SOL    HW1 6788   0.791   1.217   6.626
 1963SOL    HW2 6789   0.765   1.309   6.758
 1964SOL     OW 6790   5.525   3.467   0.515
 1964SOL    HW1 6791   5.433   3.426   0.516
 1964SOL    HW2 6792   5.551   3.494   0.607
 1965SOL     OW 6793   5.085   4.902   4.481
 1965SOL    HW1 6794   5.080   4.897   4.581
 1965SOL    HW2 6795   5.122   4.816   4.446
 1966SOL     OW 6796   1.574   5.219   6.462
 1966SOL    HW1 6797   1.609   5.198   6.371
 1966SOL    HW2 6798   1.489   5.169   6.478
 1967SOL     OW 6799   6.622   2.439   4.396
 1967SOL    HW1 6800   6.695   2.501   4.424
 1967SOL    HW2 6801   6.574   2.478   4.317
 1968SOL     OW 6802   2.834   1.265   6.137
 1968SOL    HW1 6803   2.746   1.284   6.182
 1968SOL    HW2 6804   2.818   1.221   6.049
 1969SOL     OW 6805   6.951   6.441   1.787
 1969SOL    HW1 6806   7.002   6.365   1.748
 1969SOL    HW2 6807   7.010   6.522   1.791
 1970SOL     OW 6808   5.021   4.009   2.800
 1970SOL    HW1 6809   4.957   3.932   2.800
 1970SOL    HW2 6810   5.109   3.979   2.836
 1971SOL     OW 6811   1.205   5.474   4.318
 1971SOL    HW1 6812   1.259   5.556   4.297
 1971SOL    HW2 6813   1.186   5.471   4.416
 1972SOL     OW 6814   5.300   2.107   3.141
 1972SOL    HW1 6815   5.284   2.023   3.192
 1972SOL    HW2 6816   5.355   2.088   3.060
 1973SOL     OW 6817   4.445   2.391   7.005
 1973SOL    HW1 6818   4.461   2.488   6.985
 1973SOL    HW2 6819   4.347   2.374   7.011
 1974SOL     OW 6820   2.118   6.159   4.621
 1974SOL    HW1 6821   2.049   6.087   4.627
 1974SOL    HW2 6822   2.127   6.188   4.525
 1975SOL     OW 6823   2.100   2.410   2.366
 1975SOL    HW1 6824   2.155   2.479   2.320
 1975SOL    HW2 6825   2.127   2.319   2.333
 1976SOL     OW 6826   2.489   0.598   4.615
 1976SOL    HW1 6827   2.389   0.594   4.621
 1976SOL    HW2 6828   2.516   0.684   4.573
 1977SOL     OW 6829   1.315   4.581   0.122
 1977SOL    HW1 6830   1.393   4.555   0.179
 1977SOL    HW2 6831   1.305   4.680   0.123
 1978SOL     OW 6832   2.482   0.592   2.456
 1978SOL    HW1 6833   2.497   0.597   2.357
 1978SOL    HW2 6834   2.435   0.674   2.487
 1979SOL     OW 6835   5.569   3.064   0.000
 1979SOL    HW1 6836   5.625   3.069   6.938
 1979SOL    HW2 6837   5.585   2.976   0.046
 1980SOL     OW 6838   4.088   0.198   1.773
 1980SOL    HW1 6839   4.026   0.120   1.768
 1980SOL    HW2 6840   4.182   0.166   1.776
 1981SOL     OW 6841   4.539   2.527   1.757
 1981SOL    HW1 6842   4.442   2.524   1.734
 1981SOL    HW2 6843   4.579   2.613   1.724
 1982SOL     OW 6844   2.216   2.125   6.587
 1982SOL    HW1 6845   2.230   2.027   6.603
 1982SOL    HW2 6846   2.263   2.152   6.503
 1983SOL     OW 6847   6.757   2.180   1.387
 1983SOL    HW1 6848   6.695   2.120   1.337
 1983SOL    HW2 6849   6.803   2.128   1.459
 1984SOL     OW 6850   4.741   3.329   6.037
 1984SOL    HW1 6851   4.669   3.263   6.058
 1984SOL    HW2 6852   4.776   3.312   5.945
 1985SOL     OW 6853   5.436   5.696   4.523
 1985SOL    HW1 6854   5.344   5.727   4.546
 1985SOL    HW2 6855   5.437   5.596   4.521
 1986SOL     OW 6856   3.143   3.025   3.198
 1986SOL    HW1 6857   3.151   3.014   3.099
 1986SOL    HW2 6858   3.153   2.936   3.242
 1987SOL     OW 6859   1.808   1.610   1.781
 1987SOL    HW1 6860   1.791   1.521   1.824
 1987SOL    HW2 6861   1.757   1.616   1.695
 1988SOL     OW 6862   1.145   1.997   2.743
 1988SOL    HW1 6863   1.087   1.978   2.664
 1988SOL    HW2 6864   1.090   1.997   2.826
 1989SOL     OW 6865   3.722   5.506   3.622
 1989SOL    HW1 6866   3.769   5.579   3.671
 1989SOL    HW2 6867   3.656   5.462   3.684
 1990SOL     OW 6868   4.052   6.345   0.827
 1990SOL    HW1 6869   4.075   6.249   0.848
 1990SOL    HW2 6870   4.117   6.405   0.873
 1991SOL     OW 6871   2.963   5.268   2.571
 1991SOL    HW1 6872   2.927   5.359   2.552
 1991SOL    HW2 6873   2.936   5.205   2.498
 1992SOL     OW 6874   0.938   6.925   3.407
 1992SOL    HW1 6875   1.015   6.975   3.447
 1992SOL    HW2 6876   0.935   6.833   3.447
 1993SOL     OW 6877   1.307   0.975   1.637
 1993SOL    HW1 6878   1.290   0.896   1.579
 1993SOL    HW2 6879   1.400   1.008   1.622
 1994SOL     OW 6880   2.945   3.090   1.834
 1994SOL    HW1 6881   2.956   3.080   1.933
 1994SOL    HW2 6882   2.881   3.021   1.801
 1995SOL     OW 6883   5.834   0.897   3.960
 1995SOL    HW1 6884   5.799   0.879   3.868
 1995SOL    HW2 6885   5.933   0.881   3.962
 1996SOL     OW 6886   5.037   0.236   1.318
 1996SOL    HW1 6887   5.017   0.333   1.327
 1996SOL    HW2 6888   4.989   0.185   1.390
 1997SOL     OW 6889   2.675   1.775   2.966
 1997SOL    HW1 6890   2.773   1.768   2.984
 1997SOL    HW2 6891   2.636   1.844   3.027
 1998SOL     OW 6892   2.246   3.508   1.309
 1998SOL    HW1 6893   2.247   3.604   1.336
 1998SOL    HW2 6894   2.289   3.453   1.380
 1999SOL     OW 6895   0.784   6.997   5.876
 1999SOL    HW1 6896   0.787   6.948   5.789
 1999SOL    HW2 6897   0.788   6.931   5.951
 2000SOL     OW 6898   4.740   3.824   6.575
 2000SOL    HW1 6899   4.795   3.799   6.495
 2000SOL    HW2 6900   4.801   3.856   6.648
 2001SOL     OW 6901   1.138   1.958   0.691
 2001SOL    HW1 6902   1.238   1.949   0.684
 2001SOL    HW2 6903   1.100   1.874   0.731
 2002SOL     OW 6904   6.141   4.680   6.373
 2002SOL    HW1 6905   6.214   4.631   6.326
 2002SOL    HW2 6906   6.078   4.614   6.415
 2003SOL     OW 6907   6.652   5.764   0.962
 2003SOL    HW1 6908   6.677   5.834   1.030
 2003SOL    HW2 6909   6.734   5.715   0.933
 2004SOL     OW 6910   3.372   0.637   2.614
 2004SOL    HW1 6911   3.418   0.565   2.562
 2004SOL    HW2 6912   3.439   0.685   2.670
 2005SOL     OW 6913   1.706   6.403   0.089
 2005SOL    HW1 6914   1.747   6.490   0.061
 2005SOL    HW2 6915   1.765   6.328   0.059
 2006SOL     OW 6916   5.973   0.151   1.981
 2006SOL    HW1 6917   5.956   0.130   2.077
 2006SOL    HW2 6918   5.885   0.156   1.932
 2007SOL     OW 6919   5.580   5.412   5.415
 2007SOL    HW1 6920   5.536   5.329   5.450
 2007SOL    HW2 6921   5.675   5.415   5.444
 2008SOL     OW 6922   2.224   3.088   2.657
 2008SOL    HW1 6923   2.203   3.094   2.560
 2008SOL    HW2 6924   2.253   2.995   2.679
 2009SOL     OW 6925   5.899   0.559   3.817
 2009SOL    HW1 6926   5.931   0.532   3.726
 2009SOL    HW2 6927   5.976   0.587   3.873
 2010SOL     OW 6928   6.914   1.412   1.564
 2010SOL    HW1 6929   6.881   1.503   1.589
 2010SOL    HW2 6930   6.999   1.392   1.613
 2011SOL     OW 6931   0.897   0.493   5.005
 2011SOL    HW1 6932   0.953   0.521   4.926
 2011SOL    HW2 6933   0.800   0.500   4.981
 2012SOL     OW 6934   6.932   2.144   0.380
 2012SOL    HW1 6935   6.992   2.077   0.335
 2012SOL    HW2 6936   6.893   2.204   0.311
 2013SOL     OW 6937   0.435   2.303   1.897
 2013SOL    HW1 6938   0.459   2.241   1.823
 2013SOL    HW2 6939   0.336   2.307   1.907
 2014SOL     OW 6940   4.021   1.962   3.732
 2014SOL    HW1 6941   4.101   1.903   3.720
 2014SOL    HW2 6942   3.956   1.946   3.658
 2015SOL     OW 6943   3.502   6.298   1.636
 2015SOL    HW1 6944   3.579   6.262   1.583
 2015SOL    HW2 6945   3.418   6.252   1.607
 2016SOL     OW 6946   2.122   0.710   4.806
 2016SOL    HW1 6947   2.138   0.640   4.876
 2016SOL    HW2 6948   2.055   0.776   4.840
 2017SOL     OW 6949   1.725   6.953   4.864
 2017SOL    HW1 6950   1.700   7.005   4.782
 2017SOL    HW2 6951   1.730   6.856   4.842
 2018SOL     OW 6952   0.311   1.148   4.675
 2018SOL    HW1 6953   0.282   1.054   4.657
 2018SOL    HW2 6954   0.246   1.192   4.738
 2019SOL     OW 6955   0.973   5.142   6.972
 2019SOL    HW1 6956   1.058   5.102   7.005
 2019SOL    HW2 6957   0.994   5.221   6.914
 2020SOL     OW 6958   1.893   6.907   1.594
 2020SOL    HW1 6959   1.837   6.935   1.516
 2020SOL    HW2 6960   1.940   6.986   1.632
 2021SOL     OW 6961   0.434   5.189   3.364
 2021SOL    HW1 6962   0.465   5.284   3.369
 2021SOL    HW2 6963   0.497   5.138   3.304
 2022SOL     OW 6964   2.166   2.867   3.988
 2022SOL    HW1 6965   2.088   2.807   4.005
 2022SOL    HW2 6966   2.228   2.863   4.067
 2023SOL     OW 6967   0.554   5.830   6.739
 2023SOL    HW1 6968   0.505   5.776   6.670
 2023SOL    HW2 6969   0.585   5.915   6.698
 2024SOL     OW 6970   6.414   6.269   3.553
 2024SOL    HW1 6971   6.481   6.326   3.601
 2024SOL    HW2 6972   6.458   6.185   3.522
 2025SOL     OW 6973   1.794   0.696   4.651
 2025SOL    HW1 6974   1.824   0.766   4.716
 2025SOL    HW2 6975   1.809   0.606   4.690
 2026SOL     OW 6976   1.503   6.729   5.562
 2026SOL    HW1 6977   1.452   6.814   5.556
 2026SOL    HW2 6978   1.599   6.749   5.582
 2027SOL     OW 6979   6.492   6.919   3.008
 2027SOL    HW1 6980   6.568   6.914   2.943
 2027SOL    HW2 6981   6.471   6.827   3.041
 2028SOL     OW 6982   1.892   5.952   4.931
 2028SOL    HW1 6983   1.811   5.945   4.990
 2028SOL    HW2 6984   1.863   5.954   4.836
 2029SOL     OW 6985   6.790   2.254   0.156
 2029SOL    HW1 6986   6.712   2.298   0.110
 2029SOL    HW2 6987   6.861   2.233   0.089
 2030SOL     OW 6988   1.639   6.060   2.789
 2030SOL    HW1 6989   1.707   6.052   2.862
 2030SOL    HW2 6990   1.617   6.157   2.775
 2031SOL     OW 6991   6.705   0.408   4.703
 2031SOL    HW1 6992   6.658   0.451   4.626
 2031SOL    HW2 6993   6.795   0.450   4.715
 2032SOL     OW 6994   2.873   2.796   6.506
 2032SOL    HW1 6995   2.777   2.817   6.524
 2032SOL    HW2 6996   2.899   2.832   6.417
 2033SOL     OW 6997   2.731   0.176   1.496
 2033SOL    HW1 6998   2.707   0.079   1.493
 2033SOL    HW2 6999   2.656   0.228   1.536
 2034SOL     OW 7000   0.775   3.748   4.723
 2034SOL    HW1 7001   0.774   3.820   4.792
 2034SOL    HW2 7002   0.793   3.660   4.767
 2035SOL     OW 7003   4.768   5.883   3.146
 2035SOL    HW1 7004   4.859   5.908   3.111
 2035SOL    HW2 7005   4.729   5.960   3.195
 2036SOL     OW 7006   0.063   3.215   5.828
 2036SOL    HW1 7007   0.090   3.119   5.834
 2036SOL    HW2 7008   6.985   3.223   5.843
 2037SOL     OW 7009   1.041   2.453   6.649
 2037SOL    HW1 7010   1.141   2.453   6.657
 2037SOL    HW2 7011   1.001   2.501   6.728
 2038SOL     OW 7012   1.856   0.668   6.066
 2038SOL    HW1 7013   1.807   0.749   6.034
 2038SOL    HW2 7014   1.835   0.652   6.162
 2039SOL     OW 7015   5.242   5.946   4.176
 2039SOL    HW1 7016   5.239   5.854   4.215
 2039SOL    HW2 7017   5.249   5.940   4.077
 2040SOL     OW 7018   2.697   1.486   0.752
 2040SOL    HW1 7019   2.618   1.538   0.785
 2040SOL    HW2 7020   2.744   1.444   0.829
 2041SOL     OW 7021   2.954   0.259   0.071
 2041SOL    HW1 7022   3.046   0.252   0.033
 2041SOL    HW2 7023   2.932   0.177   0.123
 2042SOL     OW 7024   6.855   0.148   4.746
 2042SOL    HW1 7025   6.765   0.190   4.754
 2042SOL    HW2 7026   6.923   0.219   4.728
 2043SOL     OW 7027   1.431   3.480   0.144
 2043SOL    HW1 7028   1.458   3.447   0.234
 2043SOL    HW2 7029   1.372   3.561   0.153
 2044SOL     OW 7030   3.538   0.982   2.697
 2044SOL    HW1 7031   3.530   0.993   2.598
 2044SOL    HW2 7032   3.607   1.046   2.731
 2045SOL     OW 7033   2.034   5.589   3.342
 2045SOL    HW1 7034   1.948   5.542   3.323
 2045SOL    HW2 7035   2.014   5.680   3.380
 2046SOL     OW 7036   0.613   2.493   5.767
 2046SOL    HW1 7037   0.630   2.553   5.845
 2046SOL    HW2 7038   0.630   2.398   5.794
 2047SOL     OW 7039   7.011   0.185   2.019
 2047SOL    HW1 7040   6.939   0.214   1.955
 2047SOL    HW2 7041   0.076   0.232   1.996
 2048SOL     OW 7042   2.082   1.278   3.824
 2048SOL    HW1 7043   2.025   1.251   3.902
 2048SOL    HW2 7044   2.026   1.280   3.741
 2049SOL     OW 7045   4.313   2.116   5.501
 2049SOL    HW1 7046   4.294   2.030   5.454
 2049SOL    HW2 7047   4.410   2.119   5.527
 2050SOL     OW 7048   0.131   1.190   2.416
 2050SOL    HW1 7049   0.160   1.095   2.411
 2050SOL    HW2 7050   0.080   1.213   2.333
 2051SOL     OW 7051   3.504   6.813   6.188
 2051SOL    HW1 7052   3.529   6.900   6.231
 2051SOL    HW2 7053   3.506   6.740   6.257
 2052SOL     OW 7054   0.603   4.466   0.520
 2052SOL    HW1 7055   0.512   4.489   0.555
 2052SOL    HW2 7056   0.606   4.368   0.498
 2053SOL     OW 7057   4.701   5.493   1.601
 2053SOL    HW1 7058   4.729   5.451   1.688
 2053SOL    HW2 7059   4.764   5.465   1.529
 2054SOL     OW 7060   3.053   3.789   3.570
 2054SOL    HW1 7061   2.996   3.713   3.601
 2054SOL    HW2 7062   3.090   3.838   3.650
 2055SOL     OW 7063   3.206   3.091   5.494
 2055SOL    HW1 7064   3.219   3.052   5.585
 2055SOL    HW2 7065   3.271   3.050   5.430
 2056SOL     OW 7066   2.424   5.505   2.281
 2056SOL    HW1 7067   2.435   5.423   2.337
 2056SOL    HW2 7068   2.478   5.580   2.321
 2057SOL     OW 7069   6.390   3.248   4.308
 2057SOL    HW1 7070   6.477   3.211   4.278
 2057SOL    HW2 7071   6.405   3.321   4.375
 2058SOL     OW 7072   5.759   0.743   3.443
 2058SOL    HW1 7073   5.756   0.644   3.460
 2058SOL    HW2 7074   5.672   0.773   3.405
 2059SOL     OW 7075   2.717   1.031   5.968
 2059SOL    HW1 7076   2.774   1.015   5.887
 2059SOL    HW2 7077   2.685   0.944   6.005
 2060SOL     OW 7078   1.455   2.161   6.291
 2060SOL    HW1 7079   1.452   2.065   6.319
 2060SOL    HW2 7080   1.521   2.171   6.216
 2061SOL     OW 7081   2.401   2.740   3.650
 2061SOL    HW1 7082   2.340   2.745   3.729
 2061SOL    HW2 7083   2.480   2.800   3.665
 2062SOL     OW 7084   5.140   5.123   3.693
 2062SOL    HW1 7085   5.107   5.039   3.734
 2062SOL    HW2 7086   5.158   5.191   3.764
 2063SOL     OW 7087   1.167   1.567   4.530
 2063SOL    HW1 7088   1.166   1.579   4.431
 2063SOL    HW2 7089   1.246   1.615   4.569
 2064SOL     OW 7090   0.521   3.794   4.644
 2064SOL    HW1 7091   0.490   3.744   4.564
 2064SOL    HW2 7092   0.613   3.762   4.669
 2065SOL     OW 7093   3.692   3.812   5.551
 2065SOL    HW1 7094   3.650   3.765   5.629
 2065SOL    HW2 7095   3.680   3.910   5.561
 2066SOL     OW 7096   2.262   2.180   4.513
 2066SOL    HW1 7097   2.250   2.266   4.563
 2066SOL    HW2 7098   2.191   2.115   4.542
 2067SOL     OW 7099   6.461   4.532   2.893
 2067SOL    HW1 7100   6.441   4.605   2.827
 2067SOL    HW2 7101   6.440   4.443   2.852
 2068SOL     OW 7102   3.015   6.883   4.407
 2068SOL    HW1 7103   3.085   6.953   4.413
 2068SOL    HW2 7104   2.927   6.926   4.384
 2069SOL     OW 7105   5.636   1.874   2.797
 2069SOL    HW1 7106   5.662   1.862   2.893
 2069SOL    HW2 7107   5.687   1.809   2.741
 2070SOL     OW 7108   0.203   5.501   1.494
 2070SOL    HW1 7109   0.298   5.530   1.479
 2070SOL    HW2 7110   0.203   5.413   1.542
 2071SOL     OW 7111   6.786   2.290   3.715
 2071SOL    HW1 7112   6.788   2.383   3.677
 2071SOL    HW2 7113   6.701   2.276   3.765
 2072SOL     OW 7114   5.153   3.186   6.068
 2072SOL    HW1 7115   5.188   3.268   6.024
 2072SOL    HW2 7116   5.148   3.112   6.000
 2073SOL     OW 7117   3.457   5.675   6.878
 2073SOL    HW1 7118   3.371   5.718   6.905
 2073SOL    HW2 7119   3.466   5.587   6.924
 2074SOL     OW 7120   3.457   4.505   5.274
 2074SOL    HW1 7121   3.494   4.517   5.366
 2074SOL    HW2 7122   3.429   4.594   5.237
 2075SOL     OW 7123   5.216   0.836   1.092
 2075SOL    HW1 7124   5.220   0.753   1.147
 2075SOL    HW2 7125   5.120   0.866   1.085
 2076SOL     OW 7126   6.805   0.217   3.905
 2076SOL    HW1 7127   6.758   0.175   3.827
 2076SOL    HW2 7128   6.854   0.299   3.874
 2077SOL     OW 7129   0.804   4.245   0.754
 2077SOL    HW1 7130   0.748   4.190   0.816
 2077SOL    HW2 7131   0.900   4.234   0.777
 2078SOL     OW 7132   0.849   2.536   0.256
 2078SOL    HW1 7133   0.825   2.577   0.168
 2078SOL    HW2 7134   0.794   2.454   0.271
 2079SOL     OW 7135   5.149   1.939   3.500
 2079SOL    HW1 7136   5.122   2.004   3.571
 2079SOL    HW2 7137   5.249   1.927   3.502
 2080SOL     OW 7138   2.154   3.026   5.102
 2080SOL    HW1 7139   2.175   3.117   5.136
 2080SOL    HW2 7140   2.237   2.971   5.100
 2081SOL     OW 7141   0.527   5.811   3.122
 2081SOL    HW1 7142   0.570   5.833   3.035
 2081SOL    HW2 7143   0.596   5.780   3.187
 2082SOL     OW 7144   6.652   6.149   3.781
 2082SOL    HW1 7145   6.718   6.078   3.754
 2082SOL    HW2 7146   6.560   6.108   3.787
 2083SOL     OW 7147   1.069   5.786   3.286
 2083SOL    HW1 7148   1.164   5.792   3.316
 2083SOL    HW2 7149   1.061   5.826   3.194
 2084SOL     OW 7150   5.653   2.560   1.635
 2084SOL    HW1 7151   5.556   2.537   1.642
 2084SOL    HW2 7152   5.677   2.577   1.540
 2085SOL     OW 7153   6.552   5.250   6.744
 2085SOL    HW1 7154   6.601   5.240   6.658
 2085SOL    HW2 7155   6.476   5.185   6.748
 2086SOL     OW 7156   5.140   1.035   5.472
 2086SOL    HW1 7157   5.072   0.966   5.446
 2086SOL    HW2 7158   5.232   0.997   5.464
 2087SOL     OW 7159   4.554   1.082   6.108
 2087SOL    HW1 7160   4.601   0.998   6.136
 2087SOL    HW2 7161   4.594   1.116   6.023
 2088SOL     OW 7162   0.251   3.572   5.403
 2088SOL    HW1 7163   0.232   3.555   5.306
 2088SOL    HW2 7164   0.200   3.506   5.458
 2089SOL     OW 7165   2.918   4.912   4.522
 2089SOL    HW1 7166   2.957   4.884   4.435
 2089SOL    HW2 7167   2.953   4.852   4.595
 2090SOL     OW 7168   5.088   2.413   6.231
 2090SOL    HW1 7169   5.170   2.417   6.288
 2090SOL    HW2 7170   5.007   2.422   6.289
 2091SOL     OW 7171   5.565   6.962   0.895
 2091SOL    HW1 7172   5.498   6.888   0.888
 2091SOL    HW2 7173   5.524   0.019   0.945
 2092SOL     OW 7174   3.917   3.075   2.537
 2092SOL    HW1 7175   3.848   3.138   2.501
 2092SOL    HW2 7176   3.891   3.045   2.628
 2093SOL     OW 7177   4.550   0.023   6.807
 2093SOL    HW1 7178   4.486   0.097   6.783
 2093SOL    HW2 7179   4.617   0.058   6.872
 2094SOL     OW 7180   4.434   2.881   1.473
 2094SOL    HW1 7181   4.338   2.866   1.495
 2094SOL    HW2 7182   4.462   2.821   1.399
 2095SOL     OW 7183   4.662   5.664   3.865
 2095SOL    HW1 7184   4.695   5.751   3.901
 2095SOL    HW2 7185   4.568   5.649   3.896
 2096SOL     OW 7186   4.259   0.282   2.706
 2096SOL    HW1 7187   4.331   0.349   2.686
 2096SOL    HW2 7188   4.272   0.247   2.799
 2097SOL     OW 7189   2.510   5.468   5.254
 2097SOL    HW1 7190   2.463   5.425   5.177
 2097SOL    HW2 7191   2.526   5.400   5.325
 2098SOL     OW 7192   1.866   0.080   4.206
 2098SOL    HW1 7193   1.896   7.008   4.231
 2098SOL    HW2 7194   1.806   0.075   4.126
 2099SOL     OW 7195   4.402   1.394   0.179
 2099SOL    HW1 7196   4.385   1.487   0.149
 2099SOL    HW2 7197   4.355   1.378   0.266
 2100SOL     OW 7198   4.597   0.282   0.758
 2100SOL    HW1 7199   4.629   0.188   0.765
 2100SOL    HW2 7200   4.500   0.282   0.732
 2101SOL     OW 7201   1.324   0.307   2.712
 2101SOL    HW1 7202   1.404   0.271   2.663
 2101SOL    HW2 7203   1.264   0.353   2.646
 2102SOL     OW 7204   4.101   3.219   2.373
 2102SOL    HW1 7205   4.083   3.129   2.411
 2102SOL    HW2 7206   4.107   3.213   2.273
 2103SOL     OW 7207   1.596   0.101   1.629
 2103SOL    HW1 7208   1.582   0.174   1.696
 2103SOL    HW2 7209   1.667   0.128   1.564
 2104SOL     OW 7210   0.882   4.242   2.204
 2104SOL    HW1 7211   0.889   4.196   2.115
 2104SOL    HW2 7212   0.972   4.244   2.247
 2105SOL     OW 7213   5.186   6.020   5.028
 2105SOL    HW1 7214   5.264   6.051   5.082
 2105SOL    HW2 7215   5.215   5.946   4.967
 2106SOL     OW 7216   3.454   3.258   0.901
 2106SOL    HW1 7217   3.461   3.343   0.952
 2106SOL    HW2 7218   3.365   3.251   0.857
 2107SOL     OW 7219   6.229   4.759   4.976
 2107SOL    HW1 7220   6.253   4.733   5.070
 2107SOL    HW2 7221   6.153   4.824   4.977
 2108SOL     OW 7222   4.277   6.242   5.623
 2108SOL    HW1 7223   4.254   6.316   5.686
 2108SOL    HW2 7224   4.376   6.230   5.621
 2109SOL     OW 7225   2.525   5.916   2.158
 2109SOL    HW1 7226   2.606   5.867   2.126
 2109SOL    HW2 7227   2.552   6.003   2.200
 2110SOL     OW 7228   3.916   5.626   0.273
 2110SOL    HW1 7229   3.995   5.650   0.216
 2110SOL    HW2 7230   3.898   5.700   0.337
 2111SOL     OW 7231   0.519   2.467   0.281
 2111SOL    HW1 7232   0.527   2.374   0.315
 2111SOL    HW2 7233   0.537   2.532   0.355
 2112SOL     OW 7234   0.699   0.607   6.367
 2112SOL    HW1 7235   0.615   0.654   6.392
 2112SOL    HW2 7236   0.681   0.545   6.291
 2113SOL     OW 7237   6.559   1.956   4.387
 2113SOL    HW1 7238   6.587   1.969   4.482
 2113SOL    HW2 7239   6.496   1.879   4.381
 2114SOL     OW 7240   3.220   0.614   5.819
 2114SOL    HW1 7241   3.190   0.518   5.817
 2114SOL    HW2 7242   3.187   0.657   5.903
 2115SOL     OW 7243   0.015   6.730   4.091
 2115SOL    HW1 7244   6.963   6.793   4.061
 2115SOL    HW2 7245   0.049   6.758   4.181
 2116SOL     OW 7246   2.109   6.821   6.267
 2116SOL    HW1 7247   2.163   6.791   6.346
 2116SOL    HW2 7248   2.065   6.742   6.224
 2117SOL     OW 7249   5.801   2.897   1.122
 2117SOL    HW1 7250   5.854   2.823   1.080
 2117SOL    HW2 7251   5.804   2.887   1.222
 2118SOL     OW 7252   0.073   3.035   2.124
 2118SOL    HW1 7253   0.087   2.966   2.194
 2118SOL    HW2 7254   0.111   3.123   2.155
 2119SOL     OW 7255   2.234   2.703   6.975
 2119SOL    HW1 7256   2.288   2.726   0.036
 2119SOL    HW2 7257   2.243   2.605   6.956
 2120SOL     OW 7258   6.163   1.561   0.742
 2120SOL    HW1 7259   6.115   1.648   0.750
 2120SOL    HW2 7260   6.117   1.492   0.798
 2121SOL     OW 7261   2.754   5.759   2.117
 2121SOL    HW1 7262   2.792   5.671   2.142
 2121SOL    HW2 7263   2.826   5.828   2.115
 2122SOL     OW 7264   0.686   1.196   5.196
 2122SOL    HW1 7265   0.612   1.260   5.214
 2122SOL    HW2 7266   0.731   1.173   5.282
 2123SOL     OW 7267   1.005   4.254   3.414
 2123SOL    HW1 7268   1.018   4.302   3.500
 2123SOL    HW2 7269   1.037   4.312   3.338
 2124SOL     OW 7270   5.477   3.497   6.309
 2124SOL    HW1 7271   5.436   3.568   6.252
 2124SOL    HW2 7272   5.577   3.504   6.304
 2125SOL     OW 7273   2.332   5.231   5.549
 2125SOL    HW1 7274   2.361   5.184   5.465
 2125SOL    HW2 7275   2.366   5.180   5.628
 2126SOL     OW 7276   2.893   5.486   2.159
 2126SOL    HW1 7277   2.812   5.432   2.183
 2126SOL    HW2 7278   2.959   5.482   2.234
 2127SOL     OW 7279   1.454   3.824   4.374
 2127SOL    HW1 7280   1.406   3.771   4.304
 2127SOL    HW2 7281   1.511   3.893   4.329
 2128SOL     OW 7282   5.492   3.087   0.466
 2128SOL    HW1 7283   5.498   3.086   0.366
 2128SOL    HW2 7284   5.404   3.126   0.494
 2129SOL     OW 7285   5.438   4.316   3.820
 2129SOL    HW1 7286   5.474   4.400   3.780
 2129SOL    HW2 7287   5.503   4.280   3.887
 2130SOL     OW 7288   2.124   6.973   2.957
 2130SOL    HW1 7289   2.101   6.886   2.912
 2130SOL    HW2 7290   2.210   7.008   2.920
 2131SOL     OW 7291   5.774   0.111   6.658
 2131SOL    HW1 7292   5.805   0.026   6.617
 2131SOL    HW2 7293   5.679   0.101   6.687
 2132SOL     OW 7294   3.030   1.491   0.472
 2132SOL    HW1 7295   2.978   1.406   0.476
 2132SOL    HW2 7296   3.101   1.490   0.542
 2133SOL     OW 7297   3.860   3.340   2.047
 2133SOL    HW1 7298   3.910   3.427   2.051
 2133SOL    HW2 7299   3.913   3.269   2.094
 2134SOL     OW 7300   2.395   0.285   5.025
 2134SOL    HW1 7301   2.436   0.195   5.008
 2134SOL    HW2 7302   2.347   0.316   4.943
 2135SOL     OW 7303   0.310   5.863   4.402
 2135SOL    HW1 7304   0.380   5.817   4.347
 2135SOL    HW2 7305   0.354   5.928   4.464
 2136SOL     OW 7306   0.489   4.546   3.713
 2136SOL    HW1 7307   0.449   4.627   3.669
 2136SOL    HW2 7308   0.562   4.575   3.774
 2137SOL     OW 7309   0.027   0.341   4.647
 2137SOL    HW1 7310   6.991   0.414   4.686
 2137SOL    HW2 7311   0.123   0.370   4.647
 2138SOL     OW 7312   1.190   2.291   0.042
 2138SOL    HW1 7313   1.287   2.315   0.041
 2138SOL    HW2 7314   1.152   2.314   0.132
 2139SOL     OW 7315   3.736   6.061   4.414
 2139SOL    HW1 7316   3.785   6.148   4.406
 2139SOL    HW2 7317   3.702   6.033   4.324
 2140SOL     OW 7318   1.504   5.373   3.711
 2140SOL    HW1 7319   1.578   5.400   3.649
 2140SOL    HW2 7320   1.536   5.300   3.771
 2141SOL     OW 7321   6.591   0.526   7.007
 2141SOL    HW1 7322   6.691   0.538   7.003
 2141SOL    HW2 7323   6.547   0.606   6.967
 2142SOL     OW 7324   3.740   0.888   3.622
 2142SOL    HW1 7325   3.739   0.942   3.706
 2142SOL    HW2 7326   3.784   0.939   3.549
 2143SOL     OW 7327   3.553   5.681   0.754
 2143SOL    HW1 7328   3.483   5.619   0.718
 2143SOL    HW2 7329   3.623   5.629   0.803
 2144SOL     OW 7330   0.953   1.162   1.879
 2144SOL    HW1 7331   0.980   1.080   1.829
 2144SOL    HW2 7332   1.034   1.220   1.893
 2145SOL     OW 7333   2.626   5.903   3.777
 2145SOL    HW1 7334   2.606   5.875   3.683
 2145SOL    HW2 7335   2.683   5.833   3.820
 2146SOL     OW 7336   3.384   2.132   1.260
 2146SOL    HW1 7337   3.446   2.203   1.227
 2146SOL    HW2 7338   3.359   2.150   1.355
 2147SOL     OW 7339   6.948   0.453   3.806
 2147SOL    HW1 7340   6.967   0.513   3.883
 2147SOL    HW2 7341   0.007   0.452   3.744
 2148SOL     OW 7342   6.498   4.173   3.250
 2148SOL    HW1 7343   6.440   4.242   3.293
 2148SOL    HW2 7344   6.593   4.190   3.276
 2149SOL     OW 7345   2.428   1.107   2.483
 2149SOL    HW1 7346   2.375   1.167   2.542
 2149SOL    HW2 7347   2.419   1.136   2.388
 2150SOL     OW 7348   5.383   0.836   3.022
 2150SOL    HW1 7349   5.285   0.857   3.016
 2150SOL    HW2 7350   5.436   0.920   3.011
 2151SOL     OW 7351   4.558   4.563   5.541
 2151SOL    HW1 7352   4.656   4.584   5.549
 2151SOL    HW2 7353   4.538   4.532   5.448
 2152SOL     OW 7354   7.007   6.299   3.076
 2152SOL    HW1 7355   6.983   6.214   3.122
 2152SOL    HW2 7356   6.970   6.299   2.983
 2153SOL     OW 7357   4.310   1.808   3.727
 2153SOL    HW1 7358   4.370   1.794   3.648
 2153SOL    HW2 7359   4.316   1.903   3.757
 2154SOL     OW 7360   4.826   0.138   4.083
 2154SOL    HW1 7361   4.757   0.080   4.039
 2154SOL    HW2 7362   4.814   0.233   4.053
 2155SOL     OW 7363   5.656   4.210   1.002
 2155SOL    HW1 7364   5.650   4.150   1.082
 2155SOL    HW2 7365   5.684   4.157   0.922
 2156SOL     OW 7366   5.823   6.105   2.284
 2156SOL    HW1 7367   5.910   6.106   2.333
 2156SOL    HW2 7368   5.782   6.196   2.287
 2157SOL     OW 7369   4.958   1.512   3.673
 2157SOL    HW1 7370   5.056   1.492   3.673
 2157SOL    HW2 7371   4.933   1.555   3.760
 2158SOL     OW 7372   4.022   0.861   3.849
 2158SOL    HW1 7373   3.967   0.782   3.825
 2158SOL    HW2 7374   4.012   0.881   3.947
 2159SOL     OW 7375   2.305   1.629   4.880
 2159SOL    HW1 7376   2.367   1.661   4.952
 2159SOL    HW2 7377   2.315   1.530   4.868
 2160SOL     OW 7378   2.408   3.910   0.646
 2160SOL    HW1 7379   2.473   3.858   0.702
 2160SOL    HW2 7380   2.336   3.848   0.614
 2161SOL     OW 7381   4.495   2.427   2.499
 2161SOL    HW1 7382   4.471   2.335   2.529
 2161SOL    HW2 7383   4.461   2.442   2.407
 2162SOL     OW 7384   2.462   1.998   2.152
 2162SOL    HW1 7385   2.478   2.096   2.158
 2162SOL    HW2 7386   2.405   1.977   2.072
 2163SOL     OW 7387   4.392   1.390   1.061
 2163SOL    HW1 7388   4.328   1.329   1.016
 2163SOL    HW2 7389   4.386   1.379   1.160
 2164SOL     OW 7390   6.561   0.535   1.592
 2164SOL    HW1 7391   6.522   0.559   1.680
 2164SOL    HW2 7392   6.513   0.585   1.519
 2165SOL     OW 7393   1.994   0.518   2.168
 2165SOL    HW1 7394   2.068   0.486   2.108
 2165SOL    HW2 7395   1.961   0.442   2.223
 2166SOL     OW 7396   5.428   2.595   4.779
 2166SOL    HW1 7397   5.475   2.513   4.810
 2166SOL    HW2 7398   5.331   2.576   4.767
 2167SOL     OW 7399   3.392   1.636   1.259
 2167SOL    HW1 7400   3.326   1.615   1.332
 2167SOL    HW2 7401   3.398   1.559   1.197
 2168SOL     OW 7402   5.596   6.834   4.701
 2168SOL    HW1 7403   5.524   6.877   4.646
 2168SOL    HW2 7404   5.628   6.898   4.770
 2169SOL     OW 7405   5.089   1.835   5.730
 2169SOL    HW1 7406   5.076   1.811   5.633
 2169SOL    HW2 7407   5.013   1.796   5.783
 2170SOL     OW 7408   4.933   5.764   4.540
 2170SOL    HW1 7409   4.916   5.700   4.614
 2170SOL    HW2 7410   4.922   5.718   4.452
 2171SOL     OW 7411   0.296   2.922   0.282
 2171SOL    HW1 7412   0.349   2.906   0.199
 2171SOL    HW2 7413   0.246   2.840   0.307
 2172SOL     OW 7414   2.586   0.403   2.799
 2172SOL    HW1 7415   2.654   0.474   2.777
 2172SOL    HW2 7416   2.633   0.319   2.827
 2173SOL     OW 7417   4.314   1.708   4.514
 2173SOL    HW1 7418   4.260   1.685   4.433
 2173SOL    HW2 7419   4.350   1.801   4.504
 2174SOL     OW 7420   0.873   6.135   5.459
 2174SOL    HW1 7421   0.825   6.152   5.373
 2174SOL    HW2 7422   0.883   6.036   5.472
 2175SOL     OW 7423   0.956   0.210   6.733
 2175SOL    HW1 7424   1.038   0.255   6.767
 2175SOL    HW2 7425   0.897   0.186   6.810
 2176SOL     OW 7426   2.361   2.723   1.916
 2176SOL    HW1 7427   2.280   2.751   1.865
 2176SOL    HW2 7428   2.360   2.765   2.007
 2177SOL     OW 7429   0.910   1.538   2.229
 2177SOL    HW1 7430   0.936   1.634   2.234
 2177SOL    HW2 7431   0.905   1.500   2.321
 2178SOL     OW 7432   6.692   6.174   0.293
 2178SOL    HW1 7433   6.711   6.239   0.367
 2178SOL    HW2 7434   6.778   6.134   0.260
 2179SOL     OW 7435   2.317   4.153   4.040
 2179SOL    HW1 7436   2.368   4.219   3.984
 2179SOL    HW2 7437   2.250   4.106   3.983
 2180SOL     OW 7438   3.423   3.039   3.287
 2180SOL    HW1 7439   3.356   3.024   3.215
 2180SOL    HW2 7440   3.498   3.095   3.252
 2181SOL     OW 7441   3.704   0.034   0.765
 2181SOL    HW1 7442   3.674   6.993   0.691
 2181SOL    HW2 7443   3.788   7.018   0.806
 2182SOL     OW 7444   4.307   3.608   0.329
 2182SOL    HW1 7445   4.322   3.684   0.392
 2182SOL    HW2 7446   4.394   3.569   0.303
 2183SOL     OW 7447   4.871   2.810   1.867
 2183SOL    HW1 7448   4.825   2.891   1.902
 2183SOL    HW2 7449   4.810   2.759   1.807
 2184SOL     OW 7450   4.510   2.628   6.402
 2184SOL    HW1 7451   4.532   2.607   6.307
 2184SOL    HW2 7452   4.589   2.669   6.447
 2185SOL     OW 7453   7.012   6.735   2.211
 2185SOL    HW1 7454   6.966   6.751   2.299
 2185SOL    HW2 7455   6.990   6.808   2.147
 2186SOL     OW 7456   0.297   4.288   3.010
 2186SOL    HW1 7457   0.267   4.381   3.031
 2186SOL    HW2 7458   0.392   4.276   3.039
 2187SOL     OW 7459   6.598   0.394   6.762
 2187SOL    HW1 7460   6.508   0.377   6.721
 2187SOL    HW2 7461   6.589   0.397   6.862
 2188SOL     OW 7462   4.630   2.648   3.672
 2188SOL    HW1 7463   4.572   2.585   3.619
 2188SOL    HW2 7464   4.679   2.708   3.609
 2189SOL     OW 7465   3.866   6.455   6.813
 2189SOL    HW1 7466   3.857   6.554   6.811
 2189SOL    HW2 7467   3.867   6.423   6.908
 2190SOL     OW 7468   5.966   3.559   1.190
 2190SOL    HW1 7469   5.940   3.625   1.261
 2190SOL    HW2 7470   5.950   3.600   1.100
 2191SOL     OW 7471   3.369   0.599   0.538
 2191SOL    HW1 7472   3.338   0.676   0.482
 2191SOL    HW2 7473   3.315   0.518   0.518
 2192SOL     OW 7474   4.067   6.602   1.553
 2192SOL    HW1 7475   4.077   6.538   1.629
 2192SOL    HW2 7476   4.131   6.578   1.480
 2193SOL     OW 7477   0.403   6.087   4.582
 2193SOL    HW1 7478   0.451   6.156   4.636
 2193SOL    HW2 7479   0.403   6.114   4.486
 2194SOL     OW 7480   2.528   6.754   2.984
 2194SOL    HW1 7481   2.490   6.704   2.907
 2194SOL    HW2 7482   2.456   6.773   3.050
 2195SOL     OW 7483   0.462   4.880   2.696
 2195SOL    HW1 7484   0.450   4.781   2.705
 2195SOL    HW2 7485   0.417   4.912   2.613
 2196SOL     OW 7486   4.472   3.945   0.126
 2196SOL    HW1 7487   4.377   3.960   0.155
 2196SOL    HW2 7488   4.524   4.030   0.137
 2197SOL     OW 7489   4.649   3.730   0.073
 2197SOL    HW1 7490   4.742   3.761   0.091
 2197SOL    HW2 7491   4.584   3.802   0.101
 2198SOL     OW 7492   0.754   4.688   6.477
 2198SOL    HW1 7493   0.734   4.762   6.540
 2198SOL    HW2 7494   0.853   4.672   6.474
 2199SOL     OW 7495   3.896   1.799   3.197
 2199SOL    HW1 7496   3.895   1.891   3.156
 2199SOL    HW2 7497   3.835   1.740   3.146
 2200SOL     OW 7498   4.339   0.226   3.876
 2200SOL    HW1 7499   4.383   0.136   3.874
 2200SOL    HW2 7500   4.240   0.214   3.884
 2201SOL     OW 7501   4.984   4.654   4.276
 2201SOL    HW1 7502   4.899   4.702   4.299
 2201SOL    HW2 7503   5.060   4.695   4.325
 2202SOL     OW 7504   4.870   5.963   4.227
 2202SOL    HW1 7505   4.779   5.970   4.186
 2202SOL    HW2 7506   4.861   5.942   4.325
 2203SOL     OW 7507   2.141   1.465   2.710
 2203SOL    HW1 7508   2.050   1.426   2.722
 2203SOL    HW2 7509   2.133   1.559   2.678
 2204SOL     OW 7510   3.533   2.296   1.109
 2204SOL    HW1 7511   3.633   2.298   1.107
 2204SOL    HW2 7512   3.497   2.355   1.037
 2205SOL     OW 7513   3.116   0.529   1.977
 2205SOL    HW1 7514   3.039   0.561   2.033
 2205SOL    HW2 7515   3.114   0.429   1.972
 2206SOL     OW 7516   1.695   4.482   0.198
 2206SOL    HW1 7517   1.763   4.424   0.243
 2206SOL    HW2 7518   1.696   4.463   0.100
 2207SOL     OW 7519   6.442   4.551   5.200
 2207SOL    HW1 7520   6.408   4.483   5.266
 2207SOL    HW2 7521   6.402   4.640   5.220
 2208SOL     OW 7522   6.532   5.059   2.257
 2208SOL    HW1 7523   6.537   4.966   2.221
 2208SOL    HW2 7524   6.450   5.068   2.314
 2209SOL     OW 7525   6.719   0.036   1.762
 2209SOL    HW1 7526   6.805   7.016   1.730
 2209SOL    HW2 7527   6.643   7.016   1.711
 2210SOL     OW 7528   2.389   4.455   3.600
 2210SOL    HW1 7529   2.334   4.533   3.632
 2210SOL    HW2 7530   2.466   4.489   3.546
 2211SOL     OW 7531   5.447   0.413   6.141
 2211SOL    HW1 7532   5.526   0.470   6.120
 2211SOL    HW2 7533   5.453   0.327   6.090
 2212SOL     OW 7534   2.178   6.287   6.079
 2212SOL    HW1 7535   2.261   6.255   6.033
 2212SOL    HW2 7536   2.194   6.293   6.177
 2213SOL     OW 7537   4.641   1.036   3.345
 2213SOL    HW1 7538   4.607   1.091   3.268
 2213SOL    HW2 7539   4.569   1.027   3.413
 2214SOL     OW 7540   4.339   6.885   4.308
 2214SOL    HW1 7541   4.423   6.878   4.362
 2214SOL    HW2 7542   4.357   6.857   4.214
 2215SOL     OW 7543   5.755   2.199   6.314
 2215SOL    HW1 7544   5.828   2.168   6.375
 2215SOL    HW2 7545   5.670   2.205   6.367
 2216SOL     OW 7546   3.379   1.419   2.472
 2216SOL    HW1 7547   3.436   1.433   2.391
 2216SOL    HW2 7548   3.284   1.405   2.444
 2217SOL     OW 7549   2.619   0.163   0.956
 2217SOL    HW1 7550   2.715   0.148   0.980
 2217SOL    HW2 7551   2.567   0.185   1.038
 2218SOL     OW 7552   6.507   0.967   2.118
 2218SOL    HW1 7553   6.538   0.887   2.067
 2218SOL    HW2 7554   6.498   1.045   2.057
 2219SOL     OW 7555   2.166   2.100   3.003
 2219SOL    HW1 7556   2.262   2.110   2.977
 2219SOL    HW2 7557   2.150   2.007   3.037
 2220SOL     OW 7558   2.058   6.222   2.956
 2220SOL    HW1 7559   1.971   6.270   2.959
 2220SOL    HW2 7560   2.042   6.124   2.946
 2221SOL     OW 7561   0.016   6.741   4.940
 2221SOL    HW1 7562   6.996   6.818   4.891
 2221SOL    HW2 7563   0.007   6.756   5.039
 2222SOL     OW 7564   5.949   5.822   3.753
 2222SOL    HW1 7565   5.866   5.813   3.698
 2222SOL    HW2 7566   6.028   5.834   3.693
 2223SOL     OW 7567   6.570   6.738   2.540
 2223SOL    HW1 7568   6.600   6.691   2.457
 2223SOL    HW2 7569   6.650   6.770   2.591
 2224SOL     OW 7570   1.061   5.780   1.543
 2224SOL    HW1 7571   1.120   5.791   1.623
 2224SOL    HW2 7572   0.993   5.854   1.541
 2225SOL     OW 7573   0.315   4.541   0.233
 2225SOL    HW1 7574   0.276   4.577   0.149
 2225SOL    HW2 7575   0.312   4.441   0.233
 2226SOL     OW 7576   3.901   3.916   3.061
 2226SOL    HW1 7577   3.930   3.822   3.042
 2226SOL    HW2 7578   3.969   3.961   3.119
 2227SOL     OW 7579   2.076   2.164   5.031
 2227SOL    HW1 7580   2.133   2.137   4.953
 2227SOL    HW2 7581   2.033   2.083   5.070
 2228SOL     OW 7582   1.577   4.446   4.270
 2228SOL    HW1 7583   1.514   4.369   4.268
 2228SOL    HW2 7584   1.529   4.530   4.246
 2229SOL     OW 7585   5.669   5.357   2.639
 2229SOL    HW1 7586   5.621   5.444   2.636
 2229SOL    HW2 7587   5.604   5.283   2.621
 2230SOL     OW 7588   1.577   5.449   2.843
 2230SOL    HW1 7589   1.564   5.543   2.810
 2230SOL    HW2 7590   1.583   5.449   2.942
 2231SOL     OW 7591   2.131   5.671   0.571
 2231SOL    HW1 7592   2.183   5.613   0.632
 2231SOL    HW2 7593   2.131   5.632   0.479
 2232SOL     OW 7594   5.951   2.457   3.781
 2232SOL    HW1 7595   6.009   2.532   3.813
 2232SOL    HW2 7596   5.857   2.489   3.772
 2233SOL     OW 7597   3.197   1.517   0.672
 2233SOL    HW1 7598   3.176   1.498   0.768
 2233SOL    HW2 7599   3.228   1.612   0.663
 2234SOL     OW 7600   4.533   2.324   1.417
 2234SOL    HW1 7601   4.578   2.337   1.505
 2234SOL    HW2 7602   4.561   2.236   1.378
 2235SOL     OW 7603   1.966   2.839   2.026
 2235SOL    HW1 7604   1.878   2.853   1.981
 2235SOL    HW2 7605   1.952   2.788   2.111
 2236SOL     OW 7606   1.195   3.921   5.308
 2236SOL    HW1 7607   1.225   3.873   5.390
 2236SOL    HW2 7608   1.194   4.019   5.324
 2237SOL     OW 7609   5.921   2.801   3.111
 2237SOL    HW1 7610   5.942   2.742   3.188
 2237SOL    HW2 7611   5.993   2.870   3.101
 2238SOL     OW 7612   5.189   6.608   0.223
 2238SOL    HW1 7613   5.143   6.693   0.251
 2238SOL    HW2 7614   5.148   6.531   0.271
 2239SOL     OW 7615   0.058   6.022   1.489
 2239SOL    HW1 7616   6.994   6.048   1.441
 2239SOL    HW2 7617   0.107   5.954   1.436
 2240SOL     OW 7618   0.080   3.688   1.357
 2240SOL    HW1 7619   0.176   3.666   1.338
 2240SOL    HW2 7620   0.056   3.774   1.312
 2241SOL     OW 7621   1.206   6.895   3.956
 2241SOL    HW1 7622   1.111   6.915   3.933
 2241SOL    HW2 7623   1.217   6.798   3.974
 2242SOL     OW 7624   1.995   1.740   3.364
 2242SOL    HW1 7625   2.074   1.694   3.324
 2242SOL    HW2 7626   1.995   1.836   3.336
 2243SOL     OW 7627   1.418   0.529   4.512
 2243SOL    HW1 7628   1.428   0.472   4.594
 2243SOL    HW2 7629   1.339   0.589   4.522
 2244SOL     OW 7630   3.267   0.229   4.545
 2244SOL    HW1 7631   3.313   0.226   4.634
 2244SOL    HW2 7632   3.245   0.135   4.516
 2245SOL     OW 7633   0.703   2.562   1.655
 2245SOL    HW1 7634   0.703   2.466   1.627
 2245SOL    HW2 7635   0.663   2.570   1.746
 2246SOL     OW 7636   0.854   4.048   4.769
 2246SOL    HW1 7637   0.787   4.090   4.708
 2246SOL    HW2 7638   0.849   4.090   4.859
 2247SOL     OW 7639   2.157   2.423   4.043
 2247SOL    HW1 7640   2.125   2.338   4.084
 2247SOL    HW2 7641   2.138   2.499   4.106
 2248SOL     OW 7642   5.579   3.894   5.679
 2248SOL    HW1 7643   5.598   3.889   5.777
 2248SOL    HW2 7644   5.555   3.988   5.655
 2249SOL     OW 7645   5.803   5.943   4.720
 2249SOL    HW1 7646   5.800   5.991   4.808
 2249SOL    HW2 7647   5.777   6.006   4.647
 2250SOL     OW 7648   4.382   4.641   1.906
 2250SOL    HW1 7649   4.394   4.547   1.937
 2250SOL    HW2 7650   4.304   4.646   1.843
 2251SOL     OW 7651   0.733   1.214   5.480
 2251SOL    HW1 7652   0.808   1.154   5.451
 2251SOL    HW2 7653   0.712   1.196   5.576
 2252SOL     OW 7654   3.484   1.325   6.763
 2252SOL    HW1 7655   3.470   1.412   6.716
 2252SOL    HW2 7656   3.464   1.337   6.860
 2253SOL     OW 7657   0.851   3.923   1.070
 2253SOL    HW1 7658   0.803   4.006   1.040
 2253SOL    HW2 7659   0.948   3.944   1.081
 2254SOL     OW 7660   1.638   5.105   5.971
 2254SOL    HW1 7661   1.713   5.159   5.932
 2254SOL    HW2 7662   1.585   5.162   6.034
 2255SOL     OW 7663   6.822   3.890   6.398
 2255SOL    HW1 7664   6.727   3.860   6.410
 2255SOL    HW2 7665   6.870   3.825   6.340
 2256SOL     OW 7666   3.235   5.734   2.160
 2256SOL    HW1 7667   3.287   5.766   2.240
 2256SOL    HW2 7668   3.227   5.808   2.094
 2257SOL     OW 7669   0.861   4.683   5.973
 2257SOL    HW1 7670   0.916   4.606   5.939
 2257SOL    HW2 7671   0.830   4.662   6.066
 2258SOL     OW 7672   2.290   6.638   5.981
 2258SOL    HW1 7673   2.363   6.622   5.914
 2258SOL    HW2 7674   2.260   6.733   5.976
 2259SOL     OW 7675   6.226   1.685   6.350
 2259SOL    HW1 7676   6.160   1.747   6.308
 2259SOL    HW2 7677   6.196   1.661   6.443
 2260SOL     OW 7678   4.717   3.436   1.073
 2260SOL    HW1 7679   4.786   3.367   1.093
 2260SOL    HW2 7680   4.756   3.506   1.013
 2261SOL     OW 7681   2.207   0.277   5.267
 2261SOL    HW1 7682   2.245   0.294   5.175
 2261SOL    HW2 7683   2.156   0.358   5.297
 2262SOL     OW 7684   2.510   1.655   4.159
 2262SOL    HW1 7685   2.457   1.709   4.225
 2262SOL    HW2 7686   2.454   1.639   4.077
 2263SOL     OW 7687   0.336   4.573   5.675
 2263SOL    HW1 7688   0.384   4.627   5.744
 2263SOL    HW2 7689   0.370   4.479   5.677
 2264SOL     OW 7690   3.604   3.280   4.189
 2264SOL    HW1 7691   3.637   3.208   4.127
 2264SOL    HW2 7692   3.562   3.237   4.269
 2265SOL     OW 7693   0.784   5.730   4.134
 2265SOL    HW1 7694   0.727   5.774   4.065
 2265SOL    HW2 7695   0.877   5.765   4.129
 2266SOL     OW 7696   6.934   0.924   5.425
 2266SOL    HW1 7697   6.858   0.976   5.463
 2266SOL    HW2 7698   6.968   0.860   5.494
 2267SOL     OW 7699   5.998   1.749   5.382
 2267SOL    HW1 7700   6.040   1.670   5.426
 2267SOL    HW2 7701   5.941   1.719   5.306
 2268SOL     OW 7702   0.411   6.912   0.295
 2268SOL    HW1 7703   0.454   6.972   0.363
 2268SOL    HW2 7704   0.350   6.848   0.341
 2269SOL     OW 7705   6.843   6.268   2.840
 2269SOL    HW1 7706   6.882   6.252   2.750
 2269SOL    HW2 7707   6.775   6.341   2.835
 2270SOL     OW 7708   3.620   3.109   3.931
 2270SOL    HW1 7709   3.551   3.121   3.860
 2270SOL    HW2 7710   3.619   3.014   3.962
 2271SOL     OW 7711   1.615   3.744   2.591
 2271SOL    HW1 7712   1.516   3.756   2.583
 2271SOL    HW2 7713   1.638   3.647   2.577
 2272SOL     OW 7714   4.924   0.589   5.818
 2272SOL    HW1 7715   4.874   0.521   5.764
 2272SOL    HW2 7716   4.921   0.564   5.915
 2273SOL     OW 7717   0.134   0.754   1.950
 2273SOL    HW1 7718   0.041   0.788   1.965
 2273SOL    HW2 7719   0.184   0.756   2.037
 2274SOL     OW 7720   6.865   4.951   2.865
 2274SOL    HW1 7721   6.882   5.049   2.859
 2274SOL    HW2 7722   6.787   4.935   2.927
 2275SOL     OW 7723   4.526   6.026   3.636
 2275SOL    HW1 7724   4.506   5.961   3.709
 2275SOL    HW2 7725   4.450   6.028   3.571
 2276SOL     OW 7726   3.515   6.247   3.090
 2276SOL    HW1 7727   3.461   6.164   3.077
 2276SOL    HW2 7728   3.484   6.316   3.024
 2277SOL     OW 7729   3.729   3.010   2.764
 2277SOL    HW1 7730   3.705   3.107   2.770
 2277SOL    HW2 7731   3.649   2.958   2.735
 2278SOL     OW 7732   4.017   4.694   1.242
 2278SOL    HW1 7733   4.097   4.635   1.247
 2278SOL    HW2 7734   3.934   4.639   1.256
 2279SOL     OW 7735   5.409   4.183   5.330
 2279SOL    HW1 7736   5.335   4.225   5.278
 2279SOL    HW2 7737   5.484   4.159   5.269
 2280SOL     OW 7738   5.741   0.949   6.120
 2280SOL    HW1 7739   5.661   1.003   6.093
 2280SOL    HW2 7740   5.712   0.860   6.153
 2281SOL     OW 7741   2.187   0.343   0.458
 2281SOL    HW1 7742   2.285   0.352   0.478
 2281SOL    HW2 7743   2.134   0.374   0.537
 2282SOL     OW 7744   3.684   0.169   2.670
 2282SOL    HW1 7745   3.699   0.268   2.667
 2282SOL    HW2 7746   3.587   0.151   2.686
 2283SOL     OW 7747   0.868   3.256   1.108
 2283SOL    HW1 7748   0.853   3.293   1.017
 2283SOL    HW2 7749   0.967   3.251   1.126
 2284SOL     OW 7750   1.929   2.918   0.621
 2284SOL    HW1 7751   1.928   2.963   0.711
 2284SOL    HW2 7752   1.965   2.825   0.631
 2285SOL     OW 7753   2.474   2.958   0.501
 2285SOL    HW1 7754   2.397   2.985   0.443
 2285SOL    HW2 7755   2.464   2.863   0.528
 2286SOL     OW 7756   6.602   5.794   3.928
 2286SOL    HW1 7757   6.646   5.798   3.839
 2286SOL    HW2 7758   6.563   5.883   3.950
 2287SOL     OW 7759   2.504   1.670   0.832
 2287SOL    HW1 7760   2.429   1.649   0.894
 2287SOL    HW2 7761   2.555   1.749   0.867
 2288SOL     OW 7762   2.877   6.058   4.242
 2288SOL    HW1 7763   2.893   6.090   4.335
 2288SOL    HW2 7764   2.928   6.115   4.178
 2289SOL     OW 7765   4.158   7.017   6.293
 2289SOL    HW1 7766   4.161   0.097   6.288
 2289SOL    HW2 7767   4.079   6.984   6.242
 2290SOL     OW 7768   2.015   3.383   5.934
 2290SOL    HW1 7769   2.092   3.333   5.895
 2290SOL    HW2 7770   1.931   3.361   5.884
 2291SOL     OW 7771   3.233   2.386   0.377
 2291SOL    HW1 7772   3.207   2.329   0.300
 2291SOL    HW2 7773   3.329   2.413   0.368
 2292SOL     OW 7774   5.032   2.109   2.973
 2292SOL    HW1 7775   5.009   2.014   2.993
 2292SOL    HW2 7776   5.114   2.135   3.024
 2293SOL     OW 7777   0.552   0.870   0.052
 2293SOL    HW1 7778   0.606   0.787   0.039
 2293SOL    HW2 7779   0.548   0.893   0.149
 2294SOL     OW 7780   6.745   2.217   5.438
 2294SOL    HW1 7781   6.821   2.280   5.452
 2294SOL    HW2 7782   6.775   2.141   5.380
 2295SOL     OW 7783   5.775   5.552   0.048
 2295SOL    HW1 7784   5.785   5.457   0.020
 2295SOL    HW2 7785   5.716   5.558   0.128
 2296SOL     OW 7786   3.541   5.950   4.537
 2296SOL    HW1 7787   3.623   6.000   4.507
 2296SOL    HW2 7788   3.568   5.862   4.576
 2297SOL     OW 7789   6.543   2.871   0.170
 2297SOL    HW1 7790   6.456   2.885   0.121
 2297SOL    HW2 7791   6.613   2.842   0.105
 2298SOL     OW 7792   2.396   3.495   5.335
 2298SOL    HW1 7793   2.303   3.510   5.301
 2298SOL    HW2 7794   2.448   3.581   5.330
 2299SOL     OW 7795   6.275   3.055   4.648
 2299SOL    HW1 7796   6.236   3.143   4.624
 2299SOL    HW2 7797   6.201   2.990   4.669
 2300SOL     OW 7798   4.402   0.462   3.240
 2300SOL    HW1 7799   4.446   0.532   3.185
 2300SOL    HW2 7800   4.425   0.476   3.337
 2301SOL     OW 7801   4.461   3.302   5.733
 2301SOL    HW1 7802   4.370   3.263   5.722
 2301SOL    HW2 7803   4.526   3.229   5.754
 2302SOL     OW 7804   0.002   3.094   4.681
 2302SOL    HW1 7805   0.102   3.105   4.684
 2302SOL    HW2 7806   6.984   3.115   4.771
 2303SOL     OW 7807   2.449   2.013   6.402
 2303SOL    HW1 7808   2.415   2.102   6.370
 2303SOL    HW2 7809   2.470   2.019   6.499
 2304SOL     OW 7810   3.950   0.095   3.660
 2304SOL    HW1 7811   4.001   0.121   3.577
 2304SOL    HW2 7812   3.884   0.024   3.637
 2305SOL     OW 7813   2.634   6.335   4.831
 2305SOL    HW1 7814   2.703   6.275   4.792
 2305SOL    HW2 7815   2.678   6.414   4.873
 2306SOL     OW 7816   0.586   4.686   5.275
 2306SOL    HW1 7817   0.633   4.622   5.336
 2306SOL    HW2 7818   0.556   4.765   5.327
 2307SOL     OW 7819   5.830   4.107   4.954
 2307SOL    HW1 7820   5.770   4.130   4.877
 2307SOL    HW2 7821   5.900   4.178   4.964
 2308SOL     OW 7822   1.330   6.076   2.854
 2308SOL    HW1 7823   1.399   6.016   2.812
 2308SOL    HW2 7824   1.285   6.130   2.782
 2309SOL     OW 7825   1.897   0.866   4.863
 2309SOL    HW1 7826   1.880   0.935   4.792
 2309SOL    HW2 7827   1.924   0.912   4.948
 2310SOL     OW 7828   5.240   6.145   0.180
 2310SOL    HW1 7829   5.176   6.073   0.210
 2310SOL    HW2 7830   5.315   6.103   0.129
 2311SOL     OW 7831   2.659   5.384   0.525
 2311SOL    HW1 7832   2.594   5.387   0.448
 2311SOL    HW2 7833   2.662   5.474   0.569
 2312SOL     OW 7834   2.542   4.608   2.459
 2312SOL    HW1 7835   2.570   4.606   2.363
 2312SOL    HW2 7836   2.473   4.678   2.473
 2313SOL     OW 7837   4.915   5.484   1.422
 2313SOL    HW1 7838   4.952   5.559   1.477
 2313SOL    HW2 7839   4.900   5.404   1.480
 2314SOL     OW 7840   2.131   4.406   2.621
 2314SOL    HW1 7841   2.203   4.378   2.557
 2314SOL    HW2 7842   2.042   4.387   2.580
 2315SOL     OW 7843   3.790   1.925   6.435
 2315SOL    HW1 7844   3.785   2.006   6.493
 2315SOL    HW2 7845   3.862   1.864   6.468
 2316SOL     OW 7846   5.959   4.385   1.389
 2316SOL    HW1 7847   5.957   4.484   1.383
 2316SOL    HW2 7848   6.028   4.348   1.328
 2317SOL     OW 7849   0.174   6.314   3.439
 2317SOL    HW1 7850   0.122   6.298   3.523
 2317SOL    HW2 7851   0.213   6.228   3.406
 2318SOL     OW 7852   6.840   1.776   3.584
 2318SOL    HW1 7853   6.824   1.718   3.665
 2318SOL    HW2 7854   6.786   1.741   3.508
 2319SOL     OW 7855   1.061   5.560   2.867
 2319SOL    HW1 7856   1.149   5.566   2.821
 2319SOL    HW2 7857   1.060   5.621   2.946
 2320SOL     OW 7858   6.866   4.742   3.151
 2320SOL    HW1 7859   6.823   4.662   3.110
 2320SOL    HW2 7860   6.810   4.823   3.133
 2321SOL     OW 7861   3.192   4.876   3.729
 2321SOL    HW1 7862   3.141   4.799   3.691
 2321SOL    HW2 7863   3.288   4.869   3.702
 2322SOL     OW 7864   2.090   1.960   4.500
 2322SOL    HW1 7865   2.093   1.878   4.557
 2322SOL    HW2 7866   2.168   1.959   4.437
 2323SOL     OW 7867   5.511   3.910   1.444
 2323SOL    HW1 7868   5.584   3.845   1.461
 2323SOL    HW2 7869   5.463   3.930   1.530
 2324SOL     OW 7870   0.729   5.335   4.000
 2324SOL    HW1 7871   0.631   5.321   3.989
 2324SOL    HW2 7872   0.756   5.313   4.093
 2325SOL     OW 7873   6.216   2.049   0.855
 2325SOL    HW1 7874   6.184   2.000   0.935
 2325SOL    HW2 7875   6.307   2.088   0.874
 2326SOL     OW 7876   0.268   5.515   0.374
 2326SOL    HW1 7877   0.314   5.428   0.357
 2326SOL    HW2 7878   0.334   5.590   0.368
 2327SOL     OW 7879   4.847   1.860   2.929
 2327SOL    HW1 7880   4.865   1.792   3.000
 2327SOL    HW2 7881   4.761   1.840   2.884
 2328SOL     OW 7882   6.168   4.988   3.905
 2328SOL    HW1 7883   6.148   4.909   3.963
 2328SOL    HW2 7884   6.138   5.072   3.951
 2329SOL     OW 7885   1.747   6.487   3.467
 2329SOL    HW1 7886   1.775   6.485   3.371
 2329SOL    HW2 7887   1.717   6.396   3.495
 2330SOL     OW 7888   2.095   4.377   0.199
 2330SOL    HW1 7889   2.038   4.437   0.257
 2330SOL    HW2 7890   2.181   4.423   0.179
 2331SOL     OW 7891   1.841   4.824   5.184
 2331SOL    HW1 7892   1.862   4.906   5.130
 2331SOL    HW2 7893   1.882   4.744   5.140
 2332SOL     OW 7894   6.959   3.739   6.194
 2332SOL    HW1 7895   6.887   3.677   6.228
 2332SOL    HW2 7896   6.978   3.718   6.098
 2333SOL     OW 7897   2.405   4.365   3.911
 2333SOL    HW1 7898   2.420   4.403   3.819
 2333SOL    HW2 7899   2.330   4.414   3.955
 2334SOL     OW 7900   2.496   0.102   6.142
 2334SOL    HW1 7901   2.477   0.079   6.238
 2334SOL    HW2 7902   2.409   0.106   6.092
 2335SOL     OW 7903   4.761   4.133   4.127
 2335SOL    HW1 7904   4.761   4.076   4.209
 2335SOL    HW2 7905   4.702   4.212   4.142
 2336SOL     OW 7906   4.494   1.242   5.568
 2336SOL    HW1 7907   4.496   1.194   5.656
 2336SOL    HW2 7908   4.549   1.192   5.502
 2337SOL     OW 7909   5.652   0.774   5.030
 2337SOL    HW1 7910   5.723   0.837   4.999
 2337SOL    HW2 7911   5.682   0.679   5.016
 2338SOL     OW 7912   1.621   0.063   6.926
 2338SOL    HW1 7913   1.710   0.017   6.920
 2338SOL    HW2 7914   1.556   0.016   6.865
 2339SOL     OW 7915   3.496   4.833   6.236
 2339SOL    HW1 7916   3.569   4.766   6.251
 2339SOL    HW2 7917   3.534   4.925   6.235
 2340SOL     OW 7918   4.029   5.026   3.911
 2340SOL    HW1 7919   3.942   5.039   3.863
 2340SOL    HW2 7920   4.075   4.945   3.875
 2341SOL     OW 7921   0.136   3.847   5.758
 2341SOL    HW1 7922   0.143   3.822   5.662
 2341SOL    HW2 7923   0.111   3.767   5.812
 2342SOL     OW 7924   5.363   0.832   5.837
 2342SOL    HW1 7925   5.311   0.902   5.787
 2342SOL    HW2 7926   5.451   0.871   5.864
 2343SOL     OW 7927   0.908   5.862   1.993
 2343SOL    HW1 7928   0.877   5.804   2.070
 2343SOL    HW2 7929   0.893   5.958   2.016
 2344SOL     OW 7930   2.410   0.837   2.927
 2344SOL    HW1 7931   2.383   0.747   2.892
 2344SOL    HW2 7932   2.504   0.857   2.899
 2345SOL     OW 7933   1.437   2.687   2.219
 2345SOL    HW1 7934   1.379   2.653   2.293
 2345SOL    HW2 7935   1.426   2.629   2.138
 2346SOL     OW 7936   5.332   3.002   5.220
 2346SOL    HW1 7937   5.330   3.035   5.126
 2346SOL    HW2 7938   5.334   2.902   5.220
 2347SOL     OW 7939   1.750   4.063   0.929
 2347SOL    HW1 7940   1.657   4.027   0.933
 2347SOL    HW2 7941   1.784   4.055   0.835
 2348SOL     OW 7942   3.177   0.260   1.381
 2348SOL    HW1 7943   3.218   0.170   1.394
 2348SOL    HW2 7944   3.166   0.305   1.470
 2349SOL     OW 7945   5.799   2.618   0.182
 2349SOL    HW1 7946   5.759   2.652   0.267
 2349SOL    HW2 7947   5.761   2.528   0.161
 2350SOL     OW 7948   2.622   5.809   5.415
 2350SOL    HW1 7949   2.547   5.750   5.386
 2350SOL    HW2 7950   2.632   5.804   5.514
 2351SOL     OW 7951   1.904   5.217   3.440
 2351SOL    HW1 7952   1.932   5.241   3.347
 2351SOL    HW2 7953   1.964   5.263   3.505
 2352SOL     OW 7954   6.063   5.663   6.414
 2352SOL    HW1 7955   6.117   5.644   6.332
 2352SOL    HW2 7956   6.014   5.580   6.441
 2353SOL     OW 7957   3.273   2.809   6.386
 2353SOL    HW1 7958   3.232   2.900   6.389
 2353SOL    HW2 7959   3.226   2.749   6.450
 2354SOL     OW 7960   3.494   1.822   2.195
 2354SOL    HW1 7961   3.421   1.860   2.137
 2354SOL    HW2 7962   3.464   1.736   2.235
 2355SOL     OW 7963   6.922   1.411   1.984
 2355SOL    HW1 7964   6.987   1.336   1.999
 2355SOL    HW2 7965   6.969   1.498   1.996
 2356SOL     OW 7966   3.462   4.899   3.716
 2356SOL    HW1 7967   3.559   4.894   3.740
 2356SOL    HW2 7968   3.414   4.957   3.782
 2357SOL     OW 7969   0.927   5.644   1.061
 2357SOL    HW1 7970   0.868   5.722   1.079
 2357SOL    HW2 7971   0.904   5.570   1.124
 2358SOL     OW 7972   2.056   0.809   5.523
 2358SOL    HW1 7973   2.097   0.840   5.437
 2358SOL    HW2 7974   2.127   0.801   5.593
 2359SOL     OW 7975   3.410   2.804   6.110
 2359SOL    HW1 7976   3.454   2.729   6.160
 2359SOL    HW2 7977   3.326   2.831   6.158
 2360SOL     OW 7978   2.985   5.059   1.174
 2360SOL    HW1 7979   2.925   5.014   1.108
 2360SOL    HW2 7980   3.077   5.021   1.167
 2361SOL     OW 7981   3.617   4.905   1.342
 2361SOL    HW1 7982   3.549   4.978   1.346
 2361SOL    HW2 7983   3.675   4.918   1.262
 2362SOL     OW 7984   2.724   5.025   4.167
 2362SOL    HW1 7985   2.816   5.063   4.167
 2362SOL    HW2 7986   2.715   4.960   4.242
 2363SOL     OW 7987   2.526   3.856   1.502
 2363SOL    HW1 7988   2.492   3.810   1.419
 2363SOL    HW2 7989   2.460   3.842   1.576
 2364SOL     OW 7990   4.891   1.048   2.374
 2364SOL    HW1 7991   4.983   1.015   2.394
 2364SOL    HW2 7992   4.852   1.090   2.456
 2365SOL     OW 7993   5.954   3.929   2.733
 2365SOL    HW1 7994   5.865   3.938   2.777
 2365SOL    HW2 7995   5.941   3.914   2.635
 2366SOL     OW 7996   3.644   5.534   5.127
 2366SOL    HW1 7997   3.585   5.598   5.079
 2366SOL    HW2 7998   3.706   5.491   5.062
 2367SOL     OW 7999   5.983   4.483   5.158
 2367SOL    HW1 8000   6.024   4.427   5.230
 2367SOL    HW2 8001   5.884   4.481   5.166
 2368SOL     OW 8002   5.094   1.281   5.450
 2368SOL    HW1 8003   5.121   1.185   5.442
 2368SOL    HW2 8004   5.156   1.329   5.513
 2369SOL     OW 8005   3.905   1.770   3.937
 2369SOL    HW1 8006   3.828   1.789   3.997
 2369SOL    HW2 8007   3.919   1.847   3.875
 2370SOL     OW 8008   3.986   2.085   0.801
 2370SOL    HW1 8009   3.979   1.985   0.802
 2370SOL    HW2 8010   3.903   2.124   0.763
 2371SOL     OW 8011   2.742   6.634   3.106
 2371SOL    HW1 8012   2.663   6.670   3.056
 2371SOL    HW2 8013   2.767   6.699   3.179
 2372SOL     OW 8014   5.922   6.673   6.252
 2372SOL    HW1 8015   5.913   6.672   6.152
 2372SOL    HW2 8016   5.985   6.745   6.280
 2373SOL     OW 8017   6.427   4.119   5.569
 2373SOL    HW1 8018   6.339   4.153   5.602
 2373SOL    HW2 8019   6.501   4.177   5.604
 2374SOL     OW 8020   0.728   5.882   2.943
 2374SOL    HW1 8021   0.768   5.849   2.857
 2374SOL    HW2 8022   0.719   5.982   2.939
 2375SOL     OW 8023   1.707   0.321   4.703
 2375SOL    HW1 8024   1.728   0.386   4.775
 2375SOL    HW2 8025   1.783   0.257   4.691
 2376SOL     OW 8026   5.703   3.094   3.609
 2376SOL    HW1 8027   5.648   3.132   3.535
 2376SOL    HW2 8028   5.794   3.136   3.608
 2377SOL     OW 8029   3.649   4.623   6.004
 2377SOL    HW1 8030   3.702   4.546   6.040
 2377SOL    HW2 8031   3.659   4.702   6.064
 2378SOL     OW 8032   0.552   0.322   0.644
 2378SOL    HW1 8033   0.589   0.415   0.636
 2378SOL    HW2 8034   0.463   0.318   0.598
 2379SOL     OW 8035   0.581   4.829   2.301
 2379SOL    HW1 8036   0.579   4.733   2.329
 2379SOL    HW2 8037   0.663   4.873   2.337
 2380SOL     OW 8038   4.668   5.801   6.486
 2380SOL    HW1 8039   4.595   5.829   6.424
 2380SOL    HW2 8040   4.704   5.712   6.458
 2381SOL     OW 8041   2.154   4.001   3.868
 2381SOL    HW1 8042   2.184   4.035   3.779
 2381SOL    HW2 8043   2.147   3.902   3.866
 2382SOL     OW 8044   6.476   6.100   2.777
 2382SOL    HW1 8045   6.511   6.177   2.723
 2382SOL    HW2 8046   6.441   6.134   2.865
 2383SOL     OW 8047   5.200   4.101   6.094
 2383SOL    HW1 8048   5.292   4.136   6.080
 2383SOL    HW2 8049   5.165   4.065   6.007
 2384SOL     OW 8050   1.178   1.904   3.445
 2384SOL    HW1 8051   1.210   1.964   3.371
 2384SOL    HW2 8052   1.230   1.819   3.445
 2385SOL     OW 8053   0.612   1.102   0.759
 2385SOL    HW1 8054   0.653   1.022   0.715
 2385SOL    HW2 8055   0.626   1.097   0.858
 2386SOL     OW 8056   6.685   4.892   6.283
 2386SOL    HW1 8057   6.624   4.843   6.222
 2386SOL    HW2 8058   6.774   4.903   6.239
 2387SOL     OW 8059   6.988   0.368   2.999
 2387SOL    HW1 8060   6.959   0.393   3.092
 2387SOL    HW2 8061   0.058   0.324   3.003
 2388SOL     OW 8062   2.018   4.287   3.901
 2388SOL    HW1 8063   2.091   4.336   3.949
 2388SOL    HW2 8064   2.039   4.190   3.899
 2389SOL     OW 8065   3.500   0.291   2.903
 2389SOL    HW1 8066   3.443   0.323   2.828
 2389SOL    HW2 8067   3.466   0.203   2.937
 2390SOL     OW 8068   5.131   3.188   5.290
 2390SOL    HW1 8069   5.226   3.161   5.276
 2390SOL    HW2 8070   5.074   3.106   5.299
 2391SOL     OW 8071   2.622   3.720   6.181
 2391SOL    HW1 8072   2.696   3.774   6.140
 2391SOL    HW2 8073   2.593   3.649   6.117
 2392SOL     OW 8074   4.075   5.240   5.640
 2392SOL    HW1 8075   4.079   5.168   5.709
 2392SOL    HW2 8076   4.162   5.290   5.639
 2393SOL     OW 8077   4.327   4.447   0.210
 2393SOL    HW1 8078   4.252   4.399   0.255
 2393SOL    HW2 8079   4.413   4.427   0.257
 2394SOL     OW 8080   0.046   2.824   3.229
 2394SOL    HW1 8081   6.984   2.813   3.173
 2394SOL    HW2 8082   0.101   2.740   3.225
 2395SOL     OW 8083   1.117   2.277   3.718
 2395SOL    HW1 8084   1.031   2.326   3.722
 2395SOL    HW2 8085   1.170   2.309   3.639
 2396SOL     OW 8086   0.369   0.592   6.235
 2396SOL    HW1 8087   0.446   0.562   6.178
 2396SOL    HW2 8088   0.345   0.686   6.211
 2397SOL     OW 8089   2.146   4.869   6.067
 2397SOL    HW1 8090   2.154   4.799   5.996
 2397SOL    HW2 8091   2.221   4.859   6.132
 2398SOL     OW 8092   3.897   6.334   4.939
 2398SOL    HW1 8093   3.844   6.289   5.010
 2398SOL    HW2 8094   3.994   6.311   4.949
 2399SOL     OW 8095   3.212   1.664   2.390
 2399SOL    HW1 8096   3.113   1.653   2.392
 2399SOL    HW2 8097   3.253   1.584   2.346
 2400SOL     OW 8098   1.173   2.000   6.576
 2400SOL    HW1 8099   1.154   2.068   6.505
 2400SOL    HW2 8100   1.235   2.038   6.643
 2401SOL     OW 8101   1.302   6.911   0.959
 2401SOL    HW1 8102   1.377   6.894   1.024
 2401SOL    HW2 8103   1.337   6.908   0.866
 2402SOL     OW 8104   0.386   3.094   1.504
 2402SOL    HW1 8105   0.432   3.068   1.419
 2402SOL    HW2 8106   0.355   3.012   1.552
 2403SOL     OW 8107   2.986   4.391   5.427
 2403SOL    HW1 8108   2.906   4.334   5.448
 2403SOL    HW2 8109   2.959   4.465   5.365
 2404SOL     OW 8110   6.266   2.085   2.082
 2404SOL    HW1 8111   6.173   2.108   2.053
 2404SOL    HW2 8112   6.325   2.165   2.071
 2405SOL     OW 8113   2.715   3.099   0.573
 2405SOL    HW1 8114   2.729   3.000   0.586
 2405SOL    HW2 8115   2.639   3.113   0.509
 2406SOL     OW 8116   4.366   5.719   5.342
 2406SOL    HW1 8117   4.317   5.660   5.405
 2406SOL    HW2 8118   4.382   5.670   5.256
 2407SOL     OW 8119   2.064   2.019   3.499
 2407SOL    HW1 8120   2.158   2.014   3.465
 2407SOL    HW2 8121   2.054   1.957   3.577
 2408SOL     OW 8122   4.388   6.774   5.287
 2408SOL    HW1 8123   4.465   6.834   5.312
 2408SOL    HW2 8124   4.412   6.679   5.307
 2409SOL     OW 8125   1.351   3.205   6.810
 2409SOL    HW1 8126   1.293   3.273   6.855
 2409SOL    HW2 8127   1.352   3.222   6.712
 2410SOL     OW 8128   6.477   3.778   4.753
 2410SOL    HW1 8129   6.523   3.744   4.671
 2410SOL    HW2 8130   6.450   3.873   4.738
 2411SOL     OW 8131   2.894   1.407   1.123
 2411SOL    HW1 8132   2.887   1.407   1.223
 2411SOL    HW2 8133   2.887   1.501   1.090
 2412SOL     OW 8134   3.667   2.598   0.191
 2412SOL    HW1 8135   3.629   2.527   0.131
 2412SOL    HW2 8136   3.605   2.676   0.193
 2413SOL     OW 8137   6.588   3.650   6.088
 2413SOL    HW1 8138   6.614   3.667   6.183
 2413SOL    HW2 8139   6.508   3.591   6.085
 2414SOL     OW 8140   6.416   1.829   4.764
 2414SOL    HW1 8141   6.384   1.922   4.743
 2414SOL    HW2 8142   6.495   1.807   4.706
 2415SOL     OW 8143   3.265   3.886   5.280
 2415SOL    HW1 8144   3.330   3.906   5.353
 2415SOL    HW2 8145   3.206   3.965   5.265
 2416SOL     OW 8146   6.874   3.422   3.517
 2416SOL    HW1 8147   6.917   3.477   3.446
 2416SOL    HW2 8148   6.941   3.401   3.589
 2417SOL     OW 8149   3.368   2.651   1.699
 2417SOL    HW1 8150   3.269   2.642   1.686
 2417SOL    HW2 8151   3.389   2.743   1.731
 2418SOL     OW 8152   6.125   3.450   6.482
 2418SOL    HW1 8153   6.145   3.383   6.554
 2418SOL    HW2 8154   6.069   3.524   6.518
 2419SOL     OW 8155   3.320   1.073   2.847
 2419SOL    HW1 8156   3.341   1.163   2.885
 2419SOL    HW2 8157   3.397   1.042   2.790
 2420SOL     OW 8158   0.760   2.921   1.304
 2420SOL    HW1 8159   0.757   2.861   1.384
 2420SOL    HW2 8160   0.672   2.968   1.295
 2421SOL     OW 8161   2.797   0.229   3.210
 2421SOL    HW1 8162   2.776   0.314   3.161
 2421SOL    HW2 8163   2.766   0.238   3.305
 2422SOL     OW 8164   3.736   6.651   0.639
 2422SOL    HW1 8165   3.698   6.740   0.663
 2422SOL    HW2 8166   3.684   6.612   0.564
 2423SOL     OW 8167   3.691   4.890   4.764
 2423SOL    HW1 8168   3.725   4.799   4.739
 2423SOL    HW2 8169   3.611   4.911   4.707
 2424SOL     OW 8170   5.029   0.309   6.334
 2424SOL    HW1 8171   5.045   0.376   6.262
 2424SOL    HW2 8172   4.936   0.273   6.325
 2425SOL     OW 8173   4.693   5.266   4.672
 2425SOL    HW1 8174   4.747   5.259   4.588
 2425SOL    HW2 8175   4.722   5.194   4.736
 2426SOL     OW 8176   3.106   2.517   5.367
 2426SOL    HW1 8177   3.149   2.476   5.286
 2426SOL    HW2 8178   3.176   2.554   5.427
 2427SOL     OW 8179   4.671   1.890   6.866
 2427SOL    HW1 8180   4.572   1.894   6.864
 2427SOL    HW2 8181   4.701   1.866   6.958
 2428SOL     OW 8182   1.775   1.793   2.368
 2428SOL    HW1 8183   1.682   1.831   2.361
 2428SOL    HW2 8184   1.780   1.733   2.448
 2429SOL     OW 8185   5.283   5.725   1.933
 2429SOL    HW1 8186   5.202   5.671   1.912
 2429SOL    HW2 8187   5.280   5.754   2.029
 2430SOL     OW 8188   6.655   6.631   0.038
 2430SOL    HW1 8189   6.620   6.683   6.980
 2430SOL    HW2 8190   6.640   6.683   0.122
 2431SOL     OW 8191   1.849   2.280   1.173
 2431SOL    HW1 8192   1.790   2.336   1.231
 2431SOL    HW2 8193   1.944   2.310   1.182
 2432SOL     OW 8194   3.212   6.294   2.700
 2432SOL    HW1 8195   3.262   6.324   2.619
 2432SOL    HW2 8196   3.272   6.301   2.780
 2433SOL     OW 8197   0.609   4.344   4.065
 2433SOL    HW1 8198   0.678   4.412   4.091
 2433SOL    HW2 8199   0.644   4.287   3.992
 2434SOL     OW 8200   3.776   2.007   2.947
 2434SOL    HW1 8201   3.777   2.037   2.851
 2434SOL    HW2 8202   3.820   2.076   3.004
 2435SOL     OW 8203   5.827   6.703   5.998
 2435SOL    HW1 8204   5.756   6.768   6.023
 2435SOL    HW2 8205   5.801   6.656   5.914
 2436SOL     OW 8206   0.303   2.553   0.123
 2436SOL    HW1 8207   0.316   2.604   0.038
 2436SOL    HW2 8208   0.390   2.548   0.172
 2437SOL     OW 8209   1.056   4.890   1.122
 2437SOL    HW1 8210   1.078   4.796   1.095
 2437SOL    HW2 8211   1.024   4.891   1.217
 2438SOL     OW 8212   3.753   1.836   4.415
 2438SOL    HW1 8213   3.753   1.836   4.315
 2438SOL    HW2 8214   3.687   1.903   4.449
 2439SOL     OW 8215   0.348   5.924   6.889
 2439SOL    HW1 8216   0.420   5.880   6.834
 2439SOL    HW2 8217   0.343   5.879   6.978
 2440SOL     OW 8218   6.796   2.443   5.101
 2440SOL    HW1 8219   6.875   2.385   5.119
 2440SOL    HW2 8220   6.807   2.530   5.149
 2441SOL     OW 8221   6.458   0.454   0.215
 2441SOL    HW1 8222   6.510   0.470   0.131
 2441SOL    HW2 8223   6.381   0.517   0.218
 2442SOL     OW 8224   5.578   3.000   2.850
 2442SOL    HW1 8225   5.514   3.013   2.925
 2442SOL    HW2 8226   5.651   2.939   2.879
 2443SOL     OW 8227   0.641   3.151   1.036
 2443SOL    HW1 8228   0.638   3.120   0.941
 2443SOL    HW2 8229   0.733   3.182   1.058
 2444SOL     OW 8230   3.159   5.162   2.758
 2444SOL    HW1 8231   3.107   5.224   2.698
 2444SOL    HW2 8232   3.240   5.131   2.710
 2445SOL     OW 8233   0.570   1.918   1.278
 2445SOL    HW1 8234   0.615   1.977   1.345
 2445SOL    HW2 8235   0.560   1.826   1.316
 2446SOL     OW 8236   6.773   5.577   0.706
 2446SOL    HW1 8237   6.725   5.497   0.741
 2446SOL    HW2 8238   6.744   5.596   0.612
 2447SOL     OW 8239   2.142   0.103   7.015
 2447SOL    HW1 8240   2.107   0.046   0.069
 2447SOL    HW2 8241   2.160   0.046   6.935
 2448SOL     OW 8242   5.699   0.503   4.269
 2448SOL    HW1 8243   5.706   0.601   4.251
 2448SOL    HW2 8244   5.673   0.456   4.185
 2449SOL     OW 8245   2.056   3.728   1.109
 2449SOL    HW1 8246   2.152   3.744   1.131
 2449SOL    HW2 8247   2.004   3.716   1.194
 2450SOL     OW 8248   6.563   6.678   5.323
 2450SOL    HW1 8249   6.498   6.624   5.376
 2450SOL    HW2 8250   6.638   6.707   5.382
 2451SOL     OW 8251   1.785   6.815   6.971
 2451SOL    HW1 8252   1.829   6.875   6.904
 2451SOL    HW2 8253   1.715   6.760   6.926
 2452SOL     OW 8254   2.046   2.327   3.668
 2452SOL    HW1 8255   2.014   2.321   3.762
 2452SOL    HW2 8256   1.988   2.272   3.609
 2453SOL     OW 8257   1.074   2.187   6.335
 2453SOL    HW1 8258   0.997   2.190   6.272
 2453SOL    HW2 8259   1.143   2.254   6.307
 2454SOL     OW 8260   2.979   6.558   0.095
 2454SOL    HW1 8261   3.021   6.468   0.092
 2454SOL    HW2 8262   2.940   6.573   0.186
 2455SOL     OW 8263   4.840   1.977   0.316
 2455SOL    HW1 8264   4.859   1.953   0.411
 2455SOL    HW2 8265   4.918   1.951   0.258
 2456SOL     OW 8266   0.917   3.449   5.923
 2456SOL    HW1 8267   0.924   3.545   5.949
 2456SOL    HW2 8268   0.902   3.393   6.005
 2457SOL     OW 8269   5.151   1.605   5.904
 2457SOL    HW1 8270   5.151   1.692   5.855
 2457SOL    HW2 8271   5.102   1.616   5.991
 2458SOL     OW 8272   1.246   0.161   2.444
 2458SOL    HW1 8273   1.311   0.104   2.495
 2458SOL    HW2 8274   1.253   0.141   2.347
 2459SOL     OW 8275   1.620   6.522   1.406
 2459SOL    HW1 8276   1.623   6.480   1.316
 2459SOL    HW2 8277   1.713   6.537   1.440
 2460SOL     OW 8278   0.317   1.139   4.362
 2460SOL    HW1 8279   0.290   1.226   4.323
 2460SOL    HW2 8280   0.312   1.144   4.462
 2461SOL     OW 8281   2.474   1.615   2.820
 2461SOL    HW1 8282   2.468   1.516   2.814
 2461SOL    HW2 8283   2.548   1.641   2.882
 2462SOL     OW 8284   0.302   6.109   0.678
 2462SOL    HW1 8285   0.255   6.034   0.633
 2462SOL    HW2 8286   0.379   6.073   0.731
 2463SOL     OW 8287   6.947   6.762   0.929
 2463SOL    HW1 8288   6.859   6.728   0.895
 2463SOL    HW2 8289   6.932   6.841   0.988
 2464SOL     OW 8290   0.797   2.572   4.908
 2464SOL    HW1 8291   0.717   2.588   4.966
 2464SOL    HW2 8292   0.878   2.613   4.950
 2465SOL     OW 8293   6.706   1.523   0.298
 2465SOL    HW1 8294   6.706   1.443   0.357
 2465SOL    HW2 8295   6.645   1.508   0.220
 2466SOL     OW 8296   1.018   2.247   1.245
 2466SOL    HW1 8297   0.928   2.205   1.244
 2466SOL    HW2 8298   1.024   2.317   1.174
 2467SOL     OW 8299   5.246   2.402   4.999
 2467SOL    HW1 8300   5.177   2.331   4.987
 2467SOL    HW2 8301   5.202   2.492   4.989
 2468SOL     OW 8302   2.670   0.297   4.325
 2468SOL    HW1 8303   2.654   0.202   4.351
 2468SOL    HW2 8304   2.744   0.301   4.257
 2469SOL     OW 8305   2.875   1.556   6.171
 2469SOL    HW1 8306   2.975   1.564   6.174
 2469SOL    HW2 8307   2.850   1.459   6.167
 2470SOL     OW 8308   1.741   5.300   6.656
 2470SOL    HW1 8309   1.671   5.274   6.589
 2470SOL    HW2 8310   1.766   5.396   6.643
 2471SOL     OW 8311   2.997   5.748   2.915
 2471SOL    HW1 8312   2.916   5.737   2.973
 2471SOL    HW2 8313   3.002   5.672   2.850
 2472SOL     OW 8314   5.135   0.899   2.949
 2472SOL    HW1 8315   5.114   0.949   3.033
 2472SOL    HW2 8316   5.055   0.848   2.918
 2473SOL     OW 8317   1.010   4.083   4.543
 2473SOL    HW1 8318   1.071   4.006   4.530
 2473SOL    HW2 8319   0.951   4.066   4.622
 2474SOL     OW 8320   1.770   0.120   0.911
 2474SOL    HW1 8321   1.752   0.029   0.876
 2474SOL    HW2 8322   1.780   0.116   1.010
 2475SOL     OW 8323   5.572   2.088   0.595
 2475SOL    HW1 8324   5.609   2.062   0.506
 2475SOL    HW2 8325   5.635   2.150   0.641
 2476SOL     OW 8326   4.783   0.134   0.011
 2476SOL    HW1 8327   4.788   0.204   0.082
 2476SOL    HW2 8328   4.856   0.150   6.964
 2477SOL     OW 8329   3.399   1.505   3.598
 2477SOL    HW1 8330   3.359   1.596   3.601
 2477SOL    HW2 8331   3.388   1.459   3.686
 2478SOL     OW 8332   3.417   0.378   4.337
 2478SOL    HW1 8333   3.409   0.333   4.248
 2478SOL    HW2 8334   3.373   0.322   4.407
 2479SOL     OW 8335   6.311   4.469   1.676
 2479SOL    HW1 8336   6.224   4.515   1.692
 2479SOL    HW2 8337   6.305   4.373   1.706
 2480SOL     OW 8338   3.210   2.213   1.521
 2480SOL    HW1 8339   3.271   2.137   1.542
 2480SOL    HW2 8340   3.124   2.177   1.484
 2481SOL     OW 8341   2.894   6.883   2.141
 2481SOL    HW1 8342   2.846   6.899   2.227
 2481SOL    HW2 8343   2.871   6.792   2.107
 2482SOL     OW 8344   0.042   3.381   6.832
 2482SOL    HW1 8345   7.011   3.393   6.747
 2482SOL    HW2 8346   7.010   3.419   6.908
 2483SOL     OW 8347   2.433   2.122   1.545
 2483SOL    HW1 8348   2.388   2.034   1.561
 2483SOL    HW2 8349   2.491   2.115   1.463
 2484SOL     OW 8350   4.598   0.415   6.347
 2484SOL    HW1 8351   4.541   0.346   6.303
 2484SOL    HW2 8352   4.600   0.398   6.446
 2485SOL     OW 8353   0.407   1.754   6.759
 2485SOL    HW1 8354   0.417   1.808   6.842
 2485SOL    HW2 8355   0.462   1.671   6.766
 2486SOL     OW 8356   6.451   6.160   3.245
 2486SOL    HW1 8357   6.493   6.076   3.210
 2486SOL    HW2 8358   6.513   6.203   3.310
 2487SOL     OW 8359   4.488   6.288   0.277
 2487SOL    HW1 8360   4.485   6.227   0.356
 2487SOL    HW2 8361   4.537   6.244   0.202
 2488SOL     OW 8362   6.968   3.866   0.478
 2488SOL    HW1 8363   0.014   3.806   0.522
 2488SOL    HW2 8364   7.001   3.892   0.387
 2489SOL     OW 8365   6.286   5.702   4.962
 2489SOL    HW1 8366   6.199   5.654   4.952
 2489SOL    HW2 8367   6.321   5.689   5.055
 2490SOL     OW 8368   2.943   5.935   2.092
 2490SOL    HW1 8369   2.960   5.964   2.186
 2490SOL    HW2 8370   3.027   5.943   2.039
 2491SOL     OW 8371   4.016   4.777   1.535
 2491SOL    HW1 8372   4.059   4.859   1.574
 2491SOL    HW2 8373   4.030   4.776   1.436
 2492SOL     OW 8374   6.892   5.389   1.640
 2492SOL    HW1 8375   6.949   5.468   1.616
 2492SOL    HW2 8376   6.882   5.384   1.740
 2493SOL     OW 8377   5.994   6.145   0.718
 2493SOL    HW1 8378   5.935   6.211   0.763
 2493SOL    HW2 8379   5.993   6.161   0.619
 2494SOL     OW 8380   6.775   3.933   0.855
 2494SOL    HW1 8381   6.813   4.001   0.917
 2494SOL    HW2 8382   6.682   3.909   0.885
 2495SOL     OW 8383   6.802   3.131   2.110
 2495SOL    HW1 8384   6.893   3.106   2.076
 2495SOL    HW2 8385   6.735   3.065   2.076
 2496SOL     OW 8386   5.544   4.087   6.205
 2496SOL    HW1 8387   5.633   4.129   6.220
 2496SOL    HW2 8388   5.516   4.102   6.110
 2497SOL     OW 8389   0.915   6.973   3.891
 2497SOL    HW1 8390   0.841   0.015   3.918
 2497SOL    HW2 8391   0.876   6.888   3.856
 2498SOL     OW 8392   2.105   3.505   4.517
 2498SOL    HW1 8393   2.059   3.593   4.524
 2498SOL    HW2 8394   2.165   3.492   4.595
 2499SOL     OW 8395   6.112   3.617   1.727
 2499SOL    HW1 8396   6.142   3.628   1.632
 2499SOL    HW2 8397   6.096   3.520   1.746
 2500SOL     OW 8398   3.460   3.402   2.171
 2500SOL    HW1 8399   3.432   3.439   2.260
 2500SOL    HW2 8400   3.535   3.337   2.185
 2501SOL     OW 8401   6.176   5.363   5.118
 2501SOL    HW1 8402   6.173   5.461   5.138
 2501SOL    HW2 8403   6.256   5.323   5.163
 2502SOL     OW 8404   2.773   5.687   3.920
 2502SOL    HW1 8405   2.793   5.651   3.829
 2502SOL    HW2 8406   2.783   5.614   3.988
 2503SOL     OW 8407   2.495   0.437   5.626
 2503SOL    HW1 8408   2.518   0.438   5.723
 2503SOL    HW2 8409   2.454   0.524   5.600
 2504SOL     OW 8410   4.173   0.340   3.185
 2504SOL    HW1 8411   4.217   0.293   3.109
 2504SOL    HW2 8412   4.239   0.402   3.229
 2505SOL     OW 8413   5.353   4.508   4.242
 2505SOL    HW1 8414   5.313   4.561   4.168
 2505SOL    HW2 8415   5.388   4.422   4.206
 2506SOL     OW 8416   6.091   5.145   6.632
 2506SOL    HW1 8417   6.148   5.084   6.687
 2506SOL    HW2 8418   6.141   5.176   6.552
 2507SOL     OW 8419   6.287   3.929   3.618
 2507SOL    HW1 8420   6.244   3.919   3.708
 2507SOL    HW2 8421   6.250   3.861   3.556
 2508SOL     OW 8422   5.857   1.324   3.675
 2508SOL    HW1 8423   5.818   1.337   3.584
 2508SOL    HW2 8424   5.937   1.265   3.668
 2509SOL     OW 8425   0.270   2.963   6.009
 2509SOL    HW1 8426   0.323   3.045   6.027
 2509SOL    HW2 8427   0.304   2.918   5.926
 2510SOL     OW 8428   3.252   3.918   2.552
 2510SOL    HW1 8429   3.153   3.904   2.541
 2510SOL    HW2 8430   3.301   3.868   2.481
 2511SOL     OW 8431   2.184   0.967   4.496
 2511SOL    HW1 8432   2.134   1.034   4.549
 2511SOL    HW2 8433   2.130   0.884   4.486
 2512SOL     OW 8434   3.508   4.946   3.413
 2512SOL    HW1 8435   3.494   4.905   3.503
 2512SOL    HW2 8436   3.605   4.943   3.390
 2513SOL     OW 8437   1.908   5.634   6.305
 2513SOL    HW1 8438   1.867   5.709   6.253
 2513SOL    HW2 8439   2.000   5.616   6.269
 2514SOL     OW 8440   0.855   2.102   2.690
 2514SOL    HW1 8441   0.868   2.200   2.702
 2514SOL    HW2 8442   0.826   2.083   2.596
 2515SOL     OW 8443   6.810   1.671   1.151
 2515SOL    HW1 8444   6.746   1.724   1.207
 2515SOL    HW2 8445   6.859   1.733   1.091
 2516SOL     OW 8446   6.791   2.579   4.666
 2516SOL    HW1 8447   6.709   2.530   4.693
 2516SOL    HW2 8448   6.862   2.566   4.735
 2517SOL     OW 8449   0.176   1.473   4.739
 2517SOL    HW1 8450   0.139   1.541   4.803
 2517SOL    HW2 8451   0.167   1.381   4.778
 2518SOL     OW 8452   2.978   4.015   1.451
 2518SOL    HW1 8453   2.903   3.963   1.492
 2518SOL    HW2 8454   3.017   4.076   1.519
 2519SOL     OW 8455   1.173   1.395   0.471
 2519SOL    HW1 8456   1.125   1.314   0.505
 2519SOL    HW2 8457   1.165   1.398   0.371
 2520SOL     OW 8458   2.753   2.966   1.092
 2520SOL    HW1 8459   2.789   3.055   1.064
 2520SOL    HW2 8460   2.702   2.925   1.016
 2521SOL     OW 8461   5.226   0.498   5.274
 2521SOL    HW1 8462   5.222   0.486   5.373
 2521SOL    HW2 8463   5.191   0.589   5.250
 2522SOL     OW 8464   1.953   2.049   0.208
 2522SOL    HW1 8465   1.991   1.994   0.133
 2522SOL    HW2 8466   1.900   2.125   0.170
 2523SOL     OW 8467   0.914   5.542   5.686
 2523SOL    HW1 8468   1.011   5.560   5.672
 2523SOL    HW2 8469   0.861   5.583   5.612
 2524SOL     OW 8470   0.938   2.181   4.937
 2524SOL    HW1 8471   0.951   2.244   5.014
 2524SOL    HW2 8472   0.877   2.223   4.869
 2525SOL     OW 8473   6.593   2.557   6.003
 2525SOL    HW1 8474   6.673   2.580   5.948
 2525SOL    HW2 8475   6.535   2.638   6.013
 2526SOL     OW 8476   1.953   0.819   0.562
 2526SOL    HW1 8477   2.033   0.879   0.569
 2526SOL    HW2 8478   1.939   0.772   0.649
 2527SOL     OW 8479   4.040   5.378   6.918
 2527SOL    HW1 8480   4.063   5.435   6.997
 2527SOL    HW2 8481   4.092   5.409   6.839
 2528SOL     OW 8482   4.563   5.362   6.305
 2528SOL    HW1 8483   4.516   5.446   6.276
 2528SOL    HW2 8484   4.555   5.293   6.233
 2529SOL     OW 8485   0.055   5.853   5.160
 2529SOL    HW1 8486   0.114   5.915   5.108
 2529SOL    HW2 8487   0.100   5.827   5.245
 2530SOL     OW 8488   2.173   5.808   6.794
 2530SOL    HW1 8489   2.107   5.821   6.867
 2530SOL    HW2 8490   2.241   5.740   6.822
 2531SOL     OW 8491   0.517   4.426   6.079
 2531SOL    HW1 8492   0.442   4.438   6.144
 2531SOL    HW2 8493   0.585   4.498   6.093
 2532SOL     OW 8494   5.705   5.867   2.297
 2532SOL    HW1 8495   5.739   5.956   2.267
 2532SOL    HW2 8496   5.644   5.879   2.376
 2533SOL     OW 8497   4.323   0.843   3.856
 2533SOL    HW1 8498   4.234   0.885   3.840
 2533SOL    HW2 8499   4.395   0.903   3.822
 2534SOL     OW 8500   4.736   1.394   2.525
 2534SOL    HW1 8501   4.823   1.432   2.495
 2534SOL    HW2 8502   4.679   1.467   2.563
 2535SOL     OW 8503   3.475   3.082   6.412
 2535SOL    HW1 8504   3.375   3.078   6.412
 2535SOL    HW2 8505   3.504   3.176   6.430
 2536SOL     OW 8506   1.086   0.217   0.855
 2536SOL    HW1 8507   1.025   0.268   0.915
 2536SOL    HW2 8508   1.050   0.125   0.840
 2537SOL     OW 8509   4.356   6.360   4.767
 2537SOL    HW1 8510   4.416   6.409   4.704
 2537SOL    HW2 8511   4.303   6.426   4.820
 2538SOL     OW 8512   5.733   3.837   3.683
 2538SOL    HW1 8513   5.828   3.810   3.672
 2538SOL    HW2 8514   5.726   3.937   3.675
 2539SOL     OW 8515   4.994   2.129   5.320
 2539SOL    HW1 8516   4.981   2.152   5.223
 2539SOL    HW2 8517   5.088   2.148   5.346
 2540SOL     OW 8518   2.597   2.323   1.639
 2540SOL    HW1 8519   2.533   2.249   1.623
 2540SOL    HW2 8520   2.599   2.346   1.737
 2541SOL     OW 8521   3.096   0.048   3.662
 2541SOL    HW1 8522   3.070   0.046   3.565
 2541SOL    HW2 8523   3.026   0.097   3.713
 2542SOL     OW 8524   2.248   5.914   5.602
 2542SOL    HW1 8525   2.163   5.957   5.571
 2542SOL    HW2 8526   2.326   5.961   5.560
 2543SOL     OW 8527   0.973   0.841   4.138
 2543SOL    HW1 8528   0.949   0.772   4.070
 2543SOL    HW2 8529   0.907   0.917   4.134
 2544SOL     OW 8530   0.588   5.472   6.083
 2544SOL    HW1 8531   0.675   5.467   6.033
 2544SOL    HW2 8532   0.595   5.540   6.156
 2545SOL     OW 8533   2.582   5.531   3.050
 2545SOL    HW1 8534   2.609   5.582   3.132
 2545SOL    HW2 8535   2.553   5.595   2.979
 2546SOL     OW 8536   6.825   0.767   1.775
 2546SOL    HW1 8537   6.921   0.755   1.749
 2546SOL    HW2 8538   6.774   0.684   1.752
 2547SOL     OW 8539   0.578   3.806   5.075
 2547SOL    HW1 8540   0.579   3.722   5.020
 2547SOL    HW2 8541   0.486   3.844   5.076
 2548SOL     OW 8542   0.272   0.846   6.250
 2548SOL    HW1 8543   0.247   0.891   6.335
 2548SOL    HW2 8544   0.278   0.914   6.176
 2549SOL     OW 8545   5.662   2.310   2.933
 2549SOL    HW1 8546   5.672   2.369   2.853
 2549SOL    HW2 8547   5.751   2.292   2.973
 2550SOL     OW 8548   5.487   5.260   6.778
 2550SOL    HW1 8549   5.538   5.327   6.724
 2550SOL    HW2 8550   5.440   5.307   6.854
 2551SOL     OW 8551   1.352   4.968   6.527
 2551SOL    HW1 8552   1.263   4.972   6.575
 2551SOL    HW2 8553   1.417   4.917   6.583
 2552SOL     OW 8554   1.581   5.627   3.390
 2552SOL    HW1 8555   1.559   5.579   3.305
 2552SOL    HW2 8556   1.636   5.567   3.448
 2553SOL     OW 8557   4.752   3.266   0.502
 2553SOL    HW1 8558   4.697   3.223   0.574
 2553SOL    HW2 8559   4.792   3.196   0.444
 2554SOL     OW 8560   0.993   1.738   0.814
 2554SOL    HW1 8561   1.078   1.685   0.817
 2554SOL    HW2 8562   0.929   1.696   0.749
 2555SOL     OW 8563   6.979   0.277   6.311
 2555SOL    HW1 8564   6.943   0.185   6.295
 2555SOL    HW2 8565   0.045   0.271   6.360
 2556SOL     OW 8566   4.020   4.957   0.342
 2556SOL    HW1 8567   4.011   4.958   0.442
 2556SOL    HW2 8568   4.074   4.878   0.314
 2557SOL     OW 8569   1.985   4.672   6.918
 2557SOL    HW1 8570   2.033   4.713   6.841
 2557SOL    HW2 8571   1.888   4.664   6.897
 2558SOL     OW 8572   4.135   0.503   5.462
 2558SOL    HW1 8573   4.106   0.459   5.377
 2558SOL    HW2 8574   4.131   0.602   5.451
 2559SOL     OW 8575   0.690   5.060   4.972
 2559SOL    HW1 8576   0.608   5.107   4.940
 2559SOL    HW2 8577   0.735   5.015   4.895
 2560SOL     OW 8578   6.083   0.935   0.814
 2560SOL    HW1 8579   6.162   0.982   0.853
 2560SOL    HW2 8580   6.010   0.929   0.883
 2561SOL     OW 8581   3.213   5.860   3.975
 2561SOL    HW1 8582   3.304   5.856   4.015
 2561SOL    HW2 8583   3.164   5.775   3.995
 2562SOL     OW 8584   2.040   3.702   0.334
 2562SOL    HW1 8585   1.982   3.699   0.253
 2562SOL    HW2 8586   2.001   3.644   0.405
 2563SOL     OW 8587   1.577   0.633   1.927
 2563SOL    HW1 8588   1.677   0.627   1.931
 2563SOL    HW2 8589   1.548   0.727   1.946
 2564SOL     OW 8590   1.404   5.945   2.329
 2564SOL    HW1 8591   1.481   5.928   2.268
 2564SOL    HW2 8592   1.380   6.042   2.325
 2565SOL     OW 8593   0.978   0.495   1.452
 2565SOL    HW1 8594   0.909   0.437   1.407
 2565SOL    HW2 8595   1.057   0.439   1.476
 2566SOL     OW 8596   2.263   6.767   5.096
 2566SOL    HW1 8597   2.272   6.769   5.196
 2566SOL    HW2 8598   2.179   6.720   5.071
 2567SOL     OW 8599   1.199   0.513   0.925
 2567SOL    HW1 8600   1.100   0.497   0.935
 2567SOL    HW2 8601   1.217   0.611   0.926
 2568SOL     OW 8602   5.549   3.629   0.716
 2568SOL    HW1 8603   5.530   3.676   0.802
 2568SOL    HW2 8604   5.552   3.695   0.641
 2569SOL     OW 8605   2.365   0.836   2.564
 2569SOL    HW1 8606   2.416   0.909   2.518
 2569SOL    HW2 8607   2.268   0.847   2.546
 2570SOL     OW 8608   5.603   2.550   6.307
 2570SOL    HW1 8609   5.670   2.527   6.377
 2570SOL    HW2 8610   5.649   2.590   6.228
 2571SOL     OW 8611   1.210   3.912   4.542
 2571SOL    HW1 8612   1.281   3.902   4.612
 2571SOL    HW2 8613   1.247   3.887   4.453
 2572SOL     OW 8614   1.566   4.864   3.526
 2572SOL    HW1 8615   1.600   4.814   3.446
 2572SOL    HW2 8616   1.609   4.954   3.529
 2573SOL     OW 8617   1.424   0.353   6.753
 2573SOL    HW1 8618   1.473   0.319   6.833
 2573SOL    HW2 8619   1.476   0.428   6.711
 2574SOL     OW 8620   6.140   3.675   0.518
 2574SOL    HW1 8621   6.101   3.740   0.453
 2574SOL    HW2 8622   6.224   3.712   0.557
 2575SOL     OW 8623   0.586   6.501   6.032
 2575SOL    HW1 8624   0.606   6.599   6.033
 2575SOL    HW2 8625   0.602   6.465   5.940
 2576SOL     OW 8626   4.710   6.684   5.502
 2576SOL    HW1 8627   4.714   6.595   5.456
 2576SOL    HW2 8628   4.754   6.677   5.591
 2577SOL     OW 8629   1.179   3.451   2.294
 2577SOL    HW1 8630   1.213   3.369   2.340
 2577SOL    HW2 8631   1.229   3.464   2.209
 2578SOL     OW 8632   4.436   2.002   2.056
 2578SOL    HW1 8633   4.465   1.964   1.968
 2578SOL    HW2 8634   4.438   2.101   2.052
 2579SOL     OW 8635   0.401   6.129   3.056
 2579SOL    HW1 8636   0.352   6.183   2.988
 2579SOL    HW2 8637   0.499   6.129   3.034
 2580SOL     OW 8638   3.102   2.263   5.522
 2580SOL    HW1 8639   3.102   2.194   5.449
 2580SOL    HW2 8640   3.078   2.352   5.483
 2581SOL     OW 8641   3.500   0.051   5.775
 2581SOL    HW1 8642   3.479   6.976   5.755
 2581SOL    HW2 8643   3.580   0.056   5.835
 2582SOL     OW 8644   6.951   3.750   0.844
 2582SOL    HW1 8645   7.003   3.738   0.758
 2582SOL    HW2 8646   6.876   3.814   0.828
 2583SOL     OW 8647   5.238   0.569   0.862
 2583SOL    HW1 8648   5.275   0.612   0.945
 2583SOL    HW2 8649   5.238   0.635   0.788
 2584SOL     OW 8650   3.586   4.203   6.645
 2584SOL    HW1 8651   3.661   4.159   6.693
 2584SOL    HW2 8652   3.612   4.296   6.619
 2585SOL     OW 8653   2.366   5.442   7.007
 2585SOL    HW1 8654   2.283   5.460   0.039
 2585SOL    HW2 8655   2.443   5.431   0.051
 2586SOL     OW 8656   2.005   1.138   3.214
 2586SOL    HW1 8657   1.998   1.237   3.196
 2586SOL    HW2 8658   1.979   1.088   3.132
 2587SOL     OW 8659   5.872   1.192   4.352
 2587SOL    HW1 8660   5.922   1.274   4.324
 2587SOL    HW2 8661   5.850   1.197   4.449
 2588SOL     OW 8662   4.403   1.448   6.798
 2588SOL    HW1 8663   4.316   1.476   6.839
 2588SOL    HW2 8664   4.440   1.371   6.849
 2589SOL     OW 8665   1.908   6.419   0.426
 2589SOL    HW1 8666   1.923   6.320   0.421
 2589SOL    HW2 8667   1.994   6.464   0.451
 2590SOL     OW 8668   2.446   5.038   0.515
 2590SOL    HW1 8669   2.428   5.095   0.596
 2590SOL    HW2 8670   2.392   4.954   0.521
 2591SOL     OW 8671   5.044   6.149   3.443
 2591SOL    HW1 8672   5.118   6.146   3.510
 2591SOL    HW2 8673   4.958   6.168   3.489
 2592SOL     OW 8674   3.415   3.681   0.784
 2592SOL    HW1 8675   3.514   3.673   0.796
 2592SOL    HW2 8676   3.369   3.654   0.869
 2593SOL     OW 8677   2.854   4.574   6.670
 2593SOL    HW1 8678   2.872   4.598   6.574
 2593SOL    HW2 8679   2.762   4.606   6.694
 2594SOL     OW 8680   2.266   2.855   3.410
 2594SOL    HW1 8681   2.281   2.771   3.462
 2594SOL    HW2 8682   2.237   2.832   3.317
 2595SOL     OW 8683   1.678   1.028   2.867
 2595SOL    HW1 8684   1.728   1.016   2.781
 2595SOL    HW2 8685   1.618   1.108   2.859
 2596SOL     OW 8686   0.108   1.176   0.948
 2596SOL    HW1 8687   0.071   1.084   0.957
 2596SOL    HW2 8688   0.175   1.179   0.874
 2597SOL     OW 8689   6.477   6.098   0.753
 2597SOL    HW1 8690   6.448   6.108   0.658
 2597SOL    HW2 8691   6.511   6.006   0.769
 2598SOL     OW 8692   4.842   2.954   2.264
 2598SOL    HW1 8693   4.923   3.011   2.266
 2598SOL    HW2 8694   4.804   2.953   2.171
 2599SOL     OW 8695   2.617   5.680   2.393
 2599SOL    HW1 8696   2.711   5.674   2.360
 2599SOL    HW2 8697   2.590   5.777   2.399
 2600SOL     OW 8698   5.528   5.096   4.398
 2600SOL    HW1 8699   5.557   5.128   4.489
 2600SOL    HW2 8700   5.526   5.173   4.335
 2601SOL     OW 8701   0.062   1.147   3.699
 2601SOL    HW1 8702   7.003   1.192   3.740
 2601SOL    HW2 8703   0.066   1.052   3.730
 2602SOL     OW 8704   1.126   4.559   2.922
 2602SOL    HW1 8705   1.225   4.567   2.935
 2602SOL    HW2 8706   1.108   4.489   2.852
 2603SOL     OW 8707   1.482   5.794   1.986
 2603SOL    HW1 8708   1.393   5.822   1.948
 2603SOL    HW2 8709   1.546   5.779   1.911
 2604SOL     OW 8710   5.104   3.067   3.135
 2604SOL    HW1 8711   5.007   3.062   3.113
 2604SOL    HW2 8712   5.126   3.000   3.206
 2605SOL     OW 8713   1.283   2.468   0.751
 2605SOL    HW1 8714   1.341   2.527   0.695
 2605SOL    HW2 8715   1.327   2.454   0.840
 2606SOL     OW 8716   5.161   3.634   0.614
 2606SOL    HW1 8717   5.247   3.674   0.582
 2606SOL    HW2 8718   5.142   3.666   0.707
 2607SOL     OW 8719   2.589   2.799   1.744
 2607SOL    HW1 8720   2.519   2.778   1.813
 2607SOL    HW2 8721   2.585   2.731   1.671
 2608SOL     OW 8722   3.451   4.967   4.637
 2608SOL    HW1 8723   3.390   4.947   4.714
 2608SOL    HW2 8724   3.446   5.065   4.616
 2609SOL     OW 8725   0.109   1.717   1.212
 2609SOL    HW1 8726   0.022   1.684   1.177
 2609SOL    HW2 8727   0.175   1.724   1.136
 2610SOL     OW 8728   1.478   4.629   4.852
 2610SOL    HW1 8729   1.434   4.561   4.793
 2610SOL    HW2 8730   1.542   4.584   4.913
 2611SOL     OW 8731   5.728   1.119   5.513
 2611SOL    HW1 8732   5.792   1.043   5.527
 2611SOL    HW2 8733   5.695   1.118   5.419
 2612SOL     OW 8734   6.732   6.605   0.322
 2612SOL    HW1 8735   6.765   6.700   0.324
 2612SOL    HW2 8736   6.810   6.543   0.314
 2613SOL     OW 8737   1.840   6.867   0.448
 2613SOL    HW1 8738   1.834   6.966   0.449
 2613SOL    HW2 8739   1.780   6.831   0.376
 2614SOL     OW 8740   5.770   2.411   1.122
 2614SOL    HW1 8741   5.861   2.449   1.138
 2614SOL    HW2 8742   5.776   2.312   1.110
 2615SOL     OW 8743   0.966   3.560   6.757
 2615SOL    HW1 8744   1.052   3.535   6.712
 2615SOL    HW2 8745   0.913   3.618   6.695
 2616SOL     OW 8746   1.267   1.138   4.801
 2616SOL    HW1 8747   1.295   1.224   4.758
 2616SOL    HW2 8748   1.347   1.090   4.835
 2617SOL     OW 8749   5.251   0.417   7.006
 2617SOL    HW1 8750   5.258   0.417   0.085
 2617SOL    HW2 8751   5.155   0.432   6.980
 2618SOL     OW 8752   1.487   0.907   0.191
 2618SOL    HW1 8753   1.527   0.997   0.213
 2618SOL    HW2 8754   1.463   0.860   0.276
 2619SOL     OW 8755   4.986   0.992   2.683
 2619SOL    HW1 8756   5.079   1.017   2.709
 2619SOL    HW2 8757   4.931   1.075   2.676
 2620SOL     OW 8758   5.771   2.466   2.375
 2620SOL    HW1 8759   5.723   2.476   2.461
 2620SOL    HW2 8760   5.831   2.545   2.360
 2621SOL     OW 8761   2.464   6.448   1.251
 2621SOL    HW1 8762   2.481   6.546   1.235
 2621SOL    HW2 8763   2.465   6.400   1.164
 2622SOL     OW 8764   2.631   3.796   6.449
 2622SOL    HW1 8765   2.557   3.746   6.492
 2622SOL    HW2 8766   2.639   3.768   6.353
 2623SOL     OW 8767   0.166   1.795   3.839
 2623SOL    HW1 8768   0.192   1.891   3.830
 2623SOL    HW2 8769   0.248   1.738   3.847
 2624SOL     OW 8770   1.611   2.075   5.688
 2624SOL    HW1 8771   1.633   2.102   5.595
 2624SOL    HW2 8772   1.557   2.147   5.732
 2625SOL     OW 8773   3.414   5.398   6.154
 2625SOL    HW1 8774   3.496   5.351   6.122
 2625SOL    HW2 8775   3.400   5.481   6.101
 2626SOL     OW 8776   6.942   6.850   0.341
 2626SOL    HW1 8777   0.019   6.830   0.352
 2626SOL    HW2 8778   6.924   6.878   0.247
 2627SOL     OW 8779   2.280   0.119   5.951
 2627SOL    HW1 8780   2.308   0.063   5.873
 2627SOL    HW2 8781   2.202   0.176   5.924
 2628SOL     OW 8782   6.876   5.388   1.190
 2628SOL    HW1 8783   6.958   5.360   1.241
 2628SOL    HW2 8784   6.810   5.313   1.188
 2629SOL     OW 8785   3.159   3.641   3.062
 2629SOL    HW1 8786   3.076   3.697   3.056
 2629SOL    HW2 8787   3.191   3.640   3.157
 2630SOL     OW 8788   3.372   0.844   4.695
 2630SOL    HW1 8789   3.400   0.922   4.752
 2630SOL    HW2 8790   3.309   0.876   4.625
 2631SOL     OW 8791   4.925   6.175   0.636
 2631SOL    HW1 8792   4.860   6.208   0.705
 2631SOL    HW2 8793   4.951   6.250   0.577
 2632SOL     OW 8794   4.514   5.247   1.758
 2632SOL    HW1 8795   4.537   5.281   1.849
 2632SOL    HW2 8796   4.432   5.189   1.764
 2633SOL     OW 8797   0.027   2.831   6.030
 2633SOL    HW1 8798   0.090   2.904   6.054
 2633SOL    HW2 8799   0.079   2.746   6.015
 2634SOL     OW 8800   1.952   2.120   6.230
 2634SOL    HW1 8801   1.974   2.098   6.135
 2634SOL    HW2 8802   1.910   2.211   6.235
 2635SOL     OW 8803   3.946   5.266   3.123
 2635SOL    HW1 8804   3.966   5.194   3.057
 2635SOL    HW2 8805   3.858   5.309   3.100
 2636SOL     OW 8806   3.104   6.735   6.355
 2636SOL    HW1 8807   3.125   6.805   6.286
 2636SOL    HW2 8808   3.182   6.674   6.366
 2637SOL     OW 8809   0.319   1.548   3.023
 2637SOL    HW1 8810   0.250   1.591   2.964
 2637SOL    HW2 8811   0.364   1.474   2.973
 2638SOL     OW 8812   0.670   6.304   4.988
 2638SOL    HW1 8813   0.705   6.367   5.058
 2638SOL    HW2 8814   0.733   6.303   4.911
 2639SOL     OW 8815   4.802   5.591   4.729
 2639SOL    HW1 8816   4.830   5.564   4.821
 2639SOL    HW2 8817   4.757   5.514   4.684
 2640SOL     OW 8818   2.318   1.080   3.298
 2640SOL    HW1 8819   2.353   1.124   3.215
 2640SOL    HW2 8820   2.219   1.090   3.302
 2641SOL     OW 8821   5.332   2.240   0.564
 2641SOL    HW1 8822   5.334   2.257   0.663
 2641SOL    HW2 8823   5.424   2.216   0.533
 2642SOL     OW 8824   0.244   0.280   2.593
 2642SOL    HW1 8825   0.269   0.377   2.589
 2642SOL    HW2 8826   0.154   0.270   2.637
 2643SOL     OW 8827   1.803   4.247   4.312
 2643SOL    HW1 8828   1.816   4.179   4.384
 2643SOL    HW2 8829   1.892   4.279   4.280
 2644SOL     OW 8830   5.654   5.341   3.348
 2644SOL    HW1 8831   5.723   5.347   3.420
 2644SOL    HW2 8832   5.700   5.331   3.260
 2645SOL     OW 8833   4.659   5.425   2.490
 2645SOL    HW1 8834   4.721   5.434   2.412
 2645SOL    HW2 8835   4.578   5.482   2.475
 2646SOL     OW 8836   0.935   1.869   6.381
 2646SOL    HW1 8837   0.969   1.957   6.415
 2646SOL    HW2 8838   0.838   1.860   6.404
 2647SOL     OW 8839   4.339   0.194   2.971
 2647SOL    HW1 8840   4.375   0.147   3.052
 2647SOL    HW2 8841   4.408   0.257   2.936
 2648SOL     OW 8842   1.886   0.475   5.853
 2648SOL    HW1 8843   1.812   0.408   5.847
 2648SOL    HW2 8844   1.852   0.560   5.893
 2649SOL     OW 8845   6.239   1.741   3.655
 2649SOL    HW1 8846   6.182   1.714   3.578
 2649SOL    HW2 8847   6.181   1.775   3.730
 2650SOL     OW 8848   2.010   6.842   4.751
 2650SOL    HW1 8849   1.965   6.786   4.681
 2650SOL    HW2 8850   1.988   6.939   4.735
 2651SOL     OW 8851   3.359   1.523   3.212
 2651SOL    HW1 8852   3.407   1.590   3.269
 2651SOL    HW2 8853   3.424   1.453   3.181
 2652SOL     OW 8854   4.661   3.512   5.729
 2652SOL    HW1 8855   4.580   3.571   5.720
 2652SOL    HW2 8856   4.632   3.418   5.745
 2653SOL     OW 8857   2.103   6.278   6.934
 2653SOL    HW1 8858   2.015   6.239   6.960
 2653SOL    HW2 8859   2.175   6.210   6.946
 2654SOL     OW 8860   6.511   0.594   0.831
 2654SOL    HW1 8861   6.515   0.535   0.751
 2654SOL    HW2 8862   6.450   0.554   0.899
 2655SOL     OW 8863   5.110   6.815   3.462
 2655SOL    HW1 8864   5.192   6.798   3.517
 2655SOL    HW2 8865   5.030   6.814   3.521
 2656SOL     OW 8866   4.561   6.933   4.989
 2656SOL    HW1 8867   4.585   6.836   4.991
 2656SOL    HW2 8868   4.471   6.945   4.948
 2657SOL     OW 8869   1.999   3.342   6.251
 2657SOL    HW1 8870   2.011   3.389   6.164
 2657SOL    HW2 8871   2.062   3.379   6.319
 2658SOL     OW 8872   3.738   4.419   0.440
 2658SOL    HW1 8873   3.686   4.412   0.525
 2658SOL    HW2 8874   3.725   4.336   0.386
 2659SOL     OW 8875   0.512   2.084   5.494
 2659SOL    HW1 8876   0.469   2.069   5.405
 2659SOL    HW2 8877   0.556   2.000   5.525
 2660SOL     OW 8878   1.404   1.460   0.616
 2660SOL    HW1 8879   1.393   1.550   0.657
 2660SOL    HW2 8880   1.325   1.440   0.557
 2661SOL     OW 8881   2.101   1.033   1.043
 2661SOL    HW1 8882   2.023   1.094   1.031
 2661SOL    HW2 8883   2.181   1.086   1.073
 2662SOL     OW 8884   2.499   1.686   1.482
 2662SOL    HW1 8885   2.562   1.611   1.462
 2662SOL    HW2 8886   2.550   1.772   1.486
 2663SOL     OW 8887   3.678   0.624   0.824
 2663SOL    HW1 8888   3.735   0.569   0.885
 2663SOL    HW2 8889   3.593   0.575   0.804
 2664SOL     OW 8890   5.097   3.561   5.740
 2664SOL    HW1 8891   5.186   3.604   5.755
 2664SOL    HW2 8892   5.107   3.462   5.737
 2665SOL     OW 8893   1.085   3.347   4.631
 2665SOL    HW1 8894   1.170   3.382   4.590
 2665SOL    HW2 8895   1.072   3.252   4.603
 2666SOL     OW 8896   1.916   3.965   1.914
 2666SOL    HW1 8897   1.866   3.966   1.828
 2666SOL    HW2 8898   1.857   4.002   1.987
 2667SOL     OW 8899   6.251   2.508   4.579
 2667SOL    HW1 8900   6.289   2.581   4.522
 2667SOL    HW2 8901   6.265   2.531   4.675
 2668SOL     OW 8902   5.450   0.786   4.526
 2668SOL    HW1 8903   5.398   0.744   4.451
 2668SOL    HW2 8904   5.492   0.871   4.493
 2669SOL     OW 8905   2.573   1.457   2.088
 2669SOL    HW1 8906   2.513   1.469   2.009
 2669SOL    HW2 8907   2.618   1.544   2.109
 2670SOL     OW 8908   0.488   0.427   1.306
 2670SOL    HW1 8909   0.529   0.482   1.379
 2670SOL    HW2 8910   0.454   0.341   1.344
 2671SOL     OW 8911   5.421   4.440   6.202
 2671SOL    HW1 8912   5.479   4.404   6.129
 2671SOL    HW2 8913   5.354   4.504   6.163
 2672SOL     OW 8914   1.971   1.628   2.530
 2672SOL    HW1 8915   2.007   1.608   2.438
 2672SOL    HW2 8916   1.961   1.542   2.580
 2673SOL     OW 8917   3.465   0.324   3.206
 2673SOL    HW1 8918   3.476   0.310   3.304
 2673SOL    HW2 8919   3.549   0.296   3.159
 2674SOL     OW 8920   6.069   5.835   3.493
 2674SOL    HW1 8921   6.071   5.739   3.465
 2674SOL    HW2 8922   6.012   5.887   3.429
 2675SOL     OW 8923   4.851   1.114   3.950
 2675SOL    HW1 8924   4.868   1.211   3.961
 2675SOL    HW2 8925   4.822   1.075   4.038
 2676SOL     OW 8926   4.005   3.400   5.396
 2676SOL    HW1 8927   4.088   3.455   5.394
 2676SOL    HW2 8928   4.009   3.329   5.326
 2677SOL     OW 8929   1.572   5.839   1.191
 2677SOL    HW1 8930   1.631   5.898   1.246
 2677SOL    HW2 8931   1.576   5.867   1.095
 2678SOL     OW 8932   3.618   1.938   1.933
 2678SOL    HW1 8933   3.661   2.026   1.952
 2678SOL    HW2 8934   3.595   1.892   2.019
 2679SOL     OW 8935   2.043   3.398   2.386
 2679SOL    HW1 8936   1.957   3.350   2.370
 2679SOL    HW2 8937   2.116   3.332   2.403
 2680SOL     OW 8938   6.015   2.522   6.491
 2680SOL    HW1 8939   5.928   2.501   6.534
 2680SOL    HW2 8940   6.004   2.524   6.392
 2681SOL     OW 8941   2.646   2.464   3.226
 2681SOL    HW1 8942   2.705   2.396   3.271
 2681SOL    HW2 8943   2.639   2.442   3.129
 2682SOL     OW 8944   3.504   4.058   2.624
 2682SOL    HW1 8945   3.416   4.023   2.592
 2682SOL    HW2 8946   3.505   4.157   2.615
 2683SOL     OW 8947   1.810   3.023   1.242
 2683SOL    HW1 8948   1.773   3.076   1.318
 2683SOL    HW2 8949   1.768   3.053   1.156
 2684SOL     OW 8950   5.495   0.697   3.666
 2684SOL    HW1 8951   5.472   0.708   3.570
 2684SOL    HW2 8952   5.513   0.787   3.707
 2685SOL     OW 8953   1.817   6.539   5.780
 2685SOL    HW1 8954   1.907   6.529   5.822
 2685SOL    HW2 8955   1.811   6.628   5.735
 2686SOL     OW 8956   2.266   2.339   6.057
 2686SOL    HW1 8957   2.209   2.418   6.034
 2686SOL    HW2 8958   2.361   2.368   6.064
 2687SOL     OW 8959   3.628   2.582   1.760
 2687SOL    HW1 8960   3.533   2.600   1.735
 2687SOL    HW2 8961   3.637   2.487   1.790
 2688SOL     OW 8962   4.208   2.023   0.107
 2688SOL    HW1 8963   4.222   2.016   0.206
 2688SOL    HW2 8964   4.160   1.941   0.075
 2689SOL     OW 8965   6.786   3.981   2.287
 2689SOL    HW1 8966   6.821   4.075   2.287
 2689SOL    HW2 8967   6.720   3.970   2.362
 2690SOL     OW 8968   5.101   0.955   4.298
 2690SOL    HW1 8969   5.014   0.998   4.325
 2690SOL    HW2 8970   5.173   0.984   4.360
 2691SOL     OW 8971   5.649   3.673   3.914
 2691SOL    HW1 8972   5.652   3.754   3.856
 2691SOL    HW2 8973   5.673   3.592   3.859
 2692SOL     OW 8974   1.663   5.000   1.245
 2692SOL    HW1 8975   1.705   5.029   1.331
 2692SOL    HW2 8976   1.570   4.967   1.262
 2693SOL     OW 8977   0.688   5.964   2.491
 2693SOL    HW1 8978   0.666   6.051   2.535
 2693SOL    HW2 8979   0.787   5.952   2.489
 2694SOL     OW 8980   2.390   0.304   2.622
 2694SOL    HW1 8981   2.478   0.313   2.668
 2694SOL    HW2 8982   2.377   0.210   2.592
 2695SOL     OW 8983   6.511   5.993   3.528
 2695SOL    HW1 8984   6.605   5.994   3.562
 2695SOL    HW2 8985   6.488   5.901   3.495
 2696SOL     OW 8986   3.762   4.482   6.246
 2696SOL    HW1 8987   3.807   4.406   6.293
 2696SOL    HW2 8988   3.801   4.569   6.277
 2697SOL     OW 8989   4.495   2.306   0.677
 2697SOL    HW1 8990   4.483   2.390   0.730
 2697SOL    HW2 8991   4.405   2.270   0.653
 2698SOL     OW 8992   1.571   5.575   0.386
 2698SOL    HW1 8993   1.590   5.477   0.386
 2698SOL    HW2 8994   1.656   5.626   0.370
 2699SOL     OW 8995   2.635   6.883   2.576
 2699SOL    HW1 8996   2.687   6.858   2.658
 2699SOL    HW2 8997   2.554   6.825   2.569
 2700SOL     OW 8998   4.582   2.043   1.817
 2700SOL    HW1 8999   4.537   1.994   1.742
 2700SOL    HW2 9000   4.668   1.997   1.840
 2701SOL     OW 9001   5.337   3.781   5.658
 2701SOL    HW1 9002   5.409   3.846   5.681
 2701SOL    HW2 9003   5.366   3.689   5.683
 2702SOL     OW 9004   1.760   2.016   4.874
 2702SOL    HW1 9005   1.768   2.014   4.973
 2702SOL    HW2 9006   1.713   2.099   4.845
 2703SOL     OW 9007   2.124   6.005   1.702
 2703SOL    HW1 9008   2.208   5.958   1.674
 2703SOL    HW2 9009   2.127   6.100   1.671
 2704SOL     OW 9010   4.457   0.985   3.558
 2704SOL    HW1 9011   4.363   0.959   3.581
 2704SOL    HW2 9012   4.517   0.906   3.569
 2705SOL     OW 9013   0.886   6.856   5.610
 2705SOL    HW1 9014   0.967   6.801   5.626
 2705SOL    HW2 9015   0.913   6.944   5.569
 2706SOL     OW 9016   0.346   4.569   4.479
 2706SOL    HW1 9017   0.414   4.634   4.515
 2706SOL    HW2 9018   0.391   4.481   4.462
 2707SOL     OW 9019   4.054   1.254   3.035
 2707SOL    HW1 9020   4.041   1.197   3.116
 2707SOL    HW2 9021   4.130   1.316   3.049
 2708SOL     OW 9022   5.863   3.160   5.424
 2708SOL    HW1 9023   5.770   3.130   5.405
 2708SOL    HW2 9024   5.882   3.243   5.372
 2709SOL     OW 9025   5.116   1.066   5.763
 2709SOL    HW1 9026   5.135   1.089   5.667
 2709SOL    HW2 9027   5.097   1.149   5.815
 2710SOL     OW 9028   1.142   2.893   4.177
 2710SOL    HW1 9029   1.188   2.944   4.250
 2710SOL    HW2 9030   1.068   2.949   4.140
 2711SOL     OW 9031   4.931   0.998   1.616
 2711SOL    HW1 9032   5.025   0.985   1.586
 2711SOL    HW2 9033   4.869   0.991   1.537
 2712SOL     OW 9034   4.997   6.399   1.947
 2712SOL    HW1 9035   5.052   6.321   1.916
 2712SOL    HW2 9036   5.052   6.483   1.940
 2713SOL     OW 9037   3.836   4.854   5.371
 2713SOL    HW1 9038   3.926   4.882   5.337
 2713SOL    HW2 9039   3.830   4.755   5.372
 2714SOL     OW 9040   2.751   4.753   5.981
 2714SOL    HW1 9041   2.695   4.674   6.006
 2714SOL    HW2 9042   2.779   4.802   6.064
 2715SOL     OW 9043   4.484   6.584   0.264
 2715SOL    HW1 9044   4.537   6.596   0.348
 2715SOL    HW2 9045   4.476   6.486   0.244
 2716SOL     OW 9046   4.911   1.181   2.127
 2716SOL    HW1 9047   5.002   1.164   2.088
 2716SOL    HW2 9048   4.901   1.132   2.213
 2717SOL     OW 9049   0.404   1.817   2.332
 2717SOL    HW1 9050   0.367   1.874   2.258
 2717SOL    HW2 9051   0.399   1.721   2.306
 2718SOL     OW 9052   6.541   1.378   6.079
 2718SOL    HW1 9053   6.555   1.310   6.007
 2718SOL    HW2 9054   6.452   1.422   6.065
 2719SOL     OW 9055   0.929   4.600   3.825
 2719SOL    HW1 9056   0.900   4.695   3.813
 2719SOL    HW2 9057   1.014   4.598   3.878
 2720SOL     OW 9058   2.024   5.341   6.379
 2720SOL    HW1 9059   2.064   5.427   6.348
 2720SOL    HW2 9060   1.937   5.326   6.332
 2721SOL     OW 9061   2.184   6.055   3.599
 2721SOL    HW1 9062   2.173   6.017   3.507
 2721SOL    HW2 9063   2.168   5.983   3.667
 2722SOL     OW 9064   3.364   4.067   6.530
 2722SOL    HW1 9065   3.449   4.104   6.568
 2722SOL    HW2 9066   3.290   4.132   6.545
 2723SOL     OW 9067   4.338   5.462   0.458
 2723SOL    HW1 9068   4.252   5.419   0.488
 2723SOL    HW2 9069   4.412   5.433   0.519
 2724SOL     OW 9070   6.832   6.190   0.866
 2724SOL    HW1 9071   6.893   6.224   0.795
 2724SOL    HW2 9072   6.800   6.098   0.842
 2725SOL     OW 9073   5.940   4.337   2.746
 2725SOL    HW1 9074   6.024   4.288   2.722
 2725SOL    HW2 9075   5.958   4.401   2.820
 2726SOL     OW 9076   6.581   2.788   2.767
 2726SOL    HW1 9077   6.652   2.853   2.742
 2726SOL    HW2 9078   6.497   2.809   2.717
 2727SOL     OW 9079   1.695   4.703   3.903
 2727SOL    HW1 9080   1.651   4.679   3.816
 2727SOL    HW2 9081   1.710   4.620   3.957
 2728SOL     OW 9082   4.952   4.999   6.032
 2728SOL    HW1 9083   4.916   5.071   5.973
 2728SOL    HW2 9084   4.894   4.990   6.112
 2729SOL     OW 9085   0.108   0.190   0.478
 2729SOL    HW1 9086   0.075   0.176   0.572
 2729SOL    HW2 9087   0.062   0.270   0.439
 2730SOL     OW 9088   1.437   5.209   2.983
 2730SOL    HW1 9089   1.391   5.261   3.055
 2730SOL    HW2 9090   1.536   5.222   2.991
 2731SOL     OW 9091   4.348   3.667   5.418
 2731SOL    HW1 9092   4.447   3.671   5.401
 2731SOL    HW2 9093   4.312   3.760   5.421
 2732SOL     OW 9094   4.408   0.887   2.360
 2732SOL    HW1 9095   4.416   0.827   2.439
 2732SOL    HW2 9096   4.497   0.927   2.339
 2733SOL     OW 9097   0.717   0.292   0.857
 2733SOL    HW1 9098   0.652   0.279   0.783
 2733SOL    HW2 9099   0.671   0.336   0.934
 2734SOL     OW 9100   3.088   0.265   1.667
 2734SOL    HW1 9101   3.128   0.271   1.758
 2734SOL    HW2 9102   3.108   0.176   1.627
 2735SOL     OW 9103   0.658   2.485   2.614
 2735SOL    HW1 9104   0.730   2.417   2.627
 2735SOL    HW2 9105   0.675   2.563   2.673
 2736SOL     OW 9106   5.554   4.427   2.484
 2736SOL    HW1 9107   5.547   4.386   2.393
 2736SOL    HW2 9108   5.474   4.402   2.538
 2737SOL     OW 9109   2.650   0.404   6.256
 2737SOL    HW1 9110   2.723   0.359   6.204
 2737SOL    HW2 9111   2.682   0.493   6.289
 2738SOL     OW 9112   5.485   6.422   1.446
 2738SOL    HW1 9113   5.430   6.451   1.525
 2738SOL    HW2 9114   5.432   6.433   1.362
 2739SOL     OW 9115   0.645   5.328   1.563
 2739SOL    HW1 9116   0.641   5.331   1.663
 2739SOL    HW2 9117   0.654   5.421   1.528
 2740SOL     OW 9118   6.771   5.751   5.373
 2740SOL    HW1 9119   6.780   5.678   5.306
 2740SOL    HW2 9120   6.685   5.742   5.422
 2741SOL     OW 9121   0.210   0.101   6.917
 2741SOL    HW1 9122   0.146   0.090   6.992
 2741SOL    HW2 9123   0.160   0.098   6.830
 2742SOL     OW 9124   2.615   4.950   2.218
 2742SOL    HW1 9125   2.534   4.921   2.168
 2742SOL    HW2 9126   2.684   4.878   2.215
 2743SOL     OW 9127   5.892   2.072   2.655
 2743SOL    HW1 9128   5.825   2.143   2.634
 2743SOL    HW2 9129   5.889   2.051   2.753
 2744SOL     OW 9130   2.945   3.638   2.766
 2744SOL    HW1 9131   2.909   3.649   2.858
 2744SOL    HW2 9132   2.884   3.578   2.713
 2745SOL     OW 9133   0.759   6.127   6.947
 2745SOL    HW1 9134   0.663   6.151   6.934
 2745SOL    HW2 9135   0.812   6.161   6.869
 2746SOL     OW 9136   1.497   0.823   4.585
 2746SOL    HW1 9137   1.528   0.904   4.535
 2746SOL    HW2 9138   1.528   0.741   4.537
 2747SOL     OW 9139   4.965   4.906   0.100
 2747SOL    HW1 9140   4.965   4.948   0.009
 2747SOL    HW2 9141   4.981   4.807   0.091
 2748SOL     OW 9142   3.986   0.046   0.431
 2748SOL    HW1 9143   4.033   0.070   0.347
 2748SOL    HW2 9144   4.038   0.079   0.510
 2749SOL     OW 9145   3.446   0.401   0.275
 2749SOL    HW1 9146   3.537   0.376   0.308
 2749SOL    HW2 9147   3.449   0.494   0.238
 2750SOL     OW 9148   1.949   6.388   1.955
 2750SOL    HW1 9149   2.024   6.447   1.985
 2750SOL    HW2 9150   1.889   6.369   2.033
 2751SOL     OW 9151   6.503   5.516   1.629
 2751SOL    HW1 9152   6.524   5.612   1.612
 2751SOL    HW2 9153   6.572   5.458   1.587
 2752SOL     OW 9154   4.368   5.116   6.299
 2752SOL    HW1 9155   4.415   5.088   6.382
 2752SOL    HW2 9156   4.271   5.094   6.306
 2753SOL     OW 9157   4.626   4.936   6.096
 2753SOL    HW1 9158   4.684   4.961   6.174
 2753SOL    HW2 9159   4.609   4.838   6.098
 2754SOL     OW 9160   1.257   0.769   4.916
 2754SOL    HW1 9161   1.237   0.859   4.878
 2754SOL    HW2 9162   1.352   0.745   4.898
 2755SOL     OW 9163   3.363   0.176   2.339
 2755SOL    HW1 9164   3.425   0.106   2.375
 2755SOL    HW2 9165   3.287   0.131   2.292
 2756SOL     OW 9166   4.726   5.186   6.457
 2756SOL    HW1 9167   4.680   5.251   6.397
 2756SOL    HW2 9168   4.796   5.234   6.511
 2757SOL     OW 9169   0.887   4.822   0.491
 2757SOL    HW1 9170   0.791   4.814   0.463
 2757SOL    HW2 9171   0.892   4.857   0.584
 2758SOL     OW 9172   4.577   0.060   5.962
 2758SOL    HW1 9173   4.633   0.039   5.882
 2758SOL    HW2 9174   4.490   0.010   5.957
 2759SOL     OW 9175   4.755   4.984   3.460
 2759SOL    HW1 9176   4.728   4.970   3.555
 2759SOL    HW2 9177   4.677   5.018   3.408
 2760SOL     OW 9178   0.777   6.085   3.500
 2760SOL    HW1 9179   0.817   6.172   3.469
 2760SOL    HW2 9180   0.769   6.085   3.600
 2761SOL     OW 9181   2.579   4.772   4.991
 2761SOL    HW1 9182   2.676   4.752   5.007
 2761SOL    HW2 9183   2.546   4.834   5.062
 2762SOL     OW 9184   1.944   2.264   5.959
 2762SOL    HW1 9185   2.040   2.240   5.973
 2762SOL    HW2 9186   1.901   2.198   5.897
 2763SOL     OW 9187   5.240   6.810   2.184
 2763SOL    HW1 9188   5.206   6.896   2.147
 2763SOL    HW2 9189   5.258   6.820   2.282
 2764SOL     OW 9190   6.116   0.671   1.642
 2764SOL    HW1 9191   6.043   0.666   1.711
 2764SOL    HW2 9192   6.193   0.724   1.679
 2765SOL     OW 9193   5.374   1.556   3.864
 2765SOL    HW1 9194   5.305   1.623   3.890
 2765SOL    HW2 9195   5.353   1.519   3.774
 2766SOL     OW 9196   5.776   6.773   2.385
 2766SOL    HW1 9197   5.795   6.866   2.418
 2766SOL    HW2 9198   5.842   6.748   2.315
 2767SOL     OW 9199   6.447   3.961   5.336
 2767SOL    HW1 9200   6.443   4.021   5.416
 2767SOL    HW2 9201   6.419   3.869   5.362
 2768SOL     OW 9202   5.756   0.647   6.722
 2768SOL    HW1 9203   5.822   0.602   6.783
 2768SOL    HW2 9204   5.700   0.578   6.677
 2769SOL     OW 9205   1.122   4.006   1.097
 2769SOL    HW1 9206   1.191   3.989   1.167
 2769SOL    HW2 9207   1.138   4.096   1.055
 2770SOL     OW 9208   4.837   6.191   2.278
 2770SOL    HW1 9209   4.821   6.288   2.263
 2770SOL    HW2 9210   4.765   6.138   2.234
 2771SOL     OW 9211   4.578   0.222   1.672
 2771SOL    HW1 9212   4.635   0.140   1.676
 2771SOL    HW2 9213   4.621   0.295   1.725
 2772SOL     OW 9214   3.438   0.915   0.104
 2772SOL    HW1 9215   3.478   0.853   0.171
 2772SOL    HW2 9216   3.373   0.977   0.150
 2773SOL     OW 9217   2.892   4.508   1.346
 2773SOL    HW1 9218   2.935   4.539   1.430
 2773SOL    HW2 9219   2.926   4.417   1.322
 2774SOL     OW 9220   4.949   3.128   1.933
 2774SOL    HW1 9221   4.971   3.211   1.984
 2774SOL    HW2 9222   4.872   3.082   1.978
 2775SOL     OW 9223   0.151   6.998   2.517
 2775SOL    HW1 9224   0.207   6.971   2.596
 2775SOL    HW2 9225   0.060   0.004   2.548
 2776SOL     OW 9226   3.133   6.016   0.175
 2776SOL    HW1 9227   3.115   5.987   0.081
 2776SOL    HW2 9228   3.227   6.050   0.182
 2777SOL     OW 9229   1.418   2.432   4.024
 2777SOL    HW1 9230   1.341   2.370   4.037
 2777SOL    HW2 9231   1.385   2.526   4.018
 2778SOL     OW 9232   3.161   2.092   5.288
 2778SOL    HW1 9233   3.184   2.176   5.239
 2778SOL    HW2 9234   3.222   2.018   5.259
 2779SOL     OW 9235   6.266   0.844   0.642
 2779SOL    HW1 9236   6.221   0.873   0.726
 2779SOL    HW2 9237   6.231   0.754   0.614
 2780SOL     OW 9238   3.395   5.984   6.533
 2780SOL    HW1 9239   3.373   5.967   6.629
 2780SOL    HW2 9240   3.449   6.068   6.527
 2781SOL     OW 9241   5.362   3.967   6.697
 2781SOL    HW1 9242   5.402   3.968   6.605
 2781SOL    HW2 9243   5.272   4.012   6.694
 2782SOL     OW 9244   3.699   0.774   5.353
 2782SOL    HW1 9245   3.731   0.736   5.440
 2782SOL    HW2 9246   3.600   0.769   5.349
 2783SOL     OW 9247   0.271   3.932   5.264
 2783SOL    HW1 9248   0.315   3.983   5.338
 2783SOL    HW2 9249   0.230   3.996   5.199
 2784SOL     OW 9250   2.674   1.922   1.501
 2784SOL    HW1 9251   2.683   1.968   1.413
 2784SOL    HW2 9252   2.755   1.940   1.557
 2785SOL     OW 9253   6.328   2.277   2.445
 2785SOL    HW1 9254   6.317   2.376   2.444
 2785SOL    HW2 9255   6.238   2.233   2.446
 2786SOL     OW 9256   3.877   0.321   1.361
 2786SOL    HW1 9257   3.854   0.411   1.396
 2786SOL    HW2 9258   3.801   0.258   1.376
 2787SOL     OW 9259   1.756   4.009   5.908
 2787SOL    HW1 9260   1.759   4.009   5.808
 2787SOL    HW2 9261   1.811   4.085   5.943
 2788SOL     OW 9262   1.189   2.974   0.493
 2788SOL    HW1 9263   1.236   2.939   0.574
 2788SOL    HW2 9264   1.215   2.920   0.413
 2789SOL     OW 9265   0.132   3.451   3.492
 2789SOL    HW1 9266   0.080   3.516   3.437
 2789SOL    HW2 9267   0.210   3.417   3.439
 2790SOL     OW 9268   3.890   6.302   4.478
 2790SOL    HW1 9269   3.803   6.335   4.512
 2790SOL    HW2 9270   3.948   6.380   4.453
 2791SOL     OW 9271   1.785   3.291   2.310
 2791SOL    HW1 9272   1.737   3.227   2.250
 2791SOL    HW2 9273   1.803   3.248   2.398
 2792SOL     OW 9274   0.459   1.780   5.971
 2792SOL    HW1 9275   0.435   1.745   5.880
 2792SOL    HW2 9276   0.558   1.779   5.982
 2793SOL     OW 9277   4.486   0.478   4.294
 2793SOL    HW1 9278   4.474   0.563   4.241
 2793SOL    HW2 9279   4.453   0.400   4.240
 2794SOL     OW 9280   0.990   1.549   1.845
 2794SOL    HW1 9281   0.899   1.532   1.883
 2794SOL    HW2 9282   0.984   1.617   1.772
 2795SOL     OW 9283   0.665   3.723   0.750
 2795SOL    HW1 9284   0.699   3.677   0.832
 2795SOL    HW2 9285   0.568   3.744   0.761
 2796SOL     OW 9286   4.122   4.762   1.935
 2796SOL    HW1 9287   4.140   4.701   1.858
 2796SOL    HW2 9288   4.205   4.815   1.955
 2797SOL     OW 9289   4.643   4.279   5.304
 2797SOL    HW1 9290   4.729   4.268   5.354
 2797SOL    HW2 9291   4.590   4.194   5.310
 2798SOL     OW 9292   2.178   3.641   3.241
 2798SOL    HW1 9293   2.150   3.634   3.145
 2798SOL    HW2 9294   2.256   3.581   3.258
 2799SOL     OW 9295   6.689   5.765   5.794
 2799SOL    HW1 9296   6.648   5.750   5.884
 2799SOL    HW2 9297   6.743   5.850   5.795
 2800SOL     OW 9298   2.667   0.738   6.301
 2800SOL    HW1 9299   2.642   0.769   6.393
 2800SOL    HW2 9300   2.614   0.788   6.233
 2801SOL     OW 9301   3.923   5.213   2.055
 2801SOL    HW1 9302   3.865   5.291   2.031
 2801SOL    HW2 9303   3.883   5.129   2.017
 2802SOL     OW 9304   6.477   0.130   6.395
 2802SOL    HW1 9305   6.505   0.104   6.487
 2802SOL    HW2 9306   6.399   0.193   6.400
 2803SOL     OW 9307   2.811   6.121   4.793
 2803SOL    HW1 9308   2.784   6.099   4.887
 2803SOL    HW2 9309   2.818   6.037   4.739
 2804SOL     OW 9310   0.674   5.080   2.525
 2804SOL    HW1 9311   0.773   5.085   2.510
 2804SOL    HW2 9312   0.634   5.171   2.513
 2805SOL     OW 9313   6.732   3.967   6.668
 2805SOL    HW1 9314   6.775   4.020   6.741
 2805SOL    HW2 9315   6.803   3.921   6.614
 2806SOL     OW 9316   6.170   5.131   2.897
 2806SOL    HW1 9317   6.189   5.219   2.853
 2806SOL    HW2 9318   6.151   5.063   2.827
 2807SOL     OW 9319   3.771   4.958   3.301
 2807SOL    HW1 9320   3.783   4.896   3.224
 2807SOL    HW2 9321   3.780   5.053   3.270
 2808SOL     OW 9322   4.922   6.523   4.621
 2808SOL    HW1 9323   5.001   6.536   4.681
 2808SOL    HW2 9324   4.890   6.429   4.627
 2809SOL     OW 9325   5.244   2.272   0.128
 2809SOL    HW1 9326   5.309   2.196   0.132
 2809SOL    HW2 9327   5.184   2.268   0.208
 2810SOL     OW 9328   2.448   1.082   6.413
 2810SOL    HW1 9329   2.520   1.037   6.361
 2810SOL    HW2 9330   2.445   1.179   6.390
 2811SOL     OW 9331   0.304   0.623   3.998
 2811SOL    HW1 9332   0.388   0.672   3.975
 2811SOL    HW2 9333   0.326   0.546   4.059
 2812SOL     OW 9334   4.761   4.587   2.825
 2812SOL    HW1 9335   4.699   4.628   2.758
 2812SOL    HW2 9336   4.710   4.525   2.884
 2813SOL     OW 9337   6.366   1.756   6.026
 2813SOL    HW1 9338   6.461   1.785   6.010
 2813SOL    HW2 9339   6.313   1.833   6.061
 2814SOL     OW 9340   5.413   4.601   5.153
 2814SOL    HW1 9341   5.507   4.566   5.162
 2814SOL    HW2 9342   5.414   4.683   5.095
 2815SOL     OW 9343   1.466   1.152   3.835
 2815SOL    HW1 9344   1.510   1.070   3.797
 2815SOL    HW2 9345   1.374   1.162   3.796
 2816SOL     OW 9346   4.240   6.075   3.316
 2816SOL    HW1 9347   4.316   6.011   3.328
 2816SOL    HW2 9348   4.228   6.095   3.219
 2817SOL     OW 9349   1.194   1.543   1.216
 2817SOL    HW1 9350   1.177   1.482   1.293
 2817SOL    HW2 9351   1.293   1.554   1.204
 2818SOL     OW 9352   1.366   2.390   6.804
 2818SOL    HW1 9353   1.435   2.434   6.746
 2818SOL    HW2 9354   1.408   2.361   6.890
 2819SOL     OW 9355   6.539   3.304   1.562
 2819SOL    HW1 9356   6.532   3.214   1.605
 2819SOL    HW2 9357   6.620   3.307   1.504
 2820SOL     OW 9358   4.978   3.226   4.032
 2820SOL    HW1 9359   5.000   3.323   4.041
 2820SOL    HW2 9360   5.020   3.175   4.107
 2821SOL     OW 9361   1.260   3.214   2.818
 2821SOL    HW1 9362   1.357   3.196   2.802
 2821SOL    HW2 9363   1.237   3.305   2.784
 2822SOL     OW 9364   3.028   2.574   0.423
 2822SOL    HW1 9365   3.068   2.494   0.468
 2822SOL    HW2 9366   3.101   2.639   0.400
 2823SOL     OW 9367   1.194   0.054   4.149
 2823SOL    HW1 9368   1.229   7.005   4.084
 2823SOL    HW2 9369   1.268   0.115   4.176
 2824SOL     OW 9370   3.395   2.157   6.235
 2824SOL    HW1 9371   3.388   2.256   6.249
 2824SOL    HW2 9372   3.411   2.113   6.324
 2825SOL     OW 9373   5.621   5.615   1.122
 2825SOL    HW1 9374   5.603   5.664   1.207
 2825SOL    HW2 9375   5.720   5.601   1.112
 2826SOL     OW 9376   4.864   3.753   4.432
 2826SOL    HW1 9377   4.920   3.750   4.349
 2826SOL    HW2 9378   4.862   3.663   4.474
 2827SOL     OW 9379   0.087   6.867   5.963
 2827SOL    HW1 9380   0.043   6.898   5.879
 2827SOL    HW2 9381   0.120   6.946   6.014
 2828SOL     OW 9382   3.174   2.007   6.395
 2828SOL    HW1 9383   3.197   2.049   6.308
 2828SOL    HW2 9384   3.075   1.995   6.402
 2829SOL     OW 9385   2.761   1.388   6.760
 2829SOL    HW1 9386   2.740   1.294   6.787
 2829SOL    HW2 9387   2.851   1.391   6.717
 2830SOL     OW 9388   3.290   3.733   6.939
 2830SOL    HW1 9389   3.290   3.813   6.879
 2830SOL    HW2 9390   3.196   3.708   6.961
 2831SOL     OW 9391   6.589   6.635   3.923
 2831SOL    HW1 9392   6.491   6.643   3.944
 2831SOL    HW2 9393   6.636   6.593   4.000
 2832SOL     OW 9394   0.281   0.721   2.181
 2832SOL    HW1 9395   0.360   0.659   2.178
 2832SOL    HW2 9396   0.212   0.685   2.244
 2833SOL     OW 9397   6.082   3.364   2.638
 2833SOL    HW1 9398   6.082   3.285   2.576
 2833SOL    HW2 9399   6.050   3.445   2.589
 2834SOL     OW 9400   4.411   0.774   5.217
 2834SOL    HW1 9401   4.390   0.724   5.300
 2834SOL    HW2 9402   4.339   0.760   5.150
 2835SOL     OW 9403   6.185   6.299   3.270
 2835SOL    HW1 9404   6.161   6.392   3.298
 2835SOL    HW2 9405   6.275   6.276   3.307
 2836SOL     OW 9406   6.359   6.991   1.121
 2836SOL    HW1 9407   6.295   6.934   1.070
 2836SOL    HW2 9408   6.319   7.014   1.210
 2837SOL     OW 9409   5.981   2.640   4.180
 2837SOL    HW1 9410   6.067   2.596   4.156
 2837SOL    HW2 9411   5.985   2.737   4.158
 2838SOL     OW 9412   2.048   4.734   4.335
 2838SOL    HW1 9413   1.967   4.677   4.325
 2838SOL    HW2 9414   2.128   4.677   4.353
 2839SOL     OW 9415   5.086   3.044   0.628
 2839SOL    HW1 9416   5.174   3.079   0.661
 2839SOL    HW2 9417   5.087   3.043   0.528
 2840SOL     OW 9418   0.055   2.678   4.790
 2840SOL    HW1 9419   0.113   2.710   4.865
 2840SOL    HW2 9420   0.062   2.578   4.783
 2841SOL     OW 9421   0.005   5.900   0.058
 2841SOL    HW1 9422   7.017   5.986   0.008
 2841SOL    HW2 9423   0.061   5.836   0.004
 2842SOL     OW 9424   6.116   3.539   2.860
 2842SOL    HW1 9425   6.109   3.481   2.779
 2842SOL    HW2 9426   6.037   3.600   2.864
 2843SOL     OW 9427   4.122   0.940   3.612
 2843SOL    HW1 9428   4.059   0.938   3.689
 2843SOL    HW2 9429   4.155   1.033   3.597
 2844SOL     OW 9430   1.599   4.183   5.134
 2844SOL    HW1 9431   1.514   4.206   5.088
 2844SOL    HW2 9432   1.593   4.091   5.174
 2845SOL     OW 9433   0.465   3.967   6.281
 2845SOL    HW1 9434   0.434   3.920   6.364
 2845SOL    HW2 9435   0.391   3.966   6.213
 2846SOL     OW 9436   5.287   1.114   6.204
 2846SOL    HW1 9437   5.307   1.058   6.285
 2846SOL    HW2 9438   5.367   1.171   6.183
 2847SOL     OW 9439   4.011   4.898   4.277
 2847SOL    HW1 9440   4.068   4.979   4.287
 2847SOL    HW2 9441   3.957   4.884   4.361
 2848SOL     OW 9442   2.387   0.020   5.728
 2848SOL    HW1 9443   2.399   6.950   5.687
 2848SOL    HW2 9444   2.391   0.090   5.657
 2849SOL     OW 9445   1.915   2.598   1.491
 2849SOL    HW1 9446   1.980   2.554   1.553
 2849SOL    HW2 9447   1.851   2.530   1.456
 2850SOL     OW 9448   4.150   1.446   0.881
 2850SOL    HW1 9449   4.210   1.524   0.900
 2850SOL    HW2 9450   4.122   1.405   0.968
 2851SOL     OW 9451   2.886   5.607   5.392
 2851SOL    HW1 9452   2.866   5.662   5.311
 2851SOL    HW2 9453   2.976   5.563   5.381
 2852SOL     OW 9454   0.093   2.263   6.431
 2852SOL    HW1 9455   0.182   2.221   6.410
 2852SOL    HW2 9456   0.047   2.209   6.501
 2853SOL     OW 9457   3.882   2.884   1.496
 2853SOL    HW1 9458   3.833   2.837   1.569
 2853SOL    HW2 9459   3.854   2.980   1.494
 2854SOL     OW 9460   0.651   0.776   3.696
 2854SOL    HW1 9461   0.696   0.828   3.624
 2854SOL    HW2 9462   0.558   0.808   3.709
 2855SOL     OW 9463   3.370   1.786   4.238
 2855SOL    HW1 9464   3.426   1.867   4.224
 2855SOL    HW2 9465   3.281   1.799   4.195
 2856SOL     OW 9466   3.187   1.393   5.787
 2856SOL    HW1 9467   3.096   1.431   5.806
 2856SOL    HW2 9468   3.222   1.347   5.868
 2857SOL     OW 9469   3.833   2.934   4.180
 2857SOL    HW1 9470   3.780   2.886   4.111
 2857SOL    HW2 9471   3.810   2.899   4.271
 2858SOL     OW 9472   5.288   2.817   2.992
 2858SOL    HW1 9473   5.314   2.911   2.969
 2858SOL    HW2 9474   5.193   2.801   2.965
 2859SOL     OW 9475   5.585   5.502   6.714
 2859SOL    HW1 9476   5.601   5.586   6.663
 2859SOL    HW2 9477   5.669   5.475   6.761
 2860SOL     OW 9478   4.605   2.616   1.025
 2860SOL    HW1 9479   4.641   2.532   1.067
 2860SOL    HW2 9480   4.680   2.672   0.991
 2861SOL     OW 9481   4.438   4.531   5.986
 2861SOL    HW1 9482   4.378   4.483   6.050
 2861SOL    HW2 9483   4.430   4.490   5.895
 2862SOL     OW 9484   6.550   6.868   3.619
 2862SOL    HW1 9485   6.636   6.855   3.669
 2862SOL    HW2 9486   6.537   6.792   3.556
 2863SOL     OW 9487   5.929   0.288   0.146
 2863SOL    HW1 9488   5.878   0.286   0.060
 2863SOL    HW2 9489   6.015   0.238   0.135
 2864SOL     OW 9490   4.220   2.175   0.915
 2864SOL    HW1 9491   4.140   2.145   0.862
 2864SOL    HW2 9492   4.190   2.238   0.988
 2865SOL     OW 9493   4.715   4.964   5.087
 2865SOL    HW1 9494   4.720   4.865   5.076
 2865SOL    HW2 9495   4.697   5.008   4.999
 2866SOL     OW 9496   0.261   6.987   6.449
 2866SOL    HW1 9497   0.220   0.058   6.455
 2866SOL    HW2 9498   0.258   6.944   6.539
 2867SOL     OW 9499   6.359   4.049   4.663
 2867SOL    HW1 9500   6.271   4.008   4.640
 2867SOL    HW2 9501   6.344   4.136   4.710
 2868SOL     OW 9502   1.899   4.615   5.009
 2868SOL    HW1 9503   1.979   4.574   5.053
 2868SOL    HW2 9504   1.925   4.646   4.917
 2869SOL     OW 9505   6.017   1.383   2.214
 2869SOL    HW1 9506   6.050   1.403   2.121
 2869SOL    HW2 9507   6.019   1.285   2.230
 2870SOL     OW 9508   4.406   2.231   1.917
 2870SOL    HW1 9509   4.463   2.312   1.927
 2870SOL    HW2 9510   4.454   2.163   1.862
 2871SOL     OW 9511   1.280   1.705   5.895
 2871SOL    HW1 9512   1.226   1.655   5.827
 2871SOL    HW2 9513   1.349   1.760   5.850
 2872SOL     OW 9514   1.725   0.352   3.753
 2872SOL    HW1 9515   1.731   0.413   3.832
 2872SOL    HW2 9516   1.799   0.373   3.689
 2873SOL     OW 9517   6.345   5.612   2.327
 2873SOL    HW1 9518   6.324   5.616   2.229
 2873SOL    HW2 9519   6.274   5.560   2.374
 2874SOL     OW 9520   4.876   2.263   1.881
 2874SOL    HW1 9521   4.941   2.321   1.930
 2874SOL    HW2 9522   4.794   2.250   1.937
 2875SOL     OW 9523   3.174   4.617   0.624
 2875SOL    HW1 9524   3.085   4.571   0.624
 2875SOL    HW2 9525   3.208   4.625   0.718
 2876SOL     OW 9526   5.808   2.278   2.041
 2876SOL    HW1 9527   5.826   2.356   1.981
 2876SOL    HW2 9528   5.871   2.204   2.019
 2877SOL     OW 9529   1.268   3.682   5.543
 2877SOL    HW1 9530   1.280   3.771   5.588
 2877SOL    HW2 9531   1.239   3.614   5.611
 2878SOL     OW 9532   4.651   4.921   0.190
 2878SOL    HW1 9533   4.738   4.873   0.178
 2878SOL    HW2 9534   4.637   4.985   0.115
 2879SOL     OW 9535   5.103   4.513   6.806
 2879SOL    HW1 9536   5.050   4.429   6.790
 2879SOL    HW2 9537   5.103   4.569   6.723
 2880SOL     OW 9538   1.919   6.394   3.263
 2880SOL    HW1 9539   1.870   6.328   3.207
 2880SOL    HW2 9540   1.994   6.348   3.311
 2881SOL     OW 9541   6.850   0.231   6.910
 2881SOL    HW1 9542   6.896   0.202   6.994
 2881SOL    HW2 9543   6.774   0.169   6.890
 2882SOL     OW 9544   6.695   3.768   3.327
 2882SOL    HW1 9545   6.701   3.722   3.416
 2882SOL    HW2 9546   6.781   3.815   3.307
 2883SOL     OW 9547   3.494   6.699   2.287
 2883SOL    HW1 9548   3.398   6.714   2.263
 2883SOL    HW2 9549   3.551   6.770   2.246
 2884SOL     OW 9550   2.058   4.956   3.307
 2884SOL    HW1 9551   2.121   4.929   3.235
 2884SOL    HW2 9552   2.072   5.053   3.329
 2885SOL     OW 9553   1.081   1.882   4.702
 2885SOL    HW1 9554   1.114   1.842   4.617
 2885SOL    HW2 9555   1.116   1.976   4.711
 2886SOL     OW 9556   2.388   2.676   6.135
 2886SOL    HW1 9557   2.439   2.622   6.202
 2886SOL    HW2 9558   2.382   2.625   6.049
 2887SOL     OW 9559   2.592   1.085   5.218
 2887SOL    HW1 9560   2.683   1.119   5.242
 2887SOL    HW2 9561   2.546   1.152   5.159
 2888SOL     OW 9562   6.949   5.797   6.563
 2888SOL    HW1 9563   6.994   5.816   6.476
 2888SOL    HW2 9564   6.953   5.698   6.582
 2889SOL     OW 9565   1.220   0.781   0.898
 2889SOL    HW1 9566   1.309   0.768   0.855
 2889SOL    HW2 9567   1.212   0.875   0.932
 2890SOL     OW 9568   2.359   0.376   0.871
 2890SOL    HW1 9569   2.352   0.286   0.829
 2890SOL    HW2 9570   2.373   0.445   0.799
 2891SOL     OW 9571   3.053   4.836   5.039
 2891SOL    HW1 9572   2.983   4.767   5.021
 2891SOL    HW2 9573   3.127   4.795   5.092
 2892SOL     OW 9574   4.216   3.924   5.373
 2892SOL    HW1 9575   4.252   4.015   5.354
 2892SOL    HW2 9576   4.142   3.903   5.309
 2893SOL     OW 9577   3.146   0.622   4.897
 2893SOL    HW1 9578   3.245   0.629   4.888
 2893SOL    HW2 9579   3.105   0.713   4.888
 2894SOL     OW 9580   4.193   3.195   1.822
 2894SOL    HW1 9581   4.261   3.258   1.858
 2894SOL    HW2 9582   4.235   3.136   1.753
 2895SOL     OW 9583   3.730   2.803   0.382
 2895SOL    HW1 9584   3.749   2.803   0.283
 2895SOL    HW2 9585   3.641   2.761   0.398
 2896SOL     OW 9586   1.479   4.514   0.362
 2896SOL    HW1 9587   1.435   4.425   0.353
 2896SOL    HW2 9588   1.569   4.511   0.320
 2897SOL     OW 9589   0.573   6.807   3.465
 2897SOL    HW1 9590   0.571   6.903   3.435
 2897SOL    HW2 9591   0.513   6.752   3.408
 2898SOL     OW 9592   1.721   5.083   2.658
 2898SOL    HW1 9593   1.664   5.160   2.627
 2898SOL    HW2 9594   1.668   4.998   2.652
 2899SOL     OW 9595   5.533   0.749   0.963
 2899SOL    HW1 9596   5.541   0.711   1.055
 2899SOL    HW2 9597   5.598   0.704   0.903
 2900SOL     OW 9598   2.769   5.492   6.210
 2900SOL    HW1 9599   2.825   5.545   6.146
 2900SOL    HW2 9600   2.828   5.439   6.270
 2901SOL     OW 9601   2.887   6.513   1.350
 2901SOL    HW1 9602   2.916   6.598   1.307
 2901SOL    HW2 9603   2.883   6.440   1.281
 2902SOL     OW 9604   4.867   5.444   0.939
 2902SOL    HW1 9605   4.900   5.439   1.033
 2902SOL    HW2 9606   4.802   5.519   0.930
 2903SOL     OW 9607   2.924   2.514   1.633
 2903SOL    HW1 9608   2.882   2.500   1.723
 2903SOL    HW2 9609   3.020   2.487   1.637
 2904SOL     OW 9610   2.977   1.943   4.325
 2904SOL    HW1 9611   3.036   1.902   4.394
 2904SOL    HW2 9612   2.886   1.902   4.330
 2905SOL     OW 9613   0.781   2.167   2.102
 2905SOL    HW1 9614   0.683   2.153   2.117
 2905SOL    HW2 9615   0.818   2.225   2.175
 2906SOL     OW 9616   5.244   4.942   2.416
 2906SOL    HW1 9617   5.232   4.875   2.488
 2906SOL    HW2 9618   5.160   4.947   2.361
 2907SOL     OW 9619   5.766   0.544   4.941
 2907SOL    HW1 9620   5.737   0.553   4.846
 2907SOL    HW2 9621   5.813   0.457   4.953
 2908SOL     OW 9622   4.087   5.899   4.815
 2908SOL    HW1 9623   4.148   5.975   4.793
 2908SOL    HW2 9624   4.015   5.894   4.746
 2909SOL     OW 9625   2.277   6.123   5.872
 2909SOL    HW1 9626   2.309   6.038   5.913
 2909SOL    HW2 9627   2.330   6.142   5.789
 2910SOL     OW 9628   4.126   5.465   5.358
 2910SOL    HW1 9629   4.119   5.563   5.378
 2910SOL    HW2 9630   4.163   5.417   5.438
 2911SOL     OW 9631   2.442   4.373   3.276
 2911SOL    HW1 9632   2.493   4.373   3.190
 2911SOL    HW2 9633   2.381   4.293   3.278
 2912SOL     OW 9634   2.977   5.103   1.626
 2912SOL    HW1 9635   2.986   5.108   1.725
 2912SOL    HW2 9636   2.939   5.014   1.601
 2913SOL     OW 9637   0.362   2.822   1.348
 2913SOL    HW1 9638   0.405   2.733   1.360
 2913SOL    HW2 9639   0.379   2.855   1.255
 2914SOL     OW 9640   4.989   4.421   6.275
 2914SOL    HW1 9641   5.051   4.488   6.315
 2914SOL    HW2 9642   4.999   4.333   6.322
 2915SOL     OW 9643   4.772   1.257   2.947
 2915SOL    HW1 9644   4.775   1.169   2.995
 2915SOL    HW2 9645   4.697   1.256   2.880
 2916SOL     OW 9646   4.940   0.169   4.489
 2916SOL    HW1 9647   4.842   0.169   4.510
 2916SOL    HW2 9648   4.962   0.090   4.433
 2917SOL     OW 9649   4.006   0.142   2.373
 2917SOL    HW1 9650   4.026   0.143   2.275
 2917SOL    HW2 9651   4.075   0.089   2.421
 2918SOL     OW 9652   1.218   2.951   4.626
 2918SOL    HW1 9653   1.173   2.870   4.664
 2918SOL    HW2 9654   1.163   2.987   4.551
 2919SOL     OW 9655   5.574   5.730   6.984
 2919SOL    HW1 9656   5.642   5.663   7.012
 2919SOL    HW2 9657   5.492   5.719   0.020
 2920SOL     OW 9658   4.787   1.140   2.600
 2920SOL    HW1 9659   4.703   1.093   2.629
 2920SOL    HW2 9660   4.767   1.236   2.583
 2921SOL     OW 9661   6.348   1.478   0.562
 2921SOL    HW1 9662   6.259   1.515   0.589
 2921SOL    HW2 9663   6.407   1.472   0.642
 2922SOL     OW 9664   4.544   0.201   4.781
 2922SOL    HW1 9665   4.601   0.202   4.699
 2922SOL    HW2 9666   4.460   0.253   4.764
 2923SOL     OW 9667   0.455   4.482   6.837
 2923SOL    HW1 9668   0.383   4.455   6.901
 2923SOL    HW2 9669   0.423   4.467   6.744
 2924SOL     OW 9670   6.489   0.036   6.138
 2924SOL    HW1 9671   6.490   0.069   6.233
 2924SOL    HW2 9672   6.560   0.083   6.086
 2925SOL     OW 9673   6.399   4.507   0.191
 2925SOL    HW1 9674   6.406   4.431   0.256
 2925SOL    HW2 9675   6.472   4.501   0.124
 2926SOL     OW 9676   0.028   1.345   2.785
 2926SOL    HW1 9677   6.968   1.312   2.736
 2926SOL    HW2 9678   7.020   1.386   2.872
 2927SOL     OW 9679   6.871   3.622   2.761
 2927SOL    HW1 9680   6.929   3.576   2.692
 2927SOL    HW2 9681   6.776   3.593   2.749
 2928SOL     OW 9682   5.562   5.946   0.891
 2928SOL    HW1 9683   5.657   5.938   0.861
 2928SOL    HW2 9684   5.502   5.947   0.811
 2929SOL     OW 9685   0.599   0.341   5.184
 2929SOL    HW1 9686   0.635   0.388   5.104
 2929SOL    HW2 9687   0.672   0.328   5.251
 2930SOL     OW 9688   2.626   0.541   3.959
 2930SOL    HW1 9689   2.649   0.573   4.050
 2930SOL    HW2 9690   2.707   0.547   3.900
 2931SOL     OW 9691   4.493   4.789   6.407
 2931SOL    HW1 9692   4.470   4.886   6.401
 2931SOL    HW2 9693   4.440   4.747   6.481
 2932SOL     OW 9694   1.031   4.583   1.550
 2932SOL    HW1 9695   1.117   4.540   1.521
 2932SOL    HW2 9696   0.987   4.526   1.619
 2933SOL     OW 9697   4.789   2.188   3.550
 2933SOL    HW1 9698   4.835   2.158   3.466
 2933SOL    HW2 9699   4.691   2.196   3.533
 2934SOL     OW 9700   2.068   1.376   1.117
 2934SOL    HW1 9701   2.009   1.354   1.039
 2934SOL    HW2 9702   2.022   1.349   1.202
 2935SOL     OW 9703   6.829   0.930   1.142
 2935SOL    HW1 9704   6.781   0.863   1.199
 2935SOL    HW2 9705   6.820   1.021   1.183
 2936SOL     OW 9706   3.756   4.947   1.137
 2936SOL    HW1 9707   3.821   5.016   1.170
 2936SOL    HW2 9708   3.800   4.892   1.066
 2937SOL     OW 9709   2.749   4.213   0.080
 2937SOL    HW1 9710   2.732   4.223   0.178
 2937SOL    HW2 9711   2.683   4.148   0.041
 2938SOL     OW 9712   4.228   4.856   6.896
 2938SOL    HW1 9713   4.232   4.785   6.966
 2938SOL    HW2 9714   4.138   4.899   6.898
 2939SOL     OW 9715   6.950   6.570   5.969
 2939SOL    HW1 9716   6.980   6.647   5.913
 2939SOL    HW2 9717   7.010   6.492   5.955
 2940SOL     OW 9718   3.853   6.833   5.569
 2940SOL    HW1 9719   3.771   6.839   5.512
 2940SOL    HW2 9720   3.929   6.879   5.523
 2941SOL     OW 9721   3.882   1.696   5.252
 2941SOL    HW1 9722   3.782   1.704   5.248
 2941SOL    HW2 9723   3.908   1.600   5.261
 2942SOL     OW 9724   3.522   6.508   4.128
 2942SOL    HW1 9725   3.594   6.515   4.059
 2942SOL    HW2 9726   3.533   6.423   4.179
 2943SOL     OW 9727   5.758   4.604   2.575
 2943SOL    HW1 9728   5.698   4.531   2.542
 2943SOL    HW2 9729   5.854   4.578   2.557
 2944SOL     OW 9730   5.245   5.946   0.476
 2944SOL    HW1 9731   5.148   5.960   0.458
 2944SOL    HW2 9732   5.293   6.033   0.471
 2945SOL     OW 9733   2.925   3.383   4.424
 2945SOL    HW1 9734   3.023   3.405   4.425
 2945SOL    HW2 9735   2.894   3.367   4.518
 2946SOL     OW 9736   0.971   6.312   5.255
 2946SOL    HW1 9737   0.983   6.237   5.189
 2946SOL    HW2 9738   0.999   6.281   5.346
 2947SOL     OW 9739   6.937   5.321   6.669
 2947SOL    HW1 9740   6.892   5.278   6.747
 2947SOL    HW2 9741   6.951   5.418   6.688
 2948SOL     OW 9742   6.544   3.153   5.658
 2948SOL    HW1 9743   6.549   3.241   5.704
 2948SOL    HW2 9744   6.570   3.163   5.562
 2949SOL     OW 9745   0.553   6.485   0.464
 2949SOL    HW1 9746   0.645   6.507   0.430
 2949SOL    HW2 9747   0.540   6.386   0.465
 2950SOL     OW 9748   4.934   3.360   5.169
 2950SOL    HW1 9749   5.002   3.302   5.214
 2950SOL    HW2 9750   4.925   3.332   5.073
 2951SOL     OW 9751   5.859   0.543   0.223
 2951SOL    HW1 9752   5.886   0.453   0.189
 2951SOL    HW2 9753   5.939   0.590   0.259
 2952SOL     OW 9754   0.507   3.313   1.859
 2952SOL    HW1 9755   0.586   3.262   1.894
 2952SOL    HW2 9756   0.429   3.252   1.851
 2953SOL     OW 9757   5.843   1.867   2.000
 2953SOL    HW1 9758   5.776   1.838   2.068
 2953SOL    HW2 9759   5.883   1.786   1.957
 2954SOL     OW 9760   5.104   6.056   2.078
 2954SOL    HW1 9761   5.151   5.973   2.109
 2954SOL    HW2 9762   5.007   6.035   2.062
 2955SOL     OW 9763   6.167   1.916   1.094
 2955SOL    HW1 9764   6.152   1.824   1.132
 2955SOL    HW2 9765   6.242   1.960   1.142
 2956SOL     OW 9766   5.647   6.083   3.937
 2956SOL    HW1 9767   5.620   5.993   3.971
 2956SOL    HW2 9768   5.587   6.108   3.861
 2957SOL     OW 9769   1.495   4.519   1.583
 2957SOL    HW1 9770   1.497   4.603   1.638
 2957SOL    HW2 9771   1.547   4.534   1.498
 2958SOL     OW 9772   2.887   4.887   6.155
 2958SOL    HW1 9773   2.963   4.823   6.168
 2958SOL    HW2 9774   2.842   4.903   6.243
 2959SOL     OW 9775   3.708   4.938   0.257
 2959SOL    HW1 9776   3.683   5.015   0.316
 2959SOL    HW2 9777   3.777   4.882   0.304
 2960SOL     OW 9778   2.856   1.725   0.556
 2960SOL    HW1 9779   2.902   1.668   0.486
 2960SOL    HW2 9780   2.788   1.670   0.603
 2961SOL     OW 9781   5.676   1.291   4.181
 2961SOL    HW1 9782   5.715   1.247   4.100
 2961SOL    HW2 9783   5.725   1.259   4.263
 2962SOL     OW 9784   4.766   0.183   2.726
 2962SOL    HW1 9785   4.778   0.276   2.691
 2962SOL    HW2 9786   4.732   0.124   2.653
 2963SOL     OW 9787   2.188   3.333   4.927
 2963SOL    HW1 9788   2.143   3.301   5.011
 2963SOL    HW2 9789   2.287   3.330   4.940
 2964SOL     OW 9790   3.063   5.981   0.628
 2964SOL    HW1 9791   3.070   6.073   0.667
 2964SOL    HW2 9792   2.970   5.965   0.597
 2965SOL     OW 9793   0.454   3.101   6.276
 2965SOL    HW1 9794   0.553   3.114   6.283
 2965SOL    HW2 9795   0.422   3.138   6.189
 2966SOL     OW 9796   4.534   5.124   3.384
 2966SOL    HW1 9797   4.536   5.118   3.284
 2966SOL    HW2 9798   4.442   5.150   3.414
 2967SOL     OW 9799   5.982   2.532   4.434
 2967SOL    HW1 9800   6.003   2.573   4.346
 2967SOL    HW2 9801   6.064   2.529   4.490
 2968SOL     OW 9802   6.356   4.371   3.367
 2968SOL    HW1 9803   6.319   4.423   3.444
 2968SOL    HW2 9804   6.419   4.429   3.316
 2969SOL     OW 9805   3.448   1.539   4.967
 2969SOL    HW1 9806   3.365   1.558   5.019
 2969SOL    HW2 9807   3.461   1.608   4.897
 2970SOL     OW 9808   1.007   4.259   5.817
 2970SOL    HW1 9809   0.988   4.161   5.817
 2970SOL    HW2 9810   1.097   4.276   5.857
 2971SOL     OW 9811   5.749   3.441   1.892
 2971SOL    HW1 9812   5.665   3.387   1.898
 2971SOL    HW2 9813   5.811   3.414   1.965
 2972SOL     OW 9814   0.551   4.349   4.403
 2972SOL    HW1 9815   0.562   4.268   4.461
 2972SOL    HW2 9816   0.559   4.322   4.307
 2973SOL     OW 9817   6.224   0.091   3.984
 2973SOL    HW1 9818   6.193   0.162   4.047
 2973SOL    HW2 9819   6.246   0.008   4.035
 2974SOL     OW 9820   6.582   4.222   0.782
 2974SOL    HW1 9821   6.510   4.291   0.791
 2974SOL    HW2 9822   6.542   4.131   0.788
 2975SOL     OW 9823   6.567   1.527   3.988
 2975SOL    HW1 9824   6.539   1.547   3.894
 2975SOL    HW2 9825   6.610   1.608   4.028
 2976SOL     OW 9826   2.393   5.867   1.304
 2976SOL    HW1 9827   2.359   5.952   1.344
 2976SOL    HW2 9828   2.485   5.882   1.268
 2977SOL     OW 9829   3.143   6.788   3.749
 2977SOL    HW1 9830   3.092   6.727   3.810
 2977SOL    HW2 9831   3.120   6.883   3.771
 2978SOL     OW 9832   2.043   0.176   6.634
 2978SOL    HW1 9833   2.077   0.085   6.658
 2978SOL    HW2 9834   2.115   0.227   6.587
 2979SOL     OW 9835   2.813   1.513   3.269
 2979SOL    HW1 9836   2.718   1.480   3.260
 2979SOL    HW2 9837   2.839   1.510   3.365
 2980SOL     OW 9838   6.133   6.973   3.255
 2980SOL    HW1 9839   6.141   0.048   3.227
 2980SOL    HW2 9840   6.172   6.914   3.184
 2981SOL     OW 9841   1.767   1.730   5.980
 2981SOL    HW1 9842   1.697   1.738   6.052
 2981SOL    HW2 9843   1.741   1.658   5.916
 2982SOL     OW 9844   4.888   5.745   2.021
 2982SOL    HW1 9845   4.932   5.763   2.109
 2982SOL    HW2 9846   4.955   5.708   1.957
 2983SOL     OW 9847   0.510   1.001   2.637
 2983SOL    HW1 9848   0.471   1.028   2.549
 2983SOL    HW2 9849   0.484   1.069   2.706
 2984SOL     OW 9850   5.999   4.697   1.411
 2984SOL    HW1 9851   6.074   4.760   1.393
 2984SOL    HW2 9852   5.969   4.707   1.506
 2985SOL     OW 9853   6.357   2.362   3.206
 2985SOL    HW1 9854   6.376   2.421   3.284
 2985SOL    HW2 9855   6.273   2.310   3.223
 2986SOL     OW 9856   1.564   3.453   5.074
 2986SOL    HW1 9857   1.656   3.418   5.093
 2986SOL    HW2 9858   1.532   3.506   5.152
 2987SOL     OW 9859   5.230   1.878   4.921
 2987SOL    HW1 9860   5.279   1.907   5.004
 2987SOL    HW2 9861   5.296   1.863   4.848
 2988SOL     OW 9862   1.097   0.382   2.897
 2988SOL    HW1 9863   1.134   0.448   2.962
 2988SOL    HW2 9864   1.171   0.341   2.844
 2989SOL     OW 9865   6.822   5.288   0.468
 2989SOL    HW1 9866   6.739   5.331   0.503
 2989SOL    HW2 9867   6.819   5.288   0.368
 2990SOL     OW 9868   2.883   1.378   1.372
 2990SOL    HW1 9869   2.787   1.385   1.401
 2990SOL    HW2 9870   2.933   1.319   1.436
 2991SOL     OW 9871   6.336   4.466   6.711
 2991SOL    HW1 9872   6.415   4.514   6.750
 2991SOL    HW2 9873   6.354   4.447   6.614
 2992SOL     OW 9874   4.462   4.278   6.790
 2992SOL    HW1 9875   4.368   4.271   6.824
 2992SOL    HW2 9876   4.471   4.223   6.706
 2993SOL     OW 9877   1.405   4.394   6.948
 2993SOL    HW1 9878   1.437   4.432   6.861
 2993SOL    HW2 9879   1.356   4.465   6.999
 2994SOL     OW 9880   4.588   6.405   0.012
 2994SOL    HW1 9881   4.560   6.341   6.960
 2994SOL    HW2 9882   4.597   6.497   6.994
 2995SOL     OW 9883   2.760   0.685   5.843
 2995SOL    HW1 9884   2.717   0.773   5.826
 2995SOL    HW2 9885   2.697   0.626   5.894
 2996SOL     OW 9886   4.425   6.708   6.031
 2996SOL    HW1 9887   4.524   6.720   6.038
 2996SOL    HW2 9888   4.387   6.692   6.122
 2997SOL     OW 9889   3.778   5.720   0.584
 2997SOL    HW1 9890   3.793   5.819   0.584
 2997SOL    HW2 9891   3.715   5.695   0.657
 2998SOL     OW 9892   6.292   3.837   5.896
 2998SOL    HW1 9893   6.384   3.871   5.877
 2998SOL    HW2 9894   6.237   3.840   5.813
 2999SOL     OW 9895   2.334   1.525   1.898
 2999SOL    HW1 9896   2.417   1.499   1.847
 2999SOL    HW2 9897   2.255   1.481   1.857
 3000SOL     OW 9898   1.389   1.975   4.618
 3000SOL    HW1 9899   1.475   2.018   4.590
 3000SOL    HW2 9900   1.390   1.958   4.716
 3001SOL     OW 9901   4.798   5.883   5.715
 3001SOL    HW1 9902   4.871   5.815   5.702
 3001SOL    HW2 9903   4.736   5.880   5.636
 3002SOL     OW 9904   3.083   0.359   5.054
 3002SOL    HW1 9905   3.039   0.395   5.136
 3002SOL    HW2 9906   3.070   0.424   4.978
 3003SOL     OW 9907   1.481   0.086   5.794
 3003SOL    HW1 9908   1.518   0.010   5.848
 3003SOL    HW2 9909   1.433   0.050   5.714
 3004SOL     OW 9910   6.946   2.709   5.725
 3004SOL    HW1 9911   6.975   2.618   5.757
 3004SOL    HW2 9912   6.981   2.779   5.787
 3005SOL     OW 9913   4.905   1.912   0.561
 3005SOL    HW1 9914   4.862   1.960   0.637
 3005SOL    HW2 9915   4.888   1.814   0.568
 3006SOL     OW 9916   4.408   6.610   2.017
 3006SOL    HW1 9917   4.385   6.696   2.062
 3006SOL    HW2 9918   4.352   6.536   2.055
 3007SOL     OW 9919   6.099   5.214   1.675
 3007SOL    HW1 9920   6.112   5.243   1.769
 3007SOL    HW2 9921   6.040   5.280   1.628
 3008SOL     OW 9922   4.607   5.256   5.666
 3008SOL    HW1 9923   4.630   5.193   5.741
 3008SOL    HW2 9924   4.678   5.250   5.595
 3009SOL     OW 9925   1.226   0.428   2.456
 3009SOL    HW1 9926   1.241   0.329   2.451
 3009SOL    HW2 9927   1.272   0.472   2.379
 3010SOL     OW 9928   3.149   0.387   3.482
 3010SOL    HW1 9929   3.226   0.417   3.425
 3010SOL    HW2 9930   3.096   0.318   3.433
 3011SOL     OW 9931   5.184   0.416   0.655
 3011SOL    HW1 9932   5.230   0.473   0.723
 3011SOL    HW2 9933   5.214   0.321   0.664
 3012SOL     OW 9934   0.001   5.653   1.125
 3012SOL    HW1 9935   0.088   5.615   1.093
 3012SOL    HW2 9936   6.958   5.578   1.146
 3013SOL     OW 9937   5.791   4.748   1.615
 3013SOL    HW1 9938   5.731   4.674   1.647
 3013SOL    HW2 9939   5.738   4.833   1.610
 3014SOL     OW 9940   5.600   5.946   5.438
 3014SOL    HW1 9941   5.615   5.858   5.392
 3014SOL    HW2 9942   5.674   5.963   5.503
 3015SOL     OW 9943   2.930   1.240   0.197
 3015SOL    HW1 9944   3.007   1.229   0.135
 3015SOL    HW2 9945   2.892   1.332   0.187
 3016SOL     OW 9946   4.031   6.064   4.042
 3016SOL    HW1 9947   3.954   6.036   4.099
 3016SOL    HW2 9948   4.114   6.071   4.098
 3017SOL     OW 9949   0.813   6.240   1.737
 3017SOL    HW1 9950   0.718   6.225   1.709
 3017SOL    HW2 9951   0.872   6.177   1.687
 3018SOL     OW 9952   4.376   6.923   5.862
 3018SOL    HW1 9953   4.378   6.836   5.911
 3018SOL    HW2 9954   4.316   6.915   5.783
 3019SOL     OW 9955   4.691   0.569   1.570
 3019SOL    HW1 9956   4.633   0.496   1.534
 3019SOL    HW2 9957   4.693   0.566   1.669
 3020SOL     OW 9958   1.888   0.763   1.828
 3020SOL    HW1 9959   1.832   0.825   1.773
 3020SOL    HW2 9960   1.957   0.816   1.878
 3021SOL     OW 9961   4.335   0.844   6.419
 3021SOL    HW1 9962   4.374   0.772   6.361
 3021SOL    HW2 9963   4.257   0.808   6.469
 3022SOL     OW 9964   0.512   0.771   3.293
 3022SOL    HW1 9965   0.531   0.695   3.230
 3022SOL    HW2 9966   0.413   0.789   3.293
 3023SOL     OW 9967   5.559   0.263   1.721
 3023SOL    HW1 9968   5.554   0.360   1.698
 3023SOL    HW2 9969   5.528   0.208   1.643
 3024SOL     OW 9970   2.119   6.943   6.680
 3024SOL    HW1 9971   2.164   6.895   6.755
 3024SOL    HW2 9972   2.068   6.878   6.624
 3025SOL     OW 9973   1.734   2.277   1.677
 3025SOL    HW1 9974   1.818   2.312   1.718
 3025SOL    HW2 9975   1.757   2.209   1.606
 3026SOL     OW 9976   2.702   5.654   0.602
 3026SOL    HW1 9977   2.634   5.668   0.673
 3026SOL    HW2 9978   2.761   5.734   0.596
 3027SOL     OW 9979   1.407   1.615   3.958
 3027SOL    HW1 9980   1.314   1.654   3.961
 3027SOL    HW2 9981   1.438   1.614   3.863
 3028SOL     OW 9982   1.074   0.406   4.395
 3028SOL    HW1 9983   1.009   0.381   4.466
 3028SOL    HW2 9984   1.025   0.429   4.310
 3029SOL     OW 9985   6.196   4.988   5.961
 3029SOL    HW1 9986   6.213   5.078   6.000
 3029SOL    HW2 9987   6.191   4.920   6.034
 3030SOL     OW 9988   0.880   0.539   5.456
 3030SOL    HW1 9989   0.955   0.532   5.523
 3030SOL    HW2 9990   0.918   0.550   5.365
 3031SOL     OW 9991   0.063   5.823   6.332
 3031SOL    HW1 9992   0.140   5.769   6.298
 3031SOL    HW2 9993   7.009   5.822   6.264
 3032SOL     OW 9994   3.646   6.705   5.845
 3032SOL    HW1 9995   3.701   6.735   5.767
 3032SOL    HW2 9996   3.553   6.740   5.836
 3033SOL     OW 9997   4.814   4.535   6.089
 3033SOL    HW1 9998   4.723   4.560   6.121
 3033SOL    HW2 9999   4.871   4.508   6.167
 3034SOL     OW10000   2.634   0.038   4.521
 3034SOL    HW110001   2.588   7.018   4.601
 3034SOL    HW210002   2.625   6.996   4.443
 3035SOL     OW10003   6.141   0.113   0.123
 3035SOL    HW110004   6.144   0.020   0.157
 3035SOL    HW210005   6.221   0.164   0.156
 3036SOL     OW10006   0.722   5.056   5.457
 3036SOL    HW110007   0.664   5.133   5.483
 3036SOL    HW210008   0.713   5.039   5.359
 3037SOL     OW10009   5.330   6.506   6.333
 3037SOL    HW110010   5.384   6.422   6.322
 3037SOL    HW210011   5.391   6.585   6.324
 3038SOL     OW10012   5.918   5.931   5.855
 3038SOL    HW110013   6.015   5.957   5.851
 3038SOL    HW210014   5.911   5.831   5.861
 3039SOL     OW10015   0.455   5.332   0.609
 3039SOL    HW110016   0.499   5.409   0.655
 3039SOL    HW210017   0.472   5.338   0.511
 3040SOL     OW10018   2.768   1.071   0.334
 3040SOL    HW110019   2.815   0.992   0.372
 3040SOL    HW210020   2.829   1.119   0.271
 3041SOL     OW10021   1.675   2.242   6.136
 3041SOL    HW110022   1.695   2.168   6.073
 3041SOL    HW210023   1.695   2.330   6.092
 3042SOL     OW10024   6.068   0.299   1.283
 3042SOL    HW110025   6.165   0.317   1.269
 3042SOL    HW210026   6.057   0.234   1.359
 3043SOL     OW10027   0.106   5.488   6.474
 3043SOL    HW110028   0.118   5.390   6.488
 3043SOL    HW210029   0.157   5.538   6.545
 3044SOL     OW10030   2.506   3.122   6.594
 3044SOL    HW110031   2.553   3.038   6.564
 3044SOL    HW210032   2.484   3.178   6.515
 3045SOL     OW10033   4.742   2.652   4.667
 3045SOL    HW110034   4.720   2.711   4.590
 3045SOL    HW210035   4.682   2.572   4.666
 3046SOL     OW10036   2.317   2.233   6.320
 3046SOL    HW110037   2.321   2.228   6.220
 3046SOL    HW210038   2.261   2.311   6.347
 3047SOL     OW10039   6.832   5.299   1.882
 3047SOL    HW110040   6.894   5.225   1.858
 3047SOL    HW210041   6.768   5.268   1.952
 3048SOL     OW10042   3.615   2.789   2.062
 3048SOL    HW110043   3.592   2.831   1.974
 3048SOL    HW210044   3.651   2.697   2.047
 3049SOL     OW10045   0.934   0.409   1.036
 3049SOL    HW110046   0.864   0.427   0.968
 3049SOL    HW210047   0.891   0.382   1.122
 3050SOL     OW10048   1.441   0.518   4.056
 3050SOL    HW110049   1.469   0.570   4.137
 3050SOL    HW210050   1.523   0.488   4.007
 3051SOL     OW10051   2.712   4.865   5.750
 3051SOL    HW110052   2.718   4.822   5.840
 3051SOL    HW210053   2.733   4.798   5.679
 3052SOL     OW10054   5.080   6.455   2.778
 3052SOL    HW110055   5.034   6.439   2.691
 3052SOL    HW210056   5.022   6.421   2.852
 3053SOL     OW10057   3.923   6.757   1.982
 3053SOL    HW110058   3.890   6.676   1.934
 3053SOL    HW210059   3.967   6.730   2.067
 3054SOL     OW10060   1.762   3.996   5.636
 3054SOL    HW110061   1.784   4.093   5.628
 3054SOL    HW210062   1.843   3.941   5.618
 3055SOL     OW10063   6.459   6.502   2.643
 3055SOL    HW110064   6.360   6.493   2.655
 3055SOL    HW210065   6.480   6.596   2.618
 3056SOL     OW10066   5.419   0.946   2.143
 3056SOL    HW110067   5.449   0.977   2.232
 3056SOL    HW210068   5.352   1.010   2.105
 3057SOL     OW10069   6.675   5.219   2.568
 3057SOL    HW110070   6.736   5.294   2.541
 3057SOL    HW210071   6.676   5.148   2.497
 3058SOL     OW10072   5.818   6.438   1.586
 3058SOL    HW110073   5.856   6.419   1.677
 3058SOL    HW210074   5.781   6.354   1.547
 3059SOL     OW10075   2.587   2.348   6.685
 3059SOL    HW110076   2.605   2.390   6.596
 3059SOL    HW210077   2.498   2.380   6.718
 3060SOL     OW10078   0.235   6.499   6.213
 3060SOL    HW110079   0.204   6.404   6.204
 3060SOL    HW210080   0.230   6.544   6.125
 3061SOL     OW10081   0.550   0.938   5.901
 3061SOL    HW110082   0.569   0.977   5.991
 3061SOL    HW210083   0.558   1.010   5.832
 3062SOL     OW10084   3.116   5.045   6.467
 3062SOL    HW110085   3.159   4.955   6.457
 3062SOL    HW210086   3.064   5.067   6.384
 3063SOL     OW10087   2.321   5.692   0.989
 3063SOL    HW110088   2.320   5.634   1.070
 3063SOL    HW210089   2.290   5.784   1.014
 3064SOL     OW10090   0.320   4.517   3.170
 3064SOL    HW110091   0.361   4.538   3.259
 3064SOL    HW210092   0.390   4.521   3.099
 3065SOL     OW10093   3.221   1.853   1.244
 3065SOL    HW110094   3.274   1.769   1.231
 3065SOL    HW210095   3.282   1.930   1.257
 3066SOL     OW10096   5.336   5.036   0.817
 3066SOL    HW110097   5.399   5.026   0.895
 3066SOL    HW210098   5.382   5.006   0.734
 3067SOL     OW10099   4.235   6.801   3.185
 3067SOL    HW110100   4.189   6.816   3.272
 3067SOL    HW210101   4.217   6.879   3.124
 3068SOL     OW10102   6.385   4.457   6.452
 3068SOL    HW110103   6.362   4.496   6.363
 3068SOL    HW210104   6.447   4.380   6.440
 3069SOL     OW10105   1.374   4.556   3.339
 3069SOL    HW110106   1.327   4.516   3.417
 3069SOL    HW210107   1.465   4.588   3.367
 3070SOL     OW10108   4.614   1.751   3.602
 3070SOL    HW110109   4.641   1.805   3.682
 3070SOL    HW210110   4.691   1.693   3.574
 3071SOL     OW10111   5.777   0.486   3.491
 3071SOL    HW110112   5.874   0.485   3.514
 3071SOL    HW210113   5.727   0.428   3.554
 3072SOL     OW10114   0.065   0.780   1.549
 3072SOL    HW110115   0.011   0.805   1.469
 3072SOL    HW210116   0.051   0.848   1.621
 3073SOL     OW10117   1.991   1.885   4.813
 3073SOL    HW110118   1.996   1.847   4.906
 3073SOL    HW210119   1.909   1.941   4.804
 3074SOL     OW10120   4.763   3.945   5.764
 3074SOL    HW110121   4.805   3.859   5.793
 3074SOL    HW210122   4.828   4.020   5.779
 3075SOL     OW10123   0.334   5.750   0.883
 3075SOL    HW110124   0.252   5.806   0.890
 3075SOL    HW210125   0.312   5.655   0.905
 3076SOL     OW10126   0.652   0.760   5.084
 3076SOL    HW110127   0.742   0.774   5.126
 3076SOL    HW210128   0.582   0.761   5.155
 3077SOL     OW10129   4.633   4.616   3.138
 3077SOL    HW110130   4.581   4.626   3.054
 3077SOL    HW210131   4.692   4.695   3.151
 3078SOL     OW10132   1.632   3.122   0.261
 3078SOL    HW110133   1.588   3.128   0.172
 3078SOL    HW210134   1.608   3.036   0.305
 3079SOL     OW10135   5.391   2.996   6.048
 3079SOL    HW110136   5.337   2.987   5.965
 3079SOL    HW210137   5.365   3.080   6.097
 3080SOL     OW10138   5.973   6.626   2.246
 3080SOL    HW110139   6.005   6.544   2.293
 3080SOL    HW210140   5.997   6.620   2.149
 3081SOL     OW10141   1.053   4.541   5.855
 3081SOL    HW110142   1.051   4.589   5.768
 3081SOL    HW210143   1.030   4.445   5.840
 3082SOL     OW10144   3.548   7.006   2.390
 3082SOL    HW110145   3.516   7.007   2.485
 3082SOL    HW210146   3.646   0.004   2.388
 3083SOL     OW10147   3.828   6.964   2.316
 3083SOL    HW110148   3.914   7.016   2.310
 3083SOL    HW210149   3.842   6.886   2.377
 3084SOL     OW10150   4.360   6.308   4.003
 3084SOL    HW110151   4.343   6.241   3.931
 3084SOL    HW210152   4.457   6.330   4.006
 3085SOL     OW10153   1.157   5.073   2.312
 3085SOL    HW110154   1.193   5.037   2.225
 3085SOL    HW210155   1.196   5.163   2.329
 3086SOL     OW10156   6.391   1.367   4.391
 3086SOL    HW110157   6.309   1.327   4.431
 3086SOL    HW210158   6.466   1.302   4.396
 3087SOL     OW10159   5.717   3.755   1.520
 3087SOL    HW110160   5.758   3.794   1.602
 3087SOL    HW210161   5.725   3.655   1.523
 3088SOL     OW10162   3.063   3.834   6.262
 3088SOL    HW110163   3.161   3.843   6.280
 3088SOL    HW210164   3.034   3.740   6.276
 3089SOL     OW10165   3.722   1.764   1.726
 3089SOL    HW110166   3.710   1.826   1.803
 3089SOL    HW210167   3.802   1.706   1.743
 3090SOL     OW10168   5.971   1.735   0.879
 3090SOL    HW110169   5.885   1.787   0.880
 3090SOL    HW210170   5.995   1.710   0.973
 3091SOL     OW10171   2.270   6.072   7.004
 3091SOL    HW110172   2.338   6.040   6.938
 3091SOL    HW210173   2.215   5.994   0.015
 3092SOL     OW10174   4.057   5.238   0.300
 3092SOL    HW110175   4.030   5.144   0.323
 3092SOL    HW210176   3.987   5.279   0.241
 3093SOL     OW10177   4.959   6.904   3.219
 3093SOL    HW110178   5.008   6.858   3.293
 3093SOL    HW210179   4.916   6.837   3.159
 3094SOL     OW10180   3.635   5.432   4.726
 3094SOL    HW110181   3.619   5.384   4.640
 3094SOL    HW210182   3.562   5.498   4.742
 3095SOL     OW10183   1.875   5.393   5.082
 3095SOL    HW110184   1.919   5.482   5.071
 3095SOL    HW210185   1.785   5.406   5.123
 3096SOL     OW10186   0.834   1.524   5.427
 3096SOL    HW110187   0.796   1.542   5.337
 3096SOL    HW210188   0.908   1.457   5.419
 3097SOL     OW10189   1.756   0.908   6.957
 3097SOL    HW110190   1.828   0.975   6.936
 3097SOL    HW210191   1.696   0.898   6.878
 3098SOL     OW10192   4.171   2.535   1.018
 3098SOL    HW110193   4.096   2.498   0.963
 3098SOL    HW210194   4.160   2.506   1.113
 3099SOL     OW10195   1.500   5.991   5.498
 3099SOL    HW110196   1.492   5.999   5.399
 3099SOL    HW210197   1.596   6.000   5.525
 3100SOL     OW10198   6.400   6.998   5.858
 3100SOL    HW110199   6.357   0.057   5.815
 3100SOL    HW210200   6.422   7.019   5.953
 3101SOL     OW10201   3.616   0.545   1.190
 3101SOL    HW110202   3.576   0.592   1.269
 3101SOL    HW210203   3.601   0.447   1.199
 3102SOL     OW10204   1.104   5.781   0.337
 3102SOL    HW110205   1.039   5.791   0.413
 3102SOL    HW210206   1.081   5.846   0.265
 3103SOL     OW10207   4.279   4.375   1.678
 3103SOL    HW110208   4.315   4.305   1.740
 3103SOL    HW210209   4.254   4.333   1.591
 3104SOL     OW10210   5.679   5.557   3.645
 3104SOL    HW110211   5.611   5.536   3.715
 3104SOL    HW210212   5.678   5.655   3.626
 3105SOL     OW10213   5.955   5.688   3.991
 3105SOL    HW110214   5.903   5.748   4.052
 3105SOL    HW210215   5.971   5.734   3.904
 3106SOL     OW10216   6.836   3.299   4.876
 3106SOL    HW110217   6.794   3.302   4.967
 3106SOL    HW210218   6.781   3.353   4.812
 3107SOL     OW10219   2.726   0.042   3.824
 3107SOL    HW110220   2.783   0.117   3.792
 3107SOL    HW210221   2.632   0.056   3.792
 3108SOL     OW10222   2.289   0.263   2.891
 3108SOL    HW110223   2.328   0.340   2.941
 3108SOL    HW210224   2.303   0.275   2.793
 3109SOL     OW10225   4.627   5.672   3.193
 3109SOL    HW110226   4.680   5.626   3.264
 3109SOL    HW210227   4.673   5.757   3.167
 3110SOL     OW10228   0.803   2.812   1.566
 3110SOL    HW110229   0.897   2.799   1.597
 3110SOL    HW210230   0.746   2.739   1.601
 3111SOL     OW10231   0.521   4.847   2.010
 3111SOL    HW110232   0.553   4.891   2.094
 3111SOL    HW210233   0.503   4.750   2.028
 3112SOL     OW10234   2.920   3.413   5.755
 3112SOL    HW110235   2.960   3.384   5.668
 3112SOL    HW210236   2.986   3.400   5.829
 3113SOL     OW10237   4.132   6.449   4.309
 3113SOL    HW110238   4.077   6.402   4.241
 3113SOL    HW210239   4.216   6.397   4.325
 3114SOL     OW10240   4.992   5.703   0.622
 3114SOL    HW110241   4.978   5.751   0.535
 3114SOL    HW210242   4.921   5.730   0.687
 3115SOL     OW10243   3.347   2.879   2.141
 3115SOL    HW110244   3.291   2.824   2.079
 3115SOL    HW210245   3.444   2.861   2.123
 3116SOL     OW10246   0.141   1.265   6.709
 3116SOL    HW110247   0.151   1.335   6.638
 3116SOL    HW210248   0.081   1.299   6.781
 3117SOL     OW10249   3.494   4.099   6.254
 3117SOL    HW110250   3.571   4.039   6.236
 3117SOL    HW210251   3.452   4.073   6.341
 3118SOL     OW10252   6.266   5.321   0.050
 3118SOL    HW110253   6.271   5.290   0.145
 3118SOL    HW210254   6.215   5.407   0.045
 3119SOL     OW10255   2.174   4.282   6.516
 3119SOL    HW110256   2.191   4.293   6.418
 3119SOL    HW210257   2.209   4.193   6.546
 3120SOL     OW10258   2.621   5.255   6.841
 3120SOL    HW110259   2.588   5.348   6.825
 3120SOL    HW210260   2.583   5.220   6.926
 3121SOL     OW10261   0.315   5.627   3.578
 3121SOL    HW110262   0.385   5.644   3.509
 3121SOL    HW210263   0.234   5.682   3.558
 3122SOL     OW10264   3.324   5.543   1.574
 3122SOL    HW110265   3.311   5.616   1.506
 3122SOL    HW210266   3.413   5.555   1.618
 3123SOL     OW10267   3.475   6.965   4.298
 3123SOL    HW110268   3.564   7.002   4.325
 3123SOL    HW210269   3.486   6.902   4.221
 3124SOL     OW10270   3.668   6.988   6.037
 3124SOL    HW110271   3.628   0.021   6.112
 3124SOL    HW210272   3.634   6.894   6.040
 3125SOL     OW10273   0.083   1.915   6.222
 3125SOL    HW110274   0.158   1.848   6.226
 3125SOL    HW210275   0.057   1.942   6.315
 3126SOL     OW10276   3.896   6.414   6.518
 3126SOL    HW110277   3.851   6.329   6.492
 3126SOL    HW210278   3.883   6.430   6.616
 3127SOL     OW10279   0.928   1.108   4.341
 3127SOL    HW110280   1.022   1.087   4.316
 3127SOL    HW210281   0.927   1.163   4.425
 3128SOL     OW10282   1.509   0.810   1.159
 3128SOL    HW110283   1.462   0.896   1.141
 3128SOL    HW210284   1.442   0.737   1.169
 3129SOL     OW10285   0.974   2.964   3.302
 3129SOL    HW110286   0.944   2.870   3.314
 3129SOL    HW210287   1.074   2.968   3.300
 3130SOL     OW10288   2.474   5.282   3.054
 3130SOL    HW110289   2.546   5.214   3.039
 3130SOL    HW210290   2.514   5.373   3.053
 3131SOL     OW10291   0.691   2.911   4.133
 3131SOL    HW110292   0.623   2.839   4.142
 3131SOL    HW210293   0.646   2.996   4.106
 3132SOL     OW10294   5.240   3.597   6.193
 3132SOL    HW110295   5.155   3.620   6.145
 3132SOL    HW210296   5.220   3.577   6.289
 3133SOL     OW10297   2.047   1.838   3.712
 3133SOL    HW110298   2.131   1.875   3.751
 3133SOL    HW210299   2.056   1.739   3.701
 3134SOL     OW10300   5.919   2.691   2.323
 3134SOL    HW110301   5.880   2.747   2.397
 3134SOL    HW210302   5.996   2.740   2.282
 3135SOL     OW10303   1.221   2.215   2.918
 3135SOL    HW110304   1.159   2.161   2.976
 3135SOL    HW210305   1.224   2.175   2.826
 3136SOL     OW10306   6.372   0.422   4.812
 3136SOL    HW110307   6.438   0.497   4.814
 3136SOL    HW210308   6.283   0.456   4.785
 3137SOL     OW10309   0.399   1.710   4.482
 3137SOL    HW110310   0.353   1.779   4.538
 3137SOL    HW210311   0.410   1.626   4.535
 3138SOL     OW10312   6.135   2.259   4.225
 3138SOL    HW110313   6.160   2.245   4.321
 3138SOL    HW210314   6.041   2.228   4.211
 3139SOL     OW10315   4.869   5.471   5.000
 3139SOL    HW110316   4.897   5.566   4.985
 3139SOL    HW210317   4.770   5.467   5.007
 3140SOL     OW10318   6.181   6.030   5.842
 3140SOL    HW110319   6.137   6.117   5.864
 3140SOL    HW210320   6.261   6.046   5.785
 3141SOL     OW10321   0.870   6.935   2.035
 3141SOL    HW110322   0.864   6.984   1.948
 3141SOL    HW210323   0.849   6.838   2.019
 3142SOL     OW10324   3.394   0.090   0.520
 3142SOL    HW110325   3.354   0.002   0.546
 3142SOL    HW210326   3.479   0.104   0.570
 3143SOL     OW10327   0.219   1.738   0.188
 3143SOL    HW110328   0.209   1.719   0.286
 3143SOL    HW210329   0.178   1.827   0.167
 3144SOL     OW10330   2.844   2.902   0.019
 3144SOL    HW110331   2.848   2.833   0.091
 3144SOL    HW210332   2.930   2.902   6.988
 3145SOL     OW10333   2.556   5.043   2.696
 3145SOL    HW110334   2.589   4.955   2.660
 3145SOL    HW210335   2.502   5.089   2.626
 3146SOL     OW10336   2.263   6.966   4.010
 3146SOL    HW110337   2.300   6.952   4.102
 3146SOL    HW210338   2.163   6.969   4.015
 3147SOL     OW10339   3.676   4.250   0.716
 3147SOL    HW110340   3.742   4.234   0.790
 3147SOL    HW210341   3.635   4.164   0.688
 3148SOL     OW10342   2.792   5.861   4.656
 3148SOL    HW110343   2.824   5.796   4.726
 3148SOL    HW210344   2.723   5.816   4.599
 3149SOL     OW10345   2.395   6.386   5.637
 3149SOL    HW110346   2.347   6.469   5.609
 3149SOL    HW210347   2.404   6.324   5.558
 3150SOL     OW10348   6.652   0.394   4.149
 3150SOL    HW110349   6.699   0.476   4.114
 3150SOL    HW210350   6.648   0.325   4.077
 3151SOL     OW10351   3.382   6.868   1.614
 3151SOL    HW110352   3.459   6.815   1.578
 3151SOL    HW210353   3.392   6.878   1.713
 3152SOL     OW10354   1.409   4.955   6.249
 3152SOL    HW110355   1.494   4.904   6.265
 3152SOL    HW210356   1.382   5.003   6.333
 3153SOL     OW10357   6.838   3.988   3.194
 3153SOL    HW110358   6.924   3.997   3.145
 3153SOL    HW210359   6.764   3.972   3.129
 3154SOL     OW10360   5.596   2.693   5.913
 3154SOL    HW110361   5.511   2.660   5.955
 3154SOL    HW210362   5.599   2.793   5.920
 3155SOL     OW10363   4.344   6.035   0.040
 3155SOL    HW110364   4.441   6.015   0.033
 3155SOL    HW210365   4.308   5.995   0.124
 3156SOL     OW10366   3.464   3.877   3.431
 3156SOL    HW110367   3.405   3.958   3.428
 3156SOL    HW210368   3.529   3.880   3.355
 3157SOL     OW10369   2.233   2.054   4.818
 3157SOL    HW110370   2.330   2.031   4.823
 3157SOL    HW210371   2.183   1.978   4.779
 3158SOL     OW10372   4.692   6.887   1.624
 3158SOL    HW110373   4.618   6.838   1.670
 3158SOL    HW210374   4.669   6.900   1.528
 3159SOL     OW10375   5.387   4.895   0.464
 3159SOL    HW110376   5.483   4.903   0.438
 3159SOL    HW210377   5.380   4.843   0.549
 3160SOL     OW10378   6.117   4.780   0.376
 3160SOL    HW110379   6.196   4.733   0.415
 3160SOL    HW210380   6.071   4.720   0.311
 3161SOL     OW10381   0.817   1.387   4.237
 3161SOL    HW110382   0.871   1.328   4.177
 3161SOL    HW210383   0.803   1.341   4.325
 3162SOL     OW10384   0.001   0.345   6.031
 3162SOL    HW110385   6.999   0.320   6.125
 3162SOL    HW210386   6.949   0.311   5.970
 3163SOL     OW10387   1.516   4.411   5.240
 3163SOL    HW110388   1.417   4.421   5.229
 3163SOL    HW210389   1.543   4.316   5.226
 3164SOL     OW10390   6.174   4.951   5.476
 3164SOL    HW110391   6.126   4.997   5.550
 3164SOL    HW210392   6.109   4.925   5.405
 3165SOL     OW10393   0.107   2.660   1.105
 3165SOL    HW110394   0.190   2.694   1.061
 3165SOL    HW210395   0.033   2.726   1.092
 3166SOL     OW10396   3.647   3.010   6.176
 3166SOL    HW110397   3.663   3.104   6.147
 3166SOL    HW210398   3.595   3.010   6.262
 3167SOL     OW10399   0.148   5.225   2.000
 3167SOL    HW110400   0.056   5.263   2.002
 3167SOL    HW210401   0.160   5.161   2.076
 3168SOL     OW10402   6.178   2.682   0.970
 3168SOL    HW110403   6.084   2.678   1.003
 3168SOL    HW210404   6.195   2.772   0.928
 3169SOL     OW10405   3.117   2.351   5.785
 3169SOL    HW110406   3.116   2.312   5.693
 3169SOL    HW210407   3.063   2.435   5.786
 3170SOL     OW10408   3.411   0.142   4.748
 3170SOL    HW110409   3.441   0.110   4.837
 3170SOL    HW210410   3.478   0.206   4.711
 3171SOL     OW10411   6.135   5.715   2.955
 3171SOL    HW110412   6.060   5.720   3.021
 3171SOL    HW210413   6.159   5.619   2.939
 3172SOL     OW10414   5.442   6.736   5.553
 3172SOL    HW110415   5.400   6.779   5.473
 3172SOL    HW210416   5.527   6.691   5.525
 3173SOL     OW10417   1.935   1.049   1.717
 3173SOL    HW110418   1.931   0.978   1.646
 3173SOL    HW210419   1.935   1.139   1.673
 3174SOL     OW10420   2.425   3.093   6.878
 3174SOL    HW110421   2.448   3.073   6.783
 3174SOL    HW210422   2.439   3.190   6.897
 3175SOL     OW10423   6.951   6.091   0.242
 3175SOL    HW110424   6.992   6.014   0.192
 3175SOL    HW210425   7.008   6.172   0.229
 3176SOL     OW10426   0.476   5.507   0.112
 3176SOL    HW110427   0.411   5.432   0.113
 3176SOL    HW210428   0.559   5.480   0.160
 3177SOL     OW10429   1.015   0.259   3.953
 3177SOL    HW110430   0.987   0.163   3.964
 3177SOL    HW210431   0.957   0.302   3.883
 3178SOL     OW10432   3.571   3.096   0.083
 3178SOL    HW110433   3.555   3.148   7.019
 3178SOL    HW210434   3.536   3.149   0.161
 3179SOL     OW10435   1.148   2.522   4.724
 3179SOL    HW110436   1.118   2.541   4.631
 3179SOL    HW210437   1.186   2.430   4.729
 3180SOL     OW10438   6.724   1.449   6.727
 3180SOL    HW110439   6.628   1.461   6.752
 3180SOL    HW210440   6.731   1.389   6.647
 3181SOL     OW10441   0.331   1.500   2.146
 3181SOL    HW110442   0.356   1.545   2.060
 3181SOL    HW210443   0.367   1.406   2.146
 3182SOL     OW10444   1.506   5.392   5.810
 3182SOL    HW110445   1.522   5.450   5.729
 3182SOL    HW210446   1.511   5.449   5.892
 3183SOL     OW10447   4.543   3.640   1.406
 3183SOL    HW110448   4.627   3.682   1.371
 3183SOL    HW210449   4.565   3.580   1.483
 3184SOL     OW10450   0.524   1.956   3.041
 3184SOL    HW110451   0.485   2.003   2.961
 3184SOL    HW210452   0.520   1.857   3.026
 3185SOL     OW10453   0.321   6.383   0.038
 3185SOL    HW110454   0.398   6.344   7.009
 3185SOL    HW210455   0.355   6.440   0.113
 3186SOL     OW10456   3.646   0.187   1.425
 3186SOL    HW110457   3.695   0.203   1.511
 3186SOL    HW210458   3.570   0.123   1.441
 3187SOL     OW10459   3.419   4.232   0.331
 3187SOL    HW110460   3.415   4.307   0.265
 3187SOL    HW210461   3.336   4.234   0.388
 3188SOL     OW10462   3.814   6.852   3.683
 3188SOL    HW110463   3.733   6.901   3.714
 3188SOL    HW210464   3.871   6.829   3.762
 3189SOL     OW10465   6.315   6.430   2.207
 3189SOL    HW110466   6.322   6.525   2.175
 3189SOL    HW210467   6.370   6.371   2.148
 3190SOL     OW10468   1.166   0.196   2.187
 3190SOL    HW110469   1.217   0.217   2.104
 3190SOL    HW210470   1.098   0.126   2.168
 3191SOL     OW10471   3.367   1.303   0.556
 3191SOL    HW110472   3.290   1.250   0.521
 3191SOL    HW210473   3.334   1.385   0.602
 3192SOL     OW10474   5.470   3.009   4.122
 3192SOL    HW110475   5.570   3.007   4.129
 3192SOL    HW210476   5.442   2.972   4.034
 3193SOL     OW10477   5.191   4.645   1.629
 3193SOL    HW110478   5.146   4.656   1.541
 3193SOL    HW210479   5.123   4.620   1.699
 3194SOL     OW10480   2.940   5.618   4.732
 3194SOL    HW110481   3.001   5.538   4.736
 3194SOL    HW210482   2.887   5.624   4.816
 3195SOL     OW10483   6.371   4.377   4.184
 3195SOL    HW110484   6.358   4.305   4.116
 3195SOL    HW210485   6.293   4.440   4.182
 3196SOL     OW10486   6.801   6.480   6.429
 3196SOL    HW110487   6.729   6.494   6.361
 3196SOL    HW210488   6.782   6.536   6.510
 3197SOL     OW10489   0.438   4.318   5.837
 3197SOL    HW110490   0.457   4.356   5.928
 3197SOL    HW210491   0.513   4.340   5.775
 3198SOL     OW10492   5.827   6.955   0.887
 3198SOL    HW110493   5.852   6.874   0.834
 3198SOL    HW210494   5.729   6.971   0.878
 3199SOL     OW10495   3.097   1.434   3.553
 3199SOL    HW110496   3.197   1.442   3.550
 3199SOL    HW210497   3.059   1.440   3.461
 3200SOL     OW10498   6.433   2.105   0.136
 3200SOL    HW110499   6.416   2.008   0.121
 3200SOL    HW210500   6.437   2.152   0.047
 3201SOL     OW10501   3.990   4.753   2.786
 3201SOL    HW110502   3.923   4.695   2.833
 3201SOL    HW210503   3.947   4.798   2.708
 3202SOL     OW10504   1.195   5.218   1.994
 3202SOL    HW110505   1.109   5.171   1.976
 3202SOL    HW210506   1.270   5.152   1.990
 3203SOL     OW10507   4.392   0.056   0.781
 3203SOL    HW110508   4.486   0.024   0.776
 3203SOL    HW210509   4.351   0.051   0.689
 3204SOL     OW10510   6.655   6.813   2.033
 3204SOL    HW110511   6.578   6.857   2.079
 3204SOL    HW210512   6.719   6.884   2.002
 3205SOL     OW10513   1.118   3.572   4.362
 3205SOL    HW110514   1.210   3.543   4.391
 3205SOL    HW210515   1.091   3.654   4.413
 3206SOL     OW10516   2.391   6.225   0.178
 3206SOL    HW110517   2.345   6.311   0.199
 3206SOL    HW210518   2.346   6.181   0.100
 3207SOL     OW10519   1.909   0.990   3.004
 3207SOL    HW110520   1.992   0.955   2.960
 3207SOL    HW210521   1.835   0.995   2.936
 3208SOL     OW10522   6.063   6.534   5.646
 3208SOL    HW110523   6.071   6.530   5.547
 3208SOL    HW210524   5.993   6.469   5.676
 3209SOL     OW10525   1.213   6.734   3.664
 3209SOL    HW110526   1.295   6.697   3.708
 3209SOL    HW210527   1.222   6.833   3.654
 3210SOL     OW10528   0.285   6.230   1.821
 3210SOL    HW110529   0.201   6.230   1.767
 3210SOL    HW210530   0.274   6.169   1.899
 3211SOL     OW10531   0.342   4.405   3.951
 3211SOL    HW110532   0.381   4.453   3.873
 3211SOL    HW210533   0.411   4.395   4.022
 3212SOL     OW10534   4.442   2.429   5.074
 3212SOL    HW110535   4.349   2.455   5.102
 3212SOL    HW210536   4.451   2.329   5.079
 3213SOL     OW10537   5.308   0.428   1.496
 3213SOL    HW110538   5.253   0.470   1.568
 3213SOL    HW210539   5.305   0.328   1.506
 3214SOL     OW10540   4.783   4.045   0.104
 3214SOL    HW110541   4.861   4.042   0.041
 3214SOL    HW210542   4.714   4.108   0.069
 3215SOL     OW10543   6.516   1.386   0.132
 3215SOL    HW110544   6.576   1.318   0.175
 3215SOL    HW210545   6.485   1.352   0.043
 3216SOL     OW10546   5.346   6.447   5.637
 3216SOL    HW110547   5.246   6.444   5.635
 3216SOL    HW210548   5.377   6.539   5.613
 3217SOL     OW10549   0.301   4.372   6.606
 3217SOL    HW110550   0.232   4.440   6.582
 3217SOL    HW210551   0.354   4.348   6.525
 3218SOL     OW10552   3.984   2.526   1.622
 3218SOL    HW110553   3.897   2.523   1.572
 3218SOL    HW210554   3.989   2.448   1.685
 3219SOL     OW10555   0.751   1.667   3.168
 3219SOL    HW110556   0.732   1.716   3.253
 3219SOL    HW210557   0.720   1.720   3.090
 3220SOL     OW10558   6.435   2.767   6.460
 3220SOL    HW110559   6.399   2.677   6.482
 3220SOL    HW210560   6.477   2.807   6.541
 3221SOL     OW10561   3.872   0.507   1.742
 3221SOL    HW110562   3.966   0.519   1.710
 3221SOL    HW210563   3.869   0.510   1.841
 3222SOL     OW10564   6.464   3.906   2.313
 3222SOL    HW110565   6.542   3.869   2.263
 3222SOL    HW210566   6.396   3.834   2.327
 3223SOL     OW10567   1.095   4.249   5.018
 3223SOL    HW110568   1.087   4.162   5.066
 3223SOL    HW210569   1.047   4.321   5.069
 3224SOL     OW10570   2.915   6.005   1.164
 3224SOL    HW110571   2.824   6.017   1.124
 3224SOL    HW210572   2.966   5.938   1.109
 3225SOL     OW10573   1.406   1.925   0.636
 3225SOL    HW110574   1.500   1.891   0.624
 3225SOL    HW210575   1.357   1.918   0.550
 3226SOL     OW10576   6.847   1.544   3.745
 3226SOL    HW110577   6.918   1.521   3.678
 3226SOL    HW210578   6.765   1.490   3.726
 3227SOL     OW10579   2.625   1.419   4.876
 3227SOL    HW110580   2.572   1.350   4.924
 3227SOL    HW210581   2.655   1.383   4.788
 3228SOL     OW10582   4.937   3.305   4.892
 3228SOL    HW110583   4.853   3.294   4.837
 3228SOL    HW210584   5.009   3.246   4.854
 3229SOL     OW10585   4.571   1.556   4.633
 3229SOL    HW110586   4.494   1.557   4.569
 3229SOL    HW210587   4.657   1.566   4.583
 3230SOL     OW10588   1.772   0.069   4.469
 3230SOL    HW110589   1.673   0.086   4.471
 3230SOL    HW210590   1.807   0.086   4.377
 3231SOL     OW10591   4.158   4.722   0.328
 3231SOL    HW110592   4.107   4.641   0.358
 3231SOL    HW210593   4.249   4.693   0.297
 3232SOL     OW10594   0.757   3.861   3.490
 3232SOL    HW110595   0.824   3.917   3.443
 3232SOL    HW210596   0.715   3.796   3.426
 3233SOL     OW10597   2.332   4.035   0.405
 3233SOL    HW110598   2.354   4.004   0.497
 3233SOL    HW210599   2.396   3.993   0.340
 3234SOL     OW10600   6.885   1.588   4.183
 3234SOL    HW110601   6.828   1.669   4.167
 3234SOL    HW210602   6.976   1.602   4.144
 3235SOL     OW10603   6.183   1.021   2.204
 3235SOL    HW110604   6.188   1.118   2.179
 3235SOL    HW210605   6.269   0.976   2.181
 3236SOL     OW10606   6.679   1.766   1.366
 3236SOL    HW110607   6.762   1.745   1.418
 3236SOL    HW210608   6.602   1.718   1.408
 3237SOL     OW10609   2.924   6.057   4.499
 3237SOL    HW110610   3.016   6.016   4.504
 3237SOL    HW210611   2.860   6.000   4.549
 3238SOL     OW10612   6.535   6.577   6.572
 3238SOL    HW110613   6.513   6.674   6.562
 3238SOL    HW210614   6.595   6.564   6.651
 3239SOL     OW10615   2.056   6.437   6.416
 3239SOL    HW110616   2.094   6.528   6.426
 3239SOL    HW210617   2.114   6.382   6.355
 3240SOL     OW10618   1.319   2.259   4.776
 3240SOL    HW110619   1.319   2.198   4.855
 3240SOL    HW210620   1.412   2.292   4.759
 3241SOL     OW10621   3.546   6.222   5.168
 3241SOL    HW110622   3.497   6.241   5.083
 3241SOL    HW210623   3.635   6.183   5.147
 3242SOL     OW10624   2.523   0.768   0.961
 3242SOL    HW110625   2.593   0.838   0.962
 3242SOL    HW210626   2.433   0.810   0.949
 3243SOL     OW10627   3.609   5.974   2.236
 3243SOL    HW110628   3.569   6.062   2.261
 3243SOL    HW210629   3.709   5.984   2.227
 3244SOL     OW10630   1.166   0.052   5.123
 3244SOL    HW110631   1.067   0.040   5.115
 3244SOL    HW210632   1.211   6.983   5.119
 3245SOL     OW10633   3.220   1.974   5.743
 3245SOL    HW110634   3.256   2.028   5.819
 3245SOL    HW210635   3.295   1.924   5.700
 3246SOL     OW10636   6.165   6.468   2.678
 3246SOL    HW110637   6.138   6.435   2.768
 3246SOL    HW210638   6.118   6.555   2.660
 3247SOL     OW10639   6.067   2.907   5.094
 3247SOL    HW110640   6.000   2.895   5.167
 3247SOL    HW210641   6.030   2.969   5.025
 3248SOL     OW10642   5.243   4.351   3.084
 3248SOL    HW110643   5.227   4.322   2.990
 3248SOL    HW210644   5.204   4.283   3.147
 3249SOL     OW10645   3.656   5.295   6.045
 3249SOL    HW110646   3.701   5.230   5.984
 3249SOL    HW210647   3.661   5.387   6.006
 3250SOL     OW10648   4.554   4.540   0.852
 3250SOL    HW110649   4.526   4.616   0.910
 3250SOL    HW210650   4.579   4.575   0.761
 3251SOL     OW10651   2.175   1.568   3.676
 3251SOL    HW110652   2.246   1.498   3.676
 3251SOL    HW210653   2.091   1.531   3.716
 3252SOL     OW10654   2.875   2.105   2.958
 3252SOL    HW110655   2.967   2.141   2.944
 3252SOL    HW210656   2.839   2.071   2.871
 3253SOL     OW10657   4.813   4.262   1.824
 3253SOL    HW110658   4.757   4.298   1.899
 3253SOL    HW210659   4.808   4.323   1.746
 3254SOL     OW10660   6.256   3.700   3.116
 3254SOL    HW110661   6.351   3.694   3.085
 3254SOL    HW210662   6.201   3.746   3.046
 3255SOL     OW10663   3.224   4.813   0.999
 3255SOL    HW110664   3.272   4.884   1.049
 3255SOL    HW210665   3.147   4.853   0.948
 3256SOL     OW10666   6.663   0.278   5.372
 3256SOL    HW110667   6.755   0.317   5.360
 3256SOL    HW210668   6.637   0.229   5.289
 3257SOL     OW10669   2.632   1.123   1.753
 3257SOL    HW110670   2.709   1.113   1.816
 3257SOL    HW210671   2.620   1.039   1.701
 3258SOL     OW10672   4.717   0.012   2.527
 3258SOL    HW110673   4.668   0.059   2.454
 3258SOL    HW210674   4.732   6.937   2.502
 3259SOL     OW10675   5.910   5.372   3.136
 3259SOL    HW110676   5.949   5.307   3.202
 3259SOL    HW210677   5.904   5.330   3.046
 3260SOL     OW10678   2.248   1.677   1.350
 3260SOL    HW110679   2.262   1.694   1.252
 3260SOL    HW210680   2.336   1.675   1.397
 3261SOL     OW10681   5.566   6.808   4.229
 3261SOL    HW110682   5.569   6.788   4.131
 3261SOL    HW210683   5.475   6.843   4.253
 3262SOL     OW10684   4.682   2.190   3.860
 3262SOL    HW110685   4.753   2.221   3.923
 3262SOL    HW210686   4.724   2.161   3.774
 3263SOL     OW10687   3.262   4.869   3.104
 3263SOL    HW110688   3.340   4.811   3.080
 3263SOL    HW210689   3.216   4.900   3.021
 3264SOL     OW10690   5.199   4.184   6.585
 3264SOL    HW110691   5.112   4.233   6.586
 3264SOL    HW210692   5.272   4.246   6.556
 3265SOL     OW10693   5.467   0.002   5.698
 3265SOL    HW110694   5.564   7.020   5.723
 3265SOL    HW210695   5.434   6.928   5.686
 3266SOL     OW10696   0.881   2.495   6.221
 3266SOL    HW110697   0.887   2.536   6.312
 3266SOL    HW210698   0.972   2.488   6.180
 3267SOL     OW10699   5.748   4.291   1.536
 3267SOL    HW110700   5.701   4.370   1.573
 3267SOL    HW210701   5.824   4.321   1.478
 3268SOL     OW10702   2.106   5.510   0.339
 3268SOL    HW110703   2.037   5.508   0.267
 3268SOL    HW210704   2.121   5.417   0.374
 3269SOL     OW10705   4.451   2.679   1.256
 3269SOL    HW110706   4.486   2.717   1.171
 3269SOL    HW210707   4.420   2.585   1.240
 3270SOL     OW10708   6.562   5.683   3.156
 3270SOL    HW110709   6.535   5.587   3.147
 3270SOL    HW210710   6.587   5.720   3.066
 3271SOL     OW10711   4.914   0.179   0.537
 3271SOL    HW110712   4.918   0.129   0.624
 3271SOL    HW210713   4.903   0.277   0.556
 3272SOL     OW10714   4.598   5.498   5.805
 3272SOL    HW110715   4.602   5.405   5.769
 3272SOL    HW210716   4.530   5.501   5.879
 3273SOL     OW10717   6.861   0.031   3.159
 3273SOL    HW110718   6.891   0.079   3.241
 3273SOL    HW210719   6.940   7.014   3.110
 3274SOL     OW10720   3.041   0.879   1.245
 3274SOL    HW110721   3.103   0.889   1.323
 3274SOL    HW210722   2.947   0.886   1.276
 3275SOL     OW10723   4.156   0.439   6.605
 3275SOL    HW110724   4.112   0.451   6.516
 3275SOL    HW210725   4.141   0.345   6.636
 3276SOL     OW10726   1.304   5.584   1.440
 3276SOL    HW110727   1.359   5.516   1.489
 3276SOL    HW210728   1.263   5.542   1.360
 3277SOL     OW10729   0.485   6.168   6.920
 3277SOL    HW110730   0.438   6.082   6.940
 3277SOL    HW210731   0.482   6.186   6.822
 3278SOL     OW10732   0.912   0.336   7.017
 3278SOL    HW110733   0.998   0.326   0.047
 3278SOL    HW210734   0.860   0.251   0.001
 3279SOL     OW10735   1.885   6.559   1.487
 3279SOL    HW110736   1.906   6.527   1.394
 3279SOL    HW210737   1.954   6.625   1.515
 3280SOL     OW10738   2.965   5.559   3.164
 3280SOL    HW110739   3.065   5.561   3.165
 3280SOL    HW210740   2.934   5.502   3.088
 3281SOL     OW10741   1.507   6.792   1.106
 3281SOL    HW110742   1.541   6.825   1.194
 3281SOL    HW210743   1.579   6.741   1.059
 3282SOL     OW10744   1.563   4.764   2.124
 3282SOL    HW110745   1.539   4.815   2.207
 3282SOL    HW210746   1.642   4.706   2.142
 3283SOL     OW10747   1.503   0.406   3.069
 3283SOL    HW110748   1.420   0.456   3.044
 3283SOL    HW210749   1.568   0.469   3.112
 3284SOL     OW10750   2.012   6.058   5.531
 3284SOL    HW110751   1.921   6.018   5.543
 3284SOL    HW210752   2.030   6.071   5.433
 3285SOL     OW10753   0.622   3.312   4.482
 3285SOL    HW110754   0.713   3.346   4.456
 3285SOL    HW210755   0.630   3.222   4.523
 3286SOL     OW10756   4.994   4.366   6.566
 3286SOL    HW110757   5.011   4.465   6.562
 3286SOL    HW210758   4.895   4.350   6.569
 3287SOL     OW10759   0.258   2.515   0.804
 3287SOL    HW110760   0.350   2.513   0.844
 3287SOL    HW210761   0.201   2.447   0.849
 3288SOL     OW10762   0.577   0.063   0.449
 3288SOL    HW110763   0.526   0.146   0.429
 3288SOL    HW210764   0.662   0.062   0.395
 3289SOL     OW10765   1.573   0.152   3.652
 3289SOL    HW110766   1.592   0.238   3.699
 3289SOL    HW210767   1.504   0.101   3.703
 3290SOL     OW10768   0.074   4.904   4.198
 3290SOL    HW110769   0.049   4.903   4.101
 3290SOL    HW210770   0.149   4.968   4.212
 3291SOL     OW10771   0.964   1.708   1.616
 3291SOL    HW110772   0.953   1.807   1.623
 3291SOL    HW210773   1.058   1.688   1.587
 3292SOL     OW10774   1.221   6.766   4.314
 3292SOL    HW110775   1.146   6.710   4.349
 3292SOL    HW210776   1.229   6.849   4.369
 3293SOL     OW10777   5.995   0.515   2.957
 3293SOL    HW110778   6.060   0.513   3.032
 3293SOL    HW210779   5.959   0.423   2.941
 3294SOL     OW10780   6.709   6.683   1.486
 3294SOL    HW110781   6.711   6.602   1.545
 3294SOL    HW210782   6.666   6.660   1.399
 3295SOL     OW10783   2.882   2.877   6.185
 3295SOL    HW110784   2.783   2.895   6.182
 3295SOL    HW210785   2.902   2.791   6.138
 3296SOL     OW10786   0.911   6.690   1.645
 3296SOL    HW110787   0.916   6.732   1.555
 3296SOL    HW210788   0.869   6.599   1.638
 3297SOL     OW10789   3.252   0.769   5.600
 3297SOL    HW110790   3.250   0.724   5.689
 3297SOL    HW210791   3.327   0.732   5.545
 3298SOL     OW10792   0.441   5.396   3.132
 3298SOL    HW110793   0.396   5.307   3.127
 3298SOL    HW210794   0.381   5.466   3.096
 3299SOL     OW10795   2.001   1.377   4.513
 3299SOL    HW110796   1.944   1.448   4.554
 3299SOL    HW210797   2.019   1.400   4.417
 3300SOL     OW10798   0.414   6.873   5.211
 3300SOL    HW110799   0.426   6.791   5.154
 3300SOL    HW210800   0.472   6.946   5.177
 3301SOL     OW10801   6.640   4.204   2.444
 3301SOL    HW110802   6.577   4.174   2.372
 3301SOL    HW210803   6.591   4.208   2.531
 3302SOL     OW10804   1.747   6.006   5.568
 3302SOL    HW110805   1.732   5.919   5.613
 3302SOL    HW210806   1.735   6.081   5.634
 3303SOL     OW10807   3.392   3.642   5.112
 3303SOL    HW110808   3.321   3.679   5.172
 3303SOL    HW210809   3.402   3.700   5.031
 3304SOL     OW10810   1.624   0.702   3.794
 3304SOL    HW110811   1.691   0.757   3.745
 3304SOL    HW210812   1.670   0.645   3.862
 3305SOL     OW10813   0.831   2.252   0.253
 3305SOL    HW110814   0.865   2.261   0.159
 3305SOL    HW210815   0.857   2.163   0.289
 3306SOL     OW10816   1.118   1.329   0.832
 3306SOL    HW110817   1.051   1.262   0.802
 3306SOL    HW210818   1.086   1.375   0.914
 3307SOL     OW10819   0.183   6.782   0.123
 3307SOL    HW110820   0.175   6.879   0.145
 3307SOL    HW210821   0.267   6.745   0.163
 3308SOL     OW10822   5.518   6.318   0.048
 3308SOL    HW110823   5.486   6.365   0.131
 3308SOL    HW210824   5.527   6.384   6.994
 3309SOL     OW10825   0.828   4.409   1.982
 3309SOL    HW110826   0.730   4.392   1.974
 3309SOL    HW210827   0.866   4.348   2.052
 3310SOL     OW10828   2.255   6.194   2.354
 3310SOL    HW110829   2.168   6.210   2.402
 3310SOL    HW210830   2.236   6.158   2.262
 3311SOL     OW10831   4.309   5.655   0.865
 3311SOL    HW110832   4.364   5.577   0.833
 3311SOL    HW210833   4.286   5.642   0.962
 3312SOL     OW10834   1.937   2.399   6.202
 3312SOL    HW110835   1.943   2.497   6.183
 3312SOL    HW210836   1.965   2.347   6.122
 3313SOL     OW10837   5.507   6.841   5.126
 3313SOL    HW110838   5.505   6.743   5.107
 3313SOL    HW210839   5.437   6.864   5.193
 3314SOL     OW10840   0.928   4.136   6.217
 3314SOL    HW110841   0.856   4.074   6.188
 3314SOL    HW210842   1.016   4.088   6.215
 3315SOL     OW10843   6.267   3.174   3.447
 3315SOL    HW110844   6.184   3.171   3.391
 3315SOL    HW210845   6.296   3.269   3.460
 3316SOL     OW10846   3.664   0.150   6.825
 3316SOL    HW110847   3.585   0.165   6.886
 3316SOL    HW210848   3.632   0.144   6.731
 3317SOL     OW10849   5.818   2.848   1.406
 3317SOL    HW110850   5.747   2.882   1.467
 3317SOL    HW210851   5.795   2.756   1.375
 3318SOL     OW10852   2.778   5.224   6.622
 3318SOL    HW110853   2.732   5.221   6.711
 3318SOL    HW210854   2.851   5.156   6.619
 3319SOL     OW10855   0.913   5.775   6.060
 3319SOL    HW110856   0.910   5.794   6.158
 3319SOL    HW210857   0.989   5.825   6.018
 3320SOL     OW10858   1.120   0.736   1.259
 3320SOL    HW110859   1.065   0.661   1.295
 3320SOL    HW210860   1.202   0.698   1.216
 3321SOL     OW10861   3.883   3.590   4.481
 3321SOL    HW110862   3.916   3.529   4.553
 3321SOL    HW210863   3.945   3.669   4.474
 3322SOL     OW10864   5.188   3.759   2.666
 3322SOL    HW110865   5.265   3.762   2.730
 3322SOL    HW210866   5.107   3.798   2.710
 3323SOL     OW10867   1.715   4.337   0.767
 3323SOL    HW110868   1.635   4.371   0.717
 3323SOL    HW210869   1.736   4.244   0.737
 3324SOL     OW10870   6.756   3.321   1.381
 3324SOL    HW110871   6.812   3.301   1.462
 3324SOL    HW210872   6.807   3.380   1.319
 3325SOL     OW10873   1.409   4.924   5.284
 3325SOL    HW110874   1.490   4.930   5.343
 3325SOL    HW210875   1.437   4.894   5.193
 3326SOL     OW10876   4.539   6.395   2.312
 3326SOL    HW110877   4.636   6.414   2.298
 3326SOL    HW210878   4.523   6.366   2.406
 3327SOL     OW10879   5.102   6.281   1.641
 3327SOL    HW110880   5.058   6.216   1.703
 3327SOL    HW210881   5.194   6.304   1.675
 3328SOL     OW10882   6.197   6.366   3.713
 3328SOL    HW110883   6.273   6.343   3.652
 3328SOL    HW210884   6.200   6.464   3.733
 3329SOL     OW10885   5.533   0.562   6.373
 3329SOL    HW110886   5.456   0.517   6.326
 3329SOL    HW210887   5.580   0.623   6.308
 3330SOL     OW10888   5.945   0.244   2.921
 3330SOL    HW110889   5.898   0.219   3.005
 3330SOL    HW210890   6.006   0.170   2.893
 3331SOL     OW10891   0.851   3.070   2.167
 3331SOL    HW110892   0.831   3.099   2.261
 3331SOL    HW210893   0.794   2.991   2.144
 3332SOL     OW10894   4.586   4.989   0.890
 3332SOL    HW110895   4.516   4.964   0.957
 3332SOL    HW210896   4.653   5.050   0.933
 3333SOL     OW10897   2.202   4.072   0.711
 3333SOL    HW110898   2.290   4.024   0.713
 3333SOL    HW210899   2.212   4.162   0.753
 3334SOL     OW10900   1.982   2.750   2.272
 3334SOL    HW110901   2.057   2.707   2.321
 3334SOL    HW210902   1.940   2.819   2.331
 3335SOL     OW10903   4.530   4.051   6.632
 3335SOL    HW110904   4.594   3.993   6.581
 3335SOL    HW210905   4.450   3.997   6.659
 3336SOL     OW10906   3.634   5.829   5.969
 3336SOL    HW110907   3.722   5.878   5.968
 3336SOL    HW210908   3.584   5.853   6.052
 3337SOL     OW10909   3.098   3.959   3.799
 3337SOL    HW110910   3.047   4.002   3.873
 3337SOL    HW210911   3.195   3.953   3.824
 3338SOL     OW10912   3.602   2.941   1.563
 3338SOL    HW110913   3.558   3.031   1.554
 3338SOL    HW210914   3.581   2.886   1.482
 3339SOL     OW10915   0.657   6.775   6.011
 3339SOL    HW110916   0.663   6.821   6.100
 3339SOL    HW210917   0.743   6.729   5.991
 3340SOL     OW10918   4.872   1.611   6.533
 3340SOL    HW110919   4.899   1.680   6.467
 3340SOL    HW210920   4.897   1.520   6.499
 3341SOL     OW10921   1.137   3.777   1.787
 3341SOL    HW110922   1.178   3.687   1.775
 3341SOL    HW210923   1.068   3.792   1.716
 3342SOL     OW10924   5.825   0.316   2.692
 3342SOL    HW110925   5.876   0.299   2.777
 3342SOL    HW210926   5.749   0.377   2.711
 3343SOL     OW10927   3.757   4.736   0.675
 3343SOL    HW110928   3.727   4.648   0.711
 3343SOL    HW210929   3.753   4.735   0.575
 3344SOL     OW10930   1.489   3.632   0.815
 3344SOL    HW110931   1.470   3.563   0.885
 3344SOL    HW210932   1.447   3.719   0.842
 3345SOL     OW10933   4.720   4.823   1.092
 3345SOL    HW110934   4.776   4.806   1.011
 3345SOL    HW210935   4.670   4.909   1.081
 3346SOL     OW10936   0.833   0.538   0.185
 3346SOL    HW110937   0.852   0.472   0.112
 3346SOL    HW210938   0.919   0.579   0.216
 3347SOL     OW10939   0.771   3.268   5.766
 3347SOL    HW110940   0.818   3.333   5.827
 3347SOL    HW210941   0.837   3.232   5.700
 3348SOL     OW10942   3.087   4.316   5.693
 3348SOL    HW110943   3.086   4.369   5.608
 3348SOL    HW210944   3.116   4.375   5.769
 3349SOL     OW10945   2.328   5.206   1.991
 3349SOL    HW110946   2.349   5.192   1.895
 3349SOL    HW210947   2.276   5.291   2.003
 3350SOL     OW10948   3.099   5.599   4.057
 3350SOL    HW110949   3.090   5.581   3.960
 3350SOL    HW210950   3.126   5.516   4.105
 3351SOL     OW10951   4.951   0.078   1.878
 3351SOL    HW110952   4.977   0.017   1.803
 3351SOL    HW210953   4.909   0.161   1.840
 3352SOL     OW10954   5.865   0.859   0.524
 3352SOL    HW110955   5.809   0.845   0.442
 3352SOL    HW210956   5.808   0.895   0.598
 3353SOL     OW10957   4.240   0.807   6.030
 3353SOL    HW110958   4.234   0.906   6.042
 3353SOL    HW210959   4.332   0.784   5.999
 3354SOL     OW10960   3.393   2.138   0.198
 3354SOL    HW110961   3.393   2.125   0.297
 3354SOL    HW210962   3.303   2.113   0.161
 3355SOL     OW10963   1.037   2.364   5.465
 3355SOL    HW110964   0.952   2.396   5.507
 3355SOL    HW210965   1.079   2.439   5.414
 3356SOL     OW10966   2.951   0.429   5.290
 3356SOL    HW110967   2.968   0.355   5.355
 3356SOL    HW210968   2.901   0.503   5.336
 3357SOL     OW10969   2.927   3.700   4.439
 3357SOL    HW110970   2.892   3.758   4.513
 3357SOL    HW210971   2.891   3.607   4.449
 3358SOL     OW10972   6.385   1.936   1.774
 3358SOL    HW110973   6.427   1.849   1.799
 3358SOL    HW210974   6.425   2.010   1.828
 3359SOL     OW10975   0.823   6.466   3.489
 3359SOL    HW110976   0.874   6.541   3.532
 3359SOL    HW210977   0.886   6.412   3.433
 3360SOL     OW10978   1.212   5.446   4.646
 3360SOL    HW110979   1.158   5.362   4.641
 3360SOL    HW210980   1.244   5.460   4.740
 3361SOL     OW10981   0.396   0.155   4.516
 3361SOL    HW110982   0.426   0.070   4.471
 3361SOL    HW210983   0.297   0.151   4.530
 3362SOL     OW10984   2.891   0.675   5.481
 3362SOL    HW110985   2.949   0.617   5.538
 3362SOL    HW210986   2.941   0.757   5.453
 3363SOL     OW10987   4.947   3.462   0.685
 3363SOL    HW110988   4.973   3.414   0.601
 3363SOL    HW210989   4.886   3.538   0.662
 3364SOL     OW10990   1.734   3.120   0.985
 3364SOL    HW110991   1.638   3.101   1.006
 3364SOL    HW210992   1.740   3.193   0.917
 3365SOL     OW10993   0.312   2.823   2.468
 3365SOL    HW110994   0.402   2.866   2.471
 3365SOL    HW210995   0.269   2.828   2.558
 3366SOL     OW10996   5.788   3.602   3.380
 3366SOL    HW110997   5.855   3.589   3.454
 3366SOL    HW210998   5.791   3.697   3.348
 3367SOL     OW10999   3.003   3.334   3.537
 3367SOL    HW111000   3.071   3.391   3.584
 3367SOL    HW211001   2.955   3.279   3.605
 3368SOL     OW11002   1.375   0.948   3.498
 3368SOL    HW111003   1.387   1.047   3.488
 3368SOL    HW211004   1.295   0.919   3.445
 3369SOL     OW11005   5.904   2.660   0.697
 3369SOL    HW111006   5.831   2.610   0.650
 3369SOL    HW211007   5.961   2.708   0.630
 3370SOL     OW11008   0.478   5.873   3.702
 3370SOL    HW111009   0.472   5.970   3.679
 3370SOL    HW211010   0.385   5.835   3.707
 3371SOL     OW11011   3.072   3.073   1.585
 3371SOL    HW111012   3.046   3.060   1.680
 3371SOL    HW211013   3.057   2.988   1.534
 3372SOL     OW11014   5.335   3.016   3.520
 3372SOL    HW111015   5.424   3.050   3.492
 3372SOL    HW211016   5.313   2.933   3.468
 3373SOL     OW11017   0.643   4.673   0.858
 3373SOL    HW111018   0.717   4.607   0.850
 3373SOL    HW211019   0.676   4.764   0.833
 3374SOL     OW11020   1.101   5.216   3.977
 3374SOL    HW111021   1.025   5.185   3.919
 3374SOL    HW211022   1.184   5.167   3.951
 3375SOL     OW11023   6.510   6.947   5.587
 3375SOL    HW111024   6.554   0.011   5.617
 3375SOL    HW211025   6.463   6.962   5.500
 3376SOL     OW11026   3.774   4.085   5.032
 3376SOL    HW111027   3.732   4.174   5.016
 3376SOL    HW211028   3.839   4.066   4.958
 3377SOL     OW11029   6.815   5.643   4.462
 3377SOL    HW111030   6.740   5.663   4.525
 3377SOL    HW211031   6.870   5.725   4.448
 3378SOL     OW11032   1.079   6.007   0.168
 3378SOL    HW111033   1.113   5.986   0.077
 3378SOL    HW211034   1.152   6.049   0.222
 3379SOL     OW11035   5.416   4.791   3.931
 3379SOL    HW111036   5.383   4.697   3.938
 3379SOL    HW211037   5.443   4.824   4.022
 3380SOL     OW11038   1.419   4.337   2.111
 3380SOL    HW111039   1.426   4.368   2.016
 3380SOL    HW211040   1.493   4.378   2.164
 3381SOL     OW11041   3.371   4.529   6.479
 3381SOL    HW111042   3.331   4.613   6.443
 3381SOL    HW211043   3.354   4.454   6.416
 3382SOL     OW11044   0.425   3.883   6.531
 3382SOL    HW111045   0.330   3.869   6.561
 3382SOL    HW211046   0.486   3.873   6.610
 3383SOL     OW11047   3.993   5.958   0.249
 3383SOL    HW111048   3.920   6.020   0.219
 3383SOL    HW211049   3.981   5.938   0.346
 3384SOL     OW11050   3.739   2.544   6.584
 3384SOL    HW111051   3.736   2.541   6.684
 3384SOL    HW211052   3.646   2.552   6.549
 3385SOL     OW11053   5.940   1.851   4.492
 3385SOL    HW111054   5.923   1.909   4.412
 3385SOL    HW211055   6.026   1.801   4.479
 3386SOL     OW11056   6.888   4.751   5.364
 3386SOL    HW111057   6.965   4.800   5.404
 3386SOL    HW211058   6.829   4.716   5.437
 3387SOL     OW11059   6.201   0.525   3.139
 3387SOL    HW111060   6.136   0.525   3.215
 3387SOL    HW211061   6.294   0.524   3.176
 3388SOL     OW11062   1.056   3.860   0.801
 3388SOL    HW111063   1.012   3.927   0.860
 3388SOL    HW211064   1.073   3.901   0.711
 3389SOL     OW11065   6.039   5.069   5.666
 3389SOL    HW111066   6.023   5.168   5.661
 3389SOL    HW211067   5.959   5.025   5.706
 3390SOL     OW11068   2.873   4.471   0.922
 3390SOL    HW111069   2.864   4.380   0.882
 3390SOL    HW211070   2.825   4.538   0.865
 3391SOL     OW11071   5.183   4.147   5.765
 3391SOL    HW111072   5.211   4.062   5.810
 3391SOL    HW211073   5.158   4.128   5.670
 3392SOL     OW11074   4.687   5.645   5.573
 3392SOL    HW111075   4.780   5.666   5.602
 3392SOL    HW211076   4.630   5.631   5.654
 3393SOL     OW11077   3.140   1.169   0.482
 3393SOL    HW111078   3.062   1.231   0.478
 3393SOL    HW211079   3.143   1.125   0.572
 3394SOL     OW11080   3.213   5.913   1.971
 3394SOL    HW111081   3.205   6.013   1.964
 3394SOL    HW211082   3.182   5.871   1.885
 3395SOL     OW11083   1.448   5.794   3.095
 3395SOL    HW111084   1.418   5.827   3.185
 3395SOL    HW211085   1.376   5.808   3.028
 3396SOL     OW11086   3.739   6.915   4.303
 3396SOL    HW111087   3.817   6.925   4.366
 3396SOL    HW211088   3.710   6.819   4.301
 3397SOL     OW11089   2.973   6.239   2.315
 3397SOL    HW111090   3.056   6.185   2.327
 3397SOL    HW211091   2.934   6.221   2.225
 3398SOL     OW11092   6.536   0.174   0.652
 3398SOL    HW111093   6.542   0.131   0.742
 3398SOL    HW211094   6.525   0.104   0.581
 3399SOL     OW11095   6.670   6.633   2.316
 3399SOL    HW111096   6.755   6.618   2.266
 3399SOL    HW211097   6.593   6.606   2.258
 3400SOL     OW11098   3.586   3.428   5.763
 3400SOL    HW111099   3.661   3.486   5.792
 3400SOL    HW211100   3.616   3.367   5.689
 3401SOL     OW11101   6.704   3.786   3.694
 3401SOL    HW111102   6.802   3.793   3.679
 3401SOL    HW211103   6.664   3.878   3.693
 3402SOL     OW11104   6.405   3.919   0.323
 3402SOL    HW111105   6.384   3.822   0.314
 3402SOL    HW211106   6.362   3.954   0.406
 3403SOL     OW11107   5.654   0.280   3.641
 3403SOL    HW111108   5.689   0.202   3.693
 3403SOL    HW211109   5.560   0.298   3.668
 3404SOL     OW11110   5.138   4.770   2.637
 3404SOL    HW111111   5.175   4.762   2.730
 3404SOL    HW211112   5.073   4.846   2.634
 3405SOL     OW11113   4.632   6.993   0.767
 3405SOL    HW111114   4.679   6.916   0.724
 3405SOL    HW211115   4.670   7.007   0.859
 3406SOL     OW11116   4.768   5.159   1.005
 3406SOL    HW111117   4.751   5.124   1.098
 3406SOL    HW211118   4.855   5.208   1.004
 3407SOL     OW11119   2.207   1.791   0.790
 3407SOL    HW111120   2.253   1.755   0.709
 3407SOL    HW211121   2.163   1.878   0.768
 3408SOL     OW11122   2.598   6.945   4.273
 3408SOL    HW111123   2.627   7.010   4.202
 3408SOL    HW211124   2.653   6.862   4.266
 3409SOL     OW11125   4.408   2.018   6.850
 3409SOL    HW111126   4.321   2.062   6.830
 3409SOL    HW211127   4.425   2.022   6.949
 3410SOL     OW11128   6.171   1.936   2.299
 3410SOL    HW111129   6.114   1.862   2.264
 3410SOL    HW211130   6.214   1.984   2.223
 3411SOL     OW11131   5.733   3.519   6.356
 3411SOL    HW111132   5.780   3.585   6.298
 3411SOL    HW211133   5.796   3.446   6.382
 3412SOL     OW11134   5.088   3.786   3.130
 3412SOL    HW111135   5.101   3.866   3.071
 3412SOL    HW211136   5.168   3.726   3.122
 3413SOL     OW11137   1.249   2.873   0.731
 3413SOL    HW111138   1.165   2.833   0.767
 3413SOL    HW211139   1.326   2.813   0.750
 3414SOL     OW11140   3.593   3.158   2.026
 3414SOL    HW111141   3.628   3.106   2.103
 3414SOL    HW211142   3.663   3.222   1.993
 3415SOL     OW11143   2.676   0.613   6.767
 3415SOL    HW111144   2.768   0.647   6.746
 3415SOL    HW211145   2.667   0.601   6.866
 3416SOL     OW11146   5.132   6.304   6.362
 3416SOL    HW111147   5.171   6.226   6.412
 3416SOL    HW211148   5.205   6.368   6.338
 3417SOL     OW11149   5.912   0.561   2.389
 3417SOL    HW111150   5.978   0.623   2.432
 3417SOL    HW211151   5.960   0.482   2.352
 3418SOL     OW11152   4.579   5.630   1.132
 3418SOL    HW111153   4.638   5.640   1.213
 3418SOL    HW211154   4.550   5.535   1.123
 3419SOL     OW11155   2.788   4.776   5.308
 3419SOL    HW111156   2.858   4.714   5.272
 3419SOL    HW211157   2.816   4.871   5.294
 3420SOL     OW11158   5.321   0.670   2.197
 3420SOL    HW111159   5.350   0.625   2.112
 3420SOL    HW211160   5.325   0.769   2.185
 3421SOL     OW11161   0.549   1.517   4.229
 3421SOL    HW111162   0.640   1.481   4.249
 3421SOL    HW211163   0.558   1.611   4.196
 3422SOL     OW11164   3.096   5.300   1.242
 3422SOL    HW111165   3.048   5.213   1.244
 3422SOL    HW211166   3.113   5.327   1.147
 3423SOL     OW11167   1.547   5.507   5.556
 3423SOL    HW111168   1.528   5.582   5.492
 3423SOL    HW211169   1.626   5.455   5.523
 3424SOL     OW11170   5.846   5.944   2.717
 3424SOL    HW111171   5.788   5.874   2.758
 3424SOL    HW211172   5.891   5.907   2.636
 3425SOL     OW11173   5.601   3.167   6.376
 3425SOL    HW111174   5.560   3.198   6.290
 3425SOL    HW211175   5.657   3.086   6.358
 3426SOL     OW11176   6.492   5.441   5.948
 3426SOL    HW111177   6.530   5.404   5.863
 3426SOL    HW211178   6.550   5.514   5.982
 3427SOL     OW11179   1.579   0.938   6.722
 3427SOL    HW111180   1.512   0.976   6.785
 3427SOL    HW211181   1.557   0.842   6.703
 3428SOL     OW11182   4.069   0.912   4.153
 3428SOL    HW111183   3.993   0.952   4.204
 3428SOL    HW211184   4.142   0.980   4.145
 3429SOL     OW11185   5.119   5.394   0.118
 3429SOL    HW111186   5.042   5.457   0.111
 3429SOL    HW211187   5.134   5.371   0.214
 3430SOL     OW11188   2.885   4.204   6.511
 3430SOL    HW111189   2.883   4.121   6.567
 3430SOL    HW211190   2.877   4.179   6.414
 3431SOL     OW11191   1.344   3.597   1.768
 3431SOL    HW111192   1.359   3.519   1.707
 3431SOL    HW211193   1.427   3.652   1.772
 3432SOL     OW11194   6.892   5.521   6.353
 3432SOL    HW111195   6.834   5.461   6.409
 3432SOL    HW211196   6.984   5.525   6.393
 3433SOL     OW11197   0.827   1.342   6.911
 3433SOL    HW111198   0.905   1.391   6.950
 3433SOL    HW211199   0.811   1.258   6.964
 3434SOL     OW11200   4.217   2.581   1.745
 3434SOL    HW111201   4.246   2.668   1.705
 3434SOL    HW211202   4.131   2.552   1.702
 3435SOL     OW11203   3.088   2.633   1.311
 3435SOL    HW111204   3.175   2.585   1.321
 3435SOL    HW211205   3.014   2.577   1.349
 3436SOL     OW11206   4.363   5.514   5.161
 3436SOL    HW111207   4.295   5.465   5.107
 3436SOL    HW211208   4.411   5.450   5.221
 3437SOL     OW11209   2.570   5.699   0.839
 3437SOL    HW111210   2.652   5.729   0.887
 3437SOL    HW211211   2.495   5.688   0.905
 3438SOL     OW11212   2.687   4.268   0.356
 3438SOL    HW111213   2.737   4.251   0.441
 3438SOL    HW211214   2.703   4.362   0.326
 3439SOL     OW11215   2.771   5.762   1.013
 3439SOL    HW111216   2.870   5.752   1.007
 3439SOL    HW211217   2.741   5.739   1.105
 3440SOL     OW11218   4.113   5.005   5.777
 3440SOL    HW111219   4.187   4.952   5.818
 3440SOL    HW211220   4.026   4.956   5.788
 3441SOL     OW11221   0.213   5.258   5.695
 3441SOL    HW111222   0.221   5.345   5.647
 3441SOL    HW211223   0.290   5.199   5.671
 3442SOL     OW11224   1.929   1.945   0.653
 3442SOL    HW111225   1.866   2.005   0.704
 3442SOL    HW211226   1.894   1.931   0.561
 3443SOL     OW11227   6.876   5.585   2.204
 3443SOL    HW111228   6.884   5.513   2.274
 3443SOL    HW211229   6.780   5.611   2.194
 3444SOL     OW11230   1.324   3.680   5.868
 3444SOL    HW111231   1.409   3.728   5.889
 3444SOL    HW211232   1.345   3.583   5.851
 3445SOL     OW11233   5.964   4.700   4.389
 3445SOL    HW111234   5.970   4.605   4.419
 3445SOL    HW211235   6.055   4.742   4.395
 3446SOL     OW11236   5.118   1.595   6.960
 3446SOL    HW111237   5.173   1.604   0.022
 3446SOL    HW211238   5.021   1.607   6.983
 3447SOL     OW11239   4.948   1.795   6.023
 3447SOL    HW111240   4.855   1.831   6.025
 3447SOL    HW211241   4.959   1.726   6.095
 3448SOL     OW11242   0.614   5.199   4.620
 3448SOL    HW111243   0.568   5.193   4.708
 3448SOL    HW211244   0.636   5.294   4.599
 3449SOL     OW11245   1.376   4.448   4.628
 3449SOL    HW111246   1.351   4.526   4.571
 3449SOL    HW211247   1.293   4.404   4.663
 3450SOL     OW11248   2.119   5.992   3.343
 3450SOL    HW111249   2.123   6.092   3.347
 3450SOL    HW211250   2.190   5.958   3.282
 3451SOL     OW11251   2.395   1.887   1.179
 3451SOL    HW111252   2.314   1.911   1.232
 3451SOL    HW211253   2.389   1.928   1.088
 3452SOL     OW11254   4.372   1.096   5.216
 3452SOL    HW111255   4.471   1.111   5.215
 3452SOL    HW211256   4.354   0.997   5.219
 3453SOL     OW11257   4.353   6.573   5.631
 3453SOL    HW111258   4.419   6.567   5.706
 3453SOL    HW211259   4.398   6.547   5.545
 3454SOL     OW11260   1.520   3.265   4.001
 3454SOL    HW111261   1.532   3.213   3.917
 3454SOL    HW211262   1.543   3.361   3.984
 3455SOL     OW11263   1.398   3.950   6.072
 3455SOL    HW111264   1.438   3.972   6.161
 3455SOL    HW211265   1.463   3.895   6.019
 3456SOL     OW11266   4.563   5.438   2.741
 3456SOL    HW111267   4.488   5.372   2.744
 3456SOL    HW211268   4.609   5.433   2.652
 3457SOL     OW11269   3.966   3.863   0.437
 3457SOL    HW111270   3.934   3.958   0.430
 3457SOL    HW211271   3.908   3.804   0.381
 3458SOL     OW11272   4.000   1.800   1.366
 3458SOL    HW111273   4.017   1.829   1.460
 3458SOL    HW211274   3.939   1.865   1.321
 3459SOL     OW11275   6.617   1.059   2.761
 3459SOL    HW111276   6.572   0.969   2.757
 3459SOL    HW211277   6.666   1.066   2.848
 3460SOL     OW11278   4.903   1.751   5.254
 3460SOL    HW111279   4.928   1.677   5.191
 3460SOL    HW211280   4.807   1.776   5.241
 3461SOL     OW11281   4.503   4.567   4.136
 3461SOL    HW111282   4.420   4.621   4.126
 3461SOL    HW211283   4.533   4.567   4.231
 3462SOL     OW11284   1.426   4.208   6.743
 3462SOL    HW111285   1.391   4.115   6.756
 3462SOL    HW211286   1.399   4.264   6.821
 3463SOL     OW11287   6.455   3.295   6.658
 3463SOL    HW111288   6.360   3.265   6.651
 3463SOL    HW211289   6.460   3.378   6.714
 3464SOL     OW11290   0.185   5.164   4.409
 3464SOL    HW111291   0.115   5.224   4.371
 3464SOL    HW211292   0.164   5.069   4.388
 3465SOL     OW11293   0.962   2.904   1.095
 3465SOL    HW111294   1.029   2.964   1.138
 3465SOL    HW211295   0.874   2.913   1.142
 3466SOL     OW11296   5.440   4.073   3.388
 3466SOL    HW111297   5.402   4.141   3.450
 3466SOL    HW211298   5.536   4.056   3.412
 3467SOL     OW11299   2.335   1.581   6.331
 3467SOL    HW111300   2.414   1.606   6.276
 3467SOL    HW211301   2.251   1.611   6.285
 3468SOL     OW11302   5.608   4.947   1.646
 3468SOL    HW111303   5.671   4.947   1.724
 3468SOL    HW211304   5.520   4.986   1.674
 3469SOL     OW11305   5.724   3.812   1.046
 3469SOL    HW111306   5.627   3.794   1.029
 3469SOL    HW211307   5.779   3.738   1.008
 3470SOL     OW11308   6.552   6.138   6.503
 3470SOL    HW111309   6.528   6.181   6.416
 3470SOL    HW211310   6.480   6.156   6.570
 3471SOL     OW11311   4.029   6.657   4.423
 3471SOL    HW111312   3.951   6.674   4.362
 3471SOL    HW211313   4.086   6.585   4.384
 3472SOL     OW11314   3.488   0.662   4.306
 3472SOL    HW111315   3.526   0.633   4.218
 3472SOL    HW211316   3.513   0.596   4.377
 3473SOL     OW11317   4.884   6.845   3.697
 3473SOL    HW111318   4.809   6.792   3.736
 3473SOL    HW211319   4.956   6.855   3.765
 3474SOL     OW11320   5.625   5.242   0.367
 3474SOL    HW111321   5.714   5.198   0.352
 3474SOL    HW211322   5.589   5.215   0.457
 3475SOL     OW11323   1.942   5.695   5.072
 3475SOL    HW111324   2.031   5.654   5.049
 3475SOL    HW211325   1.940   5.789   5.039
 3476SOL     OW11326   2.809   1.880   3.312
 3476SOL    HW111327   2.881   1.907   3.375
 3476SOL    HW211328   2.849   1.839   3.230
 3477SOL     OW11329   4.752   5.329   2.196
 3477SOL    HW111330   4.838   5.316   2.147
 3477SOL    HW211331   4.747   5.423   2.231
 3478SOL     OW11332   3.457   4.828   0.198
 3478SOL    HW111333   3.393   4.799   0.270
 3478SOL    HW211334   3.534   4.876   0.240
 3479SOL     OW11335   1.760   0.757   0.379
 3479SOL    HW111336   1.777   0.658   0.377
 3479SOL    HW211337   1.821   0.800   0.445
 3480SOL     OW11338   1.459   6.573   4.217
 3480SOL    HW111339   1.537   6.633   4.202
 3480SOL    HW211340   1.423   6.588   4.309
 3481SOL     OW11341   2.377   4.303   0.450
 3481SOL    HW111342   2.369   4.206   0.429
 3481SOL    HW211343   2.290   4.337   0.486
 3482SOL     OW11344   6.842   2.156   1.688
 3482SOL    HW111345   6.941   2.169   1.699
 3482SOL    HW211346   6.797   2.245   1.682
 3483SOL     OW11347   4.250   1.652   1.378
 3483SOL    HW111348   4.164   1.702   1.377
 3483SOL    HW211349   4.320   1.706   1.330
 3484SOL     OW11350   3.336   4.040   3.895
 3484SOL    HW111351   3.428   4.073   3.914
 3484SOL    HW211352   3.276   4.064   3.971
 3485SOL     OW11353   6.159   2.617   3.891
 3485SOL    HW111354   6.112   2.704   3.909
 3485SOL    HW211355   6.207   2.588   3.974
 3486SOL     OW11356   6.302   1.850   2.554
 3486SOL    HW111357   6.239   1.892   2.487
 3486SOL    HW211358   6.394   1.846   2.515
 3487SOL     OW11359   1.647   6.499   1.121
 3487SOL    HW111360   1.642   6.534   1.028
 3487SOL    HW211361   1.614   6.405   1.124
 3488SOL     OW11362   6.475   3.251   5.377
 3488SOL    HW111363   6.479   3.173   5.315
 3488SOL    HW211364   6.382   3.289   5.377
 3489SOL     OW11365   2.645   5.522   6.866
 3489SOL    HW111366   2.590   5.604   6.884
 3489SOL    HW211367   2.647   5.465   6.948
 3490SOL     OW11368   5.771   3.407   0.386
 3490SOL    HW111369   5.679   3.401   0.423
 3490SOL    HW211370   5.783   3.337   0.315
 3491SOL     OW11371   6.171   2.500   5.283
 3491SOL    HW111372   6.212   2.502   5.375
 3491SOL    HW211373   6.135   2.591   5.262
 3492SOL     OW11374   0.729   4.305   6.340
 3492SOL    HW111375   0.736   4.305   6.440
 3492SOL    HW211376   0.802   4.249   6.302
 3493SOL     OW11377   0.048   5.126   1.057
 3493SOL    HW111378   0.047   5.031   1.089
 3493SOL    HW211379   6.988   5.143   1.000
 3494SOL     OW11380   2.866   0.179   1.049
 3494SOL    HW111381   2.872   0.165   1.148
 3494SOL    HW211382   2.875   0.276   1.028
 3495SOL     OW11383   5.674   4.428   5.720
 3495SOL    HW111384   5.576   4.410   5.715
 3495SOL    HW211385   5.720   4.384   5.643
 3496SOL     OW11386   0.468   6.437   1.733
 3496SOL    HW111387   0.393   6.391   1.781
 3496SOL    HW211388   0.450   6.435   1.635
 3497SOL     OW11389   2.744   0.270   4.981
 3497SOL    HW111390   2.756   0.324   4.898
 3497SOL    HW211391   2.821   0.208   4.992
 3498SOL     OW11392   1.420   2.043   0.238
 3498SOL    HW111393   1.408   2.052   0.139
 3498SOL    HW211394   1.400   1.949   0.266
 3499SOL     OW11395   6.652   4.002   2.970
 3499SOL    HW111396   6.555   4.002   2.944
 3499SOL    HW211397   6.699   3.927   2.923
 3500SOL     OW11398   6.611   2.050   0.783
 3500SOL    HW111399   6.589   2.129   0.727
 3500SOL    HW211400   6.619   1.969   0.725
 3501SOL     OW11401   6.802   5.128   3.428
 3501SOL    HW111402   6.714   5.125   3.382
 3501SOL    HW211403   6.857   5.048   3.402
 3502SOL     OW11404   1.213   6.653   1.043
 3502SOL    HW111405   1.246   6.741   1.009
 3502SOL    HW211406   1.254   6.579   0.989
 3503SOL     OW11407   2.871   1.072   3.722
 3503SOL    HW111408   2.866   0.986   3.772
 3503SOL    HW211409   2.886   1.147   3.787
 3504SOL     OW11410   2.284   2.803   2.450
 3504SOL    HW111411   2.248   2.889   2.415
 3504SOL    HW211412   2.296   2.810   2.549
 3505SOL     OW11413   4.591   6.414   4.595
 3505SOL    HW111414   4.680   6.372   4.615
 3505SOL    HW211415   4.596   6.512   4.612
 3506SOL     OW11416   0.051   3.241   2.769
 3506SOL    HW111417   0.005   3.246   2.680
 3506SOL    HW211418   0.073   3.334   2.799
 3507SOL     OW11419   6.987   0.409   4.999
 3507SOL    HW111420   0.018   0.326   4.978
 3507SOL    HW211421   6.892   0.385   5.018
 3508SOL     OW11422   0.566   4.714   6.819
 3508SOL    HW111423   0.665   4.704   6.821
 3508SOL    HW211424   0.524   4.624   6.810
 3509SOL     OW11425   4.245   6.499   6.977
 3509SOL    HW111426   4.244   6.421   0.020
 3509SOL    HW211427   4.174   6.487   6.908
 3510SOL     OW11428   2.182   1.856   2.704
 3510SOL    HW111429   2.227   1.929   2.652
 3510SOL    HW211430   2.083   1.862   2.690
 3511SOL     OW11431   1.342   0.932   4.104
 3511SOL    HW111432   1.436   0.911   4.078
 3511SOL    HW211433   1.279   0.885   4.043
 3512SOL     OW11434   3.035   3.093   2.120
 3512SOL    HW111435   3.124   3.123   2.087
 3512SOL    HW211436   3.040   2.996   2.145
 3513SOL     OW11437   0.178   5.126   0.522
 3513SOL    HW111438   0.268   5.123   0.565
 3513SOL    HW211439   0.110   5.159   0.587
 3514SOL     OW11440   3.678   5.601   3.369
 3514SOL    HW111441   3.623   5.675   3.331
 3514SOL    HW211442   3.655   5.589   3.466
 3515SOL     OW11443   3.667   5.575   4.449
 3515SOL    HW111444   3.629   5.483   4.441
 3515SOL    HW211445   3.733   5.577   4.524
 3516SOL     OW11446   1.432   1.298   0.854
 3516SOL    HW111447   1.461   1.337   0.766
 3516SOL    HW211448   1.334   1.282   0.852
 3517SOL     OW11449   0.310   0.797   6.674
 3517SOL    HW111450   0.281   0.885   6.709
 3517SOL    HW211451   0.230   0.744   6.645
 3518SOL     OW11452   4.252   3.958   6.177
 3518SOL    HW111453   4.197   3.877   6.157
 3518SOL    HW211454   4.320   3.936   6.248
 3519SOL     OW11455   4.120   6.919   6.766
 3519SOL    HW111456   4.203   6.871   6.794
 3519SOL    HW211457   4.067   6.861   6.704
 3520SOL     OW11458   4.417   4.927   1.108
 3520SOL    HW111459   4.367   4.850   1.147
 3520SOL    HW211460   4.389   5.012   1.152
 3521SOL     OW11461   0.268   1.916   5.617
 3521SOL    HW111462   0.333   1.844   5.644
 3521SOL    HW211463   0.294   2.002   5.659
 3522SOL     OW11464   2.134   0.426   1.016
 3522SOL    HW111465   2.223   0.417   0.971
 3522SOL    HW211466   2.147   0.455   1.110
 3523SOL     OW11467   2.432   4.465   4.603
 3523SOL    HW111468   2.443   4.533   4.676
 3523SOL    HW211469   2.385   4.385   4.639
 3524SOL     OW11470   2.399   1.633   3.896
 3524SOL    HW111471   2.466   1.650   3.824
 3524SOL    HW211472   2.325   1.576   3.860
 3525SOL     OW11473   2.124   3.294   4.060
 3525SOL    HW111474   2.161   3.276   4.151
 3525SOL    HW211475   2.167   3.233   3.994
 3526SOL     OW11476   3.735   5.935   3.920
 3526SOL    HW111477   3.715   6.024   3.878
 3526SOL    HW211478   3.817   5.896   3.878
 3527SOL     OW11479   6.798   4.038   6.175
 3527SOL    HW111480   6.804   3.997   6.265
 3527SOL    HW211481   6.769   3.969   6.108
 3528SOL     OW11482   1.193   6.613   4.054
 3528SOL    HW111483   1.148   6.537   4.102
 3528SOL    HW211484   1.281   6.632   4.097
 3529SOL     OW11485   3.598   6.604   0.402
 3529SOL    HW111486   3.608   6.690   0.352
 3529SOL    HW211487   3.502   6.588   0.422
 3530SOL     OW11488   1.609   5.623   2.413
 3530SOL    HW111489   1.624   5.711   2.368
 3530SOL    HW211490   1.618   5.634   2.512
 3531SOL     OW11491   5.456   4.209   6.804
 3531SOL    HW111492   5.448   4.128   6.746
 3531SOL    HW211493   5.524   4.192   6.875
 3532SOL     OW11494   2.676   6.790   6.642
 3532SOL    HW111495   2.747   6.774   6.574
 3532SOL    HW211496   2.718   6.800   6.732
 3533SOL     OW11497   1.559   1.703   2.966
 3533SOL    HW111498   1.568   1.770   2.892
 3533SOL    HW211499   1.648   1.688   3.008
 3534SOL     OW11500   4.968   6.744   4.220
 3534SOL    HW111501   4.920   6.800   4.153
 3534SOL    HW211502   5.056   6.787   4.243
 3535SOL     OW11503   3.928   4.461   0.164
 3535SOL    HW111504   3.978   4.393   0.111
 3535SOL    HW211505   3.988   4.500   0.234
 3536SOL     OW11506   2.145   3.050   2.383
 3536SOL    HW111507   2.158   3.107   2.302
 3536SOL    HW211508   2.054   3.009   2.380
 3537SOL     OW11509   3.404   5.366   1.880
 3537SOL    HW111510   3.356   5.314   1.810
 3537SOL    HW211511   3.346   5.441   1.911
 3538SOL     OW11512   3.038   0.614   3.602
 3538SOL    HW111513   3.010   0.694   3.548
 3538SOL    HW211514   3.073   0.543   3.541
 3539SOL     OW11515   5.240   5.551   6.038
 3539SOL    HW111516   5.329   5.529   6.077
 3539SOL    HW211517   5.174   5.571   6.111
 3540SOL     OW11518   5.123   3.952   0.285
 3540SOL    HW111519   5.126   4.050   0.304
 3540SOL    HW211520   5.094   3.903   0.367
 3541SOL     OW11521   0.629   2.901   2.084
 3541SOL    HW111522   0.587   2.933   2.000
 3541SOL    HW211523   0.558   2.864   2.145
 3542SOL     OW11524   5.774   1.199   6.976
 3542SOL    HW111525   5.765   1.100   6.982
 3542SOL    HW211526   5.860   1.227   7.018
 3543SOL     OW11527   6.945   2.908   4.918
 3543SOL    HW111528   6.998   2.990   4.939
 3543SOL    HW211529   7.005   2.828   4.919
 3544SOL     OW11530   3.873   4.887   5.906
 3544SOL    HW111531   3.843   4.883   6.002
 3544SOL    HW211532   3.894   4.795   5.873
 3545SOL     OW11533   2.753   6.283   1.487
 3545SOL    HW111534   2.779   6.186   1.491
 3545SOL    HW211535   2.818   6.332   1.428
 3546SOL     OW11536   0.547   4.673   1.113
 3546SOL    HW111537   0.503   4.761   1.130
 3546SOL    HW211538   0.581   4.670   1.019
 3547SOL     OW11539   1.802   4.012   4.513
 3547SOL    HW111540   1.705   4.026   4.533
 3547SOL    HW211541   1.857   4.058   4.583
 3548SOL     OW11542   6.056   0.229   5.406
 3548SOL    HW111543   5.995   0.248   5.483
 3548SOL    HW211544   6.034   0.140   5.367
 3549SOL     OW11545   1.727   6.961   6.379
 3549SOL    HW111546   1.678   6.892   6.433
 3549SOL    HW211547   1.749   0.019   6.437
 3550SOL     OW11548   6.538   2.468   4.739
 3550SOL    HW111549   6.465   2.479   4.806
 3550SOL    HW211550   6.515   2.394   4.676
 3551SOL     OW11551   6.381   1.241   5.352
 3551SOL    HW111552   6.440   1.320   5.335
 3551SOL    HW211553   6.330   1.256   5.437
 3552SOL     OW11554   6.393   0.803   3.575
 3552SOL    HW111555   6.381   0.804   3.475
 3552SOL    HW211556   6.394   0.897   3.610
 3553SOL     OW11557   5.655   6.002   6.522
 3553SOL    HW111558   5.709   5.932   6.476
 3553SOL    HW211559   5.558   5.981   6.513
 3554SOL     OW11560   6.165   3.679   6.803
 3554SOL    HW111561   6.168   3.742   6.881
 3554SOL    HW211562   6.099   3.712   6.736
 3555SOL     OW11563   3.124   1.253   5.549
 3555SOL    HW111564   3.153   1.307   5.628
 3555SOL    HW211565   3.201   1.201   5.514
 3556SOL     OW11566   5.276   1.423   0.744
 3556SOL    HW111567   5.180   1.428   0.714
 3556SOL    HW211568   5.279   1.403   0.842
 3557SOL     OW11569   4.774   0.276   1.009
 3557SOL    HW111570   4.714   0.300   0.932
 3557SOL    HW211571   4.866   0.311   0.991
 3558SOL     OW11572   4.196   5.788   3.018
 3558SOL    HW111573   4.174   5.691   3.032
 3558SOL    HW211574   4.139   5.844   3.077
 3559SOL     OW11575   4.726   6.209   6.464
 3559SOL    HW111576   4.692   6.272   6.533
 3559SOL    HW211577   4.786   6.141   6.506
 3560SOL     OW11578   1.900   5.937   4.612
 3560SOL    HW111579   1.802   5.952   4.599
 3560SOL    HW211580   1.931   5.863   4.553
 3561SOL     OW11581   4.119   2.983   6.416
 3561SOL    HW111582   4.054   2.981   6.340
 3561SOL    HW211583   4.106   3.067   6.469
 3562SOL     OW11584   2.498   1.016   0.360
 3562SOL    HW111585   2.571   1.055   0.305
 3562SOL    HW211586   2.537   0.970   0.440
 3563SOL     OW11587   6.421   1.860   6.295
 3563SOL    HW111588   6.351   1.795   6.327
 3563SOL    HW211589   6.499   1.809   6.258
 3564SOL     OW11590   5.784   2.794   2.894
 3564SOL    HW111591   5.837   2.737   2.832
 3564SOL    HW211592   5.832   2.802   2.982
 3565SOL     OW11593   4.789   6.363   4.935
 3565SOL    HW111594   4.726   6.286   4.948
 3565SOL    HW211595   4.767   6.436   4.999
 3566SOL     OW11596   0.858   0.895   4.750
 3566SOL    HW111597   0.862   0.895   4.850
 3566SOL    HW211598   0.924   0.960   4.714
 3567SOL     OW11599   1.216   4.561   6.712
 3567SOL    HW111600   1.183   4.630   6.777
 3567SOL    HW211601   1.314   4.574   6.696
 3568SOL     OW11602   2.003   4.034   5.381
 3568SOL    HW111603   1.976   3.980   5.461
 3568SOL    HW211604   1.941   4.016   5.305
 3569SOL     OW11605   0.690   0.300   3.385
 3569SOL    HW111606   0.734   0.257   3.464
 3569SOL    HW211607   0.758   0.313   3.313
 3570SOL     OW11608   0.468   1.836   4.915
 3570SOL    HW111609   0.524   1.914   4.942
 3570SOL    HW211610   0.371   1.863   4.912
 3571SOL     OW11611   6.683   5.494   4.941
 3571SOL    HW111612   6.635   5.428   4.883
 3571SOL    HW211613   6.760   5.534   4.890
 3572SOL     OW11614   5.586   6.702   5.786
 3572SOL    HW111615   5.521   6.703   5.710
 3572SOL    HW211616   5.561   6.630   5.851
 3573SOL     OW11617   0.219   2.918   1.617
 3573SOL    HW111618   0.182   2.959   1.700
 3573SOL    HW211619   0.241   2.822   1.634
 3574SOL     OW11620   0.370   3.759   0.236
 3574SOL    HW111621   0.377   3.722   0.143
 3574SOL    HW211622   0.448   3.818   0.254
 3575SOL     OW11623   6.777   0.638   2.455
 3575SOL    HW111624   6.728   0.672   2.375
 3575SOL    HW211625   6.832   0.713   2.494
 3576SOL     OW11626   0.307   1.168   0.729
 3576SOL    HW111627   0.341   1.260   0.749
 3576SOL    HW211628   0.384   1.107   0.713
 3577SOL     OW11629   2.525   4.318   0.685
 3577SOL    HW111630   2.479   4.302   0.598
 3577SOL    HW211631   2.458   4.318   0.759
 3578SOL     OW11632   3.416   4.574   1.679
 3578SOL    HW111633   3.505   4.600   1.717
 3578SOL    HW211634   3.367   4.657   1.649
 3579SOL     OW11635   2.610   2.838   6.563
 3579SOL    HW111636   2.527   2.850   6.509
 3579SOL    HW211637   2.590   2.784   6.645
 3580SOL     OW11638   5.826   1.614   2.377
 3580SOL    HW111639   5.772   1.540   2.337
 3580SOL    HW211640   5.913   1.621   2.328
 3581SOL     OW11641   6.899   1.647   2.527
 3581SOL    HW111642   6.859   1.593   2.453
 3581SOL    HW211643   6.861   1.616   2.615
 3582SOL     OW11644   0.873   0.704   5.813
 3582SOL    HW111645   0.850   0.671   5.721
 3582SOL    HW211646   0.803   0.674   5.877
 3583SOL     OW11647   1.405   6.903   2.430
 3583SOL    HW111648   1.393   6.810   2.463
 3583SOL    HW211649   1.498   6.934   2.450
 3584SOL     OW11650   5.104   0.522   4.738
 3584SOL    HW111651   5.052   0.607   4.736
 3584SOL    HW211652   5.050   0.450   4.782
 3585SOL     OW11653   2.425   4.847   3.283
 3585SOL    HW111654   2.521   4.820   3.272
 3585SOL    HW211655   2.365   4.772   3.255
 3586SOL     OW11656   1.375   1.340   0.160
 3586SOL    HW111657   1.319   1.297   0.089
 3586SOL    HW211658   1.359   1.439   0.159
 3587SOL     OW11659   3.501   6.416   5.341
 3587SOL    HW111660   3.555   6.494   5.310
 3587SOL    HW211661   3.498   6.347   5.269
 3588SOL     OW11662   2.599   2.604   5.327
 3588SOL    HW111663   2.682   2.557   5.358
 3588SOL    HW211664   2.603   2.700   5.357
 3589SOL     OW11665   2.803   6.308   4.438
 3589SOL    HW111666   2.799   6.381   4.506
 3589SOL    HW211667   2.828   6.222   4.483
 3590SOL     OW11668   1.255   5.970   6.967
 3590SOL    HW111669   1.269   5.873   6.946
 3590SOL    HW211670   1.344   6.015   6.978
 3591SOL     OW11671   5.021   1.906   4.547
 3591SOL    HW111672   4.960   1.866   4.615
 3591SOL    HW211673   5.090   1.963   4.593
 3592SOL     OW11674   5.674   1.836   2.213
 3592SOL    HW111675   5.718   1.770   2.274
 3592SOL    HW211676   5.671   1.926   2.257
 3593SOL     OW11677   0.479   4.826   4.522
 3593SOL    HW111678   0.486   4.810   4.620
 3593SOL    HW211679   0.552   4.889   4.493
 3594SOL     OW11680   4.621   1.290   4.789
 3594SOL    HW111681   4.598   1.292   4.887
 3594SOL    HW211682   4.618   1.383   4.753
 3595SOL     OW11683   2.123   6.546   6.989
 3595SOL    HW111684   2.033   6.569   0.005
 3595SOL    HW211685   2.130   6.447   6.976
 3596SOL     OW11686   6.541   3.710   3.031
 3596SOL    HW111687   6.530   3.797   3.079
 3596SOL    HW211688   6.593   3.647   3.089
 3597SOL     OW11689   4.085   0.403   4.079
 3597SOL    HW111690   4.055   0.308   4.078
 3597SOL    HW211691   4.091   0.437   3.985
 3598SOL     OW11692   2.306   6.467   0.255
 3598SOL    HW111693   2.347   6.525   0.325
 3598SOL    HW211694   2.279   6.523   0.176
 3599SOL     OW11695   0.289   2.303   3.904
 3599SOL    HW111696   0.297   2.264   3.996
 3599SOL    HW211697   0.195   2.293   3.872
 3600SOL     OW11698   6.563   6.690   1.096
 3600SOL    HW111699   6.525   6.611   1.146
 3600SOL    HW211700   6.539   6.774   1.144
 3601SOL     OW11701   6.780   3.591   5.892
 3601SOL    HW111702   6.856   3.535   5.924
 3601SOL    HW211703   6.716   3.607   5.968
 3602SOL     OW11704   3.412   2.745   0.916
 3602SOL    HW111705   3.475   2.803   0.865
 3602SOL    HW211706   3.369   2.799   0.989
 3603SOL     OW11707   3.809   5.181   5.125
 3603SOL    HW111708   3.881   5.112   5.118
 3603SOL    HW211709   3.796   5.206   5.221
 3604SOL     OW11710   5.517   4.319   3.229
 3604SOL    HW111711   5.542   4.228   3.264
 3604SOL    HW211712   5.422   4.316   3.198
 3605SOL     OW11713   5.667   1.491   6.504
 3605SOL    HW111714   5.666   1.591   6.515
 3605SOL    HW211715   5.599   1.450   6.564
 3606SOL     OW11716   1.934   3.587   2.572
 3606SOL    HW111717   1.839   3.561   2.554
 3606SOL    HW211718   1.995   3.526   2.522
 3607SOL     OW11719   4.362   6.502   5.335
 3607SOL    HW111720   4.429   6.434   5.304
 3607SOL    HW211721   4.272   6.480   5.297
 3608SOL     OW11722   6.622   3.555   2.723
 3608SOL    HW111723   6.642   3.579   2.628
 3608SOL    HW211724   6.534   3.594   2.751
 3609SOL     OW11725   0.756   1.030   4.090
 3609SOL    HW111726   0.713   1.100   4.147
 3609SOL    HW211727   0.728   1.042   3.995
 3610SOL     OW11728   1.285   4.715   5.440
 3610SOL    HW111729   1.315   4.793   5.385
 3610SOL    HW211730   1.364   4.663   5.471
 3611SOL     OW11731   4.556   4.607   6.678
 3611SOL    HW111732   4.563   4.559   6.591
 3611SOL    HW211733   4.462   4.635   6.694
 3612SOL     OW11734   2.144   5.650   1.286
 3612SOL    HW111735   2.214   5.717   1.312
 3612SOL    HW211736   2.116   5.666   1.192
 3613SOL     OW11737   5.566   4.826   5.930
 3613SOL    HW111738   5.469   4.814   5.906
 3613SOL    HW211739   5.582   4.791   6.022
 3614SOL     OW11740   3.623   3.413   4.965
 3614SOL    HW111741   3.650   3.324   4.928
 3614SOL    HW211742   3.523   3.423   4.956
 3615SOL     OW11743   5.978   6.857   6.761
 3615SOL    HW111744   6.053   6.923   6.768
 3615SOL    HW211745   6.005   6.783   6.699
 3616SOL     OW11746   6.872   1.252   3.848
 3616SOL    HW111747   6.853   1.350   3.847
 3616SOL    HW211748   6.928   1.230   3.928
 3617SOL     OW11749   0.279   0.587   0.883
 3617SOL    HW111750   0.322   0.593   0.973
 3617SOL    HW211751   0.182   0.609   0.890
 3618SOL     OW11752   4.080   5.824   6.197
 3618SOL    HW111753   4.138   5.898   6.166
 3618SOL    HW211754   4.136   5.744   6.217
 3619SOL     OW11755   4.904   3.541   3.799
 3619SOL    HW111756   4.908   3.554   3.898
 3619SOL    HW211757   4.883   3.445   3.778
 3620SOL     OW11758   5.875   1.730   5.093
 3620SOL    HW111759   5.807   1.676   5.042
 3620SOL    HW211760   5.914   1.800   5.033
 3621SOL     OW11761   2.063   2.468   6.680
 3621SOL    HW111762   1.969   2.501   6.670
 3621SOL    HW211763   2.080   2.444   6.775
 3622SOL     OW11764   1.324   4.257   0.764
 3622SOL    HW111765   1.397   4.295   0.822
 3622SOL    HW211766   1.300   4.324   0.693
 3623SOL     OW11767   6.369   5.165   4.765
 3623SOL    HW111768   6.409   5.076   4.742
 3623SOL    HW211769   6.430   5.238   4.735
 3624SOL     OW11770   1.719   0.268   1.885
 3624SOL    HW111771   1.775   0.349   1.900
 3624SOL    HW211772   1.755   0.192   1.940
 3625SOL     OW11773   1.756   1.996   5.136
 3625SOL    HW111774   1.675   1.972   5.188
 3625SOL    HW211775   1.827   2.029   5.198
 3626SOL     OW11776   1.704   3.335   5.710
 3626SOL    HW111777   1.688   3.361   5.615
 3626SOL    HW211778   1.695   3.415   5.769
 3627SOL     OW11779   4.051   3.792   4.688
 3627SOL    HW111780   4.044   3.693   4.679
 3627SOL    HW211781   4.041   3.834   4.598
 3628SOL     OW11782   3.058   5.546   3.785
 3628SOL    HW111783   3.097   5.634   3.756
 3628SOL    HW211784   2.984   5.520   3.723
 3629SOL     OW11785   6.174   3.735   4.878
 3629SOL    HW111786   6.230   3.818   4.883
 3629SOL    HW211787   6.183   3.694   4.788
 3630SOL     OW11788   6.188   1.741   4.479
 3630SOL    HW111789   6.237   1.760   4.394
 3630SOL    HW211790   6.253   1.723   4.552
 3631SOL     OW11791   1.958   0.690   4.118
 3631SOL    HW111792   1.956   0.775   4.171
 3631SOL    HW211793   2.033   0.694   4.052
 3632SOL     OW11794   5.085   6.604   5.905
 3632SOL    HW111795   5.160   6.562   5.956
 3632SOL    HW211796   5.101   6.703   5.899
 3633SOL     OW11797   1.005   2.661   5.576
 3633SOL    HW111798   1.101   2.684   5.563
 3633SOL    HW211799   0.967   2.716   5.651
 3634SOL     OW11800   2.549   4.896   6.566
 3634SOL    HW111801   2.470   4.854   6.521
 3634SOL    HW211802   2.525   4.987   6.598
 3635SOL     OW11803   1.872   1.936   4.334
 3635SOL    HW111804   1.863   1.839   4.360
 3635SOL    HW211805   1.950   1.976   4.382
 3636SOL     OW11806   0.588   0.034   1.614
 3636SOL    HW111807   0.574   6.981   1.547
 3636SOL    HW211808   0.523   0.023   1.689
 3637SOL     OW11809   5.324   1.478   2.453
 3637SOL    HW111810   5.322   1.439   2.361
 3637SOL    HW211811   5.330   1.578   2.447
 3638SOL     OW11812   0.141   4.944   3.156
 3638SOL    HW111813   0.110   4.965   3.063
 3638SOL    HW211814   0.214   4.876   3.153
 3639SOL     OW11815   2.651   5.860   6.856
 3639SOL    HW111816   2.565   5.898   6.822
 3639SOL    HW211817   2.694   5.805   6.785
 3640SOL     OW11818   2.437   6.562   2.808
 3640SOL    HW111819   2.439   6.528   2.902
 3640SOL    HW211820   2.514   6.525   2.757
 3641SOL     OW11821   1.992   0.981   5.111
 3641SOL    HW111822   2.009   1.067   5.062
 3641SOL    HW211823   2.049   0.977   5.192
 3642SOL     OW11824   6.277   0.278   2.831
 3642SOL    HW111825   6.339   0.305   2.905
 3642SOL    HW211826   6.257   0.181   2.838
 3643SOL     OW11827   3.918   6.825   3.966
 3643SOL    HW111828   3.844   6.891   3.979
 3643SOL    HW211829   3.987   6.838   4.037
 3644SOL     OW11830   5.904   0.735   1.818
 3644SOL    HW111831   5.917   0.828   1.852
 3644SOL    HW211832   5.808   0.710   1.825
 3645SOL     OW11833   4.909   5.491   3.932
 3645SOL    HW111834   4.983   5.532   3.878
 3645SOL    HW211835   4.832   5.554   3.936
 3646SOL     OW11836   0.653   5.548   5.189
 3646SOL    HW111837   0.711   5.513   5.115
 3646SOL    HW211838   0.598   5.624   5.154
 3647SOL     OW11839   3.419   3.010   1.050
 3647SOL    HW111840   3.343   3.024   1.113
 3647SOL    HW211841   3.417   3.080   0.979
 3648SOL     OW11842   2.849   6.655   3.721
 3648SOL    HW111843   2.916   6.647   3.795
 3648SOL    HW211844   2.779   6.585   3.732
 3649SOL     OW11845   3.784   2.976   3.281
 3649SOL    HW111846   3.768   3.014   3.372
 3649SOL    HW211847   3.867   2.920   3.282
 3650SOL     OW11848   5.624   6.174   1.852
 3650SOL    HW111849   5.554   6.189   1.781
 3650SOL    HW211850   5.688   6.251   1.853
 3651SOL     OW11851   1.815   5.328   1.983
 3651SOL    HW111852   1.777   5.353   1.894
 3651SOL    HW211853   1.805   5.230   1.997
 3652SOL     OW11854   4.212   6.547   4.048
 3652SOL    HW111855   4.140   6.560   4.117
 3652SOL    HW211856   4.249   6.455   4.056
 3653SOL     OW11857   0.246   3.318   3.276
 3653SOL    HW111858   0.341   3.347   3.270
 3653SOL    HW211859   0.194   3.359   3.200
 3654SOL     OW11860   2.025   6.805   1.916
 3654SOL    HW111861   2.102   6.751   1.881
 3654SOL    HW211862   1.942   6.749   1.915
 3655SOL     OW11863   6.338   1.053   3.726
 3655SOL    HW111864   6.390   1.110   3.662
 3655SOL    HW211865   6.286   1.112   3.788
 3656SOL     OW11866   1.890   1.842   2.974
 3656SOL    HW111867   1.983   1.812   2.951
 3656SOL    HW211868   1.883   1.941   2.964
 3657SOL     OW11869   5.907   5.426   1.227
 3657SOL    HW111870   5.906   5.425   1.327
 3657SOL    HW211871   5.848   5.353   1.193
 3658SOL     OW11872   2.775   4.309   5.799
 3658SOL    HW111873   2.775   4.298   5.699
 3658SOL    HW211874   2.786   4.219   5.842
 3659SOL     OW11875   1.298   3.626   6.328
 3659SOL    HW111876   1.209   3.659   6.297
 3659SOL    HW211877   1.300   3.623   6.428
 3660SOL     OW11878   5.137   3.766   0.854
 3660SOL    HW111879   5.055   3.772   0.911
 3660SOL    HW211880   5.211   3.818   0.897
 3661SOL     OW11881   5.425   0.748   1.619
 3661SOL    HW111882   5.494   0.816   1.593
 3661SOL    HW211883   5.381   0.712   1.537
 3662SOL     OW11884   1.589   6.340   4.132
 3662SOL    HW111885   1.551   6.413   4.189
 3662SOL    HW211886   1.594   6.371   4.037
 3663SOL     OW11887   2.442   2.551   5.893
 3663SOL    HW111888   2.424   2.507   5.805
 3663SOL    HW211889   2.481   2.484   5.956
 3664SOL     OW11890   3.791   0.321   2.306
 3664SOL    HW111891   3.801   0.331   2.207
 3664SOL    HW211892   3.825   0.231   2.334
 3665SOL     OW11893   2.508   1.571   5.379
 3665SOL    HW111894   2.601   1.537   5.370
 3665SOL    HW211895   2.501   1.630   5.460
 3666SOL     OW11896   1.002   4.746   3.243
 3666SOL    HW111897   0.943   4.679   3.289
 3666SOL    HW211898   0.982   4.746   3.145
 3667SOL     OW11899   0.228   0.749   0.206
 3667SOL    HW111900   0.249   0.847   0.208
 3667SOL    HW211901   0.129   0.736   0.204
 3668SOL     OW11902   2.105   6.760   1.535
 3668SOL    HW111903   2.025   6.820   1.536
 3668SOL    HW211904   2.118   6.724   1.443
 3669SOL     OW11905   5.139   1.451   4.241
 3669SOL    HW111906   5.096   1.522   4.296
 3669SOL    HW211907   5.206   1.493   4.179
 3670SOL     OW11908   3.504   4.984   5.807
 3670SOL    HW111909   3.583   5.033   5.845
 3670SOL    HW211910   3.457   5.042   5.742
 3671SOL     OW11911   1.984   1.405   3.261
 3671SOL    HW111912   2.043   1.478   3.226
 3671SOL    HW211913   1.948   1.431   3.350
 3672SOL     OW11914   6.536   6.102   0.073
 3672SOL    HW111915   6.567   6.141   0.159
 3672SOL    HW211916   6.609   6.046   0.033
 3673SOL     OW11917   3.953   6.827   6.525
 3673SOL    HW111918   3.937   6.749   6.465
 3673SOL    HW211919   3.884   6.897   6.508
 3674SOL     OW11920   0.937   6.323   0.870
 3674SOL    HW111921   0.967   6.418   0.878
 3674SOL    HW211922   0.841   6.321   0.840
 3675SOL     OW11923   2.328   2.154   4.249
 3675SOL    HW111924   2.308   2.194   4.338
 3675SOL    HW211925   2.253   2.093   4.223
 3676SOL     OW11926   1.180   4.823   2.401
 3676SOL    HW111927   1.151   4.917   2.382
 3676SOL    HW211928   1.169   4.804   2.499
 3677SOL     OW11929   6.349   0.777   3.307
 3677SOL    HW111930   6.276   0.809   3.246
 3677SOL    HW211931   6.390   0.695   3.268
 3678SOL     OW11932   0.547   2.680   4.169
 3678SOL    HW111933   0.609   2.608   4.200
 3678SOL    HW211934   0.489   2.646   4.096
 3679SOL     OW11935   6.110   1.429   1.943
 3679SOL    HW111936   6.208   1.420   1.926
 3679SOL    HW211937   6.059   1.372   1.878
 3680SOL     OW11938   6.010   4.587   4.868
 3680SOL    HW111939   6.068   4.627   4.939
 3680SOL    HW211940   5.932   4.647   4.850
 3681SOL     OW11941   5.430   0.454   5.058
 3681SOL    HW111942   5.378   0.486   5.138
 3681SOL    HW211943   5.404   0.507   4.978
 3682SOL     OW11944   0.151   1.927   6.923
 3682SOL    HW111945   0.117   1.859   6.859
 3682SOL    HW211946   0.187   2.005   6.873
 3683SOL     OW11947   4.823   6.123   3.586
 3683SOL    HW111948   4.732   6.086   3.601
 3683SOL    HW211949   4.830   6.214   3.629
 3684SOL     OW11950   2.333   3.928   1.714
 3684SOL    HW111951   2.360   3.984   1.792
 3684SOL    HW211952   2.249   3.878   1.735
 3685SOL     OW11953   5.974   5.813   5.495
 3685SOL    HW111954   5.996   5.911   5.496
 3685SOL    HW211955   6.024   5.766   5.567
 3686SOL     OW11956   0.222   4.376   0.673
 3686SOL    HW111957   0.165   4.310   0.625
 3686SOL    HW211958   0.276   4.429   0.607
 3687SOL     OW11959   3.935   0.612   0.531
 3687SOL    HW111960   3.934   0.538   0.599
 3687SOL    HW211961   3.918   0.699   0.577
 3688SOL     OW11962   0.198   2.900   6.839
 3688SOL    HW111963   0.199   2.999   6.858
 3688SOL    HW211964   0.144   2.883   6.756
 3689SOL     OW11965   1.844   6.094   3.741
 3689SOL    HW111966   1.917   6.158   3.718
 3689SOL    HW211967   1.804   6.119   3.830
 3690SOL     OW11968   4.893   4.745   5.886
 3690SOL    HW111969   4.948   4.813   5.934
 3690SOL    HW211970   4.886   4.662   5.942
 3691SOL     OW11971   3.090   3.289   6.319
 3691SOL    HW111972   3.042   3.375   6.332
 3691SOL    HW211973   3.042   3.233   6.251
 3692SOL     OW11974   6.761   0.580   5.365
 3692SOL    HW111975   6.809   0.641   5.303
 3692SOL    HW211976   6.818   0.500   5.385
 3693SOL     OW11977   1.636   1.237   3.640
 3693SOL    HW111978   1.563   1.236   3.572
 3693SOL    HW211979   1.598   1.218   3.731
 3694SOL     OW11980   1.980   4.666   3.964
 3694SOL    HW111981   1.890   4.676   3.922
 3694SOL    HW211982   2.007   4.753   4.006
 3695SOL     OW11983   2.149   2.424   0.885
 3695SOL    HW111984   2.243   2.430   0.851
 3695SOL    HW211985   2.100   2.508   0.862
 3696SOL     OW11986   3.140   6.127   5.368
 3696SOL    HW111987   3.185   6.177   5.442
 3696SOL    HW211988   3.160   6.029   5.378
 3697SOL     OW11989   5.354   1.188   3.339
 3697SOL    HW111990   5.452   1.181   3.324
 3697SOL    HW211991   5.307   1.197   3.251
 3698SOL     OW11992   3.046   6.921   6.143
 3698SOL    HW111993   2.959   6.943   6.100
 3698SOL    HW211994   3.092   6.849   6.092
 3699SOL     OW11995   0.962   5.286   2.189
 3699SOL    HW111996   1.062   5.293   2.196
 3699SOL    HW211997   0.922   5.377   2.195
 3700SOL     OW11998   6.231   0.627   3.736
 3700SOL    HW111999   6.297   0.674   3.677
 3700SOL    HW212000   6.267   0.622   3.829
 3701SOL     OW12001   4.183   1.224   3.567
 3701SOL    HW112002   4.247   1.213   3.643
 3701SOL    HW212003   4.097   1.264   3.601
 3702SOL     OW12004   4.254   1.412   6.524
 3702SOL    HW112005   4.163   1.373   6.537
 3702SOL    HW212006   4.292   1.438   6.613
 3703SOL     OW12007   3.553   4.939   0.964
 3703SOL    HW112008   3.482   5.004   0.990
 3703SOL    HW212009   3.610   4.917   1.043
 3704SOL     OW12010   3.295   6.697   0.805
 3704SOL    HW112011   3.276   6.781   0.855
 3704SOL    HW212012   3.325   6.626   0.869
 3705SOL     OW12013   0.047   1.007   4.301
 3705SOL    HW112014   0.077   0.930   4.245
 3705SOL    HW212015   0.111   1.083   4.292
 3706SOL     OW12016   2.538   1.818   3.429
 3706SOL    HW112017   2.537   1.834   3.528
 3706SOL    HW212018   2.631   1.831   3.395
 3707SOL     OW12019   4.217   2.541   5.508
 3707SOL    HW112020   4.279   2.615   5.480
 3707SOL    HW212021   4.226   2.526   5.607
 3708SOL     OW12022   6.310   6.973   0.349
 3708SOL    HW112023   6.381   6.941   0.411
 3708SOL    HW212024   6.313   0.053   0.345
 3709SOL     OW12025   0.138   6.693   6.517
 3709SOL    HW112026   0.173   6.638   6.441
 3709SOL    HW212027   0.075   6.639   6.572
 3710SOL     OW12028   0.851   5.043   6.642
 3710SOL    HW112029   0.867   5.059   6.544
 3710SOL    HW212030   0.765   5.087   6.669
 3711SOL     OW12031   6.735   5.273   2.139
 3711SOL    HW112032   6.646   5.240   2.171
 3711SOL    HW212033   6.737   5.373   2.144
 3712SOL     OW12034   1.406   6.683   6.107
 3712SOL    HW112035   1.496   6.645   6.127
 3712SOL    HW212036   1.352   6.685   6.191
 3713SOL     OW12037   3.685   5.055   6.210
 3713SOL    HW112038   3.741   5.085   6.287
 3713SOL    HW212039   3.638   5.133   6.170
 3714SOL     OW12040   4.801   2.128   5.093
 3714SOL    HW112041   4.753   2.092   5.173
 3714SOL    HW212042   4.857   2.056   5.053
 3715SOL     OW12043   4.729   4.206   3.385
 3715SOL    HW112044   4.775   4.172   3.303
 3715SOL    HW212045   4.633   4.225   3.365
 3716SOL     OW12046   1.036   1.055   4.645
 3716SOL    HW112047   1.082   0.986   4.589
 3716SOL    HW212048   1.104   1.100   4.704
 3717SOL     OW12049   5.957   0.524   6.909
 3717SOL    HW112050   6.056   0.520   6.897
 3717SOL    HW212051   5.915   0.440   6.873
 3718SOL     OW12052   0.588   6.136   6.152
 3718SOL    HW112053   0.518   6.071   6.123
 3718SOL    HW212054   0.545   6.220   6.184
 3719SOL     OW12055   3.597   4.014   0.327
 3719SOL    HW112056   3.568   3.948   0.258
 3719SOL    HW212057   3.533   4.091   0.328
 3720SOL     OW12058   7.001   1.256   6.245
 3720SOL    HW112059   0.032   1.321   6.300
 3720SOL    HW212060   6.904   1.280   6.246
 3721SOL     OW12061   5.314   3.071   0.170
 3721SOL    HW112062   5.382   3.092   0.100
 3721SOL    HW212063   5.273   3.157   0.203
 3722SOL     OW12064   4.348   6.261   0.811
 3722SOL    HW112065   4.292   6.315   0.748
 3722SOL    HW212066   4.398   6.322   0.872
 3723SOL     OW12067   4.344   1.222   0.815
 3723SOL    HW112068   4.353   1.308   0.765
 3723SOL    HW212069   4.420   1.161   0.790
 3724SOL     OW12070   1.165   4.166   6.468
 3724SOL    HW112071   1.087   4.142   6.411
 3724SOL    HW212072   1.134   4.223   6.545
 3725SOL     OW12073   5.329   6.448   1.711
 3725SOL    HW112074   5.348   6.367   1.767
 3725SOL    HW212075   5.361   6.530   1.758
 3726SOL     OW12076   6.175   3.217   1.860
 3726SOL    HW112077   6.261   3.266   1.845
 3726SOL    HW212078   6.195   3.121   1.877
 3727SOL     OW12079   2.806   2.758   5.557
 3727SOL    HW112080   2.728   2.773   5.495
 3727SOL    HW212081   2.840   2.847   5.590
 3728SOL     OW12082   0.800   4.021   6.481
 3728SOL    HW112083   0.770   4.109   6.519
 3728SOL    HW212084   0.798   4.026   6.381
 3729SOL     OW12085   1.059   3.540   3.544
 3729SOL    HW112086   1.051   3.461   3.605
 3729SOL    HW212087   1.037   3.624   3.595
 3730SOL     OW12088   2.279   6.981   1.313
 3730SOL    HW112089   2.211   0.028   1.344
 3730SOL    HW212090   2.252   6.890   1.344
 3731SOL     OW12091   2.873   6.070   0.240
 3731SOL    HW112092   2.969   6.045   0.247
 3731SOL    HW212093   2.848   6.078   0.144
 3732SOL     OW12094   2.004   3.659   4.252
 3732SOL    HW112095   2.017   3.631   4.157
 3732SOL    HW212096   1.934   3.602   4.294
 3733SOL     OW12097   3.188   2.802   1.947
 3733SOL    HW112098   3.161   2.790   1.851
 3733SOL    HW212099   3.132   2.742   2.005
 3734SOL     OW12100   4.071   1.637   3.335
 3734SOL    HW112101   4.158   1.619   3.289
 3734SOL    HW212102   4.014   1.694   3.276
 3735SOL     OW12103   3.928   2.292   1.782
 3735SOL    HW112104   3.964   2.237   1.858
 3735SOL    HW212105   3.830   2.305   1.795
 3736SOL     OW12106   5.012   0.726   6.216
 3736SOL    HW112107   4.924   0.682   6.237
 3736SOL    HW212108   5.060   0.672   6.147
 3737SOL     OW12109   2.876   0.245   3.699
 3737SOL    HW112110   2.833   0.213   3.614
 3737SOL    HW212111   2.871   0.344   3.704
 3738SOL     OW12112   0.357   0.795   4.391
 3738SOL    HW112113   0.329   0.711   4.436
 3738SOL    HW212114   0.361   0.869   4.458
 3739SOL     OW12115   0.116   3.473   0.662
 3739SOL    HW112116   0.028   3.460   0.708
 3739SOL    HW212117   0.118   3.417   0.579
 3740SOL     OW12118   5.765   6.775   6.896
 3740SOL    HW112119   5.853   6.806   6.859
 3740SOL    HW212120   5.721   6.850   6.946
 3741SOL     OW12121   3.512   0.688   0.220
 3741SOL    HW112122   3.608   0.665   0.230
 3741SOL    HW212123   3.472   0.706   0.310
 3742SOL     OW12124   3.608   3.308   6.334
 3742SOL    HW112125   3.682   3.330   6.270
 3742SOL    HW212126   3.523   3.352   6.304
 3743SOL     OW12127   0.711   5.920   5.939
 3743SOL    HW112128   0.638   5.925   6.007
 3743SOL    HW212129   0.772   5.845   5.961
 3744SOL     OW12130   6.423   4.738   3.134
 3744SOL    HW112131   6.349   4.730   3.201
 3744SOL    HW212132   6.415   4.666   3.065
 3745SOL     OW12133   4.913   4.885   1.360
 3745SOL    HW112134   4.961   4.845   1.282
 3745SOL    HW212135   4.977   4.902   1.435
 3746SOL     OW12136   3.969   1.302   1.144
 3746SOL    HW112137   3.876   1.268   1.156
 3746SOL    HW212138   3.969   1.402   1.153
 3747SOL     OW12139   3.026   6.743   1.281
 3747SOL    HW112140   3.060   6.755   1.375
 3747SOL    HW212141   3.057   6.819   1.225
 3748SOL     OW12142   5.625   0.502   1.616
 3748SOL    HW112143   5.589   0.585   1.574
 3748SOL    HW212144   5.711   0.476   1.572
 3749SOL     OW12145   0.970   0.639   3.960
 3749SOL    HW112146   1.064   0.639   3.926
 3749SOL    HW212147   0.955   0.557   4.016
 3750SOL     OW12148   0.593   3.843   6.777
 3750SOL    HW112149   0.674   3.862   6.832
 3750SOL    HW212150   0.519   3.811   6.836
 3751SOL     OW12151   1.985   4.997   1.799
 3751SOL    HW112152   2.018   5.038   1.884
 3751SOL    HW212153   1.885   5.007   1.794
 3752SOL     OW12154   5.762   4.996   6.345
 3752SOL    HW112155   5.793   5.056   6.271
 3752SOL    HW212156   5.663   5.005   6.356
 3753SOL     OW12157   0.502   1.366   3.660
 3753SOL    HW112158   0.539   1.359   3.753
 3753SOL    HW212159   0.403   1.361   3.662
 3754SOL     OW12160   3.750   1.620   1.503
 3754SOL    HW112161   3.740   1.691   1.573
 3754SOL    HW212162   3.706   1.650   1.418
 3755SOL     OW12163   2.648   5.927   4.108
 3755SOL    HW112164   2.695   6.005   4.149
 3755SOL    HW212165   2.715   5.866   4.066
 3756SOL     OW12166   1.540   6.494   0.650
 3756SOL    HW112167   1.558   6.426   0.579
 3756SOL    HW212168   1.495   6.574   0.609
 3757SOL     OW12169   0.702   5.401   0.254
 3757SOL    HW112170   0.679   5.369   0.345
 3757SOL    HW212171   0.730   5.324   0.197
 3758SOL     OW12172   0.804   6.149   4.102
 3758SOL    HW112173   0.741   6.141   4.025
 3758SOL    HW212174   0.885   6.093   4.085
 3759SOL     OW12175   4.694   0.710   3.889
 3759SOL    HW112176   4.757   0.706   3.812
 3759SOL    HW212177   4.618   0.771   3.868
 3760SOL     OW12178   0.884   1.258   3.114
 3760SOL    HW112179   0.792   1.298   3.117
 3760SOL    HW212180   0.929   1.285   3.028
 3761SOL     OW12181   4.291   1.586   5.020
 3761SOL    HW112182   4.283   1.634   4.933
 3761SOL    HW212183   4.226   1.510   5.022
 3762SOL     OW12184   7.005   2.276   3.305
 3762SOL    HW112185   0.075   2.247   3.275
 3762SOL    HW212186   6.956   2.317   3.228
 3763SOL     OW12187   0.770   6.707   6.472
 3763SOL    HW112188   0.760   6.607   6.472
 3763SOL    HW212189   0.685   6.748   6.507
 3764SOL     OW12190   4.053   1.747   2.555
 3764SOL    HW112191   3.988   1.677   2.585
 3764SOL    HW212192   4.029   1.778   2.463
 3765SOL     OW12193   5.882   3.934   2.459
 3765SOL    HW112194   5.830   4.019   2.461
 3765SOL    HW212195   5.821   3.859   2.432
 3766SOL     OW12196   2.245   2.889   2.125
 3766SOL    HW112197   2.241   2.986   2.104
 3766SOL    HW212198   2.153   2.854   2.140
 3767SOL     OW12199   1.490   6.332   5.929
 3767SOL    HW112200   1.575   6.341   5.981
 3767SOL    HW212201   1.470   6.418   5.882
 3768SOL     OW12202   2.004   6.703   3.839
 3768SOL    HW112203   1.949   6.638   3.784
 3768SOL    HW212204   1.948   6.783   3.860
 3769SOL     OW12205   5.192   4.945   5.912
 3769SOL    HW112206   5.215   5.027   5.859
 3769SOL    HW212207   5.119   4.967   5.977
 3770SOL     OW12208   2.570   6.926   0.884
 3770SOL    HW112209   2.571   7.012   0.935
 3770SOL    HW212210   2.640   6.929   0.813
 3771SOL     OW12211   6.564   6.325   5.966
 3771SOL    HW112212   6.614   6.397   5.918
 3771SOL    HW212213   6.467   6.350   5.971
 3772SOL     OW12214   3.521   5.610   1.754
 3772SOL    HW112215   3.458   5.688   1.748
 3772SOL    HW212216   3.490   5.547   1.825
 3773SOL     OW12217   5.108   3.914   0.006
 3773SOL    HW112218   5.061   3.996   6.993
 3773SOL    HW212219   5.164   3.938   0.086
 3774SOL     OW12220   0.129   4.708   0.656
 3774SOL    HW112221   0.133   4.636   0.725
 3774SOL    HW212222   0.090   4.791   0.696
 3775SOL     OW12223   5.610   0.013   4.940
 3775SOL    HW112224   5.573   0.092   4.989
 3775SOL    HW212225   5.566   6.950   4.974
 3776SOL     OW12226   4.222   2.535   6.747
 3776SOL    HW112227   4.186   2.618   6.705
 3776SOL    HW212228   4.186   2.526   6.840
 3777SOL     OW12229   3.062   5.176   3.417
 3777SOL    HW112230   3.140   5.114   3.409
 3777SOL    HW212231   3.090   5.258   3.467
 3778SOL     OW12232   2.766   5.793   6.629
 3778SOL    HW112233   2.831   5.866   6.651
 3778SOL    HW212234   2.815   5.708   6.610
 3779SOL     OW12235   6.963   4.896   6.199
 3779SOL    HW112236   0.018   4.930   6.255
 3779SOL    HW212237   6.986   4.908   6.102
 3780SOL     OW12238   5.908   2.490   1.856
 3780SOL    HW112239   5.909   2.417   1.789
 3780SOL    HW212240   5.813   2.519   1.872
 3781SOL     OW12241   1.613   6.717   6.399
 3781SOL    HW112242   1.662   6.691   6.315
 3781SOL    HW212243   1.517   6.692   6.390
 3782SOL     OW12244   3.583   5.472   0.044
 3782SOL    HW112245   3.649   5.401   0.065
 3782SOL    HW212246   3.611   5.558   0.088
 3783SOL     OW12247   4.807   5.240   5.502
 3783SOL    HW112248   4.833   5.150   5.468
 3783SOL    HW212249   4.790   5.302   5.425
 3784SOL     OW12250   5.621   3.423   4.903
 3784SOL    HW112251   5.665   3.445   4.816
 3784SOL    HW212252   5.592   3.507   4.948
 3785SOL     OW12253   0.984   3.168   2.477
 3785SOL    HW112254   0.962   3.254   2.430
 3785SOL    HW212255   1.076   3.173   2.514
 3786SOL     OW12256   2.891   2.646   6.007
 3786SOL    HW112257   2.797   2.667   5.979
 3786SOL    HW212258   2.902   2.546   6.012
 3787SOL     OW12259   5.461   6.164   5.396
 3787SOL    HW112260   5.478   6.206   5.485
 3787SOL    HW212261   5.490   6.068   5.399
 3788SOL     OW12262   5.843   3.295   6.494
 3788SOL    HW112263   5.905   3.221   6.519
 3788SOL    HW212264   5.756   3.257   6.463
 3789SOL     OW12265   1.705   4.281   1.290
 3789SOL    HW112266   1.786   4.257   1.237
 3789SOL    HW212267   1.665   4.365   1.254
 3790SOL     OW12268   2.458   6.942   1.746
 3790SOL    HW112269   2.405   6.886   1.809
 3790SOL    HW212270   2.406   0.004   1.722
 3791SOL     OW12271   5.123   0.711   3.855
 3791SOL    HW112272   5.028   0.701   3.823
 3791SOL    HW212273   5.163   0.793   3.814
 3792SOL     OW12274   6.025   0.318   3.379
 3792SOL    HW112275   6.112   0.273   3.356
 3792SOL    HW212276   6.012   0.316   3.478
 3793SOL     OW12277   5.223   3.257   6.964
 3793SOL    HW112278   5.247   3.323   0.015
 3793SOL    HW212279   5.221   3.303   6.875
 3794SOL     OW12280   1.425   5.150   5.649
 3794SOL    HW112281   1.452   5.228   5.706
 3794SOL    HW212282   1.397   5.183   5.559
 3795SOL     OW12283   3.276   6.393   0.446
 3795SOL    HW112284   3.324   6.307   0.464
 3795SOL    HW212285   3.184   6.373   0.413
 3796SOL     OW12286   5.202   1.058   0.361
 3796SOL    HW112287   5.214   1.103   0.450
 3796SOL    HW212288   5.134   1.107   0.308
 3797SOL     OW12289   6.870   2.042   0.845
 3797SOL    HW112290   6.892   2.071   0.752
 3797SOL    HW212291   6.772   2.052   0.861
 3798SOL     OW12292   0.053   4.145   4.026
 3798SOL    HW112293   0.080   4.208   4.099
 3798SOL    HW212294   0.003   4.194   3.955
 3799SOL     OW12295   6.723   1.908   2.714
 3799SOL    HW112296   6.655   1.854   2.763
 3799SOL    HW212297   6.712   1.894   2.615
 3800SOL     OW12298   5.390   3.501   2.101
 3800SOL    HW112299   5.325   3.491   2.026
 3800SOL    HW212300   5.422   3.411   2.130
 3801SOL     OW12301   5.414   1.858   0.635
 3801SOL    HW112302   5.484   1.929   0.643
 3801SOL    HW212303   5.340   1.891   0.576
 3802SOL     OW12304   6.569   4.007   3.671
 3802SOL    HW112305   6.472   3.984   3.680
 3802SOL    HW212306   6.580   4.106   3.677
 3803SOL     OW12307   3.838   4.051   6.178
 3803SOL    HW112308   3.809   4.068   6.084
 3803SOL    HW212309   3.837   3.953   6.196
 3804SOL     OW12310   2.983   6.075   2.982
 3804SOL    HW112311   3.062   6.022   2.951
 3804SOL    HW212312   2.901   6.046   2.932
 3805SOL     OW12313   2.795   2.060   6.937
 3805SOL    HW112314   2.742   1.987   6.893
 3805SOL    HW212315   2.841   2.023   7.018
 3806SOL     OW12316   1.741   3.462   2.067
 3806SOL    HW112317   1.755   3.399   2.143
 3806SOL    HW212318   1.680   3.536   2.096
 3807SOL     OW12319   0.186   3.959   3.872
 3807SOL    HW112320   0.154   3.953   3.778
 3807SOL    HW212321   0.130   4.025   3.922
 3808SOL     OW12322   2.827   6.464   5.610
 3808SOL    HW112323   2.880   6.470   5.526
 3808SOL    HW212324   2.730   6.462   5.588
 3809SOL     OW12325   5.489   1.647   1.330
 3809SOL    HW112326   5.477   1.708   1.409
 3809SOL    HW212327   5.500   1.702   1.247
 3810SOL     OW12328   4.894   1.894   3.810
 3810SOL    HW112329   4.897   1.945   3.725
 3810SOL    HW212330   4.802   1.900   3.849
 3811SOL     OW12331   6.816   6.072   5.425
 3811SOL    HW112332   6.904   6.113   5.451
 3811SOL    HW212333   6.826   5.973   5.420
 3812SOL     OW12334   4.223   5.945   6.842
 3812SOL    HW112335   4.254   5.990   6.926
 3812SOL    HW212336   4.128   5.918   6.852
 3813SOL     OW12337   6.943   3.459   6.501
 3813SOL    HW112338   6.882   3.403   6.558
 3813SOL    HW212339   6.910   3.459   6.407
 3814SOL     OW12340   6.407   0.705   5.239
 3814SOL    HW112341   6.427   0.779   5.303
 3814SOL    HW212342   6.322   0.726   5.190
 3815SOL     OW12343   5.251   2.243   5.424
 3815SOL    HW112344   5.299   2.178   5.483
 3815SOL    HW212345   5.211   2.316   5.480
 3816SOL     OW12346   6.540   6.879   1.634
 3816SOL    HW112347   6.581   6.802   1.684
 3816SOL    HW212348   6.546   6.861   1.536
 3817SOL     OW12349   3.672   3.820   2.718
 3817SOL    HW112350   3.759   3.841   2.761
 3817SOL    HW212351   3.623   3.906   2.699
 3818SOL     OW12352   4.648   5.775   2.440
 3818SOL    HW112353   4.657   5.844   2.512
 3818SOL    HW212354   4.551   5.756   2.424
 3819SOL     OW12355   6.386   3.259   2.968
 3819SOL    HW112356   6.395   3.308   3.055
 3819SOL    HW212357   6.291   3.262   2.937
 3820SOL     OW12358   3.191   6.313   5.909
 3820SOL    HW112359   3.272   6.370   5.898
 3820SOL    HW212360   3.111   6.371   5.928
 3821SOL     OW12361   1.724   6.900   1.336
 3821SOL    HW112362   1.775   6.899   1.250
 3821SOL    HW212363   1.690   6.809   1.356
 3822SOL     OW12364   5.518   6.821   1.528
 3822SOL    HW112365   5.490   6.896   1.467
 3822SOL    HW212366   5.601   6.848   1.577
 3823SOL     OW12367   5.669   5.817   4.439
 3823SOL    HW112368   5.691   5.900   4.490
 3823SOL    HW212369   5.585   5.777   4.475
 3824SOL     OW12370   2.006   2.617   0.624
 3824SOL    HW112371   2.090   2.644   0.577
 3824SOL    HW212372   1.968   2.536   0.579
 3825SOL     OW12373   0.093   4.380   5.616
 3825SOL    HW112374   0.022   4.336   5.561
 3825SOL    HW212375   0.147   4.440   5.558
 3826SOL     OW12376   4.729   4.212   3.856
 3826SOL    HW112377   4.814   4.189   3.808
 3826SOL    HW212378   4.724   4.162   3.942
 3827SOL     OW12379   0.574   1.517   6.917
 3827SOL    HW112380   0.661   1.473   6.939
 3827SOL    HW212381   0.510   1.449   6.881
 3828SOL     OW12382   3.373   3.293   5.406
 3828SOL    HW112383   3.343   3.365   5.468
 3828SOL    HW212384   3.326   3.208   5.429
 3829SOL     OW12385   6.935   2.855   1.091
 3829SOL    HW112386   6.884   2.831   1.174
 3829SOL    HW212387   6.875   2.904   1.028
 3830SOL     OW12388   5.619   6.640   3.595
 3830SOL    HW112389   5.575   6.598   3.674
 3830SOL    HW212390   5.550   6.657   3.524
 3831SOL     OW12391   5.291   2.593   4.005
 3831SOL    HW112392   5.314   2.690   3.995
 3831SOL    HW212393   5.249   2.560   3.921
 3832SOL     OW12394   6.616   1.401   3.691
 3832SOL    HW112395   6.581   1.338   3.622
 3832SOL    HW212396   6.581   1.374   3.781
 3833SOL     OW12397   2.267   2.898   6.098
 3833SOL    HW112398   2.329   2.822   6.116
 3833SOL    HW212399   2.258   2.910   5.999
 3834SOL     OW12400   4.900   4.390   1.178
 3834SOL    HW112401   4.975   4.324   1.175
 3834SOL    HW212402   4.835   4.363   1.249
 3835SOL     OW12403   4.744   5.258   4.135
 3835SOL    HW112404   4.829   5.238   4.087
 3835SOL    HW212405   4.673   5.194   4.105
 3836SOL     OW12406   0.043   0.159   4.935
 3836SOL    HW112407   6.996   0.087   4.915
 3836SOL    HW212408   0.105   0.169   4.857
 3837SOL     OW12409   5.107   4.184   5.506
 3837SOL    HW112410   5.011   4.192   5.534
 3837SOL    HW212411   5.111   4.171   5.407
 3838SOL     OW12412   0.392   1.607   3.885
 3838SOL    HW112413   0.416   1.525   3.936
 3838SOL    HW212414   0.439   1.686   3.923
 3839SOL     OW12415   4.108   1.683   3.609
 3839SOL    HW112416   4.105   1.705   3.512
 3839SOL    HW212417   4.189   1.724   3.651
 3840SOL     OW12418   3.997   1.391   6.156
 3840SOL    HW112419   3.985   1.479   6.200
 3840SOL    HW212420   4.008   1.320   6.225
 3841SOL     OW12421   5.500   4.067   2.993
 3841SOL    HW112422   5.538   4.011   2.919
 3841SOL    HW212423   5.517   4.022   3.080
 3842SOL     OW12424   1.551   3.911   5.216
 3842SOL    HW112425   1.548   3.870   5.307
 3842SOL    HW212426   1.479   3.872   5.159
 3843SOL     OW12427   5.764   2.237   6.701
 3843SOL    HW112428   5.835   2.195   6.644
 3843SOL    HW212429   5.680   2.184   6.695
 3844SOL     OW12430   5.977   6.559   0.570
 3844SOL    HW112431   5.898   6.588   0.517
 3844SOL    HW212432   6.051   6.533   0.508
 3845SOL     OW12433   2.086   5.403   6.906
 3845SOL    HW112434   2.140   5.427   6.826
 3845SOL    HW212435   2.097   5.305   6.925
 3846SOL     OW12436   6.950   3.214   2.527
 3846SOL    HW112437   6.852   3.193   2.533
 3846SOL    HW212438   6.984   3.187   2.437
 3847SOL     OW12439   0.913   0.820   7.000
 3847SOL    HW112440   0.957   0.737   0.014
 3847SOL    HW212441   0.900   0.813   6.902
 3848SOL     OW12442   6.206   5.037   2.320
 3848SOL    HW112443   6.168   5.123   2.353
 3848SOL    HW212444   6.220   5.043   2.221
 3849SOL     OW12445   0.160   2.885   5.524
 3849SOL    HW112446   0.168   2.786   5.510
 3849SOL    HW212447   0.065   2.909   5.543
 3850SOL     OW12448   3.538   3.198   1.578
 3850SOL    HW112449   3.445   3.234   1.570
 3850SOL    HW212450   3.593   3.262   1.632
 3851SOL     OW12451   0.378   5.646   2.742
 3851SOL    HW112452   0.298   5.588   2.728
 3851SOL    HW212453   0.355   5.720   2.806
 3852SOL     OW12454   2.870   1.168   5.330
 3852SOL    HW112455   2.900   1.155   5.235
 3852SOL    HW212456   2.928   1.114   5.391
 3853SOL     OW12457   2.418   1.130   3.053
 3853SOL    HW112458   2.513   1.109   3.029
 3853SOL    HW212459   2.385   1.205   2.996
 3854SOL     OW12460   0.194   1.573   1.496
 3854SOL    HW112461   0.172   1.617   1.408
 3854SOL    HW212462   0.279   1.521   1.486
 3855SOL     OW12463   2.995   5.955   6.684
 3855SOL    HW112464   2.983   6.051   6.658
 3855SOL    HW212465   3.056   5.910   6.618
 3856SOL     OW12466   0.006   2.745   6.356
 3856SOL    HW112467   6.975   2.734   6.271
 3856SOL    HW212468   0.046   2.657   6.383
 3857SOL     OW12469   1.053   0.335   5.865
 3857SOL    HW112470   1.039   0.240   5.837
 3857SOL    HW212471   1.080   0.338   5.961
 3858SOL     OW12472   3.794   1.255   4.927
 3858SOL    HW112473   3.878   1.221   4.968
 3858SOL    HW212474   3.816   1.327   4.860
 3859SOL     OW12475   5.354   0.558   2.465
 3859SOL    HW112476   5.327   0.613   2.386
 3859SOL    HW212477   5.454   0.548   2.467
 3860SOL     OW12478   1.573   6.354   4.672
 3860SOL    HW112479   1.535   6.311   4.754
 3860SOL    HW212480   1.672   6.365   4.683
 3861SOL     OW12481   3.043   6.076   2.675
 3861SOL    HW112482   3.098   6.159   2.665
 3861SOL    HW212483   3.103   5.999   2.699
 3862SOL     OW12484   1.758   0.503   3.990
 3862SOL    HW112485   1.831   0.567   4.013
 3862SOL    HW212486   1.745   0.439   4.066
 3863SOL     OW12487   4.306   0.219   0.992
 3863SOL    HW112488   4.337   0.162   0.916
 3863SOL    HW212489   4.213   0.251   0.973
 3864SOL     OW12490   0.763   0.170   4.889
 3864SOL    HW112491   0.703   0.208   4.819
 3864SOL    HW212492   0.858   0.180   4.860
 3865SOL     OW12493   5.205   1.142   0.825
 3865SOL    HW112494   5.276   1.079   0.795
 3865SOL    HW212495   5.221   1.167   0.921
 3866SOL     OW12496   3.374   0.827   6.657
 3866SOL    HW112497   3.406   0.920   6.639
 3866SOL    HW212498   3.332   0.822   6.747
 3867SOL     OW12499   6.387   3.336   2.161
 3867SOL    HW112500   6.302   3.375   2.126
 3867SOL    HW212501   6.459   3.347   2.092
 3868SOL     OW12502   3.917   0.253   0.144
 3868SOL    HW112503   3.949   0.319   0.212
 3868SOL    HW212504   3.982   0.177   0.139
 3869SOL     OW12505   3.736   1.178   4.087
 3869SOL    HW112506   3.640   1.169   4.112
 3869SOL    HW212507   3.765   1.273   4.100
 3870SOL     OW12508   0.155   1.594   5.764
 3870SOL    HW112509   0.174   1.504   5.725
 3870SOL    HW212510   0.058   1.615   5.752
 3871SOL     OW12511   2.931   5.175   3.756
 3871SOL    HW112512   2.912   5.083   3.722
 3871SOL    HW212513   2.851   5.233   3.741
 3872SOL     OW12514   2.962   3.920   5.178
 3872SOL    HW112515   3.004   4.001   5.219
 3872SOL    HW212516   2.872   3.905   5.218
 3873SOL     OW12517   4.992   2.312   6.611
 3873SOL    HW112518   5.057   2.238   6.593
 3873SOL    HW212519   4.995   2.337   6.708
 3874SOL     OW12520   1.947   1.330   1.387
 3874SOL    HW112521   1.901   1.288   1.465
 3874SOL    HW212522   1.997   1.411   1.417
 3875SOL     OW12523   1.152   1.067   6.784
 3875SOL    HW112524   1.057   1.036   6.787
 3875SOL    HW212525   1.169   1.116   6.699
 3876SOL     OW12526   3.545   5.188   2.325
 3876SOL    HW112527   3.450   5.203   2.353
 3876SOL    HW212528   3.604   5.194   2.405
 3877SOL     OW12529   1.223   1.552   5.354
 3877SOL    HW112530   1.159   1.476   5.363
 3877SOL    HW212531   1.195   1.611   5.279
 3878SOL     OW12532   4.524   1.372   5.056
 3878SOL    HW112533   4.586   1.418   5.120
 3878SOL    HW212534   4.440   1.426   5.048
 3879SOL     OW12535   5.340   5.541   6.569
 3879SOL    HW112536   5.388   5.519   6.654
 3879SOL    HW212537   5.310   5.457   6.525
 3880SOL     OW12538   4.959   4.634   3.993
 3880SOL    HW112539   4.870   4.655   3.955
 3880SOL    HW212540   4.953   4.633   4.093
 3881SOL     OW12541   1.280   2.876   0.263
 3881SOL    HW112542   1.283   2.784   0.225
 3881SOL    HW212543   1.370   2.901   0.299
 3882SOL     OW12544   0.635   1.870   5.601
 3882SOL    HW112545   0.725   1.829   5.584
 3882SOL    HW212546   0.616   1.871   5.699
 3883SOL     OW12547   4.400   5.855   3.960
 3883SOL    HW112548   4.386   5.757   3.952
 3883SOL    HW212549   4.311   5.900   3.970
 3884SOL     OW12550   6.802   3.250   1.813
 3884SOL    HW112551   6.806   3.207   1.904
 3884SOL    HW212552   6.823   3.347   1.821
 3885SOL     OW12553   4.420   5.585   2.042
 3885SOL    HW112554   4.355   5.609   2.114
 3885SOL    HW212555   4.475   5.665   2.018
 3886SOL     OW12556   3.010   5.764   6.255
 3886SOL    HW112557   2.986   5.688   6.316
 3886SOL    HW212558   3.038   5.727   6.166
 3887SOL     OW12559   2.285   5.784   2.178
 3887SOL    HW112560   2.380   5.814   2.165
 3887SOL    HW212561   2.222   5.858   2.156
 3888SOL     OW12562   5.345   4.893   3.167
 3888SOL    HW112563   5.336   4.929   3.074
 3888SOL    HW212564   5.410   4.817   3.167
 3889SOL     OW12565   5.621   3.827   0.449
 3889SOL    HW112566   5.625   3.766   0.370
 3889SOL    HW212567   5.714   3.846   0.481
 3890SOL     OW12568   5.295   3.817   3.882
 3890SOL    HW112569   5.251   3.882   3.820
 3890SOL    HW212570   5.286   3.725   3.844
 3891SOL     OW12571   4.811   4.976   3.912
 3891SOL    HW112572   4.795   4.878   3.929
 3891SOL    HW212573   4.760   5.004   3.831
 3892SOL     OW12574   6.493   2.201   1.807
 3892SOL    HW112575   6.446   2.259   1.874
 3892SOL    HW212576   6.470   2.231   1.715
 3893SOL     OW12577   4.071   3.266   3.792
 3893SOL    HW112578   4.007   3.221   3.855
 3893SOL    HW212579   4.143   3.201   3.765
 3894SOL     OW12580   4.198   1.099   6.005
 3894SOL    HW112581   4.227   1.119   6.099
 3894SOL    HW212582   4.270   1.127   5.941
 3895SOL     OW12583   0.619   0.612   4.349
 3895SOL    HW112584   0.681   0.626   4.427
 3895SOL    HW212585   0.541   0.673   4.358
 3896SOL     OW12586   2.157   1.224   6.355
 3896SOL    HW112587   2.109   1.153   6.304
 3896SOL    HW212588   2.255   1.217   6.336
 3897SOL     OW12589   3.174   6.187   0.768
 3897SOL    HW112590   3.202   6.283   0.758
 3897SOL    HW212591   3.190   6.157   0.862
 3898SOL     OW12592   3.799   3.030   1.235
 3898SOL    HW112593   3.886   3.063   1.271
 3898SOL    HW212594   3.815   2.957   1.170
 3899SOL     OW12595   3.060   6.919   5.551
 3899SOL    HW112596   3.034   6.916   5.648
 3899SOL    HW212597   2.979   6.908   5.494
 3900SOL     OW12598   4.595   4.718   2.662
 3900SOL    HW112599   4.561   4.807   2.629
 3900SOL    HW212600   4.536   4.645   2.627
 3901SOL     OW12601   2.841   1.525   0.174
 3901SOL    HW112602   2.923   1.537   0.230
 3901SOL    HW212603   2.830   1.605   0.114
 3902SOL     OW12604   5.347   3.241   2.777
 3902SOL    HW112605   5.281   3.316   2.783
 3902SOL    HW212606   5.321   3.180   2.702
 3903SOL     OW12607   3.667   4.565   6.900
 3903SOL    HW112608   3.577   4.605   6.922
 3903SOL    HW212609   3.739   4.627   6.931
 3904SOL     OW12610   1.885   6.705   0.661
 3904SOL    HW112611   1.872   6.762   0.579
 3904SOL    HW212612   1.931   6.620   0.635
 3905SOL     OW12613   0.115   6.288   5.262
 3905SOL    HW112614   0.112   6.369   5.320
 3905SOL    HW212615   0.117   6.206   5.319
 3906SOL     OW12616   0.097   6.102   5.460
 3906SOL    HW112617   0.097   6.023   5.521
 3906SOL    HW212618   0.125   6.184   5.512
 3907SOL     OW12619   5.369   1.888   3.855
 3907SOL    HW112620   5.289   1.828   3.843
 3907SOL    HW212621   5.428   1.851   3.927
 3908SOL     OW12622   2.486   4.111   5.978
 3908SOL    HW112623   2.580   4.086   5.997
 3908SOL    HW212624   2.480   4.210   5.961
 3909SOL     OW12625   5.281   5.640   3.555
 3909SOL    HW112626   5.188   5.663   3.527
 3909SOL    HW212627   5.292   5.541   3.557
 3910SOL     OW12628   3.687   3.783   2.425
 3910SOL    HW112629   3.769   3.839   2.412
 3910SOL    HW212630   3.670   3.729   2.342
 3911SOL     OW12631   5.793   1.905   5.732
 3911SOL    HW112632   5.839   1.925   5.819
 3911SOL    HW212633   5.777   1.990   5.683
 3912SOL     OW12634   5.349   2.737   6.180
 3912SOL    HW112635   5.346   2.828   6.138
 3912SOL    HW212636   5.343   2.746   6.280
 3913SOL     OW12637   1.324   6.888   1.408
 3913SOL    HW112638   1.254   6.890   1.479
 3913SOL    HW212639   1.343   6.981   1.376
 3914SOL     OW12640   3.138   5.591   5.168
 3914SOL    HW112641   3.047   5.561   5.140
 3914SOL    HW212642   3.204   5.568   5.097
 3915SOL     OW12643   6.151   5.780   1.592
 3915SOL    HW112644   6.118   5.853   1.652
 3915SOL    HW212645   6.140   5.692   1.639
 3916SOL     OW12646   0.166   0.191   3.486
 3916SOL    HW112647   0.217   0.221   3.567
 3916SOL    HW212648   0.158   0.268   3.422
 3917SOL     OW12649   2.557   7.014   6.933
 3917SOL    HW112650   2.575   6.917   6.949
 3917SOL    HW212651   2.633   0.033   6.881
 3918SOL     OW12652   5.844   3.752   6.949
 3918SOL    HW112653   5.818   3.801   6.866
 3918SOL    HW212654   5.933   3.785   6.981
 3919SOL     OW12655   3.200   6.458   0.713
 3919SOL    HW112656   3.203   6.457   0.613
 3919SOL    HW212657   3.211   6.552   0.745
 3920SOL     OW12658   2.146   0.825   6.854
 3920SOL    HW112659   2.131   0.760   6.929
 3920SOL    HW212660   2.207   0.784   6.787
 3921SOL     OW12661   0.774   3.366   0.875
 3921SOL    HW112662   0.757   3.386   0.779
 3921SOL    HW212663   0.778   3.451   0.927
 3922SOL     OW12664   0.879   5.560   1.326
 3922SOL    HW112665   0.834   5.624   1.388
 3922SOL    HW212666   0.918   5.484   1.378
 3923SOL     OW12667   6.814   5.947   0.747
 3923SOL    HW112668   6.880   5.953   0.673
 3923SOL    HW212669   6.740   5.885   0.722
 3924SOL     OW12670   6.331   5.029   4.463
 3924SOL    HW112671   6.356   4.991   4.551
 3924SOL    HW212672   6.361   5.124   4.458
 3925SOL     OW12673   1.246   4.981   0.869
 3925SOL    HW112674   1.287   4.972   0.960
 3925SOL    HW212675   1.146   4.982   0.878
 3926SOL     OW12676   3.158   5.368   2.956
 3926SOL    HW112677   3.213   5.320   2.888
 3926SOL    HW212678   3.102   5.437   2.910
 3927SOL     OW12679   2.487   3.599   6.634
 3927SOL    HW112680   2.469   3.657   6.714
 3927SOL    HW212681   2.471   3.503   6.659
 3928SOL     OW12682   6.514   6.835   6.492
 3928SOL    HW112683   6.568   6.910   6.529
 3928SOL    HW212684   6.527   6.829   6.393
 3929SOL     OW12685   0.934   1.595   4.627
 3929SOL    HW112686   1.021   1.587   4.579
 3929SOL    HW212687   0.871   1.524   4.595
 3930SOL     OW12688   2.876   1.518   4.023
 3930SOL    HW112689   2.812   1.469   4.081
 3930SOL    HW212690   2.839   1.608   4.001
 3931SOL     OW12691   4.080   0.063   2.109
 3931SOL    HW112692   4.177   0.079   2.092
 3931SOL    HW212693   4.026   0.112   2.041
 3932SOL     OW12694   1.985   2.930   3.546
 3932SOL    HW112695   2.079   2.965   3.551
 3932SOL    HW212696   1.980   2.840   3.588
 3933SOL     OW12697   1.951   1.110   6.085
 3933SOL    HW112698   2.044   1.125   6.051
 3933SOL    HW212699   1.952   1.035   6.151
 3934SOL     OW12700   5.355   6.092   6.767
 3934SOL    HW112701   5.313   6.183   6.776
 3934SOL    HW212702   5.393   6.064   6.855
 3935SOL     OW12703   5.166   6.628   1.947
 3935SOL    HW112704   5.153   6.703   2.011
 3935SOL    HW212705   5.246   6.574   1.975
 3936SOL     OW12706   0.674   4.138   2.400
 3936SOL    HW112707   0.725   4.108   2.481
 3936SOL    HW212708   0.731   4.122   2.319
 3937SOL     OW12709   0.041   1.750   2.304
 3937SOL    HW112710   0.121   1.787   2.351
 3937SOL    HW212711   6.981   1.760   2.363
 3938SOL     OW12712   6.686   2.961   3.421
 3938SOL    HW112713   6.608   2.971   3.359
 3938SOL    HW212714   6.743   3.043   3.415
 3939SOL     OW12715   1.932   1.939   1.675
 3939SOL    HW112716   2.020   1.905   1.708
 3939SOL    HW212717   1.947   2.015   1.611
 3940SOL     OW12718   4.298   4.444   0.977
 3940SOL    HW112719   4.347   4.433   0.891
 3940SOL    HW212720   4.278   4.353   1.016
 3941SOL     OW12721   5.535   3.363   6.902
 3941SOL    HW112722   5.497   3.306   6.828
 3941SOL    HW212723   5.629   3.388   6.879
 3942SOL     OW12724   6.201   6.978   0.817
 3942SOL    HW112725   6.188   6.943   0.724
 3942SOL    HW212726   6.214   6.902   0.880
 3943SOL     OW12727   6.590   2.980   5.167
 3943SOL    HW112728   6.639   2.920   5.230
 3943SOL    HW212729   6.536   2.924   5.103
 3944SOL     OW12730   5.501   1.693   5.019
 3944SOL    HW112731   5.405   1.662   5.020
 3944SOL    HW212732   5.535   1.693   4.925
 3945SOL     OW12733   0.090   0.205   1.098
 3945SOL    HW112734   0.186   0.200   1.070
 3945SOL    HW212735   0.074   0.138   1.171
 3946SOL     OW12736   3.536   5.247   3.258
 3946SOL    HW112737   3.460   5.263   3.196
 3946SOL    HW212738   3.508   5.185   3.331
 3947SOL     OW12739   6.614   3.899   5.984
 3947SOL    HW112740   6.585   3.922   5.891
 3947SOL    HW212741   6.607   3.800   5.998
 3948SOL     OW12742   6.482   3.412   0.710
 3948SOL    HW112743   6.494   3.418   0.611
 3948SOL    HW212744   6.398   3.460   0.736
 3949SOL     OW12745   5.424   6.432   3.078
 3949SOL    HW112746   5.376   6.493   3.015
 3949SOL    HW212747   5.499   6.482   3.122
 3950SOL     OW12748   1.741   6.632   0.313
 3950SOL    HW112749   1.751   6.563   0.385
 3950SOL    HW212750   1.787   6.601   0.230
 3951SOL     OW12751   5.989   5.544   1.971
 3951SOL    HW112752   5.924   5.482   2.014
 3951SOL    HW212753   6.030   5.603   2.041
 3952SOL     OW12754   5.949   1.522   6.458
 3952SOL    HW112755   5.992   1.502   6.546
 3952SOL    HW212756   5.856   1.485   6.457
 3953SOL     OW12757   2.975   3.297   3.128
 3953SOL    HW112758   2.891   3.260   3.089
 3953SOL    HW212759   3.050   3.233   3.113
 3954SOL     OW12760   4.133   4.391   5.712
 3954SOL    HW112761   4.076   4.357   5.638
 3954SOL    HW212762   4.083   4.460   5.764
 3955SOL     OW12763   3.521   1.254   4.996
 3955SOL    HW112764   3.482   1.346   4.997
 3955SOL    HW212765   3.620   1.260   4.991
 3956SOL     OW12766   1.868   1.717   0.819
 3956SOL    HW112767   1.826   1.759   0.900
 3956SOL    HW212768   1.930   1.783   0.776
 3957SOL     OW12769   4.005   1.196   3.914
 3957SOL    HW112770   3.966   1.174   4.003
 3957SOL    HW212771   4.087   1.252   3.926
 3958SOL     OW12772   5.512   6.516   5.995
 3958SOL    HW112773   5.418   6.547   6.011
 3958SOL    HW212774   5.550   6.479   6.080
 3959SOL     OW12775   5.376   5.157   5.927
 3959SOL    HW112776   5.469   5.127   5.908
 3959SOL    HW212777   5.350   5.129   6.020
 3960SOL     OW12778   5.968   2.585   4.906
 3960SOL    HW112779   5.992   2.670   4.860
 3960SOL    HW212780   5.870   2.582   4.922
 3961SOL     OW12781   5.188   6.942   4.116
 3961SOL    HW112782   5.242   6.916   4.196
 3961SOL    HW212783   5.177   0.021   4.113
 3962SOL     OW12784   6.113   4.993   4.863
 3962SOL    HW112785   6.190   5.043   4.825
 3962SOL    HW212786   6.050   5.057   4.908
 3963SOL     OW12787   4.145   6.859   2.301
 3963SOL    HW112788   4.110   6.930   2.240
 3963SOL    HW212789   4.105   6.770   2.276
 3964SOL     OW12790   5.384   2.848   3.856
 3964SOL    HW112791   5.459   2.911   3.833
 3964SOL    HW212792   5.299   2.882   3.817
 3965SOL     OW12793   5.178   4.238   4.108
 3965SOL    HW112794   5.101   4.287   4.148
 3965SOL    HW212795   5.263   4.268   4.153
 3966SOL     OW12796   2.472   6.691   6.805
 3966SOL    HW112797   2.519   6.728   6.726
 3966SOL    HW212798   2.432   6.602   6.782
 3967SOL     OW12799   1.384   3.953   3.839
 3967SOL    HW112800   1.320   3.946   3.762
 3967SOL    HW212801   1.478   3.952   3.804
 3968SOL     OW12802   4.002   0.219   0.869
 3968SOL    HW112803   3.985   0.262   0.958
 3968SOL    HW212804   3.990   0.120   0.878
 3969SOL     OW12805   0.365   4.782   3.605
 3969SOL    HW112806   0.394   4.867   3.648
 3969SOL    HW212807   0.274   4.793   3.566
 3970SOL     OW12808   4.253   6.137   1.800
 3970SOL    HW112809   4.263   6.236   1.792
 3970SOL    HW212810   4.319   6.103   1.867
 3971SOL     OW12811   1.519   5.944   3.710
 3971SOL    HW112812   1.464   5.865   3.685
 3971SOL    HW212813   1.605   5.943   3.658
 3972SOL     OW12814   1.425   3.560   6.879
 3972SOL    HW112815   1.342   3.515   6.914
 3972SOL    HW212816   1.487   3.580   6.955
 3973SOL     OW12817   1.867   4.522   0.589
 3973SOL    HW112818   1.806   4.457   0.634
 3973SOL    HW212819   1.880   4.601   0.649
 3974SOL     OW12820   2.898   0.440   5.885
 3974SOL    HW112821   2.993   0.432   5.914
 3974SOL    HW212822   2.862   0.529   5.914
 3975SOL     OW12823   6.253   3.093   0.207
 3975SOL    HW112824   6.192   3.155   0.159
 3975SOL    HW212825   6.249   3.110   0.305
 3976SOL     OW12826   1.594   3.999   2.781
 3976SOL    HW112827   1.639   4.021   2.867
 3976SOL    HW212828   1.654   3.942   2.725
 3977SOL     OW12829   0.863   2.623   6.980
 3977SOL    HW112830   0.831   2.716   6.995
 3977SOL    HW212831   0.833   2.591   6.890
 3978SOL     OW12832   6.085   4.112   4.153
 3978SOL    HW112833   6.121   4.118   4.246
 3978SOL    HW212834   5.998   4.162   4.149
 3979SOL     OW12835   4.466   5.622   6.219
 3979SOL    HW112836   4.367   5.607   6.218
 3979SOL    HW212837   4.485   5.720   6.228
 3980SOL     OW12838   5.631   5.077   5.892
 3980SOL    HW112839   5.729   5.084   5.876
 3980SOL    HW212840   5.605   4.981   5.901
 3981SOL     OW12841   4.381   5.675   6.809
 3981SOL    HW112842   4.310   5.606   6.827
 3981SOL    HW212843   4.337   5.764   6.793
 3982SOL     OW12844   2.701   6.198   2.970
 3982SOL    HW112845   2.768   6.181   3.042
 3982SOL    HW212846   2.640   6.272   2.997
 3983SOL     OW12847   3.535   6.016   4.141
 3983SOL    HW112848   3.542   5.945   4.211
 3983SOL    HW212849   3.626   6.047   4.115
 3984SOL     OW12850   6.739   3.037   2.729
 3984SOL    HW112851   6.823   3.060   2.779
 3984SOL    HW212852   6.667   3.103   2.752
 3985SOL     OW12853   4.136   5.372   6.273
 3985SOL    HW112854   4.152   5.278   6.242
 3985SOL    HW212855   4.091   5.371   6.362
 3986SOL     OW12856   5.503   1.014   2.707
 3986SOL    HW112857   5.512   0.919   2.737
 3986SOL    HW212858   5.422   1.055   2.749
 3987SOL     OW12859   3.558   5.358   5.617
 3987SOL    HW112860   3.571   5.288   5.688
 3987SOL    HW212861   3.646   5.382   5.577
 3988SOL     OW12862   5.185   5.792   0.889
 3988SOL    HW112863   5.242   5.867   0.923
 3988SOL    HW212864   5.228   5.750   0.810
 3989SOL     OW12865   6.373   2.744   1.154
 3989SOL    HW112866   6.460   2.754   1.107
 3989SOL    HW212867   6.305   2.707   1.090
 3990SOL     OW12868   6.760   1.615   1.870
 3990SOL    HW112869   6.730   1.706   1.898
 3990SOL    HW212870   6.815   1.573   1.942
 3991SOL     OW12871   5.851   1.612   3.316
 3991SOL    HW112872   5.762   1.634   3.355
 3991SOL    HW212873   5.849   1.628   3.217
 3992SOL     OW12874   4.434   1.912   1.624
 3992SOL    HW112875   4.389   1.826   1.649
 3992SOL    HW212876   4.523   1.891   1.583
 3993SOL     OW12877   1.000   3.331   1.469
 3993SOL    HW112878   0.978   3.242   1.509
 3993SOL    HW212879   0.921   3.366   1.419
 3994SOL     OW12880   2.169   5.703   4.537
 3994SOL    HW112881   2.173   5.678   4.440
 3994SOL    HW212882   2.240   5.654   4.587
 3995SOL     OW12883   1.950   2.596   4.407
 3995SOL    HW112884   2.043   2.625   4.428
 3995SOL    HW212885   1.899   2.584   4.492
 3996SOL     OW12886   0.200   5.701   4.595
 3996SOL    HW112887   0.207   5.607   4.563
 3996SOL    HW212888   0.237   5.763   4.526
 3997SOL     OW12889   2.787   1.159   3.340
 3997SOL    HW112890   2.747   1.248   3.360
 3997SOL    HW212891   2.727   1.108   3.279
 3998SOL     OW12892   4.583   2.490   2.778
 3998SOL    HW112893   4.569   2.466   2.682
 3998SOL    HW212894   4.635   2.574   2.784
 3999SOL     OW12895   4.666   1.302   4.341
 3999SOL    HW112896   4.575   1.344   4.342
 3999SOL    HW212897   4.666   1.219   4.396
 4000SOL     OW12898   3.885   5.932   4.641
 4000SOL    HW112899   3.804   5.880   4.667
 4000SOL    HW212900   3.871   5.971   4.549
 4001SOL     OW12901   0.801   1.850   4.597
 4001SOL    HW112902   0.840   1.761   4.623
 4001SOL    HW212903   0.875   1.912   4.571
 4002SOL     OW12904   2.055   4.398   1.283
 4002SOL    HW112905   2.125   4.350   1.229
 4002SOL    HW212906   1.987   4.437   1.222
 4003SOL     OW12907   4.230   2.177   5.172
 4003SOL    HW112908   4.187   2.260   5.135
 4003SOL    HW212909   4.219   2.176   5.271
 4004SOL     OW12910   6.936   1.687   6.227
 4004SOL    HW112911   6.951   1.784   6.240
 4004SOL    HW212912   7.016   1.646   6.183
 4005SOL     OW12913   6.460   4.614   4.540
 4005SOL    HW112914   6.431   4.635   4.633
 4005SOL    HW212915   6.461   4.514   4.527
 4006SOL     OW12916   3.530   6.446   3.292
 4006SOL    HW112917   3.454   6.449   3.357
 4006SOL    HW212918   3.520   6.367   3.232
 4007SOL     OW12919   0.608   1.468   5.601
 4007SOL    HW112920   0.700   1.495   5.572
 4007SOL    HW212921   0.552   1.448   5.520
 4008SOL     OW12922   2.930   1.457   5.860
 4008SOL    HW112923   2.909   1.554   5.871
 4008SOL    HW212924   2.846   1.404   5.869
 4009SOL     OW12925   3.386   3.899   2.982
 4009SOL    HW112926   3.419   3.833   3.049
 4009SOL    HW212927   3.331   3.853   2.913
 4010SOL     OW12928   1.045   3.292   0.315
 4010SOL    HW112929   1.036   3.235   0.397
 4010SOL    HW212930   1.037   3.388   0.342
 4011SOL     OW12931   0.358   2.144   0.888
 4011SOL    HW112932   0.403   2.165   0.801
 4011SOL    HW212933   0.426   2.108   0.952
 4012SOL     OW12934   5.838   3.489   3.128
 4012SOL    HW112935   5.934   3.461   3.129
 4012SOL    HW212936   5.814   3.529   3.217
 4013SOL     OW12937   4.838   2.812   3.240
 4013SOL    HW112938   4.840   2.897   3.187
 4013SOL    HW212939   4.824   2.735   3.178
 4014SOL     OW12940   5.576   4.971   2.067
 4014SOL    HW112941   5.565   5.062   2.029
 4014SOL    HW212942   5.540   4.969   2.160
 4015SOL     OW12943   5.203   3.371   0.183
 4015SOL    HW112944   5.272   3.385   0.255
 4015SOL    HW212945   5.130   3.438   0.194
 4016SOL     OW12946   3.350   6.202   4.425
 4016SOL    HW112947   3.310   6.122   4.379
 4016SOL    HW212948   3.378   6.176   4.518
 4017SOL     OW12949   5.586   6.846   6.024
 4017SOL    HW112950   5.593   6.806   5.933
 4017SOL    HW212951   5.510   6.911   6.027
 4018SOL     OW12952   2.439   0.398   6.693
 4018SOL    HW112953   2.470   0.392   6.788
 4018SOL    HW212954   2.493   0.335   6.637
 4019SOL     OW12955   5.298   6.456   3.836
 4019SOL    HW112956   5.305   6.467   3.737
 4019SOL    HW212957   5.390   6.454   3.876
 4020SOL     OW12958   5.468   1.540   4.480
 4020SOL    HW112959   5.373   1.570   4.476
 4020SOL    HW212960   5.514   1.562   4.393
 4021SOL     OW12961   5.574   3.886   0.120
 4021SOL    HW112962   5.537   3.848   0.035
 4021SOL    HW212963   5.589   3.812   0.185
 4022SOL     OW12964   5.666   1.120   1.004
 4022SOL    HW112965   5.664   1.181   1.083
 4022SOL    HW212966   5.601   1.153   0.935
 4023SOL     OW12967   6.599   6.098   5.832
 4023SOL    HW112968   6.577   6.172   5.895
 4023SOL    HW212969   6.697   6.096   5.815
 4024SOL     OW12970   4.589   4.561   5.258
 4024SOL    HW112971   4.583   4.461   5.260
 4024SOL    HW212972   4.651   4.589   5.184
 4025SOL     OW12973   0.298   3.861   4.211
 4025SOL    HW112974   0.299   3.803   4.130
 4025SOL    HW212975   0.380   3.919   4.211
 4026SOL     OW12976   5.588   1.055   5.269
 4026SOL    HW112977   5.489   1.038   5.276
 4026SOL    HW212978   5.636   0.967   5.264
 4027SOL     OW12979   2.741   5.216   2.797
 4027SOL    HW112980   2.676   5.143   2.773
 4027SOL    HW212981   2.828   5.198   2.752
 4028SOL     OW12982   1.587   5.574   3.103
 4028SOL    HW112983   1.530   5.656   3.102
 4028SOL    HW212984   1.530   5.493   3.096
 4029SOL     OW12985   1.830   3.824   3.267
 4029SOL    HW112986   1.888   3.743   3.282
 4029SOL    HW212987   1.736   3.795   3.248
 4030SOL     OW12988   2.274   1.273   6.619
 4030SOL    HW112989   2.212   1.332   6.672
 4030SOL    HW212990   2.225   1.237   6.540
 4031SOL     OW12991   6.829   5.848   4.103
 4031SOL    HW112992   6.826   5.906   4.184
 4031SOL    HW212993   6.755   5.780   4.108
 4032SOL     OW12994   3.037   6.822   4.890
 4032SOL    HW112995   3.111   6.848   4.827
 4032SOL    HW212996   3.075   6.810   4.982
 4033SOL     OW12997   3.857   3.743   6.255
 4033SOL    HW112998   3.954   3.762   6.246
 4033SOL    HW212999   3.824   3.698   6.171
 4034SOL     OW13000   5.785   3.259   5.044
 4034SOL    HW113001   5.726   3.184   5.075
 4034SOL    HW213002   5.733   3.320   4.985
 4035SOL     OW13003   6.725   6.458   1.638
 4035SOL    HW113004   6.794   6.437   1.706
 4035SOL    HW213005   6.637   6.419   1.665
 4036SOL     OW13006   6.144   6.187   1.392
 4036SOL    HW113007   6.175   6.101   1.433
 4036SOL    HW213008   6.068   6.224   1.445
 4037SOL     OW13009   0.679   3.702   6.330
 4037SOL    HW113010   0.685   3.796   6.296
 4037SOL    HW213011   0.587   3.666   6.312
 4038SOL     OW13012   6.249   5.216   3.623
 4038SOL    HW113013   6.161   5.170   3.637
 4038SOL    HW213014   6.248   5.305   3.668
 4039SOL     OW13015   2.691   4.934   1.250
 4039SOL    HW113016   2.702   5.021   1.201
 4039SOL    HW213017   2.755   4.867   1.215
 4040SOL     OW13018   3.374   6.720   0.039
 4040SOL    HW113019   3.323   6.743   0.122
 4040SOL    HW213020   3.461   6.769   0.038
 4041SOL     OW13021   0.548   6.226   3.348
 4041SOL    HW113022   0.619   6.156   3.343
 4041SOL    HW213023   0.463   6.190   3.308
 4042SOL     OW13024   5.723   5.923   1.822
 4042SOL    HW113025   5.775   5.916   1.907
 4042SOL    HW213026   5.674   6.010   1.820
 4043SOL     OW13027   6.740   3.295   0.742
 4043SOL    HW113028   6.807   3.341   0.800
 4043SOL    HW213029   6.664   3.357   0.724
 4044SOL     OW13030   5.910   4.802   2.255
 4044SOL    HW113031   5.902   4.898   2.229
 4044SOL    HW213032   5.823   4.771   2.295
 4045SOL     OW13033   2.409   4.845   5.761
 4045SOL    HW113034   2.498   4.800   5.755
 4045SOL    HW213035   2.347   4.789   5.816
 4046SOL     OW13036   0.453   3.383   0.391
 4046SOL    HW113037   0.504   3.417   0.312
 4046SOL    HW213038   0.451   3.283   0.389
 4047SOL     OW13039   2.933   3.477   3.315
 4047SOL    HW113040   2.940   3.417   3.236
 4047SOL    HW213041   2.957   3.426   3.398
 4048SOL     OW13042   4.639   2.318   0.439
 4048SOL    HW113043   4.572   2.301   0.512
 4048SOL    HW213044   4.670   2.413   0.444
 4049SOL     OW13045   6.866   6.701   6.739
 4049SOL    HW113046   6.927   6.705   6.819
 4049SOL    HW213047   6.799   6.628   6.752
 4050SOL     OW13048   2.659   0.964   2.861
 4050SOL    HW113049   2.754   0.973   2.891
 4050SOL    HW213050   2.653   0.982   2.763
 4051SOL     OW13051   2.636   3.431   0.626
 4051SOL    HW113052   2.592   3.365   0.565
 4051SOL    HW213053   2.637   3.521   0.582
 4052SOL     OW13054   1.648   0.371   0.902
 4052SOL    HW113055   1.548   0.373   0.908
 4052SOL    HW213056   1.679   0.276   0.911
 4053SOL     OW13057   3.098   5.525   2.316
 4053SOL    HW113058   3.149   5.600   2.274
 4053SOL    HW213059   3.156   5.480   2.384
 4054SOL     OW13060   5.456   1.427   6.716
 4054SOL    HW113061   5.512   1.501   6.753
 4054SOL    HW213062   5.478   1.341   6.763
 4055SOL     OW13063   4.550   3.611   6.838
 4055SOL    HW113064   4.589   3.640   6.926
 4055SOL    HW213065   4.619   3.561   6.786
 4056SOL     OW13066   4.492   2.921   6.883
 4056SOL    HW113067   4.422   2.923   6.811
 4056SOL    HW213068   4.552   3.001   6.873
 4057SOL     OW13069   6.109   2.469   0.712
 4057SOL    HW113070   6.144   2.507   0.797
 4057SOL    HW213071   6.028   2.520   0.683
 4058SOL     OW13072   0.960   3.352   3.982
 4058SOL    HW113073   0.983   3.326   4.076
 4058SOL    HW213074   0.892   3.425   3.984
 4059SOL     OW13075   0.175   1.916   4.902
 4059SOL    HW113076   0.152   2.012   4.919
 4059SOL    HW213077   0.117   1.858   4.959
 4060SOL     OW13078   2.602   6.515   5.470
 4060SOL    HW113079   2.526   6.454   5.494
 4060SOL    HW213080   2.608   6.523   5.370
 4061SOL     OW13081   2.189   2.919   1.505
 4061SOL    HW113082   2.130   2.924   1.424
 4061SOL    HW213083   2.278   2.958   1.483
 4062SOL     OW13084   3.033   0.178   3.338
 4062SOL    HW113085   3.000   0.088   3.368
 4062SOL    HW213086   2.980   0.208   3.259
 4063SOL     OW13087   3.627   6.115   6.480
 4063SOL    HW113088   3.694   6.067   6.537
 4063SOL    HW213089   3.642   6.093   6.384
 4064SOL     OW13090   6.049   0.010   4.589
 4064SOL    HW113091   6.090   0.101   4.582
 4064SOL    HW213092   6.096   6.967   4.528
 4065SOL     OW13093   0.942   4.288   5.536
 4065SOL    HW113094   0.876   4.213   5.529
 4065SOL    HW213095   0.965   4.303   5.632
 4066SOL     OW13096   4.793   5.414   1.866
 4066SOL    HW113097   4.703   5.397   1.907
 4066SOL    HW213098   4.835   5.493   1.909
 4067SOL     OW13099   5.514   0.533   1.206
 4067SOL    HW113100   5.556   0.574   1.287
 4067SOL    HW213101   5.582   0.476   1.159
 4068SOL     OW13102   4.883   0.716   4.726
 4068SOL    HW113103   4.839   0.783   4.667
 4068SOL    HW213104   4.819   0.641   4.744
 4069SOL     OW13105   6.678   6.248   0.579
 4069SOL    HW113106   6.770   6.275   0.606
 4069SOL    HW213107   6.634   6.199   0.654
 4070SOL     OW13108   6.671   3.625   2.459
 4070SOL    HW113109   6.654   3.586   2.369
 4070SOL    HW213110   6.644   3.721   2.459
 4071SOL     OW13111   2.569   0.024   4.983
 4071SOL    HW113112   2.512   0.002   4.904
 4071SOL    HW213113   2.636   0.094   4.957
 4072SOL     OW13114   0.664   0.388   4.197
 4072SOL    HW113115   0.595   0.319   4.218
 4072SOL    HW213116   0.650   0.469   4.254
 4073SOL     OW13117   2.528   4.597   2.182
 4073SOL    HW113118   2.458   4.598   2.110
 4073SOL    HW213119   2.619   4.590   2.141
 4074SOL     OW13120   0.345   3.038   1.022
 4074SOL    HW113121   0.329   2.942   0.999
 4074SOL    HW213122   0.374   3.045   1.117
 4075SOL     OW13123   6.470   0.537   3.527
 4075SOL    HW113124   6.439   0.629   3.554
 4075SOL    HW213125   6.557   0.516   3.572
 4076SOL     OW13126   1.565   3.428   3.483
 4076SOL    HW113127   1.583   3.525   3.499
 4076SOL    HW213128   1.506   3.392   3.556
 4077SOL     OW13129   3.530   0.696   1.380
 4077SOL    HW113130   3.551   0.727   1.472
 4077SOL    HW213131   3.452   0.747   1.344
 4078SOL     OW13132   5.032   4.626   2.431
 4078SOL    HW113133   5.080   4.670   2.507
 4078SOL    HW213134   4.935   4.650   2.434
 4079SOL     OW13135   4.854   0.902   3.472
 4079SOL    HW113136   4.797   0.979   3.443
 4079SOL    HW213137   4.905   0.927   3.554
 4080SOL     OW13138   2.946   3.824   4.703
 4080SOL    HW113139   3.007   3.888   4.751
 4080SOL    HW213140   2.854   3.833   4.740
 4081SOL     OW13141   2.572   0.155   0.274
 4081SOL    HW113142   2.526   0.173   0.187
 4081SOL    HW213143   2.670   0.139   0.257
 4082SOL     OW13144   1.824   1.571   5.744
 4082SOL    HW113145   1.863   1.487   5.708
 4082SOL    HW213146   1.775   1.619   5.671
 4083SOL     OW13147   6.033   4.597   2.579
 4083SOL    HW113148   6.075   4.586   2.668
 4083SOL    HW213149   6.076   4.673   2.530
 4084SOL     OW13150   4.143   6.349   2.462
 4084SOL    HW113151   4.056   6.301   2.476
 4084SOL    HW213152   4.153   6.422   2.530
 4085SOL     OW13153   1.803   4.181   2.602
 4085SOL    HW113154   1.843   4.259   2.554
 4085SOL    HW213155   1.857   4.160   2.683
 4086SOL     OW13156   5.288   5.136   4.687
 4086SOL    HW113157   5.222   5.205   4.718
 4086SOL    HW213158   5.260   5.046   4.720
 4087SOL     OW13159   1.571   1.040   1.657
 4087SOL    HW113160   1.592   1.051   1.754
 4087SOL    HW213161   1.608   0.953   1.624
 4088SOL     OW13162   0.010   2.233   5.475
 4088SOL    HW113163   7.014   2.142   5.438
 4088SOL    HW213164   0.071   2.283   5.413
 4089SOL     OW13165   6.971   6.560   2.833
 4089SOL    HW113166   0.028   6.511   2.876
 4089SOL    HW213167   6.914   6.494   2.785
 4090SOL     OW13168   3.484   2.679   5.344
 4090SOL    HW113169   3.581   2.666   5.362
 4090SOL    HW213170   3.436   2.592   5.356
 4091SOL     OW13171   3.936   6.534   3.196
 4091SOL    HW113172   3.919   6.614   3.252
 4091SOL    HW213173   3.863   6.524   3.129
 4092SOL     OW13174   4.490   1.627   6.365
 4092SOL    HW113175   4.527   1.595   6.452
 4092SOL    HW213176   4.430   1.557   6.326
 4093SOL     OW13177   5.772   4.147   2.065
 4093SOL    HW113178   5.802   4.212   2.134
 4093SOL    HW213179   5.839   4.142   1.992
 4094SOL     OW13180   6.302   6.145   0.526
 4094SOL    HW113181   6.316   6.207   0.448
 4094SOL    HW213182   6.264   6.196   0.602
 4095SOL     OW13183   1.341   4.713   0.441
 4095SOL    HW113184   1.408   4.640   0.430
 4095SOL    HW213185   1.373   4.777   0.512
 4096SOL     OW13186   0.594   6.416   5.780
 4096SOL    HW113187   0.631   6.335   5.735
 4096SOL    HW213188   0.611   6.497   5.724
 4097SOL     OW13189   1.225   4.035   5.848
 4097SOL    HW113190   1.272   3.960   5.896
 4097SOL    HW213191   1.233   4.118   5.902
 4098SOL     OW13192   1.327   6.183   1.769
 4098SOL    HW113193   1.385   6.258   1.800
 4098SOL    HW213194   1.247   6.219   1.721
 4099SOL     OW13195   6.899   2.445   5.872
 4099SOL    HW113196   6.960   2.377   5.913
 4099SOL    HW213197   6.805   2.411   5.873
 4100SOL     OW13198   2.401   0.858   3.765
 4100SOL    HW113199   2.472   0.928   3.754
 4100SOL    HW213200   2.322   0.881   3.707
 4101SOL     OW13201   6.065   6.263   5.943
 4101SOL    HW113202   6.031   6.284   6.035
 4101SOL    HW213203   5.994   6.286   5.876
 4102SOL     OW13204   2.712   4.972   0.495
 4102SOL    HW113205   2.729   4.946   0.400
 4102SOL    HW213206   2.615   4.992   0.507
 4103SOL     OW13207   2.199   5.208   3.030
 4103SOL    HW113208   2.180   5.220   2.932
 4103SOL    HW213209   2.293   5.236   3.049
 4104SOL     OW13210   2.761   5.428   5.560
 4104SOL    HW113211   2.814   5.474   5.489
 4104SOL    HW213212   2.674   5.475   5.574
 4105SOL     OW13213   3.691   0.114   1.889
 4105SOL    HW113214   3.711   0.031   1.941
 4105SOL    HW213215   3.645   0.180   1.949
 4106SOL     OW13216   1.663   6.546   3.098
 4106SOL    HW113217   1.754   6.517   3.070
 4106SOL    HW213218   1.632   6.620   3.040
 4107SOL     OW13219   2.200   2.063   0.719
 4107SOL    HW113220   2.159   2.140   0.767
 4107SOL    HW213221   2.143   2.037   0.641
 4108SOL     OW13222   0.549   5.479   4.914
 4108SOL    HW113223   0.636   5.451   4.954
 4108SOL    HW213224   0.514   5.560   4.962
 4109SOL     OW13225   4.886   0.207   5.194
 4109SOL    HW113226   4.965   0.263   5.167
 4109SOL    HW213227   4.809   0.227   5.133
 4110SOL     OW13228   4.915   2.253   0.501
 4110SOL    HW113229   4.827   2.278   0.461
 4110SOL    HW213230   4.900   2.205   0.588
 4111SOL     OW13231   6.534   4.777   3.442
 4111SOL    HW113232   6.488   4.752   3.357
 4111SOL    HW213233   6.508   4.870   3.468
 4112SOL     OW13234   3.865   5.811   5.671
 4112SOL    HW113235   3.800   5.794   5.745
 4112SOL    HW213236   3.915   5.895   5.690
 4113SOL     OW13237   5.249   5.887   5.597
 4113SOL    HW113238   5.246   5.851   5.690
 4113SOL    HW213239   5.328   5.849   5.549
 4114SOL     OW13240   6.636   1.652   3.387
 4114SOL    HW113241   6.563   1.652   3.319
 4114SOL    HW213242   6.598   1.672   3.477
 4115SOL     OW13243   4.516   6.670   4.671
 4115SOL    HW113244   4.578   6.747   4.657
 4115SOL    HW213245   4.422   6.700   4.655
 4116SOL     OW13246   6.090   3.955   3.320
 4116SOL    HW113247   6.159   3.884   3.333
 4116SOL    HW213248   6.122   4.040   3.360
 4117SOL     OW13249   0.628   2.716   2.752
 4117SOL    HW113250   0.539   2.694   2.792
 4117SOL    HW213251   0.615   2.771   2.670
 4118SOL     OW13252   0.924   0.844   2.113
 4118SOL    HW113253   0.876   0.887   2.036
 4118SOL    HW213254   0.933   0.746   2.094
 4119SOL     OW13255   6.283   1.027   4.412
 4119SOL    HW113256   6.300   0.961   4.339
 4119SOL    HW213257   6.370   1.068   4.440
 4120SOL     OW13258   1.579   0.669   6.778
 4120SOL    HW113259   1.668   0.633   6.749
 4120SOL    HW213260   1.507   0.626   6.724
 4121SOL     OW13261   6.643   0.350   1.144
 4121SOL    HW113262   6.692   0.383   1.225
 4121SOL    HW213263   6.702   0.357   1.064
 4122SOL     OW13264   1.295   4.436   3.588
 4122SOL    HW113265   1.339   4.347   3.580
 4122SOL    HW213266   1.206   4.425   3.633
 4123SOL     OW13267   5.991   4.632   2.049
 4123SOL    HW113268   6.063   4.586   2.102
 4123SOL    HW213269   5.938   4.692   2.110
 4124SOL     OW13270   5.805   6.322   6.989
 4124SOL    HW113271   5.723   6.370   7.019
 4124SOL    HW213272   5.783   6.265   6.910
 4125SOL     OW13273   0.348   2.664   6.858
 4125SOL    HW113274   0.260   2.702   6.831
 4125SOL    HW213275   0.361   2.575   6.813
 4126SOL     OW13276   1.672   4.154   3.426
 4126SOL    HW113277   1.746   4.152   3.493
 4126SOL    HW213278   1.632   4.062   3.418
 4127SOL     OW13279   4.727   2.752   4.384
 4127SOL    HW113280   4.747   2.849   4.392
 4127SOL    HW213281   4.774   2.715   4.303
 4128SOL     OW13282   5.743   2.756   6.151
 4128SOL    HW113283   5.697   2.790   6.069
 4128SOL    HW213284   5.747   2.828   6.219
 4129SOL     OW13285   3.039   6.910   1.895
 4129SOL    HW113286   3.100   6.832   1.881
 4129SOL    HW213287   2.988   6.898   1.981
 4130SOL     OW13288   4.921   1.187   0.399
 4130SOL    HW113289   4.838   1.206   0.452
 4130SOL    HW213290   4.919   1.239   0.314
 4131SOL     OW13291   5.098   6.288   3.960
 4131SOL    HW113292   5.057   6.351   4.026
 4131SOL    HW213293   5.162   6.338   3.902
 4132SOL     OW13294   6.625   3.588   2.202
 4132SOL    HW113295   6.690   3.654   2.165
 4132SOL    HW213296   6.600   3.523   2.130
 4133SOL     OW13297   5.535   6.279   3.448
 4133SOL    HW113298   5.615   6.242   3.494
 4133SOL    HW213299   5.526   6.237   3.358
 4134SOL     OW13300   1.640   2.793   0.806
 4134SOL    HW113301   1.590   2.708   0.821
 4134SOL    HW213302   1.738   2.776   0.816
 4135SOL     OW13303   5.868   0.954   1.022
 4135SOL    HW113304   5.793   1.016   0.997
 4135SOL    HW213305   5.841   0.860   1.003
 4136SOL     OW13306   0.554   4.640   0.226
 4136SOL    HW113307   0.465   4.603   0.255
 4136SOL    HW213308   0.591   4.697   0.299
 4137SOL     OW13309   0.128   2.390   5.289
 4137SOL    HW113310   0.097   2.468   5.235
 4137SOL    HW213311   0.219   2.362   5.258
 4138SOL     OW13312   5.970   6.369   6.191
 4138SOL    HW113313   5.940   6.464   6.200
 4138SOL    HW213314   6.024   6.343   6.271
 4139SOL     OW13315   1.421   3.820   2.167
 4139SOL    HW113316   1.460   3.906   2.201
 4139SOL    HW213317   1.365   3.839   2.086
 4140SOL     OW13318   2.494   6.682   0.685
 4140SOL    HW113319   2.510   6.620   0.762
 4140SOL    HW213320   2.399   6.712   0.686
 4141SOL     OW13321   5.122   6.992   6.182
 4141SOL    HW113322   5.161   0.059   6.153
 4141SOL    HW213323   5.195   6.925   6.194
 4142SOL     OW13324   0.089   6.687   1.736
 4142SOL    HW113325   0.145   6.760   1.696
 4142SOL    HW213326   0.127   6.661   1.825
 4143SOL     OW13327   6.531   3.406   6.385
 4143SOL    HW113328   6.544   3.364   6.475
 4143SOL    HW213329   6.497   3.338   6.321
 4144SOL     OW13330   4.952   0.880   1.881
 4144SOL    HW113331   4.948   0.909   1.785
 4144SOL    HW213332   4.999   0.949   1.935
 4145SOL     OW13333   4.562   0.945   1.390
 4145SOL    HW113334   4.493   0.981   1.328
 4145SOL    HW213335   4.519   0.877   1.450
 4146SOL     OW13336   3.501   1.533   2.255
 4146SOL    HW113337   3.540   1.482   2.179
 4146SOL    HW213338   3.574   1.582   2.303
 4147SOL     OW13339   5.029   4.159   6.961
 4147SOL    HW113340   5.119   4.196   6.982
 4147SOL    HW213341   4.972   4.230   6.919
 4148SOL     OW13342   3.548   0.951   6.252
 4148SOL    HW113343   3.563   1.030   6.192
 4148SOL    HW213344   3.518   0.873   6.197
 4149SOL     OW13345   1.536   2.548   6.653
 4149SOL    HW113346   1.552   2.474   6.588
 4149SOL    HW213347   1.623   2.576   6.694
 4150SOL     OW13348   0.124   1.308   1.178
 4150SOL    HW113349   0.092   1.266   1.093
 4150SOL    HW213350   0.061   1.380   1.205
 4151SOL     OW13351   2.695   5.252   4.686
 4151SOL    HW113352   2.769   5.307   4.647
 4151SOL    HW213353   2.631   5.312   4.734
 4152SOL     OW13354   2.799   3.839   1.564
 4152SOL    HW113355   2.825   3.760   1.508
 4152SOL    HW213356   2.708   3.870   1.537
 4153SOL     OW13357   6.196   6.380   0.645
 4153SOL    HW113358   6.271   6.433   0.686
 4153SOL    HW213359   6.109   6.425   0.665
 4154SOL     OW13360   0.563   6.457   3.914
 4154SOL    HW113361   0.475   6.503   3.926
 4154SOL    HW213362   0.574   6.432   3.818
 4155SOL     OW13363   5.522   1.385   2.051
 4155SOL    HW113364   5.533   1.465   1.992
 4155SOL    HW213365   5.606   1.372   2.105
 4156SOL     OW13366   0.920   5.284   5.783
 4156SOL    HW113367   0.921   5.378   5.749
 4156SOL    HW213368   0.970   5.279   5.869
 4157SOL     OW13369   4.582   6.296   0.593
 4157SOL    HW113370   4.640   6.286   0.674
 4157SOL    HW213371   4.541   6.207   0.570
 4158SOL     OW13372   6.321   1.249   6.993
 4158SOL    HW113373   6.388   1.175   6.987
 4158SOL    HW213374   6.250   1.224   0.039
 4159SOL     OW13375   3.031   0.866   4.839
 4159SOL    HW113376   2.933   0.857   4.857
 4159SOL    HW213377   3.044   0.919   4.754
 4160SOL     OW13378   1.411   0.018   6.155
 4160SOL    HW113379   1.496   0.025   6.209
 4160SOL    HW213380   1.405   0.095   6.092
 4161SOL     OW13381   3.264   3.369   5.121
 4161SOL    HW113382   3.296   3.348   5.214
 4161SOL    HW213383   3.272   3.467   5.105
 4162SOL     OW13384   4.257   6.381   1.223
 4162SOL    HW113385   4.240   6.390   1.321
 4162SOL    HW213386   4.336   6.321   1.208
 4163SOL     OW13387   3.552   5.805   1.289
 4163SOL    HW113388   3.547   5.904   1.276
 4163SOL    HW213389   3.592   5.784   1.378
 4164SOL     OW13390   5.645   1.335   0.201
 4164SOL    HW113391   5.662   1.310   0.106
 4164SOL    HW213392   5.727   1.377   0.240
 4165SOL     OW13393   3.149   1.845   4.515
 4165SOL    HW113394   3.215   1.775   4.486
 4165SOL    HW213395   3.197   1.915   4.568
 4166SOL     OW13396   5.522   1.909   2.524
 4166SOL    HW113397   5.548   1.992   2.476
 4166SOL    HW213398   5.557   1.912   2.618
 4167SOL     OW13399   3.613   6.688   4.509
 4167SOL    HW113400   3.526   6.645   4.485
 4167SOL    HW213401   3.598   6.761   4.576
 4168SOL     OW13402   5.511   3.793   6.834
 4168SOL    HW113403   5.453   3.715   6.857
 4168SOL    HW213404   5.457   3.862   6.786
 4169SOL     OW13405   5.299   4.224   0.018
 4169SOL    HW113406   5.365   4.213   6.964
 4169SOL    HW213407   5.343   4.270   0.095
 4170SOL     OW13408   0.941   2.994   5.170
 4170SOL    HW113409   0.875   2.958   5.104
 4170SOL    HW213410   0.959   2.925   5.240
 4171SOL     OW13411   6.993   0.806   6.197
 4171SOL    HW113412   6.972   0.875   6.265
 4171SOL    HW213413   6.979   0.843   6.106
 4172SOL     OW13414   3.286   2.975   0.305
 4172SOL    HW113415   3.244   3.034   0.237
 4172SOL    HW213416   3.305   3.027   0.388
 4173SOL     OW13417   5.629   1.384   6.175
 4173SOL    HW113418   5.659   1.429   6.091
 4173SOL    HW213419   5.694   1.403   6.248
 4174SOL     OW13420   2.635   6.828   3.747
 4174SOL    HW113421   2.715   6.767   3.748
 4174SOL    HW213422   2.663   6.919   3.779
 4175SOL     OW13423   1.422   4.077   6.511
 4175SOL    HW113424   1.448   4.123   6.596
 4175SOL    HW213425   1.323   4.079   6.501
 4176SOL     OW13426   4.247   6.771   5.050
 4176SOL    HW113427   4.160   6.730   5.078
 4176SOL    HW213428   4.309   6.773   5.128
 4177SOL     OW13429   4.676   6.494   4.042
 4177SOL    HW113430   4.623   6.523   4.122
 4177SOL    HW213431   4.696   6.573   3.985
 4178SOL     OW13432   3.345   6.568   1.360
 4178SOL    HW113433   3.364   6.470   1.347
 4178SOL    HW213434   3.328   6.586   1.457
 4179SOL     OW13435   4.140   1.655   0.311
 4179SOL    HW113436   4.149   1.697   0.401
 4179SOL    HW213437   4.074   1.580   0.316
 4180SOL     OW13438   4.158   4.081   0.132
 4180SOL    HW113439   4.087   4.119   0.073
 4180SOL    HW213440   4.147   3.981   0.137
 4181SOL     OW13441   5.513   6.244   5.726
 4181SOL    HW113442   5.581   6.283   5.788
 4181SOL    HW213443   5.449   6.315   5.698
 4182SOL     OW13444   6.453   5.018   5.413
 4182SOL    HW113445   6.520   4.974   5.473
 4182SOL    HW213446   6.362   4.985   5.435
 4183SOL     OW13447   5.236   2.717   0.033
 4183SOL    HW113448   5.216   2.783   6.981
 4183SOL    HW213449   5.174   2.733   0.110
 4184SOL     OW13450   3.216   5.793   3.361
 4184SOL    HW113451   3.313   5.810   3.346
 4184SOL    HW213452   3.192   5.813   3.456
 4185SOL     OW13453   4.650   4.319   3.135
 4185SOL    HW113454   4.675   4.404   3.181
 4185SOL    HW213455   4.732   4.264   3.121
 4186SOL     OW13456   1.748   5.424   0.706
 4186SOL    HW113457   1.674   5.357   0.707
 4186SOL    HW213458   1.741   5.480   0.623
 4187SOL     OW13459   1.824   4.030   6.693
 4187SOL    HW113460   1.830   4.102   6.625
 4187SOL    HW213461   1.841   3.941   6.650
 4188SOL     OW13462   5.191   0.774   6.431
 4188SOL    HW113463   5.285   0.778   6.398
 4188SOL    HW213464   5.130   0.745   6.357
 4189SOL     OW13465   4.294   5.649   3.664
 4189SOL    HW113466   4.249   5.732   3.633
 4189SOL    HW213467   4.382   5.639   3.617
 4190SOL     OW13468   6.276   5.942   1.136
 4190SOL    HW113469   6.228   5.971   1.053
 4190SOL    HW213470   6.358   5.997   1.147
 4191SOL     OW13471   4.551   2.970   5.828
 4191SOL    HW113472   4.576   3.020   5.910
 4191SOL    HW213473   4.455   2.943   5.832
 4192SOL     OW13474   2.190   3.592   6.186
 4192SOL    HW113475   2.100   3.634   6.185
 4192SOL    HW213476   2.234   3.609   6.275
 4193SOL     OW13477   5.528   6.679   1.284
 4193SOL    HW113478   5.619   6.640   1.273
 4193SOL    HW213479   5.517   6.716   1.377
 4194SOL     OW13480   5.444   0.431   6.611
 4194SOL    HW113481   5.362   0.383   6.580
 4194SOL    HW213482   5.490   0.474   6.533
 4195SOL     OW13483   2.162   5.921   0.690
 4195SOL    HW113484   2.143   5.989   0.619
 4195SOL    HW213485   2.143   5.829   0.655
 4196SOL     OW13486   6.734   3.019   3.678
 4196SOL    HW113487   6.713   3.009   3.580
 4196SOL    HW213488   6.769   2.932   3.713
 4197SOL     OW13489   4.160   0.516   0.083
 4197SOL    HW113490   4.106   0.582   0.029
 4197SOL    HW213491   4.129   0.518   0.178
 4198SOL     OW13492   6.477   2.757   1.677
 4198SOL    HW113493   6.520   2.699   1.608
 4198SOL    HW213494   6.401   2.807   1.636
 4199SOL     OW13495   1.644   3.685   0.003
 4199SOL    HW113496   1.602   3.775   0.000
 4199SOL    HW213497   1.617   3.637   0.086
 4200SOL     OW13498   5.943   1.467   2.855
 4200SOL    HW113499   5.856   1.489   2.899
 4200SOL    HW213500   5.980   1.550   2.813
 4201SOL     OW13501   4.608   6.971   5.299
 4201SOL    HW113502   4.578   6.960   5.204
 4201SOL    HW213503   4.574   0.037   5.335
 4202SOL     OW13504   4.562   4.231   1.602
 4202SOL    HW113505   4.506   4.225   1.684
 4202SOL    HW213506   4.556   4.323   1.563
 4203SOL     OW13507   6.653   3.802   4.550
 4203SOL    HW113508   6.653   3.742   4.471
 4203SOL    HW213509   6.640   3.897   4.520
 4204SOL     OW13510   2.442   4.030   5.723
 4204SOL    HW113511   2.472   4.042   5.818
 4204SOL    HW213512   2.421   4.120   5.684
 4205SOL     OW13513   5.700   5.703   5.684
 4205SOL    HW113514   5.654   5.768   5.745
 4205SOL    HW213515   5.797   5.697   5.708
 4206SOL     OW13516   2.633   2.451   4.863
 4206SOL    HW113517   2.686   2.507   4.926
 4206SOL    HW213518   2.536   2.466   4.877
 4207SOL     OW13519   1.928   2.637   1.224
 4207SOL    HW113520   1.929   2.644   1.324
 4207SOL    HW213521   2.022   2.626   1.190
 4208SOL     OW13522   1.931   2.532   2.926
 4208SOL    HW113523   2.020   2.500   2.893
 4208SOL    HW213524   1.862   2.517   2.855
 4209SOL     OW13525   6.785   5.471   2.521
 4209SOL    HW113526   6.883   5.469   2.538
 4209SOL    HW213527   6.737   5.487   2.608
 4210SOL     OW13528   3.153   5.207   5.410
 4210SOL    HW113529   3.246   5.176   5.390
 4210SOL    HW213530   3.155   5.302   5.440
 4211SOL     OW13531   4.767   2.784   6.033
 4211SOL    HW113532   4.678   2.744   6.056
 4211SOL    HW213533   4.796   2.751   5.943
 4212SOL     OW13534   0.847   2.483   2.950
 4212SOL    HW113535   0.831   2.576   2.985
 4212SOL    HW213536   0.770   2.425   2.975
 4213SOL     OW13537   3.159   0.704   3.808
 4213SOL    HW113538   3.193   0.642   3.879
 4213SOL    HW213539   3.117   0.650   3.735
 4214SOL     OW13540   6.152   6.508   4.202
 4214SOL    HW113541   6.063   6.466   4.221
 4214SOL    HW213542   6.224   6.454   4.245
 4215SOL     OW13543   5.355   0.259   5.292
 4215SOL    HW113544   5.304   0.337   5.327
 4215SOL    HW213545   5.361   0.264   5.193
 4216SOL     OW13546   1.919   5.782   2.438
 4216SOL    HW113547   2.017   5.761   2.447
 4216SOL    HW213548   1.891   5.768   2.343
 4217SOL     OW13549   0.289   0.308   3.102
 4217SOL    HW113550   0.235   0.228   3.075
 4217SOL    HW213551   0.261   0.337   3.193
 4218SOL     OW13552   2.696   0.791   1.666
 4218SOL    HW113553   2.639   0.717   1.703
 4218SOL    HW213554   2.653   0.829   1.585
 4219SOL     OW13555   3.210   5.903   2.811
 4219SOL    HW113556   3.296   5.935   2.851
 4219SOL    HW213557   3.162   5.844   2.876
 4220SOL     OW13558   5.716   1.834   1.600
 4220SOL    HW113559   5.730   1.745   1.644
 4220SOL    HW213560   5.768   1.837   1.515
 4221SOL     OW13561   0.745   0.158   1.432
 4221SOL    HW113562   0.688   0.114   1.501
 4221SOL    HW213563   0.834   0.112   1.428
 4222SOL     OW13564   4.918   3.465   4.321
 4222SOL    HW113565   4.969   3.462   4.406
 4222SOL    HW213566   4.839   3.404   4.328
 4223SOL     OW13567   3.579   4.084   3.070
 4223SOL    HW113568   3.521   4.021   3.018
 4223SOL    HW213569   3.675   4.066   3.048
 4224SOL     OW13570   4.827   4.137   4.744
 4224SOL    HW113571   4.749   4.178   4.698
 4224SOL    HW213572   4.829   4.167   4.840
 4225SOL     OW13573   0.930   1.610   6.010
 4225SOL    HW113574   0.951   1.687   5.950
 4225SOL    HW213575   0.991   1.612   6.089
 4226SOL     OW13576   5.227   5.063   4.136
 4226SOL    HW113577   5.226   5.089   4.233
 4226SOL    HW213578   5.294   5.118   4.087
 4227SOL     OW13579   5.502   5.670   0.896
 4227SOL    HW113580   5.514   5.768   0.880
 4227SOL    HW213581   5.545   5.645   0.983
 4228SOL     OW13582   1.891   4.175   3.555
 4228SOL    HW113583   1.956   4.244   3.523
 4228SOL    HW213584   1.866   4.194   3.650
 4229SOL     OW13585   6.261   6.235   5.659
 4229SOL    HW113586   6.309   6.259   5.575
 4229SOL    HW213587   6.215   6.316   5.695
 4230SOL     OW13588   0.456   1.064   2.353
 4230SOL    HW113589   0.463   1.158   2.318
 4230SOL    HW213590   0.548   1.026   2.365
 4231SOL     OW13591   0.465   0.756   5.707
 4231SOL    HW113592   0.529   0.695   5.660
 4231SOL    HW213593   0.515   0.818   5.766
 4232SOL     OW13594   1.679   4.632   2.425
 4232SOL    HW113595   1.715   4.617   2.517
 4232SOL    HW213596   1.580   4.647   2.430
 4233SOL     OW13597   4.414   5.621   2.460
 4233SOL    HW113598   4.343   5.617   2.390
 4233SOL    HW213599   4.382   5.573   2.542
 4234SOL     OW13600   3.391   5.145   6.468
 4234SOL    HW113601   3.406   5.137   6.369
 4234SOL    HW213602   3.302   5.108   6.492
 4235SOL     OW13603   6.991   6.143   6.946
 4235SOL    HW113604   6.909   6.195   6.973
 4235SOL    HW213605   6.993   6.134   6.847
 4236SOL     OW13606   7.003   4.958   3.404
 4236SOL    HW113607   0.044   5.015   3.461
 4236SOL    HW213608   0.036   4.918   3.329
 4237SOL     OW13609   6.324   4.849   3.717
 4237SOL    HW113610   6.418   4.884   3.719
 4237SOL    HW213611   6.269   4.895   3.786
 4238SOL     OW13612   1.974   5.586   2.880
 4238SOL    HW113613   2.005   5.625   2.793
 4238SOL    HW213614   1.937   5.494   2.863
 4239SOL     OW13615   4.041   1.042   3.234
 4239SOL    HW113616   4.133   1.071   3.209
 4239SOL    HW213617   3.998   0.995   3.156
 4240SOL     OW13618   4.958   6.867   1.707
 4240SOL    HW113619   4.861   6.868   1.684
 4240SOL    HW213620   4.994   6.775   1.694
 4241SOL     OW13621   0.705   4.387   6.846
 4241SOL    HW113622   0.766   4.458   6.880
 4241SOL    HW213623   0.611   4.420   6.846
 4242SOL     OW13624   3.850   2.102   2.682
 4242SOL    HW113625   3.923   2.170   2.693
 4242SOL    HW213626   3.841   2.079   2.585
 4243SOL     OW13627   3.088   2.197   2.801
 4243SOL    HW113628   3.036   2.230   2.722
 4243SOL    HW213629   3.167   2.257   2.817
 4244SOL     OW13630   2.932   3.560   5.189
 4244SOL    HW113631   2.973   3.604   5.109
 4244SOL    HW213632   2.904   3.630   5.255
 4245SOL     OW13633   6.665   1.380   5.566
 4245SOL    HW113634   6.698   1.436   5.490
 4245SOL    HW213635   6.611   1.437   5.628
 4246SOL     OW13636   1.121   5.038   6.181
 4246SOL    HW113637   1.171   4.964   6.225
 4246SOL    HW213638   1.083   5.005   6.094
 4247SOL     OW13639   0.058   4.769   5.033
 4247SOL    HW113640   0.129   4.740   5.097
 4247SOL    HW213641   0.076   4.727   4.943
 4248SOL     OW13642   2.379   3.696   6.882
 4248SOL    HW113643   2.298   3.685   6.825
 4248SOL    HW213644   2.353   3.731   6.972
 4249SOL     OW13645   5.407   3.269   6.175
 4249SOL    HW113646   5.316   3.238   6.203
 4249SOL    HW213647   5.426   3.357   6.219
 4250SOL     OW13648   6.661   4.262   3.659
 4250SOL    HW113649   6.690   4.306   3.574
 4250SOL    HW213650   6.709   4.304   3.736
 4251SOL     OW13651   6.006   4.894   6.260
 4251SOL    HW113652   5.941   4.927   6.329
 4251SOL    HW213653   6.067   4.827   6.302
 4252SOL     OW13654   6.324   4.790   5.258
 4252SOL    HW113655   6.401   4.844   5.291
 4252SOL    HW213656   6.254   4.784   5.330
 4253SOL     OW13657   3.239   0.256   3.080
 4253SOL    HW113658   3.157   0.226   3.129
 4253SOL    HW213659   3.315   0.265   3.145
 4254SOL     OW13660   3.404   3.090   2.973
 4254SOL    HW113661   3.430   3.094   2.876
 4254SOL    HW213662   3.455   3.016   3.018
 4255SOL     OW13663   0.461   2.190   4.459
 4255SOL    HW113664   0.536   2.130   4.430
 4255SOL    HW213665   0.497   2.261   4.520
 4256SOL     OW13666   1.234   0.687   1.989
 4256SOL    HW113667   1.301   0.752   1.954
 4256SOL    HW213668   1.261   0.594   1.962
 4257SOL     OW13669   4.490   2.141   5.083
 4257SOL    HW113670   4.549   2.102   5.153
 4257SOL    HW213671   4.395   2.142   5.115
 4258SOL     OW13672   5.339   5.799   2.195
 4258SOL    HW113673   5.429   5.758   2.207
 4258SOL    HW213674   5.346   5.898   2.207
 4259SOL     OW13675   2.509   3.089   1.689
 4259SOL    HW113676   2.570   3.168   1.684
 4259SOL    HW213677   2.561   3.008   1.715
 4260SOL     OW13678   3.645   6.249   4.783
 4260SOL    HW113679   3.583   6.170   4.780
 4260SOL    HW213680   3.740   6.217   4.785
 4261SOL     OW13681   1.195   1.304   2.954
 4261SOL    HW113682   1.100   1.321   2.928
 4261SOL    HW213683   1.249   1.386   2.937
 4262SOL     OW13684   0.749   6.731   5.198
 4262SOL    HW113685   0.802   6.651   5.171
 4262SOL    HW213686   0.673   6.743   5.134
 4263SOL     OW13687   4.320   5.117   6.733
 4263SOL    HW113688   4.397   5.172   6.766
 4263SOL    HW213689   4.263   5.089   6.810
 4264SOL     OW13690   1.395   0.386   1.370
 4264SOL    HW113691   1.309   0.402   1.322
 4264SOL    HW213692   1.469   0.374   1.303
 4265SOL     OW13693   1.850   1.460   0.745
 4265SOL    HW113694   1.851   1.554   0.780
 4265SOL    HW213695   1.782   1.453   0.672
 4266SOL     OW13696   3.359   4.720   0.444
 4266SOL    HW113697   3.289   4.667   0.493
 4266SOL    HW213698   3.439   4.731   0.504
 4267SOL     OW13699   1.743   3.587   5.307
 4267SOL    HW113700   1.836   3.591   5.342
 4267SOL    HW213701   1.714   3.678   5.278
 4268SOL     OW13702   0.648   1.276   1.279
 4268SOL    HW113703   0.605   1.186   1.278
 4268SOL    HW213704   0.599   1.338   1.219
 4269SOL     OW13705   2.935   3.646   0.701
 4269SOL    HW113706   2.913   3.702   0.621
 4269SOL    HW213707   2.915   3.550   0.680
 4270SOL     OW13708   3.826   2.961   6.782
 4270SOL    HW113709   3.760   2.896   6.822
 4270SOL    HW213710   3.878   3.005   6.855
 4271SOL     OW13711   1.681   0.489   1.644
 4271SOL    HW113712   1.674   0.505   1.743
 4271SOL    HW213713   1.591   0.499   1.602
 4272SOL     OW13714   1.047   4.358   3.686
 4272SOL    HW113715   0.991   4.431   3.723
 4272SOL    HW213716   1.050   4.282   3.751
 4273SOL     OW13717   6.229   6.751   3.405
 4273SOL    HW113718   6.176   6.676   3.368
 4273SOL    HW213719   6.196   6.838   3.367
 4274SOL     OW13720   2.285   0.372   3.479
 4274SOL    HW113721   2.304   0.386   3.576
 4274SOL    HW213722   2.362   0.406   3.424
 4275SOL     OW13723   1.074   0.503   5.633
 4275SOL    HW113724   1.051   0.459   5.720
 4275SOL    HW213725   1.173   0.506   5.622
 4276SOL     OW13726   1.984   3.643   3.410
 4276SOL    HW113727   1.996   3.575   3.482
 4276SOL    HW213728   2.049   3.626   3.337
 4277SOL     OW13729   0.627   5.454   5.591
 4277SOL    HW113730   0.586   5.506   5.667
 4277SOL    HW213731   0.675   5.517   5.530
 4278SOL     OW13732   1.058   5.947   6.554
 4278SOL    HW113733   1.054   5.997   6.641
 4278SOL    HW213734   1.043   6.011   6.479
 4279SOL     OW13735   3.538   5.997   2.782
 4279SOL    HW113736   3.540   5.897   2.779
 4279SOL    HW213737   3.525   6.027   2.877
 4280SOL     OW13738   5.048   2.566   3.836
 4280SOL    HW113739   4.953   2.584   3.865
 4280SOL    HW213740   5.055   2.574   3.737
 4281SOL     OW13741   1.826   3.900   5.142
 4281SOL    HW113742   1.851   3.946   5.056
 4281SOL    HW213743   1.728   3.884   5.144
 4282SOL     OW13744   1.091   1.435   7.018
 4282SOL    HW113745   1.146   1.362   6.977
 4282SOL    HW213746   1.151   1.496   0.050
 4283SOL     OW13747   3.089   1.187   4.264
 4283SOL    HW113748   3.156   1.118   4.237
 4283SOL    HW213749   3.075   1.182   4.363
 4284SOL     OW13750   0.124   2.796   2.964
 4284SOL    HW113751   0.059   2.730   2.927
 4284SOL    HW213752   0.163   2.760   3.049
 4285SOL     OW13753   1.099   6.113   4.112
 4285SOL    HW113754   1.084   6.028   4.164
 4285SOL    HW213755   1.198   6.129   4.103
 4286SOL     OW13756   4.592   5.618   6.657
 4286SOL    HW113757   4.631   5.693   6.604
 4286SOL    HW213758   4.522   5.654   6.719
 4287SOL     OW13759   3.851   5.415   5.685
 4287SOL    HW113760   3.885   5.494   5.736
 4287SOL    HW213761   3.924   5.348   5.673
 4288SOL     OW13762   1.401   6.152   3.850
 4288SOL    HW113763   1.450   6.089   3.790
 4288SOL    HW213764   1.312   6.174   3.810
 4289SOL     OW13765   0.585   4.159   7.011
 4289SOL    HW113766   0.500   4.145   6.961
 4289SOL    HW213767   0.651   4.205   6.953
 4290SOL     OW13768   1.669   1.906   2.781
 4290SOL    HW113769   1.714   1.957   2.855
 4290SOL    HW213770   1.626   1.971   2.718
 4291SOL     OW13771   0.061   4.096   1.339
 4291SOL    HW113772   0.059   4.060   1.246
 4291SOL    HW213773   0.157   4.104   1.369
 4292SOL     OW13774   5.672   5.387   4.774
 4292SOL    HW113775   5.657   5.443   4.856
 4292SOL    HW213776   5.767   5.397   4.744
 4293SOL     OW13777   0.781   1.884   0.499
 4293SOL    HW113778   0.822   1.803   0.542
 4293SOL    HW213779   0.703   1.855   0.443
 4294SOL     OW13780   4.742   2.458   6.146
 4294SOL    HW113781   4.776   2.449   6.240
 4294SOL    HW213782   4.751   2.370   6.100
 4295SOL     OW13783   3.578   5.576   5.879
 4295SOL    HW113784   3.527   5.568   5.794
 4295SOL    HW213785   3.612   5.670   5.889
 4296SOL     OW13786   2.450   1.550   2.351
 4296SOL    HW113787   2.483   1.581   2.262
 4296SOL    HW213788   2.527   1.515   2.405
 4297SOL     OW13789   5.732   0.185   0.603
 4297SOL    HW113790   5.744   0.143   0.693
 4297SOL    HW213791   5.782   0.271   0.599
 4298SOL     OW13792   1.562   4.255   1.648
 4298SOL    HW113793   1.652   4.277   1.687
 4298SOL    HW213794   1.514   4.340   1.626
 4299SOL     OW13795   1.293   5.810   4.982
 4299SOL    HW113796   1.259   5.859   4.902
 4299SOL    HW213797   1.239   5.836   5.062
 4300SOL     OW13798   5.726   0.165   5.676
 4300SOL    HW113799   5.685   0.173   5.585
 4300SOL    HW213800   5.752   0.069   5.692
 4301SOL     OW13801   3.103   1.253   1.081
 4301SOL    HW113802   3.096   1.169   1.027
 4301SOL    HW213803   3.011   1.287   1.102
 4302SOL     OW13804   0.643   0.426   6.652
 4302SOL    HW113805   0.592   0.341   6.664
 4302SOL    HW213806   0.579   0.503   6.647
 4303SOL     OW13807   0.459   4.108   1.818
 4303SOL    HW113808   0.473   4.198   1.777
 4303SOL    HW213809   0.510   4.102   1.904
 4304SOL     OW13810   2.837   3.797   5.626
 4304SOL    HW113811   2.794   3.883   5.598
 4304SOL    HW213812   2.896   3.813   5.705
 4305SOL     OW13813   0.190   1.573   5.123
 4305SOL    HW113814   0.283   1.551   5.092
 4305SOL    HW213815   0.125   1.547   5.051
 4306SOL     OW13816   6.171   5.250   5.426
 4306SOL    HW113817   6.173   5.151   5.439
 4306SOL    HW213818   6.252   5.279   5.375
 4307SOL     OW13819   6.223   3.879   0.962
 4307SOL    HW113820   6.227   3.779   0.967
 4307SOL    HW213821   6.137   3.907   0.921
 4308SOL     OW13822   3.542   0.463   5.388
 4308SOL    HW113823   3.487   0.393   5.343
 4308SOL    HW213824   3.630   0.424   5.416
 4309SOL     OW13825   0.996   0.014   1.442
 4309SOL    HW113826   0.997   6.985   1.529
 4309SOL    HW213827   1.034   0.106   1.456
 4310SOL     OW13828   1.732   6.823   2.783
 4310SOL    HW113829   1.682   6.909   2.784
 4310SOL    HW213830   1.830   6.840   2.794
 4311SOL     OW13831   1.204   4.874   4.615
 4311SOL    HW113832   1.132   4.823   4.662
 4311SOL    HW213833   1.163   4.925   4.539
 4312SOL     OW13834   1.388   5.456   2.451
 4312SOL    HW113835   1.321   5.489   2.517
 4312SOL    HW213836   1.465   5.520   2.446
 4313SOL     OW13837   5.095   1.358   1.357
 4313SOL    HW113838   5.116   1.377   1.453
 4313SOL    HW213839   4.996   1.355   1.343
 4314SOL     OW13840   6.224   3.346   1.205
 4314SOL    HW113841   6.211   3.252   1.174
 4314SOL    HW213842   6.134   3.389   1.218
 4315SOL     OW13843   2.090   1.046   2.708
 4315SOL    HW113844   2.000   1.023   2.672
 4315SOL    HW213845   2.102   1.005   2.799
 4316SOL     OW13846   0.254   1.301   2.634
 4316SOL    HW113847   0.181   1.344   2.687
 4316SOL    HW213848   0.219   1.275   2.544
 4317SOL     OW13849   4.580   0.650   3.083
 4317SOL    HW113850   4.644   0.580   3.052
 4317SOL    HW213851   4.597   0.671   3.179
 4318SOL     OW13852   6.913   2.176   5.089
 4318SOL    HW113853   6.911   2.122   5.005
 4318SOL    HW213854   6.872   2.122   5.163
 4319SOL     OW13855   4.140   2.621   6.469
 4319SOL    HW113856   4.096   2.711   6.479
 4319SOL    HW213857   4.198   2.622   6.388
 4320SOL     OW13858   6.763   6.340   3.490
 4320SOL    HW113859   6.838   6.306   3.547
 4320SOL    HW213860   6.711   6.409   3.541
 4321SOL     OW13861   0.216   0.872   4.671
 4321SOL    HW113862   0.119   0.854   4.684
 4321SOL    HW213863   0.269   0.792   4.697
 4322SOL     OW13864   6.320   1.027   0.931
 4322SOL    HW113865   6.387   0.954   0.947
 4322SOL    HW213866   6.280   1.056   1.019
 4323SOL     OW13867   0.040   2.233   3.807
 4323SOL    HW113868   6.962   2.245   3.791
 4323SOL    HW213869   0.076   2.164   3.745
 4324SOL     OW13870   5.553   2.603   5.637
 4324SOL    HW113871   5.574   2.656   5.555
 4324SOL    HW213872   5.585   2.653   5.718
 4325SOL     OW13873   1.816   2.615   6.629
 4325SOL    HW113874   1.801   2.688   6.563
 4325SOL    HW213875   1.868   2.650   6.707
 4326SOL     OW13876   6.666   2.273   4.902
 4326SOL    HW113877   6.675   2.340   4.828
 4326SOL    HW213878   6.719   2.304   4.981
 4327SOL     OW13879   5.003   0.832   3.214
 4327SOL    HW113880   5.088   0.791   3.248
 4327SOL    HW213881   4.934   0.832   3.286
 4328SOL     OW13882   6.359   5.020   0.529
 4328SOL    HW113883   6.436   4.956   0.532
 4328SOL    HW213884   6.322   5.030   0.621
 4329SOL     OW13885   4.861   1.814   6.353
 4329SOL    HW113886   4.781   1.778   6.305
 4329SOL    HW213887   4.865   1.913   6.342
 4330SOL     OW13888   0.810   1.041   6.132
 4330SOL    HW113889   0.824   1.135   6.102
 4330SOL    HW213890   0.896   0.990   6.122
 4331SOL     OW13891   5.093   2.868   6.361
 4331SOL    HW113892   5.179   2.830   6.395
 4331SOL    HW213893   5.047   2.800   6.303
 4332SOL     OW13894   6.450   4.542   2.041
 4332SOL    HW113895   6.437   4.613   1.971
 4332SOL    HW213896   6.368   4.535   2.098
 4333SOL     OW13897   6.431   1.376   4.918
 4333SOL    HW113898   6.352   1.408   4.867
 4333SOL    HW213899   6.477   1.303   4.868
 4334SOL     OW13900   4.050   0.339   2.011
 4334SOL    HW113901   4.058   0.310   1.915
 4334SOL    HW213902   4.012   0.431   2.015
 4335SOL     OW13903   4.031   4.422   6.140
 4335SOL    HW113904   3.947   4.449   6.187
 4335SOL    HW213905   4.054   4.328   6.163
 4336SOL     OW13906   1.251   6.957   6.385
 4336SOL    HW113907   1.296   6.993   6.303
 4336SOL    HW213908   1.241   0.009   6.453
 4337SOL     OW13909   0.918   5.437   6.345
 4337SOL    HW113910   1.012   5.421   6.376
 4337SOL    HW213911   0.869   5.350   6.339
 4338SOL     OW13912   5.687   6.959   3.054
 4338SOL    HW113913   5.667   6.982   2.958
 4338SOL    HW213914   5.777   6.915   3.059
 4339SOL     OW13915   6.419   0.881   0.143
 4339SOL    HW113916   6.334   0.839   0.112
 4339SOL    HW213917   6.409   0.911   0.238
 4340SOL     OW13918   4.617   3.511   1.637
 4340SOL    HW113919   4.665   3.436   1.683
 4340SOL    HW213920   4.654   3.599   1.668
 4341SOL     OW13921   0.927   3.553   0.413
 4341SOL    HW113922   0.833   3.543   0.379
 4341SOL    HW213923   0.925   3.563   0.512
 4342SOL     OW13924   0.419   2.463   2.464
 4342SOL    HW113925   0.395   2.549   2.420
 4342SOL    HW213926   0.507   2.472   2.511
 4343SOL     OW13927   3.541   2.874   1.259
 4343SOL    HW113928   3.628   2.924   1.266
 4343SOL    HW213929   3.513   2.870   1.163
 4344SOL     OW13930   2.249   3.081   1.756
 4344SOL    HW113931   2.346   3.092   1.734
 4344SOL    HW213932   2.227   2.984   1.762
 4345SOL     OW13933   3.143   0.949   6.162
 4345SOL    HW113934   3.073   0.879   6.178
 4345SOL    HW213935   3.154   0.963   6.063
 4346SOL     OW13936   0.232   4.028   0.941
 4346SOL    HW113937   0.268   4.098   1.004
 4346SOL    HW213938   0.158   4.068   0.887
 4347SOL     OW13939   5.056   6.073   2.403
 4347SOL    HW113940   5.021   6.047   2.493
 4347SOL    HW213941   4.979   6.098   2.343
 4348SOL     OW13942   1.290   3.709   0.157
 4348SOL    HW113943   1.194   3.698   0.128
 4348SOL    HW213944   1.307   3.805   0.179
 4349SOL     OW13945   6.538   1.075   1.445
 4349SOL    HW113946   6.441   1.061   1.463
 4349SOL    HW213947   6.557   1.061   1.348
 4350SOL     OW13948   3.748   0.279   3.035
 4350SOL    HW113949   3.751   0.202   3.099
 4350SOL    HW213950   3.669   0.269   2.975
 4351SOL     OW13951   3.497   0.130   0.238
 4351SOL    HW113952   3.512   0.217   0.190
 4351SOL    HW213953   3.466   0.149   0.331
 4352SOL     OW13954   6.116   2.014   1.684
 4352SOL    HW113955   6.099   2.066   1.600
 4352SOL    HW213956   6.214   2.002   1.697
 4353SOL     OW13957   3.329   5.519   0.946
 4353SOL    HW113958   3.352   5.605   0.991
 4353SOL    HW213959   3.335   5.531   0.846
 4354SOL     OW13960   2.947   0.798   1.544
 4354SOL    HW113961   2.959   0.724   1.478
 4354SOL    HW213962   2.867   0.779   1.602
 4355SOL     OW13963   4.816   6.891   6.974
 4355SOL    HW113964   4.802   6.990   6.981
 4355SOL    HW213965   4.742   6.844   0.002
 4356SOL     OW13966   3.544   3.781   1.276
 4356SOL    HW113967   3.531   3.695   1.324
 4356SOL    HW213968   3.539   3.857   1.341
 4357SOL     OW13969   5.851   0.439   0.573
 4357SOL    HW113970   5.758   0.474   0.569
 4357SOL    HW213971   5.907   0.500   0.629
 4358SOL     OW13972   6.272   0.883   1.266
 4358SOL    HW113973   6.272   0.824   1.186
 4358SOL    HW213974   6.265   0.979   1.238
 4359SOL     OW13975   0.599   4.102   4.544
 4359SOL    HW113976   0.610   4.063   4.452
 4359SOL    HW213977   0.579   4.028   4.608
 4360SOL     OW13978   2.222   3.543   0.910
 4360SOL    HW113979   2.196   3.569   0.817
 4360SOL    HW213980   2.173   3.460   0.937
 4361SOL     OW13981   5.390   2.241   2.715
 4361SOL    HW113982   5.355   2.152   2.743
 4361SOL    HW213983   5.483   2.230   2.678
 4362SOL     OW13984   4.725   4.344   2.403
 4362SOL    HW113985   4.701   4.327   2.499
 4362SOL    HW213986   4.816   4.308   2.384
 4363SOL     OW13987   4.987   0.537   6.552
 4363SOL    HW113988   5.059   0.597   6.518
 4363SOL    HW213989   4.984   0.453   6.498
 4364SOL     OW13990   4.188   3.575   5.212
 4364SOL    HW113991   4.263   3.603   5.272
 4364SOL    HW213992   4.116   3.644   5.213
 4365SOL     OW13993   4.729   2.336   6.996
 4365SOL    HW113994   4.733   2.251   6.943
 4365SOL    HW213995   4.634   2.358   7.016
 4366SOL     OW13996   4.508   5.250   0.647
 4366SOL    HW113997   4.507   5.169   0.588
 4366SOL    HW213998   4.593   5.251   0.700
 4367SOL     OW13999   6.355   6.477   0.887
 4367SOL    HW114000   6.284   6.477   0.957
 4367SOL    HW214001   6.430   6.417   0.915
 4368SOL     OW14002   4.219   5.606   2.230
 4368SOL    HW114003   4.196   5.701   2.246
 4368SOL    HW214004   4.149   5.547   2.270
 4369SOL     OW14005   3.255   5.561   1.948
 4369SOL    HW114006   3.211   5.615   1.876
 4369SOL    HW214007   3.246   5.608   2.036
 4370SOL     OW14008   5.368   4.141   1.629
 4370SOL    HW114009   5.297   4.087   1.674
 4370SOL    HW214010   5.450   4.143   1.686
 4371SOL     OW14011   1.186   1.470   2.159
 4371SOL    HW114012   1.261   1.509   2.211
 4371SOL    HW214013   1.103   1.471   2.215
 4372SOL     OW14014   5.280   6.832   3.741
 4372SOL    HW114015   5.285   6.926   3.709
 4372SOL    HW214016   5.196   6.818   3.793
 4373SOL     OW14017   0.489   1.823   5.355
 4373SOL    HW114018   0.542   1.761   5.298
 4373SOL    HW214019   0.516   1.812   5.451
 4374SOL     OW14020   3.466   1.339   0.235
 4374SOL    HW114021   3.445   1.430   0.269
 4374SOL    HW214022   3.557   1.311   0.266
 4375SOL     OW14023   3.556   5.314   4.473
 4375SOL    HW114024   3.592   5.263   4.395
 4375SOL    HW214025   3.467   5.279   4.499
 4376SOL     OW14026   0.230   2.815   3.672
 4376SOL    HW114027   0.144   2.793   3.626
 4376SOL    HW214028   0.295   2.849   3.605
 4377SOL     OW14029   6.872   4.477   6.225
 4377SOL    HW114030   6.927   4.395   6.209
 4377SOL    HW214031   6.776   4.451   6.238
 4378SOL     OW14032   3.242   2.142   4.116
 4378SOL    HW114033   3.167   2.199   4.081
 4378SOL    HW214034   3.257   2.163   4.213
 4379SOL     OW14035   3.406   1.745   6.271
 4379SOL    HW114036   3.443   1.744   6.178
 4379SOL    HW214037   3.398   1.839   6.303
 4380SOL     OW14038   0.152   2.396   3.020
 4380SOL    HW114039   0.094   2.353   3.089
 4380SOL    HW214040   0.119   2.371   2.929
 4381SOL     OW14041   1.319   4.864   0.191
 4381SOL    HW114042   1.251   4.814   0.246
 4381SOL    HW214043   1.273   4.909   0.114
 4382SOL     OW14044   1.297   4.666   4.470
 4382SOL    HW114045   1.374   4.676   4.407
 4382SOL    HW214046   1.288   4.749   4.525
 4383SOL     OW14047   0.616   4.757   0.469
 4383SOL    HW114048   0.625   4.662   0.500
 4383SOL    HW214049   0.541   4.801   0.517
 4384SOL     OW14050   4.769   6.605   3.794
 4384SOL    HW114051   4.813   6.524   3.754
 4384SOL    HW214052   4.675   6.611   3.761
 4385SOL     OW14053   4.308   0.276   5.442
 4385SOL    HW114054   4.237   0.340   5.471
 4385SOL    HW214055   4.378   0.269   5.513
 4386SOL     OW14056   2.155   3.269   4.343
 4386SOL    HW114057   2.088   3.208   4.384
 4386SOL    HW214058   2.141   3.362   4.378
 4387SOL     OW14059   5.033   2.164   1.107
 4387SOL    HW114060   5.124   2.127   1.124
 4387SOL    HW214061   5.040   2.249   1.055
 4388SOL     OW14062   5.990   3.303   0.824
 4388SOL    HW114063   5.963   3.262   0.911
 4388SOL    HW214064   6.000   3.232   0.755
 4389SOL     OW14065   2.612   1.543   6.899
 4389SOL    HW114066   2.538   1.492   6.941
 4389SOL    HW214067   2.653   1.488   6.826
 4390SOL     OW14068   6.701   1.505   0.948
 4390SOL    HW114069   6.784   1.488   0.896
 4390SOL    HW214070   6.720   1.572   1.021
 4391SOL     OW14071   0.187   6.330   1.428
 4391SOL    HW114072   0.210   6.241   1.389
 4391SOL    HW214073   0.157   6.392   1.355
 4392SOL     OW14074   1.645   2.741   6.177
 4392SOL    HW114075   1.643   2.832   6.219
 4392SOL    HW214076   1.688   2.676   6.240
 4393SOL     OW14077   6.420   0.563   1.824
 4393SOL    HW114078   6.328   0.539   1.856
 4393SOL    HW214079   6.484   0.560   1.901
 4394SOL     OW14080   0.035   1.112   2.906
 4394SOL    HW114081   6.961   1.147   2.912
 4394SOL    HW214082   0.087   1.169   2.842
 4395SOL     OW14083   1.229   3.469   1.385
 4395SOL    HW114084   1.160   3.436   1.449
 4395SOL    HW214085   1.240   3.568   1.394
 4396SOL     OW14086   2.582   1.811   2.623
 4396SOL    HW114087   2.533   1.734   2.663
 4396SOL    HW214088   2.527   1.853   2.551
 4397SOL     OW14089   3.544   0.349   4.703
 4397SOL    HW114090   3.535   0.362   4.802
 4397SOL    HW214091   3.549   0.439   4.658
 4398SOL     OW14092   1.974   2.879   5.964
 4398SOL    HW114093   2.022   2.940   6.028
 4398SOL    HW214094   1.906   2.931   5.912
 4399SOL     OW14095   2.830   5.827   1.639
 4399SOL    HW114096   2.883   5.838   1.555
 4399SOL    HW214097   2.843   5.734   1.675
 4400SOL     OW14098   1.458   6.004   5.218
 4400SOL    HW114099   1.428   6.100   5.221
 4400SOL    HW214100   1.378   5.944   5.214
 4401SOL     OW14101   3.044   0.063   6.357
 4401SOL    HW114102   2.999   7.002   6.394
 4401SOL    HW214103   3.111   0.035   6.288
 4402SOL     OW14104   1.431   0.587   2.605
 4402SOL    HW114105   1.340   0.569   2.569
 4402SOL    HW214106   1.474   0.661   2.553
 4403SOL     OW14107   6.630   5.966   3.181
 4403SOL    HW114108   6.592   5.887   3.230
 4403SOL    HW214109   6.612   5.957   3.083
 4404SOL     OW14110   0.625   6.495   5.380
 4404SOL    HW114111   0.670   6.571   5.334
 4404SOL    HW214112   0.682   6.462   5.455
 4405SOL     OW14113   1.129   4.962   2.862
 4405SOL    HW114114   1.196   5.012   2.807
 4405SOL    HW214115   1.146   4.979   2.959
 4406SOL     OW14116   6.406   4.532   2.510
 4406SOL    HW114117   6.375   4.604   2.572
 4406SOL    HW214118   6.351   4.449   2.525
 4407SOL     OW14119   5.335   0.010   1.390
 4407SOL    HW114120   5.290   6.961   1.334
 4407SOL    HW214121   5.270   0.045   1.458
 4408SOL     OW14122   4.780   0.744   1.234
 4408SOL    HW114123   4.743   0.651   1.241
 4408SOL    HW214124   4.715   0.809   1.273
 4409SOL     OW14125   3.825   0.668   3.807
 4409SOL    HW114126   3.787   0.600   3.744
 4409SOL    HW214127   3.804   0.760   3.775
 4410SOL     OW14128   1.168   0.352   1.203
 4410SOL    HW114129   1.153   0.253   1.206
 4410SOL    HW214130   1.110   0.392   1.132
 4411SOL     OW14131   4.283   4.665   4.446
 4411SOL    HW114132   4.266   4.667   4.347
 4411SOL    HW214133   4.357   4.602   4.466
 4412SOL     OW14134   4.211   6.339   1.492
 4412SOL    HW114135   4.141   6.303   1.554
 4412SOL    HW214136   4.300   6.333   1.535
 4413SOL     OW14137   5.516   6.438   4.238
 4413SOL    HW114138   5.417   6.455   4.235
 4413SOL    HW214139   5.561   6.509   4.292
 4414SOL     OW14140   5.791   4.403   1.153
 4414SOL    HW114141   5.810   4.366   1.244
 4414SOL    HW214142   5.746   4.333   1.097
 4415SOL     OW14143   1.466   4.196   1.398
 4415SOL    HW114144   1.554   4.212   1.353
 4415SOL    HW214145   1.479   4.189   1.497
 4416SOL     OW14146   4.816   3.006   4.334
 4416SOL    HW114147   4.782   3.004   4.240
 4416SOL    HW214148   4.893   3.069   4.341
 4417SOL     OW14149   0.389   4.247   2.225
 4417SOL    HW114150   0.347   4.214   2.141
 4417SOL    HW214151   0.488   4.236   2.220
 4418SOL     OW14152   6.537   1.674   5.510
 4418SOL    HW114153   6.574   1.729   5.585
 4418SOL    HW214154   6.613   1.633   5.459
 4419SOL     OW14155   6.330   6.429   6.507
 4419SOL    HW114156   6.412   6.479   6.538
 4419SOL    HW214157   6.321   6.345   6.560
 4420SOL     OW14158   3.573   0.926   0.862
 4420SOL    HW114159   3.667   0.961   0.861
 4420SOL    HW214160   3.532   0.941   0.772
 4421SOL     OW14161   2.792   2.762   0.228
 4421SOL    HW114162   2.731   2.693   0.190
 4421SOL    HW214163   2.777   2.770   0.326
 4422SOL     OW14164   0.925   3.170   6.475
 4422SOL    HW114165   0.872   3.250   6.500
 4422SOL    HW214166   0.932   3.108   6.554
 4423SOL     OW14167   5.494   4.401   4.477
 4423SOL    HW114168   5.426   4.341   4.520
 4423SOL    HW214169   5.446   4.473   4.426
 4424SOL     OW14170   3.963   5.733   2.698
 4424SOL    HW114171   3.977   5.831   2.714
 4424SOL    HW214172   4.048   5.684   2.713
 4425SOL     OW14173   0.501   6.235   0.953
 4425SOL    HW114174   0.523   6.141   0.930
 4425SOL    HW214175   0.412   6.239   0.998
 4426SOL     OW14176   0.652   0.965   4.364
 4426SOL    HW114177   0.587   0.980   4.290
 4426SOL    HW214178   0.734   1.020   4.348
 4427SOL     OW14179   3.412   6.080   1.459
 4427SOL    HW114180   3.476   6.005   1.446
 4427SOL    HW214181   3.332   6.047   1.511
 4428SOL     OW14182   6.502   6.630   3.482
 4428SOL    HW114183   6.500   6.533   3.507
 4428SOL    HW214184   6.416   6.654   3.436
 4429SOL     OW14185   2.695   5.854   2.800
 4429SOL    HW114186   2.731   5.942   2.773
 4429SOL    HW214187   2.675   5.855   2.898
 4430SOL     OW14188   5.983   4.435   4.454
 4430SOL    HW114189   6.014   4.426   4.549
 4430SOL    HW214190   5.972   4.344   4.414
 4431SOL     OW14191   4.181   6.912   4.818
 4431SOL    HW114192   4.200   6.862   4.734
 4431SOL    HW214193   4.208   6.857   4.897
 4432SOL     OW14194   1.771   3.470   6.352
 4432SOL    HW114195   1.713   3.421   6.418
 4432SOL    HW214196   1.850   3.414   6.329
 4433SOL     OW14197   0.664   0.494   4.676
 4433SOL    HW114198   0.682   0.577   4.623
 4433SOL    HW214199   0.662   0.516   4.773
 4434SOL     OW14200   6.392   1.027   2.437
 4434SOL    HW114201   6.454   1.096   2.475
 4434SOL    HW214202   6.366   1.054   2.344
 4435SOL     OW14203   2.239   4.505   1.451
 4435SOL    HW114204   2.174   4.492   1.376
 4435SOL    HW214205   2.332   4.504   1.415
 4436SOL     OW14206   4.826   2.228   1.461
 4436SOL    HW114207   4.876   2.308   1.429
 4436SOL    HW214208   4.769   2.254   1.539
 4437SOL     OW14209   6.481   5.424   6.508
 4437SOL    HW114210   6.535   5.368   6.446
 4437SOL    HW214211   6.542   5.488   6.556
 4438SOL     OW14212   3.914   1.554   4.951
 4438SOL    HW114213   3.846   1.618   4.987
 4438SOL    HW214214   3.961   1.596   4.873
 4439SOL     OW14215   2.656   4.827   1.951
 4439SOL    HW114216   2.640   4.744   2.005
 4439SOL    HW214217   2.724   4.808   1.880
 4440SOL     OW14218   1.765   5.369   5.432
 4440SOL    HW114219   1.711   5.286   5.421
 4440SOL    HW214220   1.761   5.424   5.349
 4441SOL     OW14221   6.404   1.229   0.763
 4441SOL    HW114222   6.384   1.204   0.668
 4441SOL    HW214223   6.379   1.153   0.824
 4442SOL     OW14224   1.722   4.583   0.959
 4442SOL    HW114225   1.712   4.511   1.027
 4442SOL    HW214226   1.652   4.572   0.888
 4443SOL     OW14227   1.387   6.110   4.778
 4443SOL    HW114228   1.484   6.089   4.794
 4443SOL    HW214229   1.340   6.029   4.745
 4444SOL     OW14230   4.780   6.065   6.920
 4444SOL    HW114231   4.731   6.018   6.847
 4444SOL    HW214232   4.875   6.080   6.893
 4445SOL     OW14233   2.212   3.469   0.619
 4445SOL    HW114234   2.263   3.383   0.629
 4445SOL    HW214235   2.124   3.450   0.577
 4446SOL     OW14236   5.241   2.285   1.767
 4446SOL    HW114237   5.328   2.238   1.783
 4446SOL    HW214238   5.168   2.218   1.760
 4447SOL     OW14239   5.106   5.827   5.369
 4447SOL    HW114240   5.141   5.877   5.448
 4447SOL    HW214241   5.120   5.729   5.382
 4448SOL     OW14242   3.016   6.351   2.907
 4448SOL    HW114243   2.993   6.254   2.916
 4448SOL    HW214244   3.057   6.367   2.818
 4449SOL     OW14245   3.914   2.040   5.349
 4449SOL    HW114246   3.951   1.988   5.273
 4449SOL    HW214247   3.836   1.991   5.389
 4450SOL     OW14248   1.923   6.122   0.674
 4450SOL    HW114249   1.879   6.203   0.712
 4450SOL    HW214250   1.992   6.088   0.739
 4451SOL     OW14251   4.905   5.899   3.851
 4451SOL    HW114252   4.820   5.916   3.902
 4451SOL    HW214253   4.886   5.902   3.753
 4452SOL     OW14254   5.044   4.538   3.103
 4452SOL    HW114255   5.105   4.458   3.105
 4452SOL    HW214256   4.951   4.510   3.124
 4453SOL     OW14257   0.160   5.835   1.317
 4453SOL    HW114258   0.260   5.845   1.313
 4453SOL    HW214259   0.131   5.769   1.248
 4454SOL     OW14260   0.246   1.011   0.278
 4454SOL    HW114261   0.276   1.097   0.236
 4454SOL    HW214262   0.155   1.024   0.318
 4455SOL     OW14263   0.952   0.438   4.167
 4455SOL    HW114264   0.858   0.405   4.171
 4455SOL    HW214265   1.003   0.388   4.098
 4456SOL     OW14266   1.649   5.681   3.968
 4456SOL    HW114267   1.558   5.642   3.954
 4456SOL    HW214268   1.644   5.781   3.959
 4457SOL     OW14269   1.206   1.923   4.445
 4457SOL    HW114270   1.274   1.953   4.511
 4457SOL    HW214271   1.144   1.999   4.424
 4458SOL     OW14272   2.119   2.071   5.982
 4458SOL    HW114273   2.212   2.040   5.960
 4458SOL    HW214274   2.053   2.005   5.948
 4459SOL     OW14275   0.781   3.900   3.138
 4459SOL    HW114276   0.708   3.859   3.193
 4459SOL    HW214277   0.850   3.940   3.199
 4460SOL     OW14278   0.082   3.116   5.017
 4460SOL    HW114279   0.151   3.182   4.988
 4460SOL    HW214280   0.048   3.140   5.108
 4461SOL     OW14281   2.026   0.400   0.746
 4461SOL    HW114282   2.067   0.392   0.837
 4461SOL    HW214283   2.003   0.309   0.711
 4462SOL     OW14284   0.547   4.548   2.373
 4462SOL    HW114285   0.497   4.507   2.450
 4462SOL    HW214286   0.639   4.510   2.370
 4463SOL     OW14287   5.825   2.144   0.022
 4463SOL    HW114288   5.794   2.167   6.950
 4463SOL    HW214289   5.897   2.207   0.049
 4464SOL     OW14290   0.529   3.895   0.975
 4464SOL    HW114291   0.567   3.804   0.957
 4464SOL    HW214292   0.451   3.911   0.914
 4465SOL     OW14293   4.328   4.694   1.426
 4465SOL    HW114294   4.344   4.726   1.519
 4465SOL    HW214295   4.407   4.719   1.369
 4466SOL     OW14296   1.027   2.899   2.868
 4466SOL    HW114297   0.942   2.854   2.894
 4466SOL    HW214298   1.041   2.979   2.927
 4467SOL     OW14299   5.072   4.958   1.584
 4467SOL    HW114300   5.038   5.031   1.643
 4467SOL    HW214301   5.172   4.959   1.584
 4468SOL     OW14302   2.014   3.356   6.974
 4468SOL    HW114303   1.955   3.437   6.964
 4468SOL    HW214304   2.068   3.344   6.891
 4469SOL     OW14305   1.750   5.899   1.901
 4469SOL    HW114306   1.740   5.828   1.832
 4469SOL    HW214307   1.846   5.906   1.928
 4470SOL     OW14308   0.892   0.036   3.171
 4470SOL    HW114309   0.912   6.980   3.233
 4470SOL    HW214310   0.977   0.082   3.147
 4471SOL     OW14311   1.223   0.804   6.824
 4471SOL    HW114312   1.229   0.902   6.842
 4471SOL    HW214313   1.148   0.786   6.761
 4472SOL     OW14314   1.538   2.935   0.596
 4472SOL    HW114315   1.508   3.031   0.588
 4472SOL    HW214316   1.579   2.921   0.685
 4473SOL     OW14317   0.341   2.912   4.891
 4473SOL    HW114318   0.388   2.963   4.963
 4473SOL    HW214319   0.299   2.977   4.827
 4474SOL     OW14320   2.115   6.573   1.075
 4474SOL    HW114321   2.090   6.655   1.023
 4474SOL    HW214322   2.159   6.600   1.161
 4475SOL     OW14323   0.636   3.428   0.649
 4475SOL    HW114324   0.643   3.528   0.656
 4475SOL    HW214325   0.544   3.399   0.674
 4476SOL     OW14326   5.046   0.436   3.572
 4476SOL    HW114327   5.136   0.427   3.530
 4476SOL    HW214328   5.044   0.384   3.657
 4477SOL     OW14329   6.904   1.381   4.726
 4477SOL    HW114330   6.856   1.412   4.643
 4477SOL    HW214331   6.846   1.315   4.775
 4478SOL     OW14332   0.973   0.189   2.456
 4478SOL    HW114333   0.931   0.114   2.405
 4478SOL    HW214334   1.057   0.218   2.411
 4479SOL     OW14335   2.594   3.205   0.060
 4479SOL    HW114336   2.588   3.161   0.150
 4479SOL    HW214337   2.671   3.268   0.059
 4480SOL     OW14338   6.441   0.518   3.266
 4480SOL    HW114339   6.536   0.534   3.240
 4480SOL    HW214340   6.434   0.519   3.366
 4481SOL     OW14341   2.509   3.646   5.924
 4481SOL    HW114342   2.543   3.647   5.830
 4481SOL    HW214343   2.451   3.726   5.940
 4482SOL     OW14344   2.521   0.084   1.234
 4482SOL    HW114345   2.585   0.007   1.233
 4482SOL    HW214346   2.432   0.054   1.270
 4483SOL     OW14347   0.797   3.209   0.505
 4483SOL    HW114348   0.747   3.289   0.540
 4483SOL    HW214349   0.895   3.222   0.522
 4484SOL     OW14350   4.166   6.861   1.182
 4484SOL    HW114351   4.122   6.943   1.219
 4484SOL    HW214352   4.238   6.887   1.118
 4485SOL     OW14353   0.391   2.937   5.242
 4485SOL    HW114354   0.455   2.907   5.313
 4485SOL    HW214355   0.441   2.988   5.172
 4486SOL     OW14356   5.401   4.666   3.476
 4486SOL    HW114357   5.471   4.679   3.406
 4486SOL    HW214358   5.350   4.752   3.488
 4487SOL     OW14359   0.317   2.778   6.198
 4487SOL    HW114360   0.284   2.788   6.292
 4487SOL    HW214361   0.283   2.854   6.143
 4488SOL     OW14362   5.547   4.689   3.239
 4488SOL    HW114363   5.577   4.738   3.157
 4488SOL    HW214364   5.625   4.641   3.279
 4489SOL     OW14365   3.678   6.343   6.311
 4489SOL    HW114366   3.676   6.330   6.410
 4489SOL    HW214367   3.697   6.256   6.266
 4490SOL     OW14368   5.313   2.021   2.233
 4490SOL    HW114369   5.277   2.113   2.250
 4490SOL    HW214370   5.412   2.022   2.239
 4491SOL     OW14371   0.229   3.609   2.921
 4491SOL    HW114372   0.200   3.673   2.992
 4491SOL    HW214373   0.203   3.516   2.947
 4492SOL     OW14374   6.553   1.366   2.043
 4492SOL    HW114375   6.618   1.305   1.997
 4492SOL    HW214376   6.575   1.370   2.140
 4493SOL     OW14377   5.378   1.398   6.265
 4493SOL    HW114378   5.333   1.383   6.177
 4493SOL    HW214379   5.477   1.402   6.252
 4494SOL     OW14380   1.356   1.561   2.336
 4494SOL    HW114381   1.388   1.496   2.405
 4494SOL    HW214382   1.291   1.624   2.377
 4495SOL     OW14383   3.795   6.326   1.573
 4495SOL    HW114384   3.838   6.373   1.496
 4495SOL    HW214385   3.806   6.227   1.561
 4496SOL     OW14386   2.098   5.112   5.219
 4496SOL    HW114387   2.078   5.126   5.316
 4496SOL    HW214388   2.028   5.158   5.164
 4497SOL     OW14389   5.275   6.411   5.349
 4497SOL    HW114390   5.343   6.347   5.386
 4497SOL    HW214391   5.184   6.383   5.378
 4498SOL     OW14392   1.742   4.912   4.093
 4498SOL    HW114393   1.732   4.896   4.191
 4498SOL    HW214394   1.693   4.840   4.043
 4499SOL     OW14395   5.370   1.678   2.068
 4499SOL    HW114396   5.275   1.680   2.037
 4499SOL    HW214397   5.375   1.706   2.164
 4500SOL     OW14398   3.128   6.790   0.232
 4500SOL    HW114399   3.076   6.723   0.179
 4500SOL    HW214400   3.101   6.882   0.204
 4501SOL     OW14401   5.411   0.616   3.180
 4501SOL    HW114402   5.343   0.557   3.138
 4501SOL    HW214403   5.441   0.685   3.114
 4502SOL     OW14404   0.978   4.269   6.925
 4502SOL    HW114405   0.907   4.199   6.936
 4502SOL    HW214406   0.939   4.359   6.948
 4503SOL     OW14407   3.514   1.428   3.004
 4503SOL    HW114408   3.490   1.401   2.911
 4503SOL    HW214409   3.611   1.454   3.007
 4504SOL     OW14410   0.891   2.824   3.977
 4504SOL    HW114411   0.958   2.897   3.960
 4504SOL    HW214412   0.823   2.856   4.042
 4505SOL     OW14413   6.458   3.687   3.592
 4505SOL    HW114414   6.446   3.761   3.526
 4505SOL    HW214415   6.521   3.717   3.664
 4506SOL     OW14416   4.237   3.963   6.698
 4506SOL    HW114417   4.276   3.923   6.781
 4506SOL    HW214418   4.242   3.896   6.624
 4507SOL     OW14419   6.156   2.204   3.262
 4507SOL    HW114420   6.081   2.267   3.244
 4507SOL    HW214421   6.151   2.174   3.357
 4508SOL     OW14422   6.012   4.569   0.091
 4508SOL    HW114423   6.077   4.518   0.034
 4508SOL    HW214424   5.991   4.515   0.173
 4509SOL     OW14425   4.547   1.756   2.901
 4509SOL    HW114426   4.530   1.750   2.999
 4509SOL    HW214427   4.524   1.848   2.869
 4510SOL     OW14428   4.770   1.424   3.485
 4510SOL    HW114429   4.830   1.444   3.562
 4510SOL    HW214430   4.823   1.376   3.414
 4511SOL     OW14431   1.064   4.341   6.682
 4511SOL    HW114432   1.053   4.299   6.772
 4511SOL    HW214433   1.110   4.429   6.691
 4512SOL     OW14434   2.774   4.064   5.965
 4512SOL    HW114435   2.862   4.108   5.947
 4512SOL    HW214436   2.788   3.985   6.026
 4513SOL     OW14437   0.469   1.640   1.361
 4513SOL    HW114438   0.503   1.604   1.448
 4513SOL    HW214439   0.511   1.589   1.285
 4514SOL     OW14440   4.064   5.057   6.594
 4514SOL    HW114441   4.102   5.081   6.683
 4514SOL    HW214442   4.138   5.051   6.527
 4515SOL     OW14443   4.223   6.875   5.653
 4515SOL    HW114444   4.163   6.815   5.707
 4515SOL    HW214445   4.200   6.866   5.556
 4516SOL     OW14446   3.193   1.575   5.062
 4516SOL    HW114447   3.109   1.599   5.013
 4516SOL    HW214448   3.175   1.500   5.125
 4517SOL     OW14449   3.668   0.274   4.263
 4517SOL    HW114450   3.756   0.286   4.311
 4517SOL    HW214451   3.604   0.345   4.294
 4518SOL     OW14452   6.523   6.592   0.629
 4518SOL    HW114453   6.513   6.522   0.558
 4518SOL    HW214454   6.472   6.565   0.710
 4519SOL     OW14455   5.334   6.830   6.280
 4519SOL    HW114456   5.409   6.766   6.263
 4519SOL    HW214457   5.364   6.900   6.345
 4520SOL     OW14458   4.436   5.336   4.591
 4520SOL    HW114459   4.388   5.296   4.669
 4520SOL    HW214460   4.531   5.307   4.592
 4521SOL     OW14461   4.553   2.619   4.192
 4521SOL    HW114462   4.569   2.656   4.100
 4521SOL    HW214463   4.595   2.679   4.260
 4522SOL     OW14464   5.365   4.235   3.564
 4522SOL    HW114465   5.392   4.275   3.651
 4522SOL    HW214466   5.334   4.307   3.502
 4523SOL     OW14467   0.566   2.815   6.792
 4523SOL    HW114468   0.469   2.793   6.807
 4523SOL    HW214469   0.622   2.744   6.834
 4524SOL     OW14470   1.980   3.521   1.906
 4524SOL    HW114471   1.899   3.536   1.962
 4524SOL    HW214472   2.061   3.517   1.964
 4525SOL     OW14473   3.321   1.634   5.942
 4525SOL    HW114474   3.333   1.565   5.870
 4525SOL    HW214475   3.407   1.680   5.958
 4526SOL     OW14476   0.668   6.848   5.431
 4526SOL    HW114477   0.741   6.837   5.498
 4526SOL    HW214478   0.697   6.808   5.344
 4527SOL     OW14479   0.737   2.632   2.405
 4527SOL    HW114480   0.719   2.589   2.494
 4527SOL    HW214481   0.836   2.632   2.388
 4528SOL     OW14482   5.261   2.102   4.332
 4528SOL    HW114483   5.162   2.088   4.322
 4528SOL    HW214484   5.278   2.160   4.412
 4529SOL     OW14485   1.623   2.749   3.526
 4529SOL    HW114486   1.550   2.726   3.462
 4529SOL    HW214487   1.623   2.848   3.542
 4530SOL     OW14488   4.044   4.598   5.945
 4530SOL    HW114489   4.039   4.519   6.006
 4530SOL    HW214490   4.128   4.650   5.964
 4531SOL     OW14491   1.435   6.477   5.131
 4531SOL    HW114492   1.451   6.540   5.055
 4531SOL    HW214493   1.400   6.528   5.210
 4532SOL     OW14494   5.790   1.124   2.374
 4532SOL    HW114495   5.830   1.033   2.364
 4532SOL    HW214496   5.759   1.137   2.468
 4533SOL     OW14497   2.727   5.657   1.281
 4533SOL    HW114498   2.697   5.563   1.263
 4533SOL    HW214499   2.698   5.684   1.373
 4534SOL     OW14500   5.715   1.484   4.836
 4534SOL    HW114501   5.732   1.385   4.835
 4534SOL    HW214502   5.800   1.532   4.814
 4535SOL     OW14503   2.036   6.972   0.221
 4535SOL    HW114504   1.936   6.976   0.223
 4535SOL    HW214505   2.066   6.877   0.225
 4536SOL     OW14506   3.762   0.333   6.111
 4536SOL    HW114507   3.666   0.344   6.089
 4536SOL    HW214508   3.804   0.267   6.048
 4537SOL     OW14509   3.241   3.657   3.331
 4537SOL    HW114510   3.164   3.683   3.388
 4537SOL    HW214511   3.317   3.721   3.346
 4538SOL     OW14512   1.276   2.597   0.204
 4538SOL    HW114513   1.261   2.587   0.106
 4538SOL    HW214514   1.249   2.512   0.250
 4539SOL     OW14515   0.906   4.651   5.000
 4539SOL    HW114516   0.925   4.708   5.081
 4539SOL    HW214517   0.924   4.556   5.022
 4540SOL     OW14518   1.739   1.854   0.425
 4540SOL    HW114519   1.688   1.788   0.371
 4540SOL    HW214520   1.772   1.928   0.367
 4541SOL     OW14521   4.597   3.016   0.208
 4541SOL    HW114522   4.599   2.996   0.306
 4541SOL    HW214523   4.505   3.003   0.173
 4542SOL     OW14524   0.035   1.935   0.244
 4542SOL    HW114525   7.020   1.976   0.160
 4542SOL    HW214526   7.007   1.849   0.262
 4543SOL     OW14527   4.120   1.089   1.230
 4543SOL    HW114528   4.046   1.022   1.240
 4543SOL    HW214529   4.087   1.169   1.180
 4544SOL     OW14530   4.992   5.926   0.406
 4544SOL    HW114531   4.932   5.946   0.483
 4544SOL    HW214532   4.950   5.961   0.321
 4545SOL     OW14533   3.028   3.296   5.511
 4545SOL    HW114534   3.023   3.323   5.415
 4545SOL    HW214535   3.096   3.224   5.522
 4546SOL     OW14536   5.171   6.134   5.620
 4546SOL    HW114537   5.257   6.184   5.608
 4546SOL    HW214538   5.190   6.037   5.628
 4547SOL     OW14539   6.972   0.814   0.713
 4547SOL    HW114540   6.943   0.756   0.637
 4547SOL    HW214541   6.902   0.813   0.784
 4548SOL     OW14542   3.168   1.546   1.884
 4548SOL    HW114543   3.140   1.592   1.969
 4548SOL    HW214544   3.094   1.551   1.818
 4549SOL     OW14545   6.866   4.863   3.636
 4549SOL    HW114546   6.890   4.869   3.539
 4549SOL    HW214547   6.941   4.900   3.691
 4550SOL     OW14548   2.287   5.476   6.753
 4550SOL    HW114549   2.307   5.471   6.851
 4550SOL    HW214550   2.371   5.496   6.703
 4551SOL     OW14551   3.432   3.045   5.961
 4551SOL    HW114552   3.394   2.970   6.015
 4551SOL    HW214553   3.526   3.062   5.990
 4552SOL     OW14554   5.318   0.049   6.799
 4552SOL    HW114555   5.279   0.126   6.749
 4552SOL    HW214556   5.245   7.014   6.839
 4553SOL     OW14557   0.095   6.857   0.718
 4553SOL    HW114558   0.119   6.950   0.746
 4553SOL    HW214559   0.039   6.815   0.790
 4554SOL     OW14560   5.830   6.503   3.117
 4554SOL    HW114561   5.762   6.506   3.191
 4554SOL    HW214562   5.861   6.409   3.103
 4555SOL     OW14563   0.319   7.018   3.348
 4555SOL    HW114564   0.268   0.074   3.387
 4555SOL    HW214565   0.413   0.027   3.329
 4556SOL     OW14566   4.701   4.697   5.029
 4556SOL    HW114567   4.785   4.644   5.025
 4556SOL    HW214568   4.655   4.692   4.940
 4557SOL     OW14569   0.200   5.436   5.073
 4557SOL    HW114570   0.203   5.344   5.034
 4557SOL    HW214571   0.105   5.462   5.092
 4558SOL     OW14572   0.764   4.366   3.474
 4558SOL    HW114573   0.850   4.322   3.448
 4558SOL    HW214574   0.687   4.313   3.441
 4559SOL     OW14575   6.742   3.428   4.454
 4559SOL    HW114576   6.771   3.510   4.404
 4559SOL    HW214577   6.803   3.352   4.430
 4560SOL     OW14578   6.389   3.771   4.123
 4560SOL    HW114579   6.369   3.824   4.040
 4560SOL    HW214580   6.474   3.721   4.111
 4561SOL     OW14581   5.219   3.351   4.358
 4561SOL    HW114582   5.210   3.396   4.269
 4561SOL    HW214583   5.191   3.414   4.430
 4562SOL     OW14584   4.805   1.381   1.280
 4562SOL    HW114585   4.748   1.437   1.219
 4562SOL    HW214586   4.755   1.364   1.365
 4563SOL     OW14587   0.985   3.836   2.235
 4563SOL    HW114588   0.933   3.865   2.315
 4563SOL    HW214589   1.072   3.796   2.263
 4564SOL     OW14590   2.075   3.571   2.194
 4564SOL    HW114591   2.072   3.511   2.275
 4564SOL    HW214592   2.134   3.530   2.125
 4565SOL     OW14593   2.159   6.326   5.173
 4565SOL    HW114594   2.192   6.299   5.083
 4565SOL    HW214595   2.237   6.346   5.233
 4566SOL     OW14596   6.985   5.123   2.674
 4566SOL    HW114597   6.985   5.211   2.627
 4566SOL    HW214598   6.912   5.065   2.636
 4567SOL     OW14599   1.148   0.254   0.145
 4567SOL    HW114600   1.169   0.335   0.200
 4567SOL    HW214601   1.231   0.221   0.099
 4568SOL     OW14602   6.965   4.330   3.875
 4568SOL    HW114603   0.023   4.372   3.922
 4568SOL    HW214604   6.885   4.389   3.886
 4569SOL     OW14605   0.117   2.539   3.409
 4569SOL    HW114606   0.107   2.584   3.497
 4569SOL    HW214607   0.044   2.472   3.396
 4570SOL     OW14608   5.016   6.059   1.764
 4570SOL    HW114609   5.032   6.043   1.861
 4570SOL    HW214610   4.956   5.988   1.728
 4571SOL     OW14611   2.180   2.407   5.087
 4571SOL    HW114612   2.121   2.485   5.107
 4571SOL    HW214613   2.125   2.323   5.086
 4572SOL     OW14614   4.792   3.305   1.764
 4572SOL    HW114615   4.867   3.369   1.779
 4572SOL    HW214616   4.828   3.214   1.747
 4573SOL     OW14617   2.064   5.139   1.032
 4573SOL    HW114618   2.010   5.222   1.047
 4573SOL    HW214619   2.039   5.070   1.101
 4574SOL     OW14620   4.904   0.462   2.057
 4574SOL    HW114621   4.944   0.500   2.140
 4574SOL    HW214622   4.807   0.443   2.073
 4575SOL     OW14623   0.228   1.727   5.361
 4575SOL    HW114624   0.216   1.682   5.272
 4575SOL    HW214625   0.322   1.762   5.368
 4576SOL     OW14626   3.021   3.705   6.886
 4576SOL    HW114627   2.924   3.717   6.866
 4576SOL    HW214628   3.072   3.696   6.800
 4577SOL     OW14629   0.478   1.833   1.848
 4577SOL    HW114630   0.404   1.867   1.906
 4577SOL    HW214631   0.448   1.833   1.752
 4578SOL     OW14632   1.871   0.627   2.737
 4578SOL    HW114633   1.827   0.551   2.689
 4578SOL    HW214634   1.858   0.616   2.835
 4579SOL     OW14635   4.228   0.910   2.750
 4579SOL    HW114636   4.207   0.877   2.843
 4579SOL    HW214637   4.186   0.848   2.683
 4580SOL     OW14638   1.065   0.240   1.562
 4580SOL    HW114639   1.024   0.258   1.651
 4580SOL    HW214640   1.164   0.230   1.573
 4581SOL     OW14641   3.298   0.510   1.550
 4581SOL    HW114642   3.260   0.585   1.604
 4581SOL    HW214643   3.279   0.525   1.453
 4582SOL     OW14644   5.816   1.120   4.607
 4582SOL    HW114645   5.804   1.023   4.587
 4582SOL    HW214646   5.851   1.132   4.700
 4583SOL     OW14647   2.131   5.924   6.558
 4583SOL    HW114648   2.100   6.015   6.584
 4583SOL    HW214649   2.129   5.864   6.638
 4584SOL     OW14650   6.693   1.084   4.645
 4584SOL    HW114651   6.780   1.094   4.597
 4584SOL    HW214652   6.710   1.044   4.735
 4585SOL     OW14653   0.981   2.819   2.593
 4585SOL    HW114654   1.048   2.841   2.664
 4585SOL    HW214655   0.942   2.904   2.556
 4586SOL     OW14656   6.884   4.644   5.934
 4586SOL    HW114657   6.832   4.606   6.011
 4586SOL    HW214658   6.951   4.577   5.903
 4587SOL     OW14659   4.339   2.933   6.670
 4587SOL    HW114660   4.256   2.887   6.637
 4587SOL    HW214661   4.330   3.031   6.656
 4588SOL     OW14662   2.195   4.911   6.502
 4588SOL    HW114663   2.132   4.870   6.437
 4588SOL    HW214664   2.203   5.009   6.483
 4589SOL     OW14665   4.808   6.007   2.020
 4589SOL    HW114666   4.824   5.909   2.009
 4589SOL    HW214667   4.720   6.021   2.065
 4590SOL     OW14668   2.359   4.942   2.070
 4590SOL    HW114669   2.348   5.041   2.071
 4590SOL    HW214670   2.376   4.911   1.976
 4591SOL     OW14671   2.482   1.729   5.064
 4591SOL    HW114672   2.528   1.641   5.076
 4591SOL    HW214673   2.529   1.798   5.119
 4592SOL     OW14674   2.692   2.345   2.950
 4592SOL    HW114675   2.674   2.365   2.853
 4592SOL    HW214676   2.722   2.250   2.959
 4593SOL     OW14677   1.394   5.710   4.576
 4593SOL    HW114678   1.484   5.754   4.577
 4593SOL    HW214679   1.333   5.761   4.515
 4594SOL     OW14680   0.793   6.203   3.756
 4594SOL    HW114681   0.879   6.220   3.804
 4594SOL    HW214682   0.749   6.290   3.733
 4595SOL     OW14683   5.558   1.686   6.862
 4595SOL    HW114684   5.471   1.733   6.869
 4595SOL    HW214685   5.631   1.743   6.901
 4596SOL     OW14686   0.281   1.499   2.412
 4596SOL    HW114687   0.316   1.507   2.318
 4596SOL    HW214688   0.250   1.405   2.427
 4597SOL     OW14689   1.497   5.168   0.440
 4597SOL    HW114690   1.517   5.259   0.475
 4597SOL    HW214691   1.578   5.132   0.394
 4598SOL     OW14692   0.560   2.409   0.005
 4598SOL    HW114693   0.557   2.309   0.004
 4598SOL    HW214694   0.529   2.443   0.094
 4599SOL     OW14695   2.760   6.692   3.410
 4599SOL    HW114696   2.857   6.681   3.428
 4599SOL    HW214697   2.736   6.789   3.413
 4600SOL     OW14698   0.389   0.076   5.575
 4600SOL    HW114699   0.435   7.014   5.609
 4600SOL    HW214700   0.451   0.126   5.513
 4601SOL     OW14701   1.694   1.019   5.122
 4601SOL    HW114702   1.788   0.985   5.126
 4601SOL    HW214703   1.630   0.946   5.147
 4602SOL     OW14704   4.490   0.235   6.148
 4602SOL    HW114705   4.412   0.273   6.097
 4602SOL    HW214706   4.544   0.177   6.088
 4603SOL     OW14707   4.734   6.707   0.660
 4603SOL    HW114708   4.799   6.698   0.735
 4603SOL    HW214709   4.776   6.758   0.585
 4604SOL     OW14710   0.599   6.390   3.639
 4604SOL    HW114711   0.505   6.418   3.616
 4604SOL    HW214712   0.664   6.444   3.585
 4605SOL     OW14713   4.355   1.425   2.045
 4605SOL    HW114714   4.343   1.405   1.947
 4605SOL    HW214715   4.356   1.339   2.096
 4606SOL     OW14716   0.101   0.128   4.473
 4606SOL    HW114717   0.052   0.202   4.519
 4606SOL    HW214718   0.093   0.044   4.526
 4607SOL     OW14719   2.633   1.902   0.908
 4607SOL    HW114720   2.613   1.932   1.001
 4607SOL    HW214721   2.715   1.949   0.875
 4608SOL     OW14722   0.680   2.243   5.869
 4608SOL    HW114723   0.698   2.172   5.801
 4608SOL    HW214724   0.738   2.228   5.949
 4609SOL     OW14725   5.922   5.148   5.998
 4609SOL    HW114726   5.936   5.104   5.909
 4609SOL    HW214727   5.998   5.125   6.059
 4610SOL     OW14728   5.147   3.829   6.465
 4610SOL    HW114729   5.108   3.879   6.542
 4610SOL    HW214730   5.228   3.877   6.431
 4611SOL     OW14731   0.085   0.606   6.363
 4611SOL    HW114732   0.183   0.594   6.346
 4611SOL    HW214733   0.048   0.671   6.297
 4612SOL     OW14734   1.592   0.411   2.261
 4612SOL    HW114735   1.516   0.472   2.283
 4612SOL    HW214736   1.584   0.380   2.166
 4613SOL     OW14737   1.684   5.136   3.594
 4613SOL    HW114738   1.765   5.181   3.557
 4613SOL    HW214739   1.712   5.074   3.668
 4614SOL     OW14740   6.566   4.792   2.756
 4614SOL    HW114741   6.650   4.769   2.707
 4614SOL    HW214742   6.559   4.891   2.766
 4615SOL     OW14743   0.902   4.574   6.955
 4615SOL    HW114744   0.896   4.579   0.035
 4615SOL    HW214745   0.872   4.661   6.915
 4616SOL     OW14746   1.936   4.426   6.282
 4616SOL    HW114747   1.903   4.493   6.348
 4616SOL    HW214748   2.001   4.470   6.220
 4617SOL     OW14749   1.085   4.211   4.319
 4617SOL    HW114750   1.025   4.167   4.253
 4617SOL    HW214751   1.059   4.183   4.412
 4618SOL     OW14752   2.171   4.240   5.160
 4618SOL    HW114753   2.079   4.233   5.119
 4618SOL    HW214754   2.221   4.155   5.143
 4619SOL     OW14755   4.755   5.734   6.894
 4619SOL    HW114756   4.829   5.799   6.911
 4619SOL    HW214757   4.681   5.780   6.845
 4620SOL     OW14758   1.182   4.584   1.887
 4620SOL    HW114759   1.181   4.499   1.939
 4620SOL    HW214760   1.088   4.615   1.872
 4621SOL     OW14761   2.945   0.460   2.786
 4621SOL    HW114762   2.980   0.529   2.723
 4621SOL    HW214763   2.934   0.500   2.877
 4622SOL     OW14764   6.090   6.920   0.541
 4622SOL    HW114765   6.168   6.931   0.480
 4622SOL    HW214766   6.005   6.924   0.488
 4623SOL     OW14767   2.827   4.754   2.656
 4623SOL    HW114768   2.757   4.693   2.694
 4623SOL    HW214769   2.782   4.826   2.603
 4624SOL     OW14770   5.748   1.944   0.911
 4624SOL    HW114771   5.789   1.984   0.830
 4624SOL    HW214772   5.676   1.880   0.884
 4625SOL     OW14773   0.688   6.449   1.927
 4625SOL    HW114774   0.597   6.424   1.892
 4625SOL    HW214775   0.756   6.433   1.855
 4626SOL     OW14776   3.929   3.739   2.022
 4626SOL    HW114777   3.841   3.709   1.986
 4626SOL    HW214778   3.917   3.828   2.067
 4627SOL     OW14779   5.346   6.597   4.971
 4627SOL    HW114780   5.395   6.587   5.058
 4627SOL    HW214781   5.267   6.535   4.971
 4628SOL     OW14782   6.971   3.567   2.487
 4628SOL    HW114783   0.008   3.614   2.420
 4628SOL    HW214784   6.874   3.579   2.464
 4629SOL     OW14785   1.114   5.288   1.159
 4629SOL    HW114786   1.126   5.278   1.257
 4629SOL    HW214787   1.035   5.236   1.129
 4630SOL     OW14788   1.938   3.610   1.320
 4630SOL    HW114789   1.946   3.580   1.415
 4630SOL    HW214790   1.953   3.532   1.259
 4631SOL     OW14791   5.848   1.623   1.856
 4631SOL    HW114792   5.759   1.589   1.885
 4631SOL    HW214793   5.906   1.547   1.828
 4632SOL     OW14794   2.807   4.867   3.679
 4632SOL    HW114795   2.886   4.860   3.618
 4632SOL    HW214796   2.832   4.833   3.770
 4633SOL     OW14797   5.373   3.288   3.763
 4633SOL    HW114798   5.361   3.203   3.712
 4633SOL    HW214799   5.295   3.349   3.744
 4634SOL     OW14800   3.814   2.987   5.065
 4634SOL    HW114801   3.760   3.039   5.131
 4634SOL    HW214802   3.755   2.919   5.021
 4635SOL     OW14803   4.366   0.250   2.369
 4635SOL    HW114804   4.308   0.176   2.404
 4635SOL    HW214805   4.421   0.287   2.444
 4636SOL     OW14806   1.347   5.707   6.826
 4636SOL    HW114807   1.404   5.626   6.823
 4636SOL    HW214808   1.295   5.715   6.741
 4637SOL     OW14809   1.763   2.721   3.161
 4637SOL    HW114810   1.792   2.644   3.104
 4637SOL    HW214811   1.828   2.732   3.237
 4638SOL     OW14812   4.153   4.222   6.815
 4638SOL    HW114813   4.185   4.129   6.799
 4638SOL    HW214814   4.076   4.242   6.755
 4639SOL     OW14815   3.841   2.760   1.741
 4639SOL    HW114816   3.760   2.706   1.765
 4639SOL    HW214817   3.918   2.699   1.723
 4640SOL     OW14818   0.374   1.944   0.675
 4640SOL    HW114819   0.372   1.943   0.775
 4640SOL    HW214820   0.421   2.026   0.643
 4641SOL     OW14821   1.197   5.928   4.751
 4641SOL    HW114822   1.135   6.001   4.719
 4641SOL    HW214823   1.173   5.842   4.706
 4642SOL     OW14824   5.635   1.134   6.570
 4642SOL    HW114825   5.615   1.067   6.642
 4642SOL    HW214826   5.570   1.121   6.495
 4643SOL     OW14827   0.816   1.961   0.048
 4643SOL    HW114828   0.797   1.902   6.989
 4643SOL    HW214829   0.914   1.981   0.052
 4644SOL     OW14830   1.236   1.828   1.118
 4644SOL    HW114831   1.165   1.884   1.074
 4644SOL    HW214832   1.216   1.731   1.103
 4645SOL     OW14833   5.230   2.543   5.957
 4645SOL    HW114834   5.134   2.520   5.943
 4645SOL    HW214835   5.242   2.583   6.048
 4646SOL     OW14836   1.215   3.723   2.320
 4646SOL    HW114837   1.306   3.732   2.279
 4646SOL    HW214838   1.183   3.629   2.312
 4647SOL     OW14839   1.863   6.295   2.493
 4647SOL    HW114840   1.876   6.310   2.591
 4647SOL    HW214841   1.852   6.197   2.475
 4648SOL     OW14842   2.648   1.033   4.566
 4648SOL    HW114843   2.742   1.011   4.538
 4648SOL    HW214844   2.588   0.956   4.544
 4649SOL     OW14845   4.636   3.081   1.225
 4649SOL    HW114846   4.636   3.131   1.311
 4649SOL    HW214847   4.542   3.058   1.200
 4650SOL     OW14848   3.836   5.118   0.861
 4650SOL    HW114849   3.788   5.032   0.844
 4650SOL    HW214850   3.935   5.102   0.855
 4651SOL     OW14851   1.184   3.393   6.916
 4651SOL    HW114852   1.195   3.339   6.999
 4651SOL    HW214853   1.119   3.468   6.932
 4652SOL     OW14854   6.931   0.378   5.364
 4652SOL    HW114855   6.961   0.306   5.302
 4652SOL    HW214856   6.960   0.356   5.457
 4653SOL     OW14857   1.006   6.635   0.753
 4653SOL    HW114858   0.963   6.552   0.717
 4653SOL    HW214859   0.999   6.708   0.686
 4654SOL     OW14860   1.095   1.195   5.026
 4654SOL    HW114861   1.150   1.219   4.946
 4654SOL    HW214862   1.031   1.269   5.046
 4655SOL     OW14863   6.092   4.904   2.778
 4655SOL    HW114864   5.994   4.887   2.766
 4655SOL    HW214865   6.117   4.890   2.874
 4656SOL     OW14866   6.070   0.855   1.436
 4656SOL    HW114867   6.091   0.791   1.510
 4656SOL    HW214868   6.146   0.857   1.371
 4657SOL     OW14869   3.499   1.993   2.493
 4657SOL    HW114870   3.549   2.031   2.414
 4657SOL    HW214871   3.415   1.950   2.462
 4658SOL     OW14872   1.669   1.465   0.533
 4658SOL    HW114873   1.573   1.460   0.561
 4658SOL    HW214874   1.676   1.518   0.448
 4659SOL     OW14875   2.127   4.788   1.100
 4659SOL    HW114876   2.212   4.838   1.116
 4659SOL    HW214877   2.049   4.843   1.129
 4660SOL     OW14878   0.188   4.835   4.490
 4660SOL    HW114879   0.285   4.844   4.513
 4660SOL    HW214880   0.179   4.794   4.399
 4661SOL     OW14881   0.838   0.966   5.678
 4661SOL    HW114882   0.857   0.889   5.739
 4661SOL    HW214883   0.884   1.048   5.712
 4662SOL     OW14884   2.773   0.114   6.034
 4662SOL    HW114885   2.680   0.123   6.069
 4662SOL    HW214886   2.772   0.098   5.936
 4663SOL     OW14887   0.377   0.602   1.152
 4663SOL    HW114888   0.426   0.530   1.201
 4663SOL    HW214889   0.304   0.638   1.210
 4664SOL     OW14890   6.233   6.469   4.951
 4664SOL    HW114891   6.147   6.472   4.900
 4664SOL    HW214892   6.261   6.374   4.964
 4665SOL     OW14893   0.437   1.205   2.818
 4665SOL    HW114894   0.364   1.201   2.886
 4665SOL    HW214895   0.398   1.226   2.728
 4666SOL     OW14896   1.691   2.469   5.916
 4666SOL    HW114897   1.679   2.567   5.928
 4666SOL    HW214898   1.786   2.450   5.890
 4667SOL     OW14899   6.805   2.536   1.046
 4667SOL    HW114900   6.787   2.467   1.116
 4667SOL    HW214901   6.901   2.532   1.019
 4668SOL     OW14902   4.603   1.797   5.393
 4668SOL    HW114903   4.522   1.774   5.339
 4668SOL    HW214904   4.628   1.718   5.450
 4669SOL     OW14905   5.435   6.267   6.432
 4669SOL    HW114906   5.527   6.229   6.439
 4669SOL    HW214907   5.415   6.321   6.514
 4670SOL     OW14908   0.463   3.128   0.347
 4670SOL    HW114909   0.404   3.047   0.342
 4670SOL    HW214910   0.558   3.101   0.336
 4671SOL     OW14911   6.862   1.928   1.546
 4671SOL    HW114912   6.830   1.995   1.612
 4671SOL    HW214913   6.951   1.957   1.510
 4672SOL     OW14914   3.907   3.279   1.066
 4672SOL    HW114915   3.979   3.213   1.090
 4672SOL    HW214916   3.826   3.230   1.035
 4673SOL     OW14917   4.604   1.350   0.894
 4673SOL    HW114918   4.546   1.358   0.976
 4673SOL    HW214919   4.636   1.256   0.885
 4674SOL     OW14920   0.617   3.384   0.167
 4674SOL    HW114921   0.710   3.350   0.154
 4674SOL    HW214922   0.561   3.359   0.088
 4675SOL     OW14923   1.942   6.145   0.390
 4675SOL    HW114924   1.925   6.147   0.488
 4675SOL    HW214925   2.037   6.119   0.373
 4676SOL     OW14926   0.969   5.645   4.854
 4676SOL    HW114927   0.912   5.623   4.775
 4676SOL    HW214928   1.058   5.678   4.824
 4677SOL     OW14929   4.619   0.267   6.601
 4677SOL    HW114930   4.641   0.310   6.689
 4677SOL    HW214931   4.652   0.173   6.600
 4678SOL     OW14932   2.649   4.685   0.375
 4678SOL    HW114933   2.593   4.618   0.326
 4678SOL    HW214934   2.589   4.752   0.419
 4679SOL     OW14935   2.271   6.935   5.331
 4679SOL    HW114936   2.184   6.973   5.362
 4679SOL    HW214937   2.328   7.008   5.292
 4680SOL     OW14938   1.180   5.430   6.090
 4680SOL    HW114939   1.174   5.382   6.002
 4680SOL    HW214940   1.222   5.370   6.158
 4681SOL     OW14941   6.546   6.209   4.991
 4681SOL    HW114942   6.534   6.192   5.089
 4681SOL    HW214943   6.582   6.127   4.947
 4682SOL     OW14944   3.305   0.219   0.800
 4682SOL    HW114945   3.269   0.132   0.766
 4682SOL    HW214946   3.235   0.289   0.794
 4683SOL     OW14947   0.807   4.861   3.796
 4683SOL    HW114948   0.847   4.951   3.816
 4683SOL    HW214949   0.750   4.867   3.714
 4684SOL     OW14950   2.228   1.347   5.150
 4684SOL    HW114951   2.133   1.316   5.160
 4684SOL    HW214952   2.260   1.386   5.236
 4685SOL     OW14953   5.226   4.569   3.995
 4685SOL    HW114954   5.233   4.490   3.935
 4685SOL    HW214955   5.131   4.599   4.000
 4686SOL     OW14956   4.988   5.587   6.141
 4686SOL    HW114957   4.928   5.548   6.072
 4686SOL    HW214958   4.933   5.613   6.221
 4687SOL     OW14959   4.733   0.513   4.787
 4687SOL    HW114960   4.687   0.529   4.874
 4687SOL    HW214961   4.755   0.416   4.778
 4688SOL     OW14962   6.786   0.887   0.879
 4688SOL    HW114963   6.765   0.964   0.818
 4688SOL    HW214964   6.823   0.922   0.965
 4689SOL     OW14965   2.078   5.570   3.968
 4689SOL    HW114966   2.049   5.653   4.016
 4689SOL    HW214967   2.117   5.595   3.880
 4690SOL     OW14968   2.492   1.831   0.615
 4690SOL    HW114969   2.443   1.777   0.547
 4690SOL    HW214970   2.499   1.779   0.701
 4691SOL     OW14971   3.444   4.724   6.953
 4691SOL    HW114972   3.362   4.667   6.946
 4691SOL    HW214973   3.452   4.761   0.025
 4692SOL     OW14974   1.190   4.995   3.119
 4692SOL    HW114975   1.162   5.086   3.150
 4692SOL    HW214976   1.238   4.948   3.193
 4693SOL     OW14977   0.691   1.768   2.045
 4693SOL    HW114978   0.773   1.823   2.025
 4693SOL    HW214979   0.616   1.800   1.987
 4694SOL     OW14980   1.480   0.845   5.185
 4694SOL    HW114981   1.422   0.767   5.207
 4694SOL    HW214982   1.424   0.920   5.150
 4695SOL     OW14983   2.953   3.804   3.005
 4695SOL    HW114984   2.984   3.898   2.993
 4695SOL    HW214985   2.900   3.798   3.090
 4696SOL     OW14986   6.910   2.815   0.250
 4696SOL    HW114987   6.976   2.866   0.194
 4696SOL    HW214988   6.864   2.748   0.192
 4697SOL     OW14989   0.729   5.573   6.497
 4697SOL    HW114990   0.799   5.521   6.450
 4697SOL    HW214991   0.698   5.523   6.578
 4698SOL     OW14992   5.596   3.257   2.552
 4698SOL    HW114993   5.537   3.178   2.534
 4698SOL    HW214994   5.544   3.327   2.600
 4699SOL     OW14995   6.996   0.614   3.494
 4699SOL    HW114996   6.960   0.706   3.478
 4699SOL    HW214997   7.010   0.600   3.591
 4700SOL     OW14998   4.707   0.024   5.716
 4700SOL    HW114999   4.618   0.001   5.678
 4700SOL    HW215000   4.779   7.008   5.656
 4701SOL     OW15001   2.276   0.876   6.538
 4701SOL    HW115002   2.343   0.934   6.492
 4701SOL    HW215003   2.199   0.932   6.570
 4702SOL     OW15004   3.506   2.654   1.398
 4702SOL    HW115005   3.509   2.722   1.324
 4702SOL    HW215006   3.412   2.621   1.409
 4703SOL     OW15007   0.767   6.338   2.201
 4703SOL    HW115008   0.697   6.275   2.235
 4703SOL    HW215009   0.733   6.384   2.119
 4704SOL     OW15010   4.407   6.646   6.308
 4704SOL    HW115011   4.480   6.579   6.320
 4704SOL    HW215012   4.346   6.643   6.387
 4705SOL     OW15013   3.627   2.834   4.938
 4705SOL    HW115014   3.579   2.850   4.851
 4705SOL    HW215015   3.560   2.824   5.011
 4706SOL     OW15016   5.922   3.657   0.190
 4706SOL    HW115017   5.849   3.625   0.251
 4706SOL    HW215018   5.881   3.693   0.105
 4707SOL     OW15019   2.889   4.566   0.334
 4707SOL    HW115020   2.925   4.550   0.426
 4707SOL    HW215021   2.795   4.597   0.339
 4708SOL     OW15022   1.851   2.924   2.405
 4708SOL    HW115023   1.753   2.906   2.411
 4708SOL    HW215024   1.895   2.901   2.492
 4709SOL     OW15025   3.067   3.968   0.438
 4709SOL    HW115026   3.089   4.039   0.505
 4709SOL    HW215027   3.139   3.899   0.437
 4710SOL     OW15028   5.085   3.011   1.226
 4710SOL    HW115029   5.123   2.930   1.181
 4710SOL    HW215030   5.111   3.010   1.323
 4711SOL     OW15031   2.932   6.971   3.429
 4711SOL    HW115032   2.835   6.977   3.453
 4711SOL    HW215033   2.959   6.875   3.423
 4712SOL     OW15034   1.567   3.947   6.984
 4712SOL    HW115035   1.523   3.954   6.894
 4712SOL    HW215036   1.654   3.996   6.982
 4713SOL     OW15037   0.524   5.767   1.128
 4713SOL    HW115038   0.477   5.734   1.046
 4713SOL    HW215039   0.609   5.812   1.101
 4714SOL     OW15040   4.061   2.240   1.192
 4714SOL    HW115041   4.088   2.310   1.259
 4714SOL    HW215042   4.137   2.176   1.180
 4715SOL     OW15043   4.956   3.624   4.781
 4715SOL    HW115044   4.943   3.714   4.739
 4715SOL    HW215045   4.900   3.617   4.864
 4716SOL     OW15046   2.182   5.558   6.255
 4716SOL    HW115047   2.210   5.644   6.298
 4716SOL    HW215048   2.254   5.490   6.267
 4717SOL     OW15049   2.341   5.118   4.860
 4717SOL    HW115050   2.413   5.090   4.797
 4717SOL    HW215051   2.313   5.039   4.915
 4718SOL     OW15052   4.741   0.108   0.336
 4718SOL    HW115053   4.802   0.138   0.409
 4718SOL    HW215054   4.726   0.183   0.272
 4719SOL     OW15055   4.359   3.439   1.635
 4719SOL    HW115056   4.350   3.352   1.586
 4719SOL    HW215057   4.451   3.476   1.620
 4720SOL     OW15058   2.130   1.747   2.969
 4720SOL    HW115059   2.167   1.672   3.022
 4720SOL    HW215060   2.185   1.761   2.886
 4721SOL     OW15061   1.823   1.324   1.645
 4721SOL    HW115062   1.826   1.417   1.609
 4721SOL    HW215063   1.768   1.322   1.728
 4722SOL     OW15064   2.926   1.018   3.023
 4722SOL    HW115065   2.847   1.066   3.063
 4722SOL    HW215066   2.961   0.952   3.089
 4723SOL     OW15067   3.084   0.204   5.443
 4723SOL    HW115068   3.155   0.145   5.481
 4723SOL    HW215069   3.046   0.261   5.516
 4724SOL     OW15070   4.864   5.693   1.099
 4724SOL    HW115071   4.940   5.632   1.121
 4724SOL    HW215072   4.848   5.755   1.176
 4725SOL     OW15073   5.996   5.258   2.587
 4725SOL    HW115074   5.940   5.204   2.525
 4725SOL    HW215075   5.940   5.331   2.627
 4726SOL     OW15076   0.016   6.561   4.399
 4726SOL    HW115077   0.031   6.598   4.307
 4726SOL    HW215078   0.100   6.518   4.432
 4727SOL     OW15079   5.680   6.568   1.974
 4727SOL    HW115080   5.641   6.644   2.025
 4727SOL    HW215081   5.664   6.482   2.023
 4728SOL     OW15082   6.626   6.833   6.867
 4728SOL    HW115083   6.696   6.819   6.797
 4728SOL    HW215084   6.607   6.931   6.876
 4729SOL     OW15085   3.048   0.669   1.056
 4729SOL    HW115086   3.142   0.635   1.050
 4729SOL    HW215087   3.045   0.749   1.116
 4730SOL     OW15088   1.988   0.143   6.180
 4730SOL    HW115089   1.904   0.126   6.128
 4730SOL    HW215090   1.965   0.169   6.274
 4731SOL     OW15091   4.336   1.253   5.809
 4731SOL    HW115092   4.328   1.324   5.879
 4731SOL    HW215093   4.268   1.269   5.737
 4732SOL     OW15094   0.679   6.592   6.719
 4732SOL    HW115095   0.775   6.579   6.695
 4732SOL    HW215096   0.622   6.530   6.665
 4733SOL     OW15097   5.785   3.846   3.308
 4733SOL    HW115098   5.752   3.923   3.363
 4733SOL    HW215099   5.828   3.881   3.225
 4734SOL     OW15100   6.281   3.485   5.880
 4734SOL    HW115101   6.228   3.568   5.898
 4734SOL    HW215102   6.274   3.461   5.783
 4735SOL     OW15103   0.415   4.016   3.455
 4735SOL    HW115104   0.453   3.944   3.514
 4735SOL    HW215105   0.412   3.984   3.361
 4736SOL     OW15106   1.922   6.800   2.350
 4736SOL    HW115107   1.863   6.800   2.270
 4736SOL    HW215108   1.978   6.883   2.351
 4737SOL     OW15109   3.317   5.072   2.114
 4737SOL    HW115110   3.319   5.000   2.045
 4737SOL    HW215111   3.288   5.158   2.072
 4738SOL     OW15112   1.105   0.115   2.768
 4738SOL    HW115113   1.187   0.157   2.806
 4738SOL    HW215114   1.042   0.187   2.738
 4739SOL     OW15115   4.110   0.288   1.519
 4739SOL    HW115116   4.119   0.270   1.617
 4739SOL    HW215117   4.017   0.319   1.499
 4740SOL     OW15118   0.649   1.861   4.390
 4740SOL    HW115119   0.713   1.841   4.464
 4740SOL    HW215120   0.562   1.816   4.408
 4741SOL     OW15121   3.889   3.973   3.430
 4741SOL    HW115122   3.834   4.042   3.382
 4741SOL    HW215123   3.872   3.979   3.528
 4742SOL     OW15124   5.266   1.199   2.482
 4742SOL    HW115125   5.300   1.293   2.475
 4742SOL    HW215126   5.257   1.175   2.579
 4743SOL     OW15127   0.755   5.414   0.824
 4743SOL    HW115128   0.705   5.385   0.906
 4743SOL    HW215129   0.819   5.342   0.797
 4744SOL     OW15130   1.703   5.369   1.744
 4744SOL    HW115131   1.628   5.327   1.692
 4744SOL    HW215132   1.772   5.404   1.680
 4745SOL     OW15133   1.505   3.240   0.017
 4745SOL    HW115134   1.438   3.205   6.971
 4745SOL    HW215135   1.476   3.331   0.048
 4746SOL     OW15136   5.793   5.563   4.350
 4746SOL    HW115137   5.771   5.661   4.351
 4746SOL    HW215138   5.784   5.526   4.442
 4747SOL     OW15139   4.132   0.665   1.139
 4747SOL    HW115140   4.162   0.719   1.060
 4747SOL    HW215141   4.045   0.620   1.116
 4748SOL     OW15142   1.957   6.660   3.280
 4748SOL    HW115143   1.943   6.561   3.286
 4748SOL    HW215144   1.917   6.694   3.195
 4749SOL     OW15145   2.305   1.220   1.070
 4749SOL    HW115146   2.246   1.300   1.086
 4749SOL    HW215147   2.339   1.222   0.976
 4750SOL     OW15148   5.200   3.429   6.720
 4750SOL    HW115149   5.241   3.422   6.629
 4750SOL    HW215150   5.102   3.413   6.714
 4751SOL     OW15151   4.251   1.608   2.650
 4751SOL    HW115152   4.186   1.669   2.605
 4751SOL    HW215153   4.230   1.513   2.625
 4752SOL     OW15154   5.784   0.282   6.900
 4752SOL    HW115155   5.828   0.200   6.862
 4752SOL    HW215156   5.685   0.269   6.900
 4753SOL     OW15157   2.895   5.490   5.098
 4753SOL    HW115158   2.821   5.538   5.145
 4753SOL    HW215159   2.864   5.398   5.073
 4754SOL     OW15160   5.692   4.746   0.575
 4754SOL    HW115161   5.717   4.840   0.597
 4754SOL    HW215162   5.740   4.683   0.637
 4755SOL     OW15163   0.269   1.031   1.587
 4755SOL    HW115164   0.235   1.125   1.585
 4755SOL    HW215165   0.216   0.975   1.523
 4756SOL     OW15166   7.011   3.954   5.109
 4756SOL    HW115167   7.002   3.862   5.070
 4756SOL    HW215168   7.019   4.021   5.036
 4757SOL     OW15169   2.110   3.284   0.915
 4757SOL    HW115170   2.040   3.254   0.850
 4757SOL    HW215171   2.190   3.223   0.908
 4758SOL     OW15172   1.989   5.100   2.121
 4758SOL    HW115173   2.029   5.191   2.134
 4758SOL    HW215174   2.003   5.046   2.204
 4759SOL     OW15175   0.605   6.697   2.966
 4759SOL    HW115176   0.652   6.726   2.883
 4759SOL    HW215177   0.558   6.775   3.008
 4760SOL     OW15178   1.232   6.758   2.260
 4760SOL    HW115179   1.280   6.712   2.186
 4760SOL    HW215180   1.290   6.831   2.296
 4761SOL     OW15181   4.295   6.463   2.264
 4761SOL    HW115182   4.393   6.463   2.285
 4761SOL    HW215183   4.245   6.416   2.337
 4762SOL     OW15184   1.068   1.157   2.297
 4762SOL    HW115185   1.049   1.210   2.379
 4762SOL    HW215186   0.988   1.159   2.236
 4763SOL     OW15187   5.288   5.254   1.549
 4763SOL    HW115188   5.369   5.310   1.560
 4763SOL    HW215189   5.255   5.261   1.454
 4764SOL     OW15190   4.915   2.917   6.858
 4764SOL    HW115191   4.850   2.850   6.895
 4764SOL    HW215192   4.892   2.936   6.763
 4765SOL     OW15193   3.613   1.408   5.579
 4765SOL    HW115194   3.532   1.465   5.595
 4765SOL    HW215195   3.589   1.312   5.591
 4766SOL     OW15196   1.175   0.466   3.756
 4766SOL    HW115197   1.077   0.451   3.768
 4766SOL    HW215198   1.201   0.440   3.663
 4767SOL     OW15199   2.586   4.566   3.437
 4767SOL    HW115200   2.647   4.636   3.400
 4767SOL    HW215201   2.562   4.501   3.365
 4768SOL     OW15202   4.486   2.164   6.194
 4768SOL    HW115203   4.418   2.093   6.210
 4768SOL    HW215204   4.528   2.191   6.281
 4769SOL     OW15205   2.980   3.309   0.932
 4769SOL    HW115206   2.971   3.333   0.836
 4769SOL    HW215207   2.933   3.377   0.988
 4770SOL     OW15208   6.914   1.764   3.898
 4770SOL    HW115209   6.996   1.801   3.855
 4770SOL    HW215210   6.882   1.684   3.847
 4771SOL     OW15211   3.057   1.011   4.609
 4771SOL    HW115212   3.136   0.983   4.554
 4771SOL    HW215213   3.033   1.106   4.586
 4772SOL     OW15214   2.482   4.974   2.949
 4772SOL    HW115215   2.474   5.048   3.016
 4772SOL    HW215216   2.518   5.012   2.863
 4773SOL     OW15217   2.873   5.747   4.222
 4773SOL    HW115218   2.869   5.845   4.244
 4773SOL    HW215219   2.958   5.728   4.172
 4774SOL     OW15220   1.098   4.749   0.348
 4774SOL    HW115221   1.172   4.696   0.390
 4774SOL    HW215222   1.038   4.784   0.420
 4775SOL     OW15223   5.460   4.882   4.215
 4775SOL    HW115224   5.532   4.948   4.236
 4775SOL    HW215225   5.371   4.929   4.218
 4776SOL     OW15226   6.666   1.677   4.628
 4776SOL    HW115227   6.697   1.673   4.724
 4776SOL    HW215228   6.746   1.681   4.568
 4777SOL     OW15229   1.341   6.315   3.469
 4777SOL    HW115230   1.438   6.296   3.488
 4777SOL    HW215231   1.330   6.411   3.445
 4778SOL     OW15232   1.764   0.115   0.454
 4778SOL    HW115233   1.669   0.107   0.486
 4778SOL    HW215234   1.766   0.164   0.367
 4779SOL     OW15235   4.839   1.718   4.295
 4779SOL    HW115236   4.770   1.715   4.222
 4779SOL    HW215237   4.833   1.635   4.350
 4780SOL     OW15238   5.072   2.830   4.985
 4780SOL    HW115239   4.975   2.840   4.964
 4780SOL    HW215240   5.116   2.920   4.984
 4781SOL     OW15241   2.539   5.207   2.164
 4781SOL    HW115242   2.452   5.202   2.116
 4781SOL    HW215243   2.578   5.115   2.173
 4782SOL     OW15244   1.314   6.601   3.409
 4782SOL    HW115245   1.409   6.630   3.400
 4782SOL    HW215246   1.274   6.641   3.492
 4783SOL     OW15247   0.802   4.276   6.618
 4783SOL    HW115248   0.742   4.317   6.687
 4783SOL    HW215249   0.897   4.284   6.647
 4784SOL     OW15250   5.935   2.865   0.062
 4784SOL    HW115251   5.922   2.771   0.094
 4784SOL    HW215252   5.849   2.900   0.025
 4785SOL     OW15253   0.022   1.200   4.043
 4785SOL    HW115254   0.001   1.258   4.122
 4785SOL    HW215255   0.119   1.209   4.020
 4786SOL     OW15256   1.820   5.950   0.154
 4786SOL    HW115257   1.725   5.948   0.122
 4786SOL    HW215258   1.825   5.999   0.241
 4787SOL     OW15259   4.758   0.929   5.019
 4787SOL    HW115260   4.848   0.951   4.980
 4787SOL    HW215261   4.728   1.003   5.079
 4788SOL     OW15262   6.555   6.315   0.939
 4788SOL    HW115263   6.655   6.317   0.946
 4788SOL    HW215264   6.528   6.249   0.869
 4789SOL     OW15265   6.287   1.262   2.154
 4789SOL    HW115266   6.301   1.313   2.238
 4789SOL    HW215267   6.363   1.279   2.091
 4790SOL     OW15268   0.399   2.763   5.821
 4790SOL    HW115269   0.377   2.712   5.904
 4790SOL    HW215270   0.470   2.715   5.770
 4791SOL     OW15271   0.887   0.489   6.542
 4791SOL    HW115272   0.820   0.528   6.478
 4791SOL    HW215273   0.838   0.446   6.617
 4792SOL     OW15274   0.338   3.683   1.339
 4792SOL    HW115275   0.406   3.754   1.321
 4792SOL    HW215276   0.340   3.659   1.436
 4793SOL     OW15277   0.823   3.239   5.161
 4793SOL    HW115278   0.904   3.296   5.149
 4793SOL    HW215279   0.850   3.143   5.162
 4794SOL     OW15280   5.205   1.428   6.475
 4794SOL    HW115281   5.245   1.486   6.546
 4794SOL    HW215282   5.273   1.408   6.405
 4795SOL     OW15283   6.830   6.889   0.087
 4795SOL    HW115284   6.751   6.893   0.148
 4795SOL    HW215285   6.822   6.810   0.026
 4796SOL     OW15286   5.943   0.994   5.901
 4796SOL    HW115287   5.931   1.079   5.849
 4796SOL    HW215288   5.858   0.973   5.949
 4797SOL     OW15289   3.013   4.902   5.494
 4797SOL    HW115290   3.110   4.875   5.495
 4797SOL    HW215291   2.992   4.952   5.577
 4798SOL     OW15292   3.296   5.682   0.190
 4798SOL    HW115293   3.260   5.686   0.283
 4798SOL    HW215294   3.252   5.607   0.140
 4799SOL     OW15295   4.443   4.051   1.162
 4799SOL    HW115296   4.438   3.956   1.194
 4799SOL    HW215297   4.504   4.103   1.221
 4800SOL     OW15298   0.987   5.037   0.290
 4800SOL    HW115299   0.942   4.976   0.356
 4800SOL    HW215300   1.079   5.057   0.322
 4801SOL     OW15301   4.900   3.562   3.518
 4801SOL    HW115302   4.904   3.577   3.617
 4801SOL    HW215303   4.832   3.624   3.478
 4802SOL     OW15304   6.866   0.746   5.188
 4802SOL    HW115305   6.911   0.792   5.111
 4802SOL    HW215306   6.889   0.794   5.273
 4803SOL     OW15307   5.557   3.342   5.481
 4803SOL    HW115308   5.573   3.428   5.433
 4803SOL    HW215309   5.586   3.266   5.424
 4804SOL     OW15310   5.473   3.012   1.155
 4804SOL    HW115311   5.433   3.097   1.122
 4804SOL    HW215312   5.514   2.962   1.079
 4805SOL     OW15313   5.981   0.819   6.361
 4805SOL    HW115314   6.061   0.861   6.404
 4805SOL    HW215315   6.002   0.794   6.267
 4806SOL     OW15316   1.585   3.101   3.799
 4806SOL    HW115317   1.552   3.048   3.721
 4806SOL    HW215318   1.679   3.132   3.781
 4807SOL     OW15319   1.318   3.837   0.871
 4807SOL    HW115320   1.364   3.904   0.812
 4807SOL    HW215321   1.219   3.843   0.857
 4808SOL     OW15322   3.176   6.522   3.091
 4808SOL    HW115323   3.111   6.528   3.016
 4808SOL    HW215324   3.189   6.613   3.131
 4809SOL     OW15325   2.599   4.008   0.333
 4809SOL    HW115326   2.617   4.103   0.357
 4809SOL    HW215327   2.683   3.965   0.300
 4810SOL     OW15328   1.884   5.229   4.864
 4810SOL    HW115329   1.875   5.284   4.948
 4810SOL    HW215330   1.806   5.167   4.857
 4811SOL     OW15331   3.047   3.127   4.667
 4811SOL    HW115332   3.020   3.085   4.580
 4811SOL    HW215333   2.998   3.213   4.678
 4812SOL     OW15334   2.288   6.466   1.487
 4812SOL    HW115335   2.356   6.426   1.426
 4812SOL    HW215336   2.321   6.461   1.582
 4813SOL     OW15337   1.162   2.618   4.990
 4813SOL    HW115338   1.207   2.707   4.983
 4813SOL    HW215339   1.155   2.577   4.899
 4814SOL     OW15340   4.507   1.155   0.513
 4814SOL    HW115341   4.550   1.166   0.423
 4814SOL    HW215342   4.539   1.069   0.555
 4815SOL     OW15343   6.795   4.252   2.995
 4815SOL    HW115344   6.885   4.240   3.037
 4815SOL    HW215345   6.746   4.165   2.997
 4816SOL     OW15346   2.395   0.641   2.742
 4816SOL    HW115347   2.483   0.594   2.743
 4816SOL    HW215348   2.398   0.716   2.676
 4817SOL     OW15349   4.143   2.979   0.370
 4817SOL    HW115350   4.225   2.999   0.317
 4817SOL    HW215351   4.082   3.059   0.369
 4818SOL     OW15352   4.781   6.379   5.364
 4818SOL    HW115353   4.699   6.324   5.355
 4818SOL    HW215354   4.861   6.319   5.375
 4819SOL     OW15355   3.035   0.892   0.444
 4819SOL    HW115356   3.048   0.793   0.456
 4819SOL    HW215357   3.046   0.937   0.533
 4820SOL     OW15358   0.569   4.787   1.542
 4820SOL    HW115359   0.610   4.728   1.612
 4820SOL    HW215360   0.490   4.833   1.581
 4821SOL     OW15361   6.690   5.943   1.159
 4821SOL    HW115362   6.685   5.882   1.238
 4821SOL    HW215363   6.779   5.988   1.158
 4822SOL     OW15364   0.238   3.760   1.744
 4822SOL    HW115365   0.319   3.745   1.689
 4822SOL    HW215366   0.196   3.672   1.767
 4823SOL     OW15367   0.120   1.938   2.664
 4823SOL    HW115368   0.072   1.923   2.750
 4823SOL    HW215369   0.165   1.853   2.636
 4824SOL     OW15370   4.725   2.060   2.660
 4824SOL    HW115371   4.774   2.135   2.615
 4824SOL    HW215372   4.791   1.991   2.689
 4825SOL     OW15373   1.905   3.699   4.605
 4825SOL    HW115374   1.854   3.709   4.690
 4825SOL    HW215375   1.842   3.699   4.528
 4826SOL     OW15376   0.488   6.213   0.498
 4826SOL    HW115377   0.457   6.180   0.410
 4826SOL    HW215378   0.426   6.181   0.570
 4827SOL     OW15379   4.900   0.993   0.126
 4827SOL    HW115380   4.835   1.061   0.094
 4827SOL    HW215381   4.987   1.003   0.078
 4828SOL     OW15382   6.124   2.767   6.595
 4828SOL    HW115383   6.199   2.778   6.661
 4828SOL    HW215384   6.111   2.670   6.575
 4829SOL     OW15385   2.593   0.540   5.981
 4829SOL    HW115386   2.609   0.441   5.975
 4829SOL    HW215387   2.522   0.558   6.048
 4830SOL     OW15388   4.559   4.615   4.437
 4830SOL    HW115389   4.611   4.596   4.521
 4830SOL    HW215390   4.606   4.684   4.383
 4831SOL     OW15391   6.503   2.109   6.394
 4831SOL    HW115392   6.593   2.128   6.354
 4831SOL    HW215393   6.478   2.014   6.377
 4832SOL     OW15394   1.321   2.613   6.468
 4832SOL    HW115395   1.416   2.614   6.497
 4832SOL    HW215396   1.263   2.645   6.543
 4833SOL     OW15397   6.592   2.946   2.446
 4833SOL    HW115398   6.665   3.014   2.457
 4833SOL    HW215399   6.616   2.882   2.373
 4834SOL     OW15400   5.615   0.525   2.724
 4834SOL    HW115401   5.631   0.613   2.769
 4834SOL    HW215402   5.529   0.486   2.756
 4835SOL     OW15403   2.119   1.653   6.185
 4835SOL    HW115404   2.100   1.629   6.090
 4835SOL    HW215405   2.077   1.741   6.206
 4836SOL     OW15406   5.794   4.670   3.578
 4836SOL    HW115407   5.802   4.620   3.664
 4836SOL    HW215408   5.733   4.621   3.516
 4837SOL     OW15409   0.266   4.885   1.604
 4837SOL    HW115410   0.295   4.938   1.684
 4837SOL    HW215411   0.224   4.946   1.537
 4838SOL     OW15412   2.696   6.036   2.401
 4838SOL    HW115413   2.611   6.015   2.449
 4838SOL    HW215414   2.693   6.131   2.369
 4839SOL     OW15415   0.720   6.862   6.242
 4839SOL    HW115416   0.750   6.793   6.308
 4839SOL    HW215417   0.651   6.921   6.285
 4840SOL     OW15418   6.577   5.352   5.712
 4840SOL    HW115419   6.537   5.261   5.723
 4840SOL    HW215420   6.656   5.346   5.652
 4841SOL     OW15421   1.886   5.403   1.540
 4841SOL    HW115422   1.853   5.490   1.503
 4841SOL    HW215423   1.985   5.405   1.546
 4842SOL     OW15424   3.352   6.837   0.578
 4842SOL    HW115425   3.339   6.782   0.495
 4842SOL    HW215426   3.336   6.779   0.658
 4843SOL     OW15427   1.753   4.082   0.612
 4843SOL    HW115428   1.665   4.058   0.571
 4843SOL    HW215429   1.815   4.004   0.608
 4844SOL     OW15430   0.325   1.196   5.268
 4844SOL    HW115431   0.324   1.119   5.204
 4844SOL    HW215432   0.233   1.234   5.276
 4845SOL     OW15433   5.876   0.006   3.293
 4845SOL    HW115434   5.975   7.010   3.291
 4845SOL    HW215435   5.857   0.096   3.254
 4846SOL     OW15436   6.518   4.413   5.743
 4846SOL    HW115437   6.491   4.496   5.693
 4846SOL    HW215438   6.591   4.367   5.693
 4847SOL     OW15439   5.123   3.216   4.738
 4847SOL    HW115440   5.055   3.149   4.708
 4847SOL    HW215441   5.213   3.191   4.703
 4848SOL     OW15442   3.040   3.710   1.193
 4848SOL    HW115443   3.063   3.757   1.278
 4848SOL    HW215444   3.102   3.740   1.120
 4849SOL     OW15445   2.232   6.214   6.359
 4849SOL    HW115446   2.160   6.144   6.356
 4849SOL    HW215447   2.282   6.205   6.445
 4850SOL     OW15448   3.407   6.726   2.897
 4850SOL    HW115449   3.308   6.724   2.878
 4850SOL    HW215450   3.435   6.820   2.918
 4851SOL     OW15451   4.853   1.341   5.559
 4851SOL    HW115452   4.812   1.320   5.648
 4851SOL    HW215453   4.949   1.313   5.560
 4852SOL     OW15454   1.253   1.979   1.674
 4852SOL    HW115455   1.332   1.919   1.662
 4852SOL    HW215456   1.221   2.011   1.584
 4853SOL     OW15457   3.541   0.850   1.645
 4853SOL    HW115458   3.630   0.895   1.652
 4853SOL    HW215459   3.536   0.777   1.714
 4854SOL     OW15460   4.055   6.753   5.820
 4854SOL    HW115461   4.080   6.656   5.820
 4854SOL    HW215462   3.991   6.771   5.896
 4855SOL     OW15463   0.586   2.902   2.501
 4855SOL    HW115464   0.608   2.994   2.469
 4855SOL    HW215465   0.642   2.835   2.452
 4856SOL     OW15466   0.223   4.721   2.796
 4856SOL    HW115467   0.191   4.664   2.722
 4856SOL    HW215468   0.165   4.708   2.877
 4857SOL     OW15469   0.138   1.099   5.518
 4857SOL    HW115470   0.160   1.077   5.612
 4857SOL    HW215471   0.065   1.038   5.486
 4858SOL     OW15472   1.443   0.499   3.679
 4858SOL    HW115473   1.374   0.497   3.751
 4858SOL    HW215474   1.478   0.592   3.668
 4859SOL     OW15475   3.358   6.492   6.051
 4859SOL    HW115476   3.438   6.437   6.027
 4859SOL    HW215477   3.305   6.445   6.122
 4860SOL     OW15478   3.218   5.108   0.525
 4860SOL    HW115479   3.151   5.166   0.480
 4860SOL    HW215480   3.181   5.015   0.533
 4861SOL     OW15481   4.152   4.202   6.248
 4861SOL    HW115482   4.061   4.171   6.275
 4861SOL    HW215483   4.211   4.123   6.232
 4862SOL     OW15484   2.186   0.058   0.428
 4862SOL    HW115485   2.201   0.157   0.424
 4862SOL    HW215486   2.129   0.030   0.351
 4863SOL     OW15487   5.629   3.870   5.953
 4863SOL    HW115488   5.637   3.928   6.035
 4863SOL    HW215489   5.573   3.791   5.974
 4864SOL     OW15490   3.282   0.991   4.139
 4864SOL    HW115491   3.231   0.979   4.054
 4864SOL    HW215492   3.367   1.040   4.121
 4865SOL     OW15493   1.280   6.303   4.975
 4865SOL    HW115494   1.344   6.367   5.018
 4865SOL    HW215495   1.331   6.235   4.921
 4866SOL     OW15496   6.818   4.054   5.685
 4866SOL    HW115497   6.797   3.958   5.707
 4866SOL    HW215498   6.885   4.089   5.750
 4867SOL     OW15499   3.774   0.743   3.092
 4867SOL    HW115500   3.851   0.767   3.033
 4867SOL    HW215501   3.803   0.675   3.159
 4868SOL     OW15502   0.521   5.580   1.317
 4868SOL    HW115503   0.548   5.637   1.239
 4868SOL    HW215504   0.565   5.615   1.400
 4869SOL     OW15505   6.980   1.435   0.820
 4869SOL    HW115506   0.020   1.362   0.853
 4869SOL    HW215507   0.006   1.524   0.833
 4870SOL     OW15508   0.800   0.370   1.275
 4870SOL    HW115509   0.796   0.295   1.341
 4870SOL    HW215510   0.708   0.408   1.262
 4871SOL     OW15511   0.338   2.224   4.163
 4871SOL    HW115512   0.369   2.239   4.257
 4871SOL    HW215513   0.300   2.132   4.155
 4872SOL     OW15514   5.823   0.273   3.184
 4872SOL    HW115515   5.745   0.335   3.175
 4872SOL    HW215516   5.877   0.298   3.264
 4873SOL     OW15517   0.212   5.825   3.770
 4873SOL    HW115518   0.220   5.732   3.807
 4873SOL    HW215519   0.156   5.881   3.832
 4874SOL     OW15520   6.238   4.567   2.236
 4874SOL    HW115521   6.217   4.655   2.278
 4874SOL    HW215522   6.248   4.497   2.307
 4875SOL     OW15523   6.768   6.550   4.172
 4875SOL    HW115524   6.792   6.624   4.234
 4875SOL    HW215525   6.697   6.493   4.213
 4876SOL     OW15526   6.419   1.644   2.286
 4876SOL    HW115527   6.457   1.717   2.344
 4876SOL    HW215528   6.409   1.679   2.193
 4877SOL     OW15529   0.533   1.675   0.140
 4877SOL    HW115530   0.479   1.607   0.190
 4877SOL    HW215531   0.556   1.640   0.050
 4878SOL     OW15532   5.508   4.561   3.747
 4878SOL    HW115533   5.494   4.623   3.670
 4878SOL    HW215534   5.573   4.602   3.811
 4879SOL     OW15535   6.145   0.874   3.135
 4879SOL    HW115536   6.166   0.823   3.051
 4879SOL    HW215537   6.158   0.972   3.118
 4880SOL     OW15538   0.046   3.098   6.183
 4880SOL    HW115539   0.057   3.131   6.277
 4880SOL    HW215540   0.004   3.008   6.184
 4881SOL     OW15541   7.008   3.858   1.875
 4881SOL    HW115542   0.072   3.873   1.928
 4881SOL    HW215543   0.011   3.812   1.789
 4882SOL     OW15544   4.985   2.336   4.535
 4882SOL    HW115545   5.085   2.332   4.537
 4882SOL    HW215546   4.949   2.244   4.521
 4883SOL     OW15547   6.986   4.222   6.109
 4883SOL    HW115548   0.042   4.217   6.174
 4883SOL    HW215549   6.917   4.155   6.133
 4884SOL     OW15550   1.438   2.255   2.024
 4884SOL    HW115551   1.479   2.245   1.933
 4884SOL    HW215552   1.448   2.169   2.074
 4885SOL     OW15553   0.962   5.741   6.720
 4885SOL    HW115554   0.947   5.763   6.816
 4885SOL    HW215555   0.972   5.826   6.668
 4886SOL     OW15556   3.348   1.090   2.227
 4886SOL    HW115557   3.408   1.133   2.159
 4886SOL    HW215558   3.399   1.078   2.312
 4887SOL     OW15559   4.843   5.390   0.457
 4887SOL    HW115560   4.837   5.398   0.556
 4887SOL    HW215561   4.780   5.319   0.426
 4888SOL     OW15562   4.577   6.944   2.832
 4888SOL    HW115563   4.666   6.961   2.790
 4888SOL    HW215564   4.565   7.004   2.911
 4889SOL     OW15565   5.153   3.457   3.710
 4889SOL    HW115566   5.074   3.517   3.717
 4889SOL    HW215567   5.125   3.369   3.672
 4890SOL     OW15568   6.453   2.272   4.542
 4890SOL    HW115569   6.367   2.261   4.493
 4890SOL    HW215570   6.512   2.336   4.492
 4891SOL     OW15571   2.622   5.426   0.126
 4891SOL    HW115572   2.673   5.492   0.181
 4891SOL    HW215573   2.634   5.334   0.164
 4892SOL     OW15574   5.041   4.928   1.894
 4892SOL    HW115575   4.972   4.869   1.936
 4892SOL    HW215576   5.067   4.889   1.805
 4893SOL     OW15577   2.214   2.524   1.331
 4893SOL    HW115578   2.263   2.482   1.406
 4893SOL    HW215579   2.170   2.453   1.275
 4894SOL     OW15580   5.047   6.372   0.320
 4894SOL    HW115581   5.102   6.307   0.267
 4894SOL    HW215582   4.978   6.414   0.260
 4895SOL     OW15583   6.233   3.239   4.968
 4895SOL    HW115584   6.300   3.171   5.000
 4895SOL    HW215585   6.144   3.195   4.958
 4896SOL     OW15586   2.762   5.042   4.874
 4896SOL    HW115587   2.752   5.081   4.966
 4896SOL    HW215588   2.712   5.098   4.809
 4897SOL     OW15589   2.494   1.997   5.930
 4897SOL    HW115590   2.458   2.085   5.899
 4897SOL    HW215591   2.563   1.964   5.865
 4898SOL     OW15592   4.186   2.263   3.452
 4898SOL    HW115593   4.208   2.166   3.465
 4898SOL    HW215594   4.196   2.312   3.538
 4899SOL     OW15595   6.413   6.236   1.376
 4899SOL    HW115596   6.314   6.247   1.388
 4899SOL    HW215597   6.430   6.157   1.316
 4900SOL     OW15598   3.770   5.483   6.329
 4900SOL    HW115599   3.835   5.429   6.382
 4900SOL    HW215600   3.677   5.452   6.348
 4901SOL     OW15601   1.851   0.575   6.695
 4901SOL    HW115602   1.949   0.568   6.676
 4901SOL    HW215603   1.817   0.487   6.728
 4902SOL     OW15604   2.037   0.236   5.829
 4902SOL    HW115605   2.060   0.253   5.734
 4902SOL    HW215606   1.955   0.289   5.853
 4903SOL     OW15607   4.819   3.864   2.351
 4903SOL    HW115608   4.777   3.840   2.263
 4903SOL    HW215609   4.895   3.927   2.335
 4904SOL     OW15610   2.354   0.752   2.213
 4904SOL    HW115611   2.311   0.842   2.204
 4904SOL    HW215612   2.412   0.735   2.134
 4905SOL     OW15613   2.608   1.826   1.806
 4905SOL    HW115614   2.575   1.919   1.820
 4905SOL    HW215615   2.630   1.812   1.710
 4906SOL     OW15616   5.222   3.062   4.964
 4906SOL    HW115617   5.204   3.133   4.896
 4906SOL    HW215618   5.303   3.009   4.937
 4907SOL     OW15619   4.109   2.806   0.994
 4907SOL    HW115620   4.195   2.855   0.982
 4907SOL    HW215621   4.129   2.711   1.018
 4908SOL     OW15622   2.546   6.402   6.275
 4908SOL    HW115623   2.621   6.380   6.337
 4908SOL    HW215624   2.488   6.321   6.262
 4909SOL     OW15625   4.828   6.278   4.644
 4909SOL    HW115626   4.830   6.202   4.580
 4909SOL    HW215627   4.796   6.245   4.733
 4910SOL     OW15628   4.724   1.989   6.600
 4910SOL    HW115629   4.713   2.087   6.581
 4910SOL    HW215630   4.699   1.970   6.695
 4911SOL     OW15631   6.718   4.337   3.398
 4911SOL    HW115632   6.803   4.382   3.370
 4911SOL    HW215633   6.640   4.389   3.362
 4912SOL     OW15634   5.739   3.057   4.153
 4912SOL    HW115635   5.831   3.019   4.162
 4912SOL    HW215636   5.742   3.156   4.160
 4913SOL     OW15637   0.973   3.964   5.840
 4913SOL    HW115638   0.964   3.918   5.752
 4913SOL    HW215639   1.069   3.987   5.856
 4914SOL     OW15640   3.206   6.992   4.183
 4914SOL    HW115641   3.295   6.981   4.227
 4914SOL    HW215642   3.147   6.916   4.208
 4915SOL     OW15643   4.591   5.808   5.227
 4915SOL    HW115644   4.539   5.789   5.309
 4915SOL    HW215645   4.567   5.743   5.155
 4916SOL     OW15646   5.457   2.668   3.650
 4916SOL    HW115647   5.427   2.738   3.715
 4916SOL    HW215648   5.411   2.581   3.671
 4917SOL     OW15649   4.893   6.669   6.761
 4917SOL    HW115650   4.972   6.699   6.708
 4917SOL    HW215651   4.880   6.729   6.840
 4918SOL     OW15652   5.160   6.026   3.865
 4918SOL    HW115653   5.151   6.116   3.909
 4918SOL    HW215654   5.069   5.989   3.847
 4919SOL     OW15655   4.221   4.021   1.691
 4919SOL    HW115656   4.286   3.977   1.629
 4919SOL    HW215657   4.270   4.082   1.753
 4920SOL     OW15658   6.210   1.006   5.544
 4920SOL    HW115659   6.220   0.929   5.607
 4920SOL    HW215660   6.272   0.995   5.467
 4921SOL     OW15661   6.407   0.343   2.279
 4921SOL    HW115662   6.471   0.267   2.270
 4921SOL    HW215663   6.353   0.331   2.363
 4922SOL     OW15664   3.713   0.303   6.371
 4922SOL    HW115665   3.789   0.268   6.426
 4922SOL    HW215666   3.749   0.343   6.287
 4923SOL     OW15667   4.077   1.487   2.090
 4923SOL    HW115668   4.169   1.491   2.050
 4923SOL    HW215669   4.079   1.524   2.182
 4924SOL     OW15670   2.746   1.420   5.335
 4924SOL    HW115671   2.794   1.332   5.338
 4924SOL    HW215672   2.752   1.458   5.243
 4925SOL     OW15673   5.293   0.070   3.641
 4925SOL    HW115674   5.195   0.073   3.619
 4925SOL    HW215675   5.323   0.161   3.669
 4926SOL     OW15676   4.680   2.723   2.084
 4926SOL    HW115677   4.765   2.691   2.125
 4926SOL    HW215678   4.683   2.823   2.074
 4927SOL     OW15679   2.306   1.628   0.558
 4927SOL    HW115680   2.216   1.584   0.553
 4927SOL    HW215681   2.376   1.559   0.578
 4928SOL     OW15682   0.634   1.613   0.931
 4928SOL    HW115683   0.667   1.701   0.897
 4928SOL    HW215684   0.631   1.547   0.855
 4929SOL     OW15685   6.284   0.236   4.960
 4929SOL    HW115686   6.295   0.310   4.893
 4929SOL    HW215687   6.290   0.274   5.052
 4930SOL     OW15688   4.925   5.914   2.658
 4930SOL    HW115689   4.838   5.962   2.672
 4930SOL    HW215690   4.906   5.818   2.635
 4931SOL     OW15691   4.847   0.130   1.526
 4931SOL    HW115692   4.776   0.091   1.468
 4931SOL    HW215693   4.867   0.067   1.601
 4932SOL     OW15694   3.107   4.018   3.279
 4932SOL    HW115695   3.038   3.945   3.275
 4932SOL    HW215696   3.154   4.024   3.191
 4933SOL     OW15697   1.583   0.444   5.412
 4933SOL    HW115698   1.614   0.537   5.392
 4933SOL    HW215699   1.662   0.382   5.412
 4934SOL     OW15700   2.272   0.123   3.393
 4934SOL    HW115701   2.296   0.216   3.417
 4934SOL    HW215702   2.348   0.080   3.344
 4935SOL     OW15703   6.139   0.257   4.538
 4935SOL    HW115704   6.203   0.306   4.479
 4935SOL    HW215705   6.060   0.314   4.556
 4936SOL     OW15706   5.060   3.342   0.460
 4936SOL    HW115707   5.069   3.244   0.442
 4936SOL    HW215708   5.045   3.390   0.373
 4937SOL     OW15709   3.765   2.688   5.348
 4937SOL    HW115710   3.822   2.739   5.284
 4937SOL    HW215711   3.737   2.748   5.423
 4938SOL     OW15712   3.011   4.734   6.855
 4938SOL    HW115713   3.083   4.675   6.893
 4938SOL    HW215714   2.949   4.679   6.798
 4939SOL     OW15715   5.016   3.472   6.350
 4939SOL    HW115716   4.989   3.394   6.294
 4939SOL    HW215717   5.101   3.452   6.398
 4940SOL     OW15718   1.412   5.711   3.653
 4940SOL    HW115719   1.380   5.643   3.720
 4940SOL    HW215720   1.442   5.664   3.570
 4941SOL     OW15721   6.245   0.541   0.572
 4941SOL    HW115722   6.339   0.518   0.549
 4941SOL    HW215723   6.204   0.468   0.626
 4942SOL     OW15724   5.336   2.901   5.578
 4942SOL    HW115725   5.303   2.826   5.635
 4942SOL    HW215726   5.401   2.865   5.511
 4943SOL     OW15727   6.176   3.623   1.469
 4943SOL    HW115728   6.094   3.670   1.438
 4943SOL    HW215729   6.187   3.537   1.418
 4944SOL     OW15730   1.761   3.058   1.762
 4944SOL    HW115731   1.743   3.155   1.781
 4944SOL    HW215732   1.830   3.051   1.690
 4945SOL     OW15733   0.178   5.665   4.086
 4945SOL    HW115734   0.261   5.610   4.077
 4945SOL    HW215735   0.118   5.624   4.154
 4946SOL     OW15736   0.414   4.624   2.128
 4946SOL    HW115737   0.457   4.596   2.215
 4946SOL    HW215738   0.318   4.646   2.144
 4947SOL     OW15739   5.534   0.728   0.577
 4947SOL    HW115740   5.577   0.673   0.505
 4947SOL    HW215741   5.512   0.819   0.541
 4948SOL     OW15742   2.831   1.521   1.922
 4948SOL    HW115743   2.832   1.619   1.943
 4948SOL    HW215744   2.890   1.472   1.986
 4949SOL     OW15745   5.389   2.271   5.962
 4949SOL    HW115746   5.488   2.262   5.967
 4949SOL    HW215747   5.363   2.366   5.979
 4950SOL     OW15748   3.197   5.348   4.085
 4950SOL    HW115749   3.185   5.296   4.001
 4950SOL    HW215750   3.234   5.289   4.156
 4951SOL     OW15751   4.588   2.478   3.899
 4951SOL    HW115752   4.619   2.395   3.854
 4951SOL    HW215753   4.603   2.556   3.839
 4952SOL     OW15754   6.675   5.057   4.007
 4952SOL    HW115755   6.590   5.102   3.980
 4952SOL    HW215756   6.672   5.037   4.105
 4953SOL     OW15757   0.896   4.668   1.974
 4953SOL    HW115758   0.834   4.705   2.043
 4953SOL    HW215759   0.889   4.568   1.973
 4954SOL     OW15760   6.937   6.597   6.229
 4954SOL    HW115761   6.991   6.540   6.291
 4954SOL    HW215762   6.950   6.565   6.135
 4955SOL     OW15763   1.499   0.386   2.006
 4955SOL    HW115764   1.529   0.476   1.974
 4955SOL    HW215765   1.551   0.315   1.959
 4956SOL     OW15766   6.044   6.581   3.286
 4956SOL    HW115767   5.985   6.628   3.350
 4956SOL    HW215768   5.991   6.553   3.206
 4957SOL     OW15769   1.082   5.032   4.414
 4957SOL    HW115770   1.081   5.121   4.368
 4957SOL    HW215771   1.020   4.970   4.367
 4958SOL     OW15772   7.002   6.670   7.006
 4958SOL    HW115773   0.060   6.725   0.017
 4958SOL    HW215774   6.968   6.615   0.062
 4959SOL     OW15775   1.323   1.830   0.400
 4959SOL    HW115776   1.226   1.808   0.407
 4959SOL    HW215777   1.375   1.746   0.386
 4960SOL     OW15778   3.481   6.760   5.493
 4960SOL    HW115779   3.395   6.777   5.445
 4960SOL    HW215780   3.547   6.832   5.469
 4961SOL     OW15781   5.120   0.066   5.279
 4961SOL    HW115782   5.204   0.120   5.270
 4961SOL    HW215783   5.051   0.100   5.215
 4962SOL     OW15784   6.586   2.304   2.569
 4962SOL    HW115785   6.558   2.266   2.658
 4962SOL    HW215786   6.505   2.323   2.514
 4963SOL     OW15787   1.272   4.461   1.437
 4963SOL    HW115788   1.283   4.369   1.399
 4963SOL    HW215789   1.351   4.482   1.495
 4964SOL     OW15790   3.385   0.561   3.005
 4964SOL    HW115791   3.446   0.594   2.933
 4964SOL    HW215792   3.412   0.469   3.032
 4965SOL     OW15793   0.245   5.496   5.537
 4965SOL    HW115794   0.295   5.516   5.453
 4965SOL    HW215795   0.262   5.568   5.604
 4966SOL     OW15796   5.104   5.664   4.940
 4966SOL    HW115797   5.066   5.704   5.024
 4966SOL    HW215798   5.172   5.727   4.902
 4967SOL     OW15799   5.484   0.700   0.197
 4967SOL    HW115800   5.559   0.696   0.132
 4967SOL    HW215801   5.397   0.708   0.148
 4968SOL     OW15802   5.356   4.020   6.398
 4968SOL    HW115803   5.418   4.051   6.325
 4968SOL    HW215804   5.334   4.097   6.458
 4969SOL     OW15805   0.950   1.250   1.240
 4969SOL    HW115806   1.014   1.289   1.306
 4969SOL    HW215807   0.859   1.289   1.254
 4970SOL     OW15808   1.869   1.915   6.491
 4970SOL    HW115809   1.936   1.878   6.556
 4970SOL    HW215810   1.788   1.858   6.492
 4971SOL     OW15811   6.590   5.457   3.428
 4971SOL    HW115812   6.631   5.518   3.496
 4971SOL    HW215813   6.649   5.453   3.348
 4972SOL     OW15814   1.839   2.585   4.666
 4972SOL    HW115815   1.862   2.648   4.740
 4972SOL    HW215816   1.742   2.593   4.644
 4973SOL     OW15817   4.928   5.448   3.088
 4973SOL    HW115818   4.927   5.544   3.058
 4973SOL    HW215819   4.939   5.445   3.187
 4974SOL     OW15820   3.865   6.621   6.369
 4974SOL    HW115821   3.768   6.635   6.349
 4974SOL    HW215822   3.876   6.533   6.416
 4975SOL     OW15823   4.017   6.129   7.008
 4975SOL    HW115824   3.992   6.034   0.004
 4975SOL    HW215825   4.084   6.157   0.056
 4976SOL     OW15826   2.457   1.233   5.030
 4976SOL    HW115827   2.426   1.173   4.956
 4976SOL    HW215828   2.378   1.266   5.082
 4977SOL     OW15829   4.079   3.533   2.092
 4977SOL    HW115830   4.131   3.507   2.011
 4977SOL    HW215831   4.020   3.611   2.070
 4978SOL     OW15832   6.062   3.851   6.324
 4978SOL    HW115833   6.148   3.839   6.273
 4978SOL    HW215834   5.990   3.798   6.280
 4979SOL     OW15835   1.362   1.907   3.825
 4979SOL    HW115836   1.358   1.834   3.893
 4979SOL    HW215837   1.272   1.918   3.782
 4980SOL     OW15838   2.292   4.829   2.809
 4980SOL    HW115839   2.364   4.861   2.870
 4980SOL    HW215840   2.290   4.729   2.809
 4981SOL     OW15841   5.572   5.893   4.848
 4981SOL    HW115842   5.641   5.861   4.784
 4981SOL    HW215843   5.611   5.963   4.907
 4982SOL     OW15844   2.773   1.115   6.998
 4982SOL    HW115845   2.815   1.163   0.055
 4982SOL    HW215846   2.700   1.055   0.012
 4983SOL     OW15847   6.689   2.045   4.157
 4983SOL    HW115848   6.625   2.034   4.081
 4983SOL    HW215849   6.647   2.010   4.241
 4984SOL     OW15850   5.029   5.085   3.427
 4984SOL    HW115851   5.040   5.128   3.516
 4984SOL    HW215852   4.935   5.052   3.418
 4985SOL     OW15853   5.948   3.747   1.369
 4985SOL    HW115854   5.966   3.840   1.335
 4985SOL    HW215855   5.863   3.747   1.421
 4986SOL     OW15856   3.914   4.928   3.548
 4986SOL    HW115857   3.942   5.024   3.553
 4986SOL    HW215858   3.865   4.912   3.462
 4987SOL     OW15859   1.134   2.544   6.985
 4987SOL    HW115860   1.146   2.446   6.968
 4987SOL    HW215861   1.036   2.563   6.998
 4988SOL     OW15862   2.522   1.940   4.830
 4988SOL    HW115863   2.550   2.008   4.897
 4988SOL    HW215864   2.547   1.849   4.863
 4989SOL     OW15865   0.180   0.738   1.268
 4989SOL    HW115866   0.177   0.827   1.314
 4989SOL    HW215867   0.114   0.676   1.312
 4990SOL     OW15868   2.156   2.409   6.971
 4990SOL    HW115869   2.249   2.376   6.955
 4990SOL    HW215870   2.092   2.332   6.968
 4991SOL     OW15871   2.546   1.661   5.846
 4991SOL    HW115872   2.487   1.683   5.924
 4991SOL    HW215873   2.642   1.664   5.875
 4992SOL     OW15874   3.976   0.013   4.451
 4992SOL    HW115875   3.931   0.102   4.456
 4992SOL    HW215876   4.074   0.027   4.436
 4993SOL     OW15877   1.535   6.645   4.908
 4993SOL    HW115878   1.616   6.663   4.853
 4993SOL    HW215879   1.457   6.697   4.872
 4994SOL     OW15880   0.106   5.629   3.361
 4994SOL    HW115881   0.144   5.541   3.330
 4994SOL    HW215882   0.036   5.612   3.430
 4995SOL     OW15883   5.470   2.621   5.225
 4995SOL    HW115884   5.442   2.525   5.219
 4995SOL    HW215885   5.390   2.679   5.213
 4996SOL     OW15886   0.654   2.226   4.080
 4996SOL    HW115887   0.702   2.302   4.036
 4996SOL    HW215888   0.556   2.246   4.083
 4997SOL     OW15889   0.426   2.244   3.687
 4997SOL    HW115890   0.382   2.281   3.768
 4997SOL    HW215891   0.430   2.314   3.616
 4998SOL     OW15892   1.384   5.812   5.684
 4998SOL    HW115893   1.332   5.745   5.631
 4998SOL    HW215894   1.400   5.894   5.629
 4999SOL     OW15895   6.009   5.172   0.904
 4999SOL    HW115896   5.968   5.263   0.912
 4999SOL    HW215897   6.093   5.168   0.959
 5000SOL     OW15898   6.301   5.442   3.791
 5000SOL    HW115899   6.400   5.443   3.804
 5000SOL    HW215900   6.255   5.474   3.874
 5001SOL     OW15901   4.999   3.600   5.488
 5001SOL    HW115902   4.913   3.548   5.487
 5001SOL    HW215903   5.045   3.585   5.575
 5002SOL     OW15904   1.205   2.321   1.586
 5002SOL    HW115905   1.285   2.316   1.645
 5002SOL    HW215906   1.199   2.237   1.531
 5003SOL     OW15907   6.487   5.755   4.507
 5003SOL    HW115908   6.391   5.780   4.514
 5003SOL    HW215909   6.543   5.823   4.555
 5004SOL     OW15910   2.177   4.699   5.853
 5004SOL    HW115911   2.228   4.614   5.840
 5004SOL    HW215912   2.094   4.696   5.797
 5005SOL     OW15913   5.179   2.263   6.896
 5005SOL    HW115914   5.192   2.257   6.995
 5005SOL    HW215915   5.129   2.182   6.864
 5006SOL     OW15916   4.237   5.515   1.821
 5006SOL    HW115917   4.302   5.490   1.750
 5006SOL    HW215918   4.286   5.550   1.900
 5007SOL     OW15919   3.874   1.035   4.528
 5007SOL    HW115920   3.973   1.032   4.514
 5007SOL    HW215921   3.850   1.121   4.573
 5008SOL     OW15922   6.101   1.872   4.119
 5008SOL    HW115923   6.037   1.938   4.158
 5008SOL    HW215924   6.107   1.886   4.020
 5009SOL     OW15925   2.530   6.590   2.088
 5009SOL    HW115926   2.493   6.543   2.168
 5009SOL    HW215927   2.581   6.525   2.033
 5010SOL     OW15928   3.577   3.806   5.895
 5010SOL    HW115929   3.527   3.887   5.926
 5010SOL    HW215930   3.513   3.739   5.859
 5011SOL     OW15931   1.396   1.689   4.597
 5011SOL    HW115932   1.449   1.668   4.679
 5011SOL    HW215933   1.398   1.788   4.580
 5012SOL     OW15934   6.356   2.439   6.916
 5012SOL    HW115935   6.258   2.422   6.916
 5012SOL    HW215936   6.373   2.538   6.912
 5013SOL     OW15937   4.727   1.387   5.240
 5013SOL    HW115938   4.776   1.340   5.313
 5013SOL    HW215939   4.793   1.424   5.174
 5014SOL     OW15940   0.542   4.529   6.427
 5014SOL    HW115941   0.494   4.579   6.355
 5014SOL    HW215942   0.620   4.582   6.459
 5015SOL     OW15943   4.632   2.063   4.149
 5015SOL    HW115944   4.636   2.030   4.243
 5015SOL    HW215945   4.620   2.162   4.148
 5016SOL     OW15946   2.618   5.791   1.869
 5016SOL    HW115947   2.669   5.780   1.954
 5016SOL    HW215948   2.682   5.789   1.792
 5017SOL     OW15949   7.011   2.174   1.257
 5017SOL    HW115950   0.054   2.251   1.257
 5017SOL    HW215951   6.929   2.198   1.309
 5018SOL     OW15952   6.519   5.357   4.127
 5018SOL    HW115953   6.506   5.441   4.075
 5018SOL    HW215954   6.505   5.278   4.068
 5019SOL     OW15955   2.561   5.483   4.800
 5019SOL    HW115956   2.586   5.569   4.845
 5019SOL    HW215957   2.540   5.413   4.868
 5020SOL     OW15958   4.500   5.457   6.975
 5020SOL    HW115959   4.497   5.551   6.940
 5020SOL    HW215960   4.510   5.458   0.054
 5021SOL     OW15961   2.531   4.580   5.661
 5021SOL    HW115962   2.625   4.599   5.634
 5021SOL    HW215963   2.515   4.481   5.661
 5022SOL     OW15964   1.764   2.866   6.473
 5022SOL    HW115965   1.700   2.901   6.404
 5022SOL    HW215966   1.858   2.886   6.445
 5023SOL     OW15967   6.291   3.346   3.805
 5023SOL    HW115968   6.239   3.272   3.848
 5023SOL    HW215969   6.383   3.349   3.843
 5024SOL     OW15970   4.866   3.865   5.142
 5024SOL    HW115971   4.843   3.787   5.083
 5024SOL    HW215972   4.786   3.926   5.149
 5025SOL     OW15973   5.629   0.279   5.061
 5025SOL    HW115974   5.709   0.319   5.017
 5025SOL    HW215975   5.550   0.339   5.047
 5026SOL     OW15976   1.032   5.655   2.478
 5026SOL    HW115977   1.000   5.742   2.515
 5026SOL    HW215978   1.083   5.671   2.393
 5027SOL     OW15979   1.246   5.428   3.441
 5027SOL    HW115980   1.242   5.498   3.513
 5027SOL    HW215981   1.258   5.338   3.483
 5028SOL     OW15982   1.068   6.471   2.660
 5028SOL    HW115983   1.097   6.516   2.575
 5028SOL    HW215984   1.072   6.536   2.735
 5029SOL     OW15985   5.536   0.408   4.480
 5029SOL    HW115986   5.576   0.462   4.406
 5029SOL    HW215987   5.519   0.314   4.447
 5030SOL     OW15988   1.295   5.952   0.485
 5030SOL    HW115989   1.320   5.876   0.545
 5030SOL    HW215990   1.256   6.026   0.540
 5031SOL     OW15991   5.244   0.724   0.061
 5031SOL    HW115992   5.179   0.669   0.008
 5031SOL    HW215993   5.219   0.821   0.053
 5032SOL     OW15994   1.889   5.502   2.535
 5032SOL    HW115995   1.841   5.590   2.535
 5032SOL    HW215996   1.870   5.455   2.449
 5033SOL     OW15997   1.155   4.309   4.747
 5033SOL    HW115998   1.115   4.293   4.837
 5033SOL    HW215999   1.145   4.226   4.691
 5034SOL     OW16000   0.967   2.739   5.876
 5034SOL    HW116001   0.964   2.802   5.953
 5034SOL    HW216002   1.048   2.681   5.883
 5035SOL     OW16003   6.464   5.229   0.800
 5035SOL    HW116004   6.464   5.146   0.744
 5035SOL    HW216005   6.382   5.283   0.779
 5036SOL     OW16006   1.318   1.559   2.915
 5036SOL    HW116007   1.409   1.594   2.936
 5036SOL    HW216008   1.250   1.632   2.930
 5037SOL     OW16009   5.333   3.873   1.184
 5037SOL    HW116010   5.356   3.932   1.107
 5037SOL    HW216011   5.389   3.897   1.263
 5038SOL     OW16012   2.948   5.855   5.528
 5038SOL    HW116013   3.031   5.799   5.519
 5038SOL    HW216014   2.871   5.808   5.484
 5039SOL     OW16015   0.701   2.946   3.689
 5039SOL    HW116016   0.613   2.930   3.733
 5039SOL    HW216017   0.758   3.004   3.747
 5040SOL     OW16018   2.434   3.342   6.710
 5040SOL    HW116019   2.476   3.255   6.685
 5040SOL    HW216020   2.335   3.330   6.721
 5041SOL     OW16021   0.437   5.785   0.086
 5041SOL    HW116022   0.527   5.822   0.107
 5041SOL    HW216023   0.434   5.688   0.111
 5042SOL     OW16024   5.905   1.175   6.633
 5042SOL    HW116025   5.806   1.165   6.623
 5042SOL    HW216026   5.925   1.257   6.687
 5043SOL     OW16027   5.600   6.463   3.982
 5043SOL    HW116028   5.563   6.437   4.071
 5043SOL    HW216029   5.688   6.509   3.995
 5044SOL     OW16030   6.522   4.264   2.027
 5044SOL    HW116031   6.496   4.360   2.021
 5044SOL    HW216032   6.491   4.225   2.113
 5045SOL     OW16033   4.619   2.959   5.538
 5045SOL    HW116034   4.639   3.057   5.547
 5045SOL    HW216035   4.575   2.927   5.622
 5046SOL     OW16036   3.675   2.778   5.939
 5046SOL    HW116037   3.719   2.690   5.956
 5046SOL    HW216038   3.603   2.794   6.006
 5047SOL     OW16039   0.242   1.973   1.881
 5047SOL    HW116040   0.205   2.053   1.833
 5047SOL    HW216041   0.200   1.890   1.843
 5048SOL     OW16042   5.882   4.314   0.809
 5048SOL    HW116043   5.788   4.345   0.821
 5048SOL    HW216044   5.903   4.241   0.875
 5049SOL     OW16045   0.994   1.000   1.149
 5049SOL    HW116046   0.969   1.086   1.194
 5049SOL    HW216047   1.039   0.940   1.215
 5050SOL     OW16048   1.721   3.655   0.685
 5050SOL    HW116049   1.795   3.657   0.752
 5050SOL    HW216050   1.633   3.648   0.732
 5051SOL     OW16051   2.350   3.876   6.036
 5051SOL    HW116052   2.270   3.909   5.986
 5051SOL    HW216053   2.428   3.935   6.017
 5052SOL     OW16054   6.243   3.177   1.516
 5052SOL    HW116055   6.318   3.244   1.520
 5052SOL    HW216056   6.166   3.216   1.467
 5053SOL     OW16057   0.769   3.757   1.382
 5053SOL    HW116058   0.805   3.678   1.332
 5053SOL    HW216059   0.687   3.791   1.337
 5054SOL     OW16060   3.893   5.939   5.009
 5054SOL    HW116061   3.949   5.922   4.928
 5054SOL    HW216062   3.912   5.870   5.078
 5055SOL     OW16063   0.573   0.808   4.089
 5055SOL    HW116064   0.579   0.802   4.189
 5055SOL    HW216065   0.652   0.858   4.054
 5056SOL     OW16066   3.003   1.394   6.401
 5056SOL    HW116067   3.029   1.482   6.362
 5056SOL    HW216068   3.033   1.320   6.341
 5057SOL     OW16069   0.419   3.599   1.970
 5057SOL    HW116070   0.424   3.502   1.944
 5057SOL    HW216071   0.454   3.655   1.894
 5058SOL     OW16072   3.856   2.238   0.182
 5058SOL    HW116073   3.796   2.163   0.152
 5058SOL    HW216074   3.841   2.256   0.279
 5059SOL     OW16075   5.978   2.632   2.730
 5059SOL    HW116076   5.930   2.682   2.658
 5059SOL    HW216077   6.018   2.549   2.692
 5060SOL     OW16078   6.888   2.585   5.492
 5060SOL    HW116079   6.810   2.525   5.511
 5060SOL    HW216080   6.906   2.641   5.574
 5061SOL     OW16081   4.110   2.814   6.071
 5061SOL    HW116082   4.178   2.862   6.016
 5061SOL    HW216083   4.023   2.862   6.067
 5062SOL     OW16084   6.034   1.427   3.422
 5062SOL    HW116085   6.077   1.461   3.505
 5062SOL    HW216086   5.965   1.492   3.391
 5063SOL     OW16087   0.736   0.926   0.383
 5063SOL    HW116088   0.706   0.838   0.347
 5063SOL    HW216089   0.836   0.930   0.381
 5064SOL     OW16090   6.431   4.997   0.262
 5064SOL    HW116091   6.368   4.934   0.217
 5064SOL    HW216092   6.399   5.016   0.354
 5065SOL     OW16093   1.026   2.045   2.399
 5065SOL    HW116094   1.062   2.126   2.352
 5065SOL    HW216095   0.930   2.059   2.420
 5066SOL     OW16096   1.120   4.838   4.067
 5066SOL    HW116097   1.146   4.868   3.975
 5066SOL    HW216098   1.185   4.875   4.133
 5067SOL     OW16099   4.448   2.927   1.003
 5067SOL    HW116100   4.395   2.942   0.919
 5067SOL    HW216101   4.544   2.946   0.985
 5068SOL     OW16102   1.896   6.885   1.117
 5068SOL    HW116103   1.978   6.941   1.104
 5068SOL    HW216104   1.906   6.799   1.067
 5069SOL     OW16105   4.188   4.623   6.235
 5069SOL    HW116106   4.266   4.589   6.287
 5069SOL    HW216107   4.132   4.545   6.205
 5070SOL     OW16108   0.725   3.661   6.609
 5070SOL    HW116109   0.659   3.690   6.678
 5070SOL    HW216110   0.713   3.714   6.526
 5071SOL     OW16111   1.802   6.334   2.932
 5071SOL    HW116112   1.789   6.277   3.013
 5071SOL    HW216113   1.723   6.326   2.872
 5072SOL     OW16114   0.259   2.142   2.372
 5072SOL    HW116115   0.356   2.149   2.397
 5072SOL    HW216116   0.215   2.230   2.385
 5073SOL     OW16117   1.849   1.621   4.345
 5073SOL    HW116118   1.927   1.569   4.310
 5073SOL    HW216119   1.765   1.589   4.303
 5074SOL     OW16120   3.881   2.053   1.325
 5074SOL    HW116121   3.919   2.134   1.281
 5074SOL    HW216122   3.855   2.074   1.419
 5075SOL     OW16123   6.267   2.098   6.562
 5075SOL    HW116124   6.362   2.112   6.535
 5075SOL    HW216125   6.262   2.030   6.635
 5076SOL     OW16126   0.282   1.381   5.963
 5076SOL    HW116127   0.347   1.393   5.889
 5076SOL    HW216128   0.206   1.324   5.932
 5077SOL     OW16129   0.848   4.414   4.251
 5077SOL    HW116130   0.878   4.320   4.237
 5077SOL    HW216131   0.916   4.462   4.306
 5078SOL     OW16132   6.041   1.738   3.139
 5078SOL    HW116133   6.089   1.654   3.160
 5078SOL    HW216134   6.099   1.817   3.162
 5079SOL     OW16135   1.665   3.553   5.880
 5079SOL    HW116136   1.597   3.491   5.918
 5079SOL    HW216137   1.749   3.549   5.935
 5080SOL     OW16138   6.346   6.121   6.669
 5080SOL    HW116139   6.414   6.148   6.737
 5080SOL    HW216140   6.292   6.045   6.704
 5081SOL     OW16141   3.274   4.598   5.542
 5081SOL    HW116142   3.297   4.696   5.540
 5081SOL    HW216143   3.286   4.563   5.634
 5082SOL     OW16144   5.611   0.053   2.443
 5082SOL    HW116145   5.515   0.064   2.466
 5082SOL    HW216146   5.630   0.097   2.355
 5083SOL     OW16147   0.186   0.408   3.343
 5083SOL    HW116148   0.140   0.496   3.356
 5083SOL    HW216149   0.284   0.420   3.354
 5084SOL     OW16150   3.851   5.591   6.068
 5084SOL    HW116151   3.816   5.682   6.044
 5084SOL    HW216152   3.799   5.554   6.144
 5085SOL     OW16153   0.949   3.909   6.734
 5085SOL    HW116154   0.886   3.939   6.662
 5085SOL    HW216155   0.903   3.916   6.823
 5086SOL     OW16156   1.155   4.327   2.271
 5086SOL    HW116157   1.229   4.308   2.206
 5086SOL    HW216158   1.108   4.410   2.244
 5087SOL     OW16159   6.651   5.302   1.489
 5087SOL    HW116160   6.733   5.344   1.529
 5087SOL    HW216161   6.648   5.205   1.515
 5088SOL     OW16162   4.069   4.772   2.321
 5088SOL    HW116163   4.012   4.713   2.264
 5088SOL    HW216164   4.028   4.864   2.325
 5089SOL     OW16165   5.264   5.985   6.163
 5089SOL    HW116166   5.206   5.941   6.095
 5089SOL    HW216167   5.211   6.000   6.247
 5090SOL     OW16168   2.230   6.746   4.471
 5090SOL    HW116169   2.251   6.812   4.399
 5090SOL    HW216170   2.289   6.666   4.462
 5091SOL     OW16171   6.441   5.711   5.221
 5091SOL    HW116172   6.513   5.642   5.234
 5091SOL    HW216173   6.404   5.737   5.310
 5092SOL     OW16174   3.926   3.071   4.790
 5092SOL    HW116175   3.891   3.007   4.721
 5092SOL    HW216176   3.917   3.030   4.881
 5093SOL     OW16177   3.334   2.111   3.428
 5093SOL    HW116178   3.431   2.107   3.455
 5093SOL    HW216179   3.318   2.047   3.353
 5094SOL     OW16180   2.285   4.880   5.011
 5094SOL    HW116181   2.259   4.852   5.103
 5094SOL    HW216182   2.284   4.800   4.951
 5095SOL     OW16183   6.234   1.976   3.157
 5095SOL    HW116184   6.328   1.956   3.183
 5095SOL    HW216185   6.204   2.062   3.198
 5096SOL     OW16186   5.846   2.730   5.517
 5096SOL    HW116187   5.829   2.785   5.599
 5096SOL    HW216188   5.897   2.648   5.542
 5097SOL     OW16189   1.048   0.054   5.795
 5097SOL    HW116190   0.951   0.043   5.818
 5097SOL    HW216191   1.104   0.016   5.868
 5098SOL     OW16192   2.987   2.077   1.119
 5098SOL    HW116193   2.978   2.004   1.186
 5098SOL    HW216194   2.979   2.166   1.166
 5099SOL     OW16195   1.917   5.738   2.153
 5099SOL    HW116196   1.955   5.651   2.183
 5099SOL    HW216197   1.968   5.770   2.073
 5100SOL     OW16198   6.664   3.614   1.158
 5100SOL    HW116199   6.758   3.597   1.189
 5100SOL    HW216200   6.603   3.545   1.195
 5101SOL     OW16201   4.121   2.085   5.668
 5101SOL    HW116202   4.114   1.992   5.705
 5101SOL    HW216203   4.194   2.087   5.599
 5102SOL     OW16204   5.331   4.473   5.380
 5102SOL    HW116205   5.392   4.394   5.386
 5102SOL    HW216206   5.350   4.524   5.296
 5103SOL     OW16207   0.494   0.539   5.380
 5103SOL    HW116208   0.562   0.500   5.442
 5103SOL    HW216209   0.495   0.488   5.294
 5104SOL     OW16210   3.587   3.523   4.024
 5104SOL    HW116211   3.598   3.435   4.071
 5104SOL    HW216212   3.677   3.563   4.007
 5105SOL     OW16213   4.360   2.932   0.118
 5105SOL    HW116214   4.411   2.928   0.032
 5105SOL    HW216215   4.263   2.922   0.101
 5106SOL     OW16216   4.120   0.584   1.695
 5106SOL    HW116217   4.070   0.664   1.663
 5106SOL    HW216218   4.178   0.549   1.621
 5107SOL     OW16219   6.321   4.890   6.505
 5107SOL    HW116220   6.263   4.808   6.505
 5107SOL    HW216221   6.346   4.913   6.410
 5108SOL     OW16222   4.234   4.187   1.056
 5108SOL    HW116223   4.308   4.126   1.083
 5108SOL    HW216224   4.166   4.192   1.130
 5109SOL     OW16225   1.755   2.274   2.069
 5109SOL    HW116226   1.695   2.194   2.064
 5109SOL    HW216227   1.774   2.296   2.164
 5110SOL     OW16228   3.295   6.005   5.014
 5110SOL    HW116229   3.245   6.090   4.994
 5110SOL    HW216230   3.368   5.993   4.947
 5111SOL     OW16231   2.486   6.137   6.134
 5111SOL    HW116232   2.552   6.090   6.075
 5111SOL    HW216233   2.412   6.075   6.156
 5112SOL     OW16234   1.272   4.213   2.496
 5112SOL    HW116235   1.368   4.188   2.485
 5112SOL    HW216236   1.238   4.253   2.411
 5113SOL     OW16237   2.553   4.463   1.333
 5113SOL    HW116238   2.517   4.372   1.312
 5113SOL    HW216239   2.641   4.454   1.381
 5114SOL     OW16240   4.717   4.936   1.745
 5114SOL    HW116241   4.794   4.876   1.724
 5114SOL    HW216242   4.669   4.903   1.826
 5115SOL     OW16243   1.485   3.953   0.393
 5115SOL    HW116244   1.532   3.865   0.400
 5115SOL    HW216245   1.437   3.959   0.306
 5116SOL     OW16246   6.985   6.695   5.685
 5116SOL    HW116247   0.045   6.678   5.628
 5116SOL    HW216248   6.985   6.790   5.715
 5117SOL     OW16249   6.831   3.691   4.344
 5117SOL    HW116250   6.889   3.742   4.408
 5117SOL    HW216251   6.877   3.684   4.255
 5118SOL     OW16252   4.568   5.234   6.844
 5118SOL    HW116253   4.546   5.319   6.893
 5118SOL    HW216254   4.663   5.209   6.864
 5119SOL     OW16255   5.206   1.718   0.458
 5119SOL    HW116256   5.181   1.703   0.363
 5119SOL    HW216257   5.209   1.816   0.477
 5120SOL     OW16258   5.967   6.363   6.508
 5120SOL    HW116259   6.001   6.344   6.600
 5120SOL    HW216260   5.920   6.452   6.506
 5121SOL     OW16261   2.239   3.624   0.138
 5121SOL    HW116262   2.253   3.526   0.149
 5121SOL    HW216263   2.186   3.660   0.215
 5122SOL     OW16264   5.133   5.485   3.339
 5122SOL    HW116265   5.158   5.397   3.299
 5122SOL    HW216266   5.089   5.470   3.428
 5123SOL     OW16267   4.253   2.074   1.498
 5123SOL    HW116268   4.319   2.017   1.546
 5123SOL    HW216269   4.263   2.169   1.528
 5124SOL     OW16270   0.678   5.859   4.535
 5124SOL    HW116271   0.670   5.792   4.608
 5124SOL    HW216272   0.629   5.826   4.454
 5125SOL     OW16273   5.154   2.302   3.834
 5125SOL    HW116274   5.108   2.385   3.865
 5125SOL    HW216275   5.135   2.228   3.898
 5126SOL     OW16276   2.686   0.924   2.147
 5126SOL    HW116277   2.701   0.978   2.230
 5126SOL    HW216278   2.616   0.968   2.091
 5127SOL     OW16279   2.037   6.318   1.001
 5127SOL    HW116280   2.020   6.267   1.085
 5127SOL    HW216281   2.074   6.408   1.023
 5128SOL     OW16282   4.359   0.347   2.122
 5128SOL    HW116283   4.341   0.323   2.217
 5128SOL    HW216284   4.272   0.368   2.076
 5129SOL     OW16285   6.314   5.619   0.125
 5129SOL    HW116286   6.221   5.596   0.096
 5129SOL    HW216287   6.354   5.684   0.061
 5130SOL     OW16288   6.174   5.041   2.053
 5130SOL    HW116289   6.196   5.133   2.022
 5130SOL    HW216290   6.206   4.974   1.986
 5131SOL     OW16291   2.562   2.084   1.885
 5131SOL    HW116292   2.633   2.062   1.952
 5131SOL    HW216293   2.554   2.184   1.878
 5132SOL     OW16294   2.508   6.084   5.640
 5132SOL    HW116295   2.525   6.143   5.562
 5132SOL    HW216296   2.585   6.022   5.653
 5133SOL     OW16297   3.634   5.957   4.886
 5133SOL    HW116298   3.723   5.964   4.930
 5133SOL    HW216299   3.641   5.897   4.806
 5134SOL     OW16300   1.064   2.814   6.611
 5134SOL    HW116301   1.105   2.784   6.697
 5134SOL    HW216302   0.999   2.888   6.629
 5135SOL     OW16303   6.520   1.760   3.608
 5135SOL    HW116304   6.421   1.744   3.613
 5135SOL    HW216305   6.550   1.807   3.690
 5136SOL     OW16306   3.443   2.258   6.536
 5136SOL    HW116307   3.485   2.168   6.546
 5136SOL    HW216308   3.450   2.308   6.622
 5137SOL     OW16309   4.169   3.338   0.114
 5137SOL    HW116310   4.171   3.437   0.104
 5137SOL    HW216311   4.083   3.310   0.156
 5138SOL     OW16312   2.644   2.747   5.955
 5138SOL    HW116313   2.573   2.689   5.914
 5138SOL    HW216314   2.603   2.805   6.025
 5139SOL     OW16315   0.586   6.651   4.200
 5139SOL    HW116316   0.605   6.736   4.250
 5139SOL    HW216317   0.641   6.648   4.117
 5140SOL     OW16318   3.639   3.205   2.422
 5140SOL    HW116319   3.663   3.140   2.350
 5140SOL    HW216320   3.541   3.201   2.439
 5141SOL     OW16321   1.375   3.335   5.331
 5141SOL    HW116322   1.406   3.255   5.280
 5141SOL    HW216323   1.388   3.417   5.275
 5142SOL     OW16324   5.260   3.484   1.872
 5142SOL    HW116325   5.298   3.423   1.802
 5142SOL    HW216326   5.275   3.579   1.844
 5143SOL     OW16327   0.086   4.997   5.981
 5143SOL    HW116328   0.096   4.980   5.883
 5143SOL    HW216329   0.127   5.086   6.003
 5144SOL     OW16330   1.969   1.333   5.263
 5144SOL    HW116331   2.004   1.397   5.331
 5144SOL    HW216332   1.869   1.340   5.259
 5145SOL     OW16333   3.456   5.443   6.514
 5145SOL    HW116334   3.414   5.352   6.518
 5145SOL    HW216335   3.385   5.513   6.525
 5146SOL     OW16336   3.715   5.239   1.343
 5146SOL    HW116337   3.741   5.333   1.365
 5146SOL    HW216338   3.701   5.230   1.244
 5147SOL     OW16339   0.908   5.213   6.045
 5147SOL    HW116340   0.859   5.296   6.071
 5147SOL    HW216341   1.000   5.214   6.085
 5148SOL     OW16342   0.098   0.524   1.656
 5148SOL    HW116343   0.102   0.515   1.756
 5148SOL    HW216344   0.102   0.620   1.631
 5149SOL     OW16345   6.830   0.702   5.889
 5149SOL    HW116346   6.845   0.796   5.918
 5149SOL    HW216347   6.771   0.702   5.807
 5150SOL     OW16348   2.594   5.230   5.377
 5150SOL    HW116349   2.625   5.265   5.465
 5150SOL    HW216350   2.601   5.130   5.377
 5151SOL     OW16351   4.507   0.776   6.020
 5151SOL    HW116352   4.580   0.840   6.043
 5151SOL    HW216353   4.536   0.718   5.944
 5152SOL     OW16354   6.661   4.615   6.541
 5152SOL    HW116355   6.586   4.638   6.479
 5152SOL    HW216356   6.747   4.651   6.504
 5153SOL     OW16357   2.927   3.295   1.531
 5153SOL    HW116358   2.998   3.226   1.550
 5153SOL    HW216359   2.965   3.386   1.545
 5154SOL     OW16360   0.686   4.552   5.496
 5154SOL    HW116361   0.698   4.489   5.573
 5154SOL    HW216362   0.736   4.636   5.513
 5155SOL     OW16363   4.055   0.909   1.927
 5155SOL    HW116364   4.139   0.862   1.956
 5155SOL    HW216365   4.015   0.957   2.005
 5156SOL     OW16366   5.463   3.416   5.208
 5156SOL    HW116367   5.433   3.339   5.152
 5156SOL    HW216368   5.494   3.490   5.148
 5157SOL     OW16369   6.458   2.276   3.625
 5157SOL    HW116370   6.540   2.319   3.588
 5157SOL    HW216371   6.391   2.347   3.649
 5158SOL     OW16372   3.342   0.152   1.818
 5158SOL    HW116373   3.377   0.075   1.872
 5158SOL    HW216374   3.401   0.166   1.739
 5159SOL     OW16375   1.919   3.681   4.937
 5159SOL    HW116376   2.011   3.717   4.954
 5159SOL    HW216377   1.852   3.739   4.982
 5160SOL     OW16378   2.750   2.289   3.625
 5160SOL    HW116379   2.691   2.365   3.653
 5160SOL    HW216380   2.828   2.282   3.687
 5161SOL     OW16381   1.671   3.106   6.907
 5161SOL    HW116382   1.758   3.092   6.955
 5161SOL    HW216383   1.607   3.154   6.967
 5162SOL     OW16384   6.724   5.782   4.711
 5162SOL    HW116385   6.821   5.809   4.713
 5162SOL    HW216386   6.684   5.796   4.802
 5163SOL     OW16387   6.114   4.155   0.522
 5163SOL    HW116388   6.027   4.201   0.506
 5163SOL    HW216389   6.173   4.214   0.577
 5164SOL     OW16390   6.917   6.497   4.891
 5164SOL    HW116391   6.953   6.589   4.910
 5164SOL    HW216392   6.977   6.429   4.933
 5165SOL     OW16393   5.403   4.428   5.720
 5165SOL    HW116394   5.380   4.452   5.625
 5165SOL    HW216395   5.321   4.435   5.777
 5166SOL     OW16396   0.123   6.896   3.186
 5166SOL    HW116397   0.134   6.904   3.285
 5166SOL    HW216398   0.167   6.813   3.154
 5167SOL     OW16399   2.045   0.250   5.563
 5167SOL    HW116400   2.026   0.163   5.516
 5167SOL    HW216401   2.100   0.309   5.504
 5168SOL     OW16402   3.260   1.964   2.076
 5168SOL    HW116403   3.274   1.995   1.982
 5168SOL    HW216404   3.195   2.024   2.122
 5169SOL     OW16405   3.979   5.340   6.521
 5169SOL    HW116406   4.016   5.272   6.585
 5169SOL    HW216407   3.885   5.362   6.546
 5170SOL     OW16408   4.335   5.296   4.168
 5170SOL    HW116409   4.417   5.352   4.181
 5170SOL    HW216410   4.268   5.348   4.115
 5171SOL     OW16411   2.736   4.439   5.299
 5171SOL    HW116412   2.802   4.483   5.238
 5171SOL    HW216413   2.653   4.495   5.303
 5172SOL     OW16414   1.762   3.863   6.142
 5172SOL    HW116415   1.739   3.903   6.053
 5172SOL    HW216416   1.691   3.886   6.209
 5173SOL     OW16417   0.177   2.125   4.485
 5173SOL    HW116418   0.115   2.202   4.471
 5173SOL    HW216419   0.271   2.154   4.468
 5174SOL     OW16420   3.167   5.629   6.873
 5174SOL    HW116421   3.198   5.541   6.910
 5174SOL    HW216422   3.075   5.619   6.836
 5175SOL     OW16423   1.142   5.349   6.849
 5175SOL    HW116424   1.085   5.409   6.793
 5175SOL    HW216425   1.197   5.404   6.912
 5176SOL     OW16426   5.939   3.230   6.862
 5176SOL    HW116427   5.861   3.172   6.839
 5176SOL    HW216428   5.910   3.325   6.869
 5177SOL     OW16429   4.303   4.679   6.713
 5177SOL    HW116430   4.240   4.606   6.740
 5177SOL    HW216431   4.277   4.764   6.760
 5178SOL     OW16432   3.380   4.505   0.215
 5178SOL    HW116433   3.480   4.513   0.221
 5178SOL    HW216434   3.338   4.573   0.276
 5179SOL     OW16435   2.879   6.226   5.408
 5179SOL    HW116436   2.957   6.164   5.408
 5179SOL    HW216437   2.876   6.275   5.321
 5180SOL     OW16438   4.739   1.539   6.775
 5180SOL    HW116439   4.646   1.571   6.794
 5180SOL    HW216440   4.765   1.569   6.683
 5181SOL     OW16441   3.649   6.487   2.692
 5181SOL    HW116442   3.664   6.437   2.606
 5181SOL    HW216443   3.566   6.453   2.736
 5182SOL     OW16444   4.908   3.812   1.015
 5182SOL    HW116445   4.811   3.822   1.035
 5182SOL    HW216446   4.961   3.869   1.078
 5183SOL     OW16447   3.583   0.849   3.955
 5183SOL    HW116448   3.637   0.929   3.928
 5183SOL    HW216449   3.499   0.879   4.001
 5184SOL     OW16450   1.083   1.727   2.932
 5184SOL    HW116451   1.050   1.664   3.002
 5184SOL    HW216452   1.017   1.732   2.857
 5185SOL     OW16453   3.547   0.232   2.095
 5185SOL    HW116454   3.479   0.306   2.097
 5185SOL    HW216455   3.525   0.165   2.166
 5186SOL     OW16456   5.638   4.142   0.013
 5186SOL    HW116457   5.622   4.051   0.052
 5186SOL    HW216458   5.679   4.201   0.083
 5187SOL     OW16459   5.166   3.814   4.342
 5187SOL    HW116460   5.159   3.870   4.425
 5187SOL    HW216461   5.166   3.873   4.262
 5188SOL     OW16462   0.455   1.053   3.483
 5188SOL    HW116463   0.477   1.108   3.402
 5188SOL    HW216464   0.535   1.000   3.510
 5189SOL     OW16465   4.939   5.252   5.917
 5189SOL    HW116466   5.032   5.268   5.884
 5189SOL    HW216467   4.888   5.338   5.919
 5190SOL     OW16468   2.028   2.149   2.663
 5190SOL    HW116469   1.982   2.061   2.649
 5190SOL    HW216470   2.123   2.141   2.632
 5191SOL     OW16471   5.210   1.115   2.128
 5191SOL    HW116472   5.247   1.195   2.176
 5191SOL    HW216473   5.204   1.135   2.030
 5192SOL     OW16474   6.894   4.284   1.411
 5192SOL    HW116475   6.893   4.305   1.509
 5192SOL    HW216476   6.963   4.214   1.393
 5193SOL     OW16477   3.593   5.180   2.952
 5193SOL    HW116478   3.572   5.086   2.926
 5193SOL    HW216479   3.577   5.192   3.050
 5194SOL     OW16480   4.934   0.802   0.312
 5194SOL    HW116481   4.923   0.877   0.247
 5194SOL    HW216482   5.030   0.795   0.340
 5195SOL     OW16483   0.487   5.323   5.149
 5195SOL    HW116484   0.516   5.413   5.181
 5195SOL    HW216485   0.403   5.331   5.096
 5196SOL     OW16486   1.223   3.218   3.717
 5196SOL    HW116487   1.296   3.283   3.736
 5196SOL    HW216488   1.139   3.268   3.696
 5197SOL     OW16489   3.833   6.165   5.146
 5197SOL    HW116490   3.842   6.087   5.084
 5197SOL    HW216491   3.860   6.137   5.239
 5198SOL     OW16492   4.426   0.804   5.627
 5198SOL    HW116493   4.476   0.755   5.699
 5198SOL    HW216494   4.328   0.792   5.641
 5199SOL     OW16495   0.587   6.198   2.633
 5199SOL    HW116496   0.495   6.165   2.610
 5199SOL    HW216497   0.590   6.298   2.623
 5200SOL     OW16498   6.032   6.500   5.342
 5200SOL    HW116499   5.971   6.434   5.298
 5200SOL    HW216500   5.989   6.591   5.341
 5201SOL     OW16501   6.870   3.670   5.287
 5201SOL    HW116502   6.790   3.707   5.335
 5201SOL    HW216503   6.904   3.737   5.222
 5202SOL     OW16504   3.671   2.258   5.959
 5202SOL    HW116505   3.607   2.242   5.883
 5202SOL    HW216506   3.752   2.202   5.946
 5203SOL     OW16507   0.740   0.419   5.825
 5203SOL    HW116508   0.691   0.341   5.864
 5203SOL    HW216509   0.828   0.431   5.871
 5204SOL     OW16510   2.203   0.594   2.347
 5204SOL    HW116511   2.276   0.634   2.291
 5204SOL    HW216512   2.121   0.584   2.291
 5205SOL     OW16513   6.268   6.903   1.656
 5205SOL    HW116514   6.256   6.905   1.755
 5205SOL    HW216515   6.364   6.883   1.635
 5206SOL     OW16516   1.180   5.500   5.177
 5206SOL    HW116517   1.081   5.504   5.187
 5206SOL    HW216518   1.210   5.404   5.180
 5207SOL     OW16519   5.030   1.400   4.601
 5207SOL    HW116520   5.010   1.429   4.695
 5207SOL    HW216521   5.036   1.300   4.598
 5208SOL     OW16522   0.004   1.565   0.127
 5208SOL    HW116523   6.977   1.629   0.187
 5208SOL    HW216524   0.092   1.603   0.099
 5209SOL     OW16525   5.317   6.079   2.384
 5209SOL    HW116526   5.218   6.090   2.378
 5209SOL    HW216527   5.355   6.153   2.440
 5210SOL     OW16528   6.359   4.329   1.434
 5210SOL    HW116529   6.338   4.288   1.523
 5210SOL    HW216530   6.450   4.301   1.405
 5211SOL     OW16531   4.957   3.018   4.696
 5211SOL    HW116532   5.027   2.951   4.672
 5211SOL    HW216533   4.892   3.026   4.621
 5212SOL     OW16534   6.451   3.567   6.848
 5212SOL    HW116535   6.352   3.583   6.839
 5212SOL    HW216536   6.487   3.622   6.923
 5213SOL     OW16537   3.553   3.213   4.470
 5213SOL    HW116538   3.606   3.284   4.516
 5213SOL    HW216539   3.475   3.188   4.527
 5214SOL     OW16540   6.286   2.469   5.519
 5214SOL    HW116541   6.344   2.490   5.597
 5214SOL    HW216542   6.303   2.375   5.490
 5215SOL     OW16543   0.460   4.820   4.814
 5215SOL    HW116544   0.543   4.875   4.817
 5215SOL    HW216545   0.482   4.725   4.836
 5216SOL     OW16546   6.771   4.409   0.307
 5216SOL    HW116547   6.765   4.325   0.254
 5216SOL    HW216548   6.837   4.398   0.381
 5217SOL     OW16549   3.123   0.601   2.469
 5217SOL    HW116550   3.180   0.598   2.551
 5217SOL    HW216551   3.176   0.572   2.390
 5218SOL     OW16552   5.887   0.219   0.941
 5218SOL    HW116553   5.860   0.123   0.952
 5218SOL    HW216554   5.986   0.225   0.927
 5219SOL     OW16555   4.176   1.957   4.984
 5219SOL    HW116556   4.186   2.045   5.030
 5219SOL    HW216557   4.234   1.956   4.902
 5220SOL     OW16558   1.953   4.424   4.640
 5220SOL    HW116559   2.042   4.459   4.609
 5220SOL    HW216560   1.880   4.471   4.590
 5221SOL     OW16561   3.919   6.393   0.598
 5221SOL    HW116562   3.986   6.382   0.671
 5221SOL    HW216563   3.869   6.479   0.611
 5222SOL     OW16564   5.465   2.986   2.352
 5222SOL    HW116565   5.538   3.042   2.312
 5222SOL    HW216566   5.450   2.905   2.296
 5223SOL     OW16567   6.592   1.891   0.565
 5223SOL    HW116568   6.606   1.798   0.530
 5223SOL    HW216569   6.594   1.956   0.489
 5224SOL     OW16570   1.786   1.526   4.633
 5224SOL    HW116571   1.729   1.553   4.711
 5224SOL    HW216572   1.750   1.567   4.550
 5225SOL     OW16573   6.693   2.262   5.909
 5225SOL    HW116574   6.722   2.198   5.837
 5225SOL    HW216575   6.601   2.237   5.939
 5226SOL     OW16576   0.203   0.107   4.196
 5226SOL    HW116577   0.195   0.093   4.295
 5226SOL    HW216578   0.115   0.088   4.153
 5227SOL     OW16579   2.342   2.495   6.737
 5227SOL    HW116580   2.391   2.581   6.756
 5227SOL    HW216581   2.247   2.516   6.713
 5228SOL     OW16582   0.752   2.177   5.588
 5228SOL    HW116583   0.741   2.276   5.575
 5228SOL    HW216584   0.670   2.130   5.556
 5229SOL     OW16585   3.620   1.297   0.611
 5229SOL    HW116586   3.521   1.285   0.599
 5229SOL    HW216587   3.638   1.387   0.649
 5230SOL     OW16588   6.383   0.821   1.716
 5230SOL    HW116589   6.382   0.732   1.762
 5230SOL    HW216590   6.458   0.876   1.751
 5231SOL     OW16591   6.733   4.001   1.696
 5231SOL    HW116592   6.831   4.022   1.693
 5231SOL    HW216593   6.683   4.079   1.732
 5232SOL     OW16594   1.782   1.510   6.467
 5232SOL    HW116595   1.738   1.422   6.487
 5232SOL    HW216596   1.876   1.495   6.438
 5233SOL     OW16597   2.221   6.713   3.693
 5233SOL    HW116598   2.271   6.798   3.710
 5233SOL    HW216599   2.145   6.706   3.757
 5234SOL     OW16600   3.731   2.233   6.296
 5234SOL    HW116601   3.793   2.312   6.289
 5234SOL    HW216602   3.641   2.259   6.261
 5235SOL     OW16603   2.433   3.010   1.366
 5235SOL    HW116604   2.516   2.955   1.362
 5235SOL    HW216605   2.452   3.097   1.411
 5236SOL     OW16606   3.016   5.065   1.897
 5236SOL    HW116607   3.055   5.124   1.967
 5236SOL    HW216608   3.037   4.970   1.917
 5237SOL     OW16609   1.497   1.160   1.393
 5237SOL    HW116610   1.539   1.105   1.465
 5237SOL    HW216611   1.509   1.257   1.413
 5238SOL     OW16612   6.478   0.956   3.110
 5238SOL    HW116613   6.445   0.906   3.191
 5238SOL    HW216614   6.473   1.054   3.128
 5239SOL     OW16615   2.871   3.954   6.629
 5239SOL    HW116616   2.952   3.904   6.659
 5239SOL    HW216617   2.836   3.913   6.544
 5240SOL     OW16618   1.540   3.885   5.575
 5240SOL    HW116619   1.619   3.945   5.588
 5240SOL    HW216620   1.548   3.807   5.637
 5241SOL     OW16621   2.422   5.326   3.358
 5241SOL    HW116622   2.406   5.235   3.396
 5241SOL    HW216623   2.424   5.321   3.258
 5242SOL     OW16624   3.960   6.065   5.743
 5242SOL    HW116625   3.970   6.129   5.668
 5242SOL    HW216626   4.050   6.044   5.782
 5243SOL     OW16627   1.913   5.183   4.215
 5243SOL    HW116628   1.988   5.205   4.153
 5243SOL    HW216629   1.949   5.139   4.297
 5244SOL     OW16630   5.016   0.572   6.983
 5244SOL    HW116631   4.956   0.588   0.041
 5244SOL    HW216632   4.962   0.543   6.904
 5245SOL     OW16633   3.254   3.770   1.415
 5245SOL    HW116634   3.255   3.835   1.492
 5245SOL    HW216635   3.344   3.726   1.408
 5246SOL     OW16636   6.389   2.236   5.747
 5246SOL    HW116637   6.336   2.161   5.788
 5246SOL    HW216638   6.385   2.316   5.807
 5247SOL     OW16639   4.930   0.837   5.402
 5247SOL    HW116640   4.845   0.826   5.350
 5247SOL    HW216641   4.926   0.781   5.484
 5248SOL     OW16642   4.125   0.988   2.399
 5248SOL    HW116643   4.076   0.903   2.379
 5248SOL    HW216644   4.218   0.966   2.427
 5249SOL     OW16645   0.314   5.847   1.873
 5249SOL    HW116646   0.301   5.890   1.783
 5249SOL    HW216647   0.267   5.759   1.874
 5250SOL     OW16648   1.252   5.038   6.999
 5250SOL    HW116649   1.320   5.027   6.927
 5250SOL    HW216650   1.288   5.099   0.049
 5251SOL     OW16651   1.558   3.995   6.289
 5251SOL    HW116652   1.502   4.010   6.371
 5251SOL    HW216653   1.599   4.081   6.260
 5252SOL     OW16654   3.880   6.259   3.338
 5252SOL    HW116655   3.872   6.162   3.360
 5252SOL    HW216656   3.976   6.285   3.338
 5253SOL     OW16657   0.490   6.281   4.735
 5253SOL    HW116658   0.531   6.357   4.685
 5253SOL    HW216659   0.539   6.267   4.821
 5254SOL     OW16660   4.162   6.264   2.047
 5254SOL    HW116661   4.069   6.258   2.084
 5254SOL    HW216662   4.181   6.183   1.992
 5255SOL     OW16663   0.408   1.430   6.231
 5255SOL    HW116664   0.365   1.404   6.144
 5255SOL    HW216665   0.459   1.514   6.219
 5256SOL     OW16666   4.551   1.611   2.655
 5256SOL    HW116667   4.572   1.637   2.749
 5256SOL    HW216668   4.452   1.608   2.642
 5257SOL     OW16669   5.734   0.884   0.288
 5257SOL    HW116670   5.711   0.816   0.219
 5257SOL    HW216671   5.650   0.923   0.326
 5258SOL     OW16672   5.880   1.985   5.413
 5258SOL    HW116673   5.940   1.905   5.415
 5258SOL    HW216674   5.785   1.956   5.401
 5259SOL     OW16675   4.367   6.046   4.429
 5259SOL    HW116676   4.442   6.054   4.495
 5259SOL    HW216677   4.280   6.053   4.477
 5260SOL     OW16678   1.237   6.379   2.156
 5260SOL    HW116679   1.313   6.436   2.125
 5260SOL    HW216680   1.234   6.295   2.102
 5261SOL     OW16681   6.264   4.182   6.922
 5261SOL    HW116682   6.208   4.101   6.910
 5261SOL    HW216683   6.212   4.263   6.894
 5262SOL     OW16684   2.146   2.165   2.230
 5262SOL    HW116685   2.160   2.165   2.131
 5262SOL    HW216686   2.094   2.083   2.257
 5263SOL     OW16687   0.420   6.344   2.278
 5263SOL    HW116688   0.467   6.262   2.245
 5263SOL    HW216689   0.487   6.410   2.310
 5264SOL     OW16690   6.176   2.587   2.498
 5264SOL    HW116691   6.111   2.595   2.423
 5264SOL    HW216692   6.211   2.678   2.521
 5265SOL     OW16693   1.046   6.084   5.701
 5265SOL    HW116694   0.995   6.114   5.621
 5265SOL    HW216695   1.143   6.104   5.689
 5266SOL     OW16696   0.563   0.096   6.252
 5266SOL    HW116697   0.648   0.148   6.251
 5266SOL    HW216698   0.501   0.132   6.181
 5267SOL     OW16699   6.240   1.398   4.725
 5267SOL    HW116700   6.292   1.470   4.679
 5267SOL    HW216701   6.224   1.323   4.662
 5268SOL     OW16702   5.189   0.455   6.137
 5268SOL    HW116703   5.176   0.521   6.063
 5268SOL    HW216704   5.286   0.445   6.156
 5269SOL     OW16705   1.280   0.295   3.958
 5269SOL    HW116706   1.181   0.285   3.957
 5269SOL    HW216707   1.305   0.382   3.999
 5270SOL     OW16708   1.668   1.885   0.031
 5270SOL    HW116709   1.620   1.815   6.998
 5270SOL    HW216710   1.759   1.900   7.014
 5271SOL     OW16711   1.542   5.780   6.596
 5271SOL    HW116712   1.597   5.697   6.588
 5271SOL    HW216713   1.447   5.759   6.575
 5272SOL     OW16714   4.265   0.145   5.835
 5272SOL    HW116715   4.175   0.124   5.798
 5272SOL    HW216716   4.306   0.062   5.873
 5273SOL     OW16717   1.758   1.695   3.739
 5273SOL    HW116718   1.659   1.684   3.745
 5273SOL    HW216719   1.779   1.791   3.720
 5274SOL     OW16720   6.288   4.983   0.811
 5274SOL    HW116721   6.216   4.913   0.801
 5274SOL    HW216722   6.259   5.050   0.879
 5275SOL     OW16723   5.346   0.653   6.776
 5275SOL    HW116724   5.351   0.583   6.705
 5275SOL    HW216725   5.372   0.612   6.864
 5276SOL     OW16726   2.943   6.265   1.231
 5276SOL    HW116727   2.939   6.171   1.199
 5276SOL    HW216728   3.020   6.312   1.187
 5277SOL     OW16729   1.686   3.206   1.429
 5277SOL    HW116730   1.692   3.302   1.456
 5277SOL    HW216731   1.593   3.187   1.396
 5278SOL     OW16732   3.730   4.129   4.186
 5278SOL    HW116733   3.632   4.109   4.194
 5278SOL    HW216734   3.744   4.199   4.116
 5279SOL     OW16735   1.447   6.842   3.045
 5279SOL    HW116736   1.444   6.895   3.129
 5279SOL    HW216737   1.540   6.844   3.007
 5280SOL     OW16738   3.899   0.212   3.926
 5280SOL    HW116739   3.845   0.290   3.959
 5280SOL    HW216740   3.913   0.220   3.828
 5281SOL     OW16741   0.007   2.816   3.508
 5281SOL    HW116742   0.011   2.813   3.408
 5281SOL    HW216743   0.016   2.911   3.539
 5282SOL     OW16744   5.141   2.679   1.034
 5282SOL    HW116745   5.211   2.659   1.103
 5282SOL    HW216746   5.051   2.650   1.067
 5283SOL     OW16747   4.789   5.082   4.838
 5283SOL    HW116748   4.791   5.015   4.764
 5283SOL    HW216749   4.882   5.117   4.854
 5284SOL     OW16750   5.708   2.626   4.129
 5284SOL    HW116751   5.803   2.613   4.160
 5284SOL    HW216752   5.668   2.538   4.105
 5285SOL     OW16753   4.245   5.599   2.732
 5285SOL    HW116754   4.228   5.503   2.710
 5285SOL    HW216755   4.239   5.613   2.831
 5286SOL     OW16756   1.870   4.664   2.226
 5286SOL    HW116757   1.965   4.677   2.252
 5286SOL    HW216758   1.810   4.686   2.303
 5287SOL     OW16759   0.383   0.569   3.032
 5287SOL    HW116760   0.455   0.582   2.964
 5287SOL    HW216761   0.346   0.477   3.024
 5288SOL     OW16762   3.918   0.509   1.102
 5288SOL    HW116763   3.972   0.428   1.122
 5288SOL    HW216764   3.855   0.526   1.179
 5289SOL     OW16765   1.702   6.886   1.758
 5289SOL    HW116766   1.787   6.906   1.709
 5289SOL    HW216767   1.656   6.971   1.782
 5290SOL     OW16768   5.670   6.798   6.644
 5290SOL    HW116769   5.698   6.795   6.740
 5290SOL    HW216770   5.591   6.858   6.633
 5291SOL     OW16771   1.352   5.467   0.026
 5291SOL    HW116772   1.345   5.556   0.071
 5291SOL    HW216773   1.416   5.473   6.970
 5292SOL     OW16774   5.654   1.546   1.593
 5292SOL    HW116775   5.634   1.448   1.598
 5292SOL    HW216776   5.632   1.580   1.502
 5293SOL     OW16777   2.053   1.479   4.256
 5293SOL    HW116778   2.086   1.457   4.164
 5293SOL    HW216779   2.125   1.523   4.309
 5294SOL     OW16780   3.550   1.837   6.933
 5294SOL    HW116781   3.505   1.799   6.853
 5294SOL    HW216782   3.486   1.841   7.010
 5295SOL     OW16783   0.323   1.862   3.488
 5295SOL    HW116784   0.227   1.838   3.474
 5295SOL    HW216785   0.370   1.785   3.532
 5296SOL     OW16786   0.219   3.421   6.203
 5296SOL    HW116787   0.207   3.340   6.260
 5296SOL    HW216788   0.241   3.393   6.109
 5297SOL     OW16789   0.887   1.936   1.992
 5297SOL    HW116790   0.977   1.942   1.949
 5297SOL    HW216791   0.865   2.022   2.037
 5298SOL     OW16792   0.707   3.461   2.139
 5298SOL    HW116793   0.666   3.375   2.169
 5298SOL    HW216794   0.636   3.531   2.130
 5299SOL     OW16795   3.816   0.559   0.034
 5299SOL    HW116796   3.819   0.460   0.048
 5299SOL    HW216797   3.837   0.606   0.120
 5300SOL     OW16798   6.452   4.920   4.688
 5300SOL    HW116799   6.456   4.879   4.779
 5300SOL    HW216800   6.540   4.907   4.642
 5301SOL     OW16801   5.447   6.956   6.567
 5301SOL    HW116802   5.439   7.011   6.484
 5301SOL    HW216803   5.406   7.005   6.644
 5302SOL     OW16804   0.247   3.394   2.436
 5302SOL    HW116805   0.326   3.446   2.403
 5302SOL    HW216806   0.228   3.419   2.531
 5303SOL     OW16807   2.291   4.475   2.343
 5303SOL    HW116808   2.382   4.514   2.352
 5303SOL    HW216809   2.295   4.376   2.359
 5304SOL     OW16810   4.750   1.805   5.670
 5304SOL    HW116811   4.762   1.712   5.635
 5304SOL    HW216812   4.773   1.871   5.599
 5305SOL     OW16813   4.281   1.693   4.779
 5305SOL    HW116814   4.299   1.679   4.681
 5305SOL    HW216815   4.200   1.751   4.790
 5306SOL     OW16816   2.667   6.945   3.468
 5306SOL    HW116817   2.614   0.005   3.441
 5306SOL    HW216818   2.617   6.895   3.539
 5307SOL     OW16819   4.886   6.379   6.637
 5307SOL    HW116820   4.881   6.372   6.538
 5307SOL    HW216821   4.920   6.470   6.662
 5308SOL     OW16822   6.537   1.417   1.319
 5308SOL    HW116823   6.606   1.361   1.365
 5308SOL    HW216824   6.487   1.471   1.387
 5309SOL     OW16825   3.545   4.202   5.985
 5309SOL    HW116826   3.536   4.183   6.082
 5309SOL    HW216827   3.516   4.296   5.966
 5310SOL     OW16828   5.214   2.553   0.376
 5310SOL    HW116829   5.165   2.617   0.316
 5310SOL    HW216830   5.195   2.459   0.348
 5311SOL     OW16831   6.751   5.671   6.981
 5311SOL    HW116832   6.698   5.588   6.969
 5311SOL    HW216833   6.814   5.660   0.038
 5312SOL     OW16834   0.574   3.783   1.842
 5312SOL    HW116835   0.588   3.870   1.889
 5312SOL    HW216836   0.655   3.726   1.850
 5313SOL     OW16837   0.317   6.161   6.512
 5313SOL    HW116838   0.276   6.089   6.569
 5313SOL    HW216839   0.253   6.238   6.505
 5314SOL     OW16840   4.034   4.568   0.754
 5314SOL    HW116841   4.112   4.620   0.787
 5314SOL    HW216842   4.036   4.563   0.654
 5315SOL     OW16843   5.752   1.110   2.649
 5315SOL    HW116844   5.764   1.208   2.662
 5315SOL    HW216845   5.656   1.087   2.665
 5316SOL     OW16846   5.029   5.415   4.447
 5316SOL    HW116847   5.120   5.377   4.432
 5316SOL    HW216848   4.998   5.462   4.364
 5317SOL     OW16849   0.401   4.906   1.228
 5317SOL    HW116850   0.436   4.967   1.299
 5317SOL    HW216851   0.304   4.888   1.245
 5318SOL     OW16852   6.390   2.864   3.949
 5318SOL    HW116853   6.370   2.781   3.898
 5318SOL    HW216854   6.446   2.925   3.893
 5319SOL     OW16855   2.695   6.419   2.743
 5319SOL    HW116856   2.684   6.339   2.803
 5319SOL    HW216857   2.774   6.405   2.684
 5320SOL     OW16858   6.390   2.167   6.872
 5320SOL    HW116859   6.373   2.265   6.888
 5320SOL    HW216860   6.475   2.157   6.821
 5321SOL     OW16861   3.399   5.173   7.006
 5321SOL    HW116862   3.320   5.116   0.007
 5321SOL    HW216863   3.419   5.166   6.908
 5322SOL     OW16864   3.321   6.665   0.380
 5322SOL    HW116865   3.247   6.718   0.337
 5322SOL    HW216866   3.298   6.568   0.375
 5323SOL     OW16867   6.531   3.050   0.518
 5323SOL    HW116868   6.547   3.058   0.420
 5323SOL    HW216869   6.611   3.009   0.562
 5324SOL     OW16870   3.892   3.646   2.585
 5324SOL    HW116871   3.812   3.698   2.616
 5324SOL    HW216872   3.862   3.572   2.525
 5325SOL     OW16873   3.010   6.873   5.818
 5325SOL    HW116874   3.074   6.796   5.811
 5325SOL    HW216875   2.927   6.844   5.865
 5326SOL     OW16876   6.164   1.144   4.180
 5326SOL    HW116877   6.080   1.100   4.213
 5326SOL    HW216878   6.239   1.125   4.244
 5327SOL     OW16879   6.329   6.941   4.171
 5327SOL    HW116880   6.372   6.853   4.153
 5327SOL    HW216881   6.318   6.953   4.270
 5328SOL     OW16882   2.613   5.315   6.018
 5328SOL    HW116883   2.639   5.357   6.104
 5328SOL    HW216884   2.646   5.220   6.016
 5329SOL     OW16885   0.193   7.016   6.189
 5329SOL    HW116886   0.108   0.048   6.203
 5329SOL    HW216887   0.233   6.993   6.278
 5330SOL     OW16888   4.777   4.124   0.365
 5330SOL    HW116889   4.770   4.074   0.279
 5330SOL    HW216890   4.842   4.199   0.355
 5331SOL     OW16891   6.209   0.819   7.000
 5331SOL    HW116892   6.133   0.883   7.018
 5331SOL    HW216893   6.197   0.778   6.910
 5332SOL     OW16894   6.854   3.472   7.006
 5332SOL    HW116895   6.850   3.505   0.081
 5332SOL    HW216896   6.799   3.532   6.948
 5333SOL     OW16897   0.075   6.860   4.315
 5333SOL    HW116898   0.168   6.869   4.281
 5333SOL    HW216899   0.074   6.873   4.414
 5334SOL     OW16900   3.057   5.781   1.036
 5334SOL    HW116901   3.099   5.773   0.946
 5334SOL    HW216902   3.129   5.780   1.106
 5335SOL     OW16903   6.896   5.547   1.923
 5335SOL    HW116904   6.896   5.550   2.023
 5335SOL    HW216905   6.842   5.468   1.893
 5336SOL     OW16906   1.258   3.050   5.485
 5336SOL    HW116907   1.192   3.125   5.473
 5336SOL    HW216908   1.327   3.077   5.552
 5337SOL     OW16909   6.500   2.423   1.029
 5337SOL    HW116910   6.549   2.403   1.114
 5337SOL    HW216911   6.524   2.514   0.997
 5338SOL     OW16912   6.825   2.943   1.686
 5338SOL    HW116913   6.864   2.903   1.603
 5338SOL    HW216914   6.815   3.041   1.675
 5339SOL     OW16915   4.946   3.757   2.837
 5339SOL    HW116916   4.879   3.759   2.912
 5339SOL    HW216917   4.900   3.734   2.752
 5340SOL     OW16918   5.680   4.062   1.252
 5340SOL    HW116919   5.621   4.013   1.316
 5340SOL    HW216920   5.737   3.997   1.203
 5341SOL     OW16921   4.734   5.292   3.494
 5341SOL    HW116922   4.746   5.277   3.592
 5341SOL    HW216923   4.666   5.228   3.459
 5342SOL     OW16924   5.783   5.005   4.664
 5342SOL    HW116925   5.841   5.049   4.733
 5342SOL    HW216926   5.701   5.060   4.650
 5343SOL     OW16927   3.510   3.783   0.141
 5343SOL    HW116928   3.494   3.720   0.064
 5343SOL    HW216929   3.520   3.730   0.225
 5344SOL     OW16930   6.387   1.840   0.099
 5344SOL    HW116931   6.345   1.815   0.012
 5344SOL    HW216932   6.323   1.820   0.173
 5345SOL     OW16933   3.785   0.975   6.376
 5345SOL    HW116934   3.691   0.949   6.352
 5345SOL    HW216935   3.847   0.946   6.304
 5346SOL     OW16936   2.631   5.659   3.291
 5346SOL    HW116937   2.634   5.738   3.351
 5346SOL    HW216938   2.610   5.577   3.345
 5347SOL     OW16939   6.064   2.384   5.061
 5347SOL    HW116940   6.011   2.448   5.005
 5347SOL    HW216941   6.128   2.434   5.118
 5348SOL     OW16942   5.074   2.718   5.378
 5348SOL    HW116943   5.013   2.790   5.413
 5348SOL    HW216944   5.047   2.630   5.418
 5349SOL     OW16945   1.070   3.974   0.558
 5349SOL    HW116946   1.047   4.057   0.508
 5349SOL    HW216947   1.123   3.913   0.499
 5350SOL     OW16948   1.289   0.186   6.494
 5350SOL    HW116949   1.315   0.223   6.583
 5350SOL    HW216950   1.206   0.231   6.461
 5351SOL     OW16951   0.523   5.777   3.419
 5351SOL    HW116952   0.483   5.841   3.484
 5351SOL    HW216953   0.619   5.799   3.404
 5352SOL     OW16954   0.455   2.604   6.051
 5352SOL    HW116955   0.390   2.656   6.106
 5352SOL    HW216956   0.548   2.624   6.082
 5353SOL     OW16957   2.296   6.315   2.902
 5353SOL    HW116958   2.206   6.281   2.929
 5353SOL    HW216959   2.286   6.397   2.846
 5354SOL     OW16960   2.940   5.986   1.426
 5354SOL    HW116961   2.922   6.031   1.338
 5354SOL    HW216962   2.948   5.888   1.413
 5355SOL     OW16963   4.920   4.156   5.859
 5355SOL    HW116964   5.012   4.155   5.819
 5355SOL    HW216965   4.890   4.250   5.873
 5356SOL     OW16966   6.923   6.868   1.598
 5356SOL    HW116967   6.836   6.832   1.563
 5356SOL    HW216968   6.977   6.793   1.635
 5357SOL     OW16969   6.472   3.326   2.426
 5357SOL    HW116970   6.456   3.322   2.327
 5357SOL    HW216971   6.454   3.419   2.458
 5358SOL     OW16972   5.539   6.664   6.240
 5358SOL    HW116973   5.567   6.735   6.175
 5358SOL    HW216974   5.619   6.612   6.270
 5359SOL     OW16975   3.310   1.761   6.827
 5359SOL    HW116976   3.233   1.820   6.852
 5359SOL    HW216977   3.302   1.673   6.874
 5360SOL     OW16978   5.308   5.707   3.210
 5360SOL    HW116979   5.218   5.677   3.242
 5360SOL    HW216980   5.330   5.795   3.251
 5361SOL     OW16981   1.339   4.045   2.746
 5361SOL    HW116982   1.432   4.012   2.766
 5361SOL    HW216983   1.341   4.100   2.663
 5362SOL     OW16984   5.777   1.704   4.048
 5362SOL    HW116985   5.763   1.803   4.046
 5362SOL    HW216986   5.867   1.684   4.088
 5363SOL     OW16987   6.348   4.564   6.200
 5363SOL    HW116988   6.326   4.517   6.114
 5363SOL    HW216989   6.412   4.638   6.182
 5364SOL     OW16990   5.039   2.453   1.412
 5364SOL    HW116991   5.051   2.545   1.449
 5364SOL    HW216992   5.128   2.408   1.404
 5365SOL     OW16993   3.064   3.578   6.146
 5365SOL    HW116994   3.080   3.491   6.099
 5365SOL    HW216995   2.990   3.628   6.100
 5366SOL     OW16996   6.748   4.493   3.816
 5366SOL    HW116997   6.675   4.518   3.879
 5366SOL    HW216998   6.733   4.539   3.728
 5367SOL     OW16999   5.956   5.653   0.756
 5367SOL    HW117000   5.913   5.644   0.846
 5367SOL    HW217001   6.025   5.581   0.744
 5368SOL     OW17002   0.350   5.585   5.309
 5368SOL    HW117003   0.327   5.545   5.221
 5368SOL    HW217004   0.362   5.684   5.299
 5369SOL     OW17005   3.390   0.205   2.646
 5369SOL    HW117006   3.305   0.221   2.696
 5369SOL    HW217007   3.382   0.244   2.554
 5370SOL     OW17008   2.490   2.356   0.479
 5370SOL    HW117009   2.566   2.291   0.481
 5370SOL    HW217010   2.404   2.307   0.460
 5371SOL     OW17011   6.237   5.077   3.305
 5371SOL    HW117012   6.301   5.154   3.294
 5371SOL    HW217013   6.143   5.112   3.309
 5372SOL     OW17014   0.568   1.278   4.468
 5372SOL    HW117015   0.509   1.347   4.509
 5372SOL    HW217016   0.534   1.187   4.492
 5373SOL     OW17017   3.775   0.164   0.513
 5373SOL    HW117018   3.750   0.106   0.590
 5373SOL    HW217019   3.857   0.127   0.468
 5374SOL     OW17020   1.579   3.630   1.208
 5374SOL    HW117021   1.523   3.559   1.164
 5374SOL    HW217022   1.631   3.679   1.138
 5375SOL     OW17023   3.039   5.120   4.896
 5375SOL    HW117024   3.102   5.064   4.843
 5375SOL    HW217025   2.952   5.072   4.906
 5376SOL     OW17026   6.895   6.770   2.480
 5376SOL    HW117027   6.840   6.686   2.482
 5376SOL    HW217028   6.992   6.746   2.477
 5377SOL     OW17029   0.479   2.613   1.152
 5377SOL    HW117030   0.547   2.584   1.220
 5377SOL    HW217031   0.412   2.540   1.139
 5378SOL     OW17032   4.418   0.265   4.128
 5378SOL    HW117033   4.466   0.178   4.143
 5378SOL    HW217034   4.403   0.279   4.030
 5379SOL     OW17035   3.284   2.146   4.380
 5379SOL    HW117036   3.188   2.157   4.404
 5379SOL    HW217037   3.341   2.189   4.450
 5380SOL     OW17038   4.691   7.001   1.360
 5380SOL    HW117039   4.636   0.048   1.311
 5380SOL    HW217040   4.725   6.933   1.296
 5381SOL     OW17041   2.446   2.124   2.959
 5381SOL    HW117042   2.517   2.078   3.012
 5381SOL    HW217043   2.483   2.151   2.870
 5382SOL     OW17044   4.750   0.415   3.043
 5382SOL    HW117045   4.827   0.470   3.076
 5382SOL    HW217046   4.768   0.319   3.062
 5383SOL     OW17047   2.335   4.401   5.321
 5383SOL    HW117048   2.295   4.321   5.277
 5383SOL    HW217049   2.386   4.454   5.254
 5384SOL     OW17050   5.713   6.339   5.909
 5384SOL    HW117051   5.711   6.260   5.969
 5384SOL    HW217052   5.659   6.413   5.949
 5385SOL     OW17053   3.495   3.894   1.013
 5385SOL    HW117054   3.426   3.966   1.005
 5385SOL    HW217055   3.517   3.879   1.109
 5386SOL     OW17056   4.280   5.082   2.682
 5386SOL    HW117057   4.378   5.073   2.698
 5386SOL    HW217058   4.235   5.111   2.767
 5387SOL     OW17059   0.685   2.729   5.343
 5387SOL    HW117060   0.652   2.791   5.414
 5387SOL    HW217061   0.779   2.755   5.318
 5388SOL     OW17062   6.702   6.707   3.221
 5388SOL    HW117063   6.730   6.770   3.294
 5388SOL    HW217064   6.724   6.613   3.249
 5389SOL     OW17065   6.420   1.571   4.589
 5389SOL    HW117066   6.421   1.506   4.513
 5389SOL    HW217067   6.513   1.602   4.608
 5390SOL     OW17068   5.566   2.789   3.137
 5390SOL    HW117069   5.478   2.783   3.091
 5390SOL    HW217070   5.624   2.712   3.109
 5391SOL     OW17071   4.483   3.473   1.192
 5391SOL    HW117072   4.572   3.444   1.159
 5391SOL    HW217073   4.494   3.554   1.251
 5392SOL     OW17074   5.255   0.962   3.806
 5392SOL    HW117075   5.345   0.982   3.768
 5392SOL    HW217076   5.254   0.983   3.904
 5393SOL     OW17077   5.028   3.157   2.728
 5393SOL    HW117078   5.107   3.108   2.692
 5393SOL    HW217079   5.054   3.249   2.756
 5394SOL     OW17080   0.631   2.782   3.479
 5394SOL    HW117081   0.669   2.840   3.551
 5394SOL    HW217082   0.705   2.728   3.437
 5395SOL     OW17083   0.828   0.650   1.618
 5395SOL    HW117084   0.783   0.589   1.683
 5395SOL    HW217085   0.882   0.596   1.554
 5396SOL     OW17086   3.972   2.187   0.440
 5396SOL    HW117087   4.027   2.257   0.485
 5396SOL    HW217088   3.875   2.203   0.461
 5397SOL     OW17089   0.803   6.533   3.015
 5397SOL    HW117090   0.804   6.482   3.100
 5397SOL    HW217091   0.720   6.588   3.009
 5398SOL     OW17092   5.459   2.029   3.416
 5398SOL    HW117093   5.492   2.085   3.340
 5398SOL    HW217094   5.459   2.083   3.500
 5399SOL     OW17095   2.875   2.462   0.247
 5399SOL    HW117096   2.928   2.512   0.315
 5399SOL    HW217097   2.779   2.489   0.253
 5400SOL     OW17098   4.727   3.083   0.958
 5400SOL    HW117099   4.801   3.017   0.940
 5400SOL    HW217100   4.725   3.104   1.056
 5401SOL     OW17101   4.887   4.495   1.594
 5401SOL    HW117102   4.957   4.510   1.524
 5401SOL    HW217103   4.930   4.493   1.684
 5402SOL     OW17104   2.064   5.546   1.941
 5402SOL    HW117105   1.977   5.498   1.952
 5402SOL    HW217106   2.135   5.499   1.992
 5403SOL     OW17107   6.301   2.782   4.998
 5403SOL    HW117108   6.342   2.862   4.955
 5403SOL    HW217109   6.211   2.806   5.035
 5404SOL     OW17110   4.762   6.370   0.229
 5404SOL    HW117111   4.681   6.385   0.173
 5404SOL    HW217112   4.745   6.401   0.322
 5405SOL     OW17113   6.210   5.216   6.096
 5405SOL    HW117114   6.300   5.253   6.120
 5405SOL    HW217115   6.139   5.263   6.148
 5406SOL     OW17116   2.012   1.470   5.512
 5406SOL    HW117117   2.054   1.559   5.493
 5406SOL    HW217118   2.077   1.412   5.561
 5407SOL     OW17119   1.911   1.881   2.652
 5407SOL    HW117120   1.836   1.875   2.718
 5407SOL    HW217121   1.916   1.797   2.599
 5408SOL     OW17122   2.310   2.801   4.244
 5408SOL    HW117123   2.279   2.751   4.325
 5408SOL    HW217124   2.380   2.748   4.197
 5409SOL     OW17125   0.149   4.555   3.509
 5409SOL    HW117126   0.191   4.465   3.502
 5409SOL    HW217127   0.165   4.592   3.600
 5410SOL     OW17128   6.083   1.208   0.197
 5410SOL    HW117129   6.032   1.196   0.282
 5410SOL    HW217130   6.113   1.304   0.189
 5411SOL     OW17131   2.846   6.226   2.081
 5411SOL    HW117132   2.846   6.304   2.018
 5411SOL    HW217133   2.813   6.145   2.033
 5412SOL     OW17134   2.391   2.213   5.824
 5412SOL    HW117135   2.436   2.295   5.789
 5412SOL    HW217136   2.339   2.236   5.905
 5413SOL     OW17137   6.801   5.321   5.563
 5413SOL    HW117138   6.833   5.246   5.621
 5413SOL    HW217139   6.874   5.349   5.501
 5414SOL     OW17140   6.119   5.508   5.478
 5414SOL    HW117141   6.207   5.533   5.437
 5414SOL    HW217142   6.106   5.409   5.472
 5415SOL     OW17143   2.103   0.546   0.302
 5415SOL    HW117144   2.131   0.463   0.352
 5415SOL    HW217145   2.003   0.555   0.307
 5416SOL     OW17146   4.207   4.861   6.114
 5416SOL    HW117147   4.208   4.772   6.159
 5416SOL    HW217148   4.268   4.859   6.035
 5417SOL     OW17149   5.361   0.547   1.960
 5417SOL    HW117150   5.374   0.448   1.958
 5417SOL    HW217151   5.303   0.575   1.884
 5418SOL     OW17152   0.129   2.590   5.928
 5418SOL    HW117153   0.036   2.553   5.925
 5418SOL    HW217154   0.195   2.514   5.927
 5419SOL     OW17155   4.203   2.424   5.839
 5419SOL    HW117156   4.215   2.520   5.863
 5419SOL    HW217157   4.127   2.385   5.892
 5420SOL     OW17158   1.527   2.084   1.502
 5420SOL    HW117159   1.523   2.149   1.426
 5420SOL    HW217160   1.454   2.017   1.493
 5421SOL     OW17161   4.094   5.686   1.094
 5421SOL    HW117162   4.074   5.589   1.105
 5421SOL    HW217163   4.015   5.732   1.054
 5422SOL     OW17164   2.449   6.535   3.304
 5422SOL    HW117165   2.516   6.542   3.379
 5422SOL    HW217166   2.364   6.580   3.331
 5423SOL     OW17167   4.232   6.541   2.662
 5423SOL    HW117168   4.235   6.610   2.589
 5423SOL    HW217169   4.259   6.582   2.749
 5424SOL     OW17170   4.092   3.300   6.158
 5424SOL    HW117171   4.043   3.278   6.243
 5424SOL    HW217172   4.034   3.278   6.080
 5425SOL     OW17173   1.940   5.588   4.597
 5425SOL    HW117174   2.026   5.638   4.605
 5425SOL    HW217175   1.883   5.608   4.678
 5426SOL     OW17176   2.042   3.962   0.049
 5426SOL    HW117177   2.042   4.002   0.141
 5426SOL    HW217178   2.029   4.035   7.002
 5427SOL     OW17179   4.624   1.275   0.254
 5427SOL    HW117180   4.539   1.326   0.244
 5427SOL    HW217181   4.674   1.274   0.167
 5428SOL     OW17182   4.785   5.610   2.292
 5428SOL    HW117183   4.880   5.642   2.282
 5428SOL    HW217184   4.727   5.685   2.323
 5429SOL     OW17185   2.771   6.225   3.439
 5429SOL    HW117186   2.826   6.236   3.356
 5429SOL    HW217187   2.724   6.311   3.459
 5430SOL     OW17188   0.970   3.699   5.330
 5430SOL    HW117189   0.873   3.718   5.313
 5430SOL    HW217190   1.020   3.785   5.334
 5431SOL     OW17191   5.359   4.474   0.865
 5431SOL    HW117192   5.330   4.558   0.819
 5431SOL    HW217193   5.286   4.406   0.859
 5432SOL     OW17194   1.916   4.994   5.677
 5432SOL    HW117195   1.983   5.018   5.747
 5432SOL    HW217196   1.928   4.898   5.650
 5433SOL     OW17197   2.699   6.886   1.272
 5433SOL    HW117198   2.797   6.873   1.255
 5433SOL    HW217199   2.668   6.822   1.343
 5434SOL     OW17200   5.464   5.689   4.173
 5434SOL    HW117201   5.387   5.677   4.235
 5434SOL    HW217202   5.494   5.784   4.174
 5435SOL     OW17203   0.397   2.888   0.041
 5435SOL    HW117204   0.490   2.905   0.010
 5435SOL    HW217205   0.336   2.881   6.982
 5436SOL     OW17206   1.173   4.542   0.834
 5436SOL    HW117207   1.182   4.480   0.912
 5436SOL    HW217208   1.078   4.543   0.802
 5437SOL     OW17209   2.978   6.472   5.842
 5437SOL    HW117210   2.933   6.467   5.753
 5437SOL    HW217211   2.910   6.490   5.913
 5438SOL     OW17212   4.894   6.566   3.362
 5438SOL    HW117213   4.939   6.599   3.279
 5438SOL    HW217214   4.955   6.503   3.410
 5439SOL     OW17215   1.303   3.452   2.045
 5439SOL    HW117216   1.324   3.355   2.037
 5439SOL    HW217217   1.290   3.492   1.954
 5440SOL     OW17218   5.116   6.174   3.180
 5440SOL    HW117219   5.215   6.187   3.172
 5440SOL    HW217220   5.090   6.180   3.276
 5441SOL     OW17221   5.906   0.315   4.996
 5441SOL    HW117222   5.988   0.363   5.027
 5441SOL    HW217223   5.932   0.232   4.947
 5442SOL     OW17224   2.809   6.118   6.998
 5442SOL    HW117225   2.889   6.157   6.953
 5442SOL    HW217226   2.778   6.036   6.949
 5443SOL     OW17227   6.401   1.211   3.186
 5443SOL    HW117228   6.311   1.191   3.223
 5443SOL    HW217229   6.446   1.280   3.242
 5444SOL     OW17230   2.032   1.580   6.619
 5444SOL    HW117231   2.096   1.656   6.601
 5444SOL    HW217232   2.045   1.509   6.550
 5445SOL     OW17233   6.244   6.620   5.194
 5445SOL    HW117234   6.180   6.566   5.248
 5445SOL    HW217235   6.256   6.579   5.104
 5446SOL     OW17236   2.547   4.006   0.024
 5446SOL    HW117237   2.599   3.963   0.098
 5446SOL    HW217238   2.451   3.980   0.030
 5447SOL     OW17239   5.424   2.792   1.887
 5447SOL    HW117240   5.366   2.872   1.875
 5447SOL    HW217241   5.394   2.719   1.824
 5448SOL     OW17242   5.890   5.635   1.027
 5448SOL    HW117243   5.909   5.559   1.089
 5448SOL    HW217244   5.920   5.720   1.069
 5449SOL     OW17245   2.030   7.019   2.630
 5449SOL    HW117246   2.062   0.027   2.539
 5449SOL    HW217247   1.972   0.070   2.668
 5450SOL     OW17248   4.153   4.598   1.723
 5450SOL    HW117249   4.096   4.627   1.646
 5450SOL    HW217250   4.196   4.510   1.700
 5451SOL     OW17251   0.791   5.567   3.287
 5451SOL    HW117252   0.887   5.543   3.272
 5451SOL    HW217253   0.786   5.654   3.337
 5452SOL     OW17254   2.213   3.873   3.427
 5452SOL    HW117255   2.202   3.792   3.370
 5452SOL    HW217256   2.185   3.954   3.376
 5453SOL     OW17257   6.098   5.705   4.343
 5453SOL    HW117258   6.055   5.614   4.341
 5453SOL    HW217259   6.044   5.768   4.287
 5454SOL     OW17260   6.572   4.243   1.767
 5454SOL    HW117261   6.564   4.239   1.867
 5454SOL    HW217262   6.492   4.288   1.729
 5455SOL     OW17263   2.159   2.436   2.822
 5455SOL    HW117264   2.225   2.420   2.896
 5455SOL    HW217265   2.127   2.349   2.785
 5456SOL     OW17266   5.634   2.833   0.147
 5456SOL    HW117267   5.685   2.748   0.132
 5456SOL    HW217268   5.539   2.811   0.167
 5457SOL     OW17269   5.547   1.258   0.756
 5457SOL    HW117270   5.529   1.339   0.811
 5457SOL    HW217271   5.468   1.240   0.697
 5458SOL     OW17272   6.219   4.515   5.954
 5458SOL    HW117273   6.272   4.585   5.907
 5458SOL    HW217274   6.121   4.536   5.946
 5459SOL     OW17275   1.986   3.559   5.450
 5459SOL    HW117276   1.960   3.463   5.438
 5459SOL    HW217277   2.044   3.568   5.530
 5460SOL     OW17278   6.781   1.183   1.263
 5460SOL    HW117279   6.789   1.149   1.357
 5460SOL    HW217280   6.844   1.260   1.250
 5461SOL     OW17281   5.743   0.701   6.260
 5461SOL    HW117282   5.820   0.731   6.316
 5461SOL    HW217283   5.777   0.670   6.171
 5462SOL     OW17284   5.683   4.677   0.306
 5462SOL    HW117285   5.713   4.696   0.400
 5462SOL    HW217286   5.692   4.759   0.250
 5463SOL     OW17287   3.080   4.528   0.143
 5463SOL    HW117288   3.156   4.487   0.194
 5463SOL    HW217289   3.008   4.555   0.208
 5464SOL     OW17290   2.264   5.875   4.229
 5464SOL    HW117291   2.330   5.868   4.155
 5464SOL    HW217292   2.291   5.948   4.292
 5465SOL     OW17293   0.596   1.408   4.808
 5465SOL    HW117294   0.663   1.481   4.822
 5465SOL    HW217295   0.640   1.319   4.821
 5466SOL     OW17296   5.141   2.082   4.754
 5466SOL    HW117297   5.072   2.142   4.792
 5466SOL    HW217298   5.177   2.022   4.826
 5467SOL     OW17299   4.861   4.507   3.332
 5467SOL    HW117300   4.942   4.550   3.372
 5467SOL    HW217301   4.795   4.578   3.306
 5468SOL     OW17302   0.350   2.348   1.093
 5468SOL    HW117303   0.301   2.339   1.007
 5468SOL    HW217304   0.366   2.257   1.132
 5469SOL     OW17305   4.701   0.933   3.055
 5469SOL    HW117306   4.644   0.920   2.974
 5469SOL    HW217307   4.674   0.867   3.125
 5470SOL     OW17308   2.580   4.643   3.734
 5470SOL    HW117309   2.581   4.584   3.653
 5470SOL    HW217310   2.648   4.715   3.724
 5471SOL     OW17311   5.357   0.329   3.726
 5471SOL    HW117312   5.311   0.358   3.643
 5471SOL    HW217313   5.319   0.379   3.804
 5472SOL     OW17314   2.975   4.129   6.994
 5472SOL    HW117315   2.894   4.171   0.014
 5472SOL    HW217316   2.958   4.108   6.897
 5473SOL     OW17317   3.007   4.824   2.023
 5473SOL    HW117318   2.919   4.813   2.069
 5473SOL    HW217319   3.022   4.747   1.961
 5474SOL     OW17320   0.766   5.523   1.981
 5474SOL    HW117321   0.810   5.583   2.048
 5474SOL    HW217322   0.678   5.491   2.017
 5475SOL     OW17323   0.579   1.080   5.681
 5475SOL    HW117324   0.524   1.066   5.599
 5475SOL    HW217325   0.655   1.015   5.682
 5476SOL     OW17326   3.028   1.258   4.535
 5476SOL    HW117327   2.942   1.295   4.500
 5476SOL    HW217328   3.094   1.332   4.549
 5477SOL     OW17329   2.099   4.045   3.140
 5477SOL    HW117330   2.141   4.010   3.056
 5477SOL    HW217331   2.000   4.028   3.137
 5478SOL     OW17332   6.445   2.898   5.645
 5478SOL    HW117333   6.483   2.990   5.639
 5478SOL    HW217334   6.512   2.836   5.686
 5479SOL     OW17335   5.200   3.940   4.580
 5479SOL    HW117336   5.268   3.908   4.646
 5479SOL    HW217337   5.134   3.998   4.626
 5480SOL     OW17338   1.957   2.667   6.140
 5480SOL    HW117339   1.880   2.670   6.203
 5480SOL    HW217340   1.967   2.756   6.095
 5481SOL     OW17341   3.403   1.028   0.638
 5481SOL    HW117342   3.433   1.015   0.543
 5481SOL    HW217343   3.460   1.098   0.681
 5482SOL     OW17344   5.268   4.481   2.040
 5482SOL    HW117345   5.298   4.558   2.095
 5482SOL    HW217346   5.346   4.442   1.990
 5483SOL     OW17347   5.714   1.576   0.594
 5483SOL    HW117348   5.708   1.625   0.507
 5483SOL    HW217349   5.659   1.624   0.662
 5484SOL     OW17350   5.932   0.378   6.049
 5484SOL    HW117351   5.971   0.294   6.012
 5484SOL    HW217352   6.003   0.430   6.096
 5485SOL     OW17353   2.953   1.313   3.828
 5485SOL    HW117354   2.958   1.380   3.902
 5485SOL    HW217355   2.991   1.352   3.745
 5486SOL     OW17356   0.012   0.673   3.962
 5486SOL    HW117357   6.998   0.718   3.880
 5486SOL    HW217358   0.110   0.692   3.973
 5487SOL     OW17359   4.366   5.699   1.360
 5487SOL    HW117360   4.462   5.715   1.384
 5487SOL    HW217361   4.361   5.646   1.276
 5488SOL     OW17362   4.766   0.215   6.331
 5488SOL    HW117363   4.706   0.295   6.326
 5488SOL    HW217364   4.722   0.145   6.387
 5489SOL     OW17365   6.625   3.929   2.546
 5489SOL    HW117366   6.628   3.972   2.636
 5489SOL    HW217367   6.534   3.890   2.531
 5490SOL     OW17368   2.918   0.925   6.869
 5490SOL    HW117369   2.890   0.891   6.779
 5490SOL    HW217370   2.851   0.991   6.902
 5491SOL     OW17371   6.082   6.816   1.456
 5491SOL    HW117372   6.146   6.753   1.412
 5491SOL    HW217373   6.127   6.863   1.531
 5492SOL     OW17374   1.757   1.582   5.292
 5492SOL    HW117375   1.775   1.646   5.217
 5492SOL    HW217376   1.716   1.499   5.255
 5493SOL     OW17377   3.827   1.087   0.045
 5493SOL    HW117378   3.926   1.106   0.045
 5493SOL    HW217379   3.808   1.011   0.106
 5494SOL     OW17380   5.323   3.257   2.446
 5494SOL    HW117381   5.374   3.260   2.360
 5494SOL    HW217382   5.331   3.345   2.493
 5495SOL     OW17383   3.407   3.229   4.934
 5495SOL    HW117384   3.363   3.257   5.019
 5495SOL    HW217385   3.354   3.155   4.892
 5496SOL     OW17386   4.401   4.925   2.128
 5496SOL    HW117387   4.317   4.947   2.178
 5496SOL    HW217388   4.461   5.005   2.128
 5497SOL     OW17389   5.498   0.162   0.052
 5497SOL    HW117390   5.469   0.214   0.133
 5497SOL    HW217391   5.429   0.171   7.000
 5498SOL     OW17392   3.831   0.993   4.261
 5498SOL    HW117393   3.819   1.009   4.359
 5498SOL    HW217394   3.800   1.074   4.211
 5499SOL     OW17395   0.329   0.667   4.832
 5499SOL    HW117396   0.293   0.701   4.919
 5499SOL    HW217397   0.428   0.671   4.832
 5500SOL     OW17398   2.119   6.535   0.559
 5500SOL    HW117399   2.153   6.624   0.592
 5500SOL    HW217400   2.164   6.462   0.609
 5501SOL     OW17401   2.307   1.259   2.297
 5501SOL    HW117402   2.337   1.345   2.339
 5501SOL    HW217403   2.250   1.280   2.217
 5502SOL     OW17404   5.426   4.489   0.508
 5502SOL    HW117405   5.417   4.541   0.424
 5502SOL    HW217406   5.518   4.499   0.545
 5503SOL     OW17407   6.660   0.773   3.811
 5503SOL    HW117408   6.595   0.742   3.880
 5503SOL    HW217409   6.674   0.872   3.820
 5504SOL     OW17410   2.614   2.170   4.959
 5504SOL    HW117411   2.646   2.153   5.052
 5504SOL    HW217412   2.618   2.268   4.940
 5505SOL     OW17413   3.625   4.977   0.696
 5505SOL    HW117414   3.592   4.951   0.787
 5505SOL    HW217415   3.672   4.900   0.654
 5506SOL     OW17416   1.322   6.777   4.810
 5506SOL    HW117417   1.315   6.727   4.723
 5506SOL    HW217418   1.250   6.846   4.814
 5507SOL     OW17419   2.551   5.290   4.991
 5507SOL    HW117420   2.633   5.254   5.035
 5507SOL    HW217421   2.470   5.241   5.026
 5508SOL     OW17422   2.275   1.103   5.599
 5508SOL    HW117423   2.363   1.112   5.553
 5508SOL    HW217424   2.231   1.193   5.603
 5509SOL     OW17425   6.973   0.329   5.618
 5509SOL    HW117426   6.999   0.409   5.672
 5509SOL    HW217427   0.025   0.260   5.623
 5510SOL     OW17428   0.812   0.276   5.354
 5510SOL    HW117429   0.805   0.366   5.396
 5510SOL    HW217430   0.872   0.218   5.410
 5511SOL     OW17431   0.128   2.279   0.872
 5511SOL    HW117432   0.204   2.217   0.894
 5511SOL    HW217433   0.057   2.228   0.823
 5512SOL     OW17434   6.432   6.418   0.185
 5512SOL    HW117435   6.378   6.361   0.122
 5512SOL    HW217436   6.481   6.487   0.132
 5513SOL     OW17437   2.440   6.067   4.377
 5513SOL    HW117438   2.471   6.082   4.470
 5513SOL    HW217439   2.518   6.049   4.318
 5514SOL     OW17440   5.531   5.792   3.483
 5514SOL    HW117441   5.479   5.858   3.429
 5514SOL    HW217442   5.479   5.708   3.493
 5515SOL     OW17443   0.521   3.865   3.659
 5515SOL    HW117444   0.508   3.947   3.714
 5515SOL    HW217445   0.616   3.860   3.627
 5516SOL     OW17446   2.030   2.917   0.187
 5516SOL    HW117447   1.983   2.986   0.133
 5516SOL    HW217448   1.966   2.877   0.253
 5517SOL     OW17449   3.023   0.844   2.316
 5517SOL    HW117450   2.932   0.802   2.320
 5517SOL    HW217451   3.087   0.791   2.371
 5518SOL     OW17452   5.744   3.431   5.689
 5518SOL    HW117453   5.755   3.529   5.677
 5518SOL    HW217454   5.672   3.398   5.627
 5519SOL     OW17455   5.489   4.254   2.281
 5519SOL    HW117456   5.419   4.264   2.351
 5519SOL    HW217457   5.499   4.158   2.256
 5520SOL     OW17458   1.477   2.977   0.982
 5520SOL    HW117459   1.416   2.947   1.056
 5520SOL    HW217460   1.545   2.905   0.964
 5521SOL     OW17461   5.366   4.347   6.468
 5521SOL    HW117462   5.436   4.385   6.528
 5521SOL    HW217463   5.384   4.376   6.374
 5522SOL     OW17464   1.596   2.900   1.645
 5522SOL    HW117465   1.649   2.869   1.566
 5522SOL    HW217466   1.649   2.969   1.695
 5523SOL     OW17467   2.352   6.395   1.772
 5523SOL    HW117468   2.430   6.367   1.715
 5523SOL    HW217469   2.328   6.319   1.833
 5524SOL     OW17470   6.263   6.631   5.806
 5524SOL    HW117471   6.189   6.604   5.743
 5524SOL    HW217472   6.225   6.690   5.877
 5525SOL     OW17473   6.513   6.421   3.081
 5525SOL    HW117474   6.487   6.325   3.080
 5525SOL    HW217475   6.594   6.433   3.138
 5526SOL     OW17476   5.759   3.497   4.677
 5526SOL    HW117477   5.728   3.498   4.582
 5526SOL    HW217478   5.831   3.565   4.690
 5527SOL     OW17479   2.893   3.078   0.241
 5527SOL    HW117480   2.848   3.039   0.160
 5527SOL    HW217481   2.869   3.024   0.322
 5528SOL     OW17482   6.437   2.967   2.970
 5528SOL    HW117483   6.500   3.044   2.966
 5528SOL    HW217484   6.465   2.897   2.904
 5529SOL     OW17485   1.475   0.739   4.225
 5529SOL    HW117486   1.551   0.753   4.289
 5529SOL    HW217487   1.396   0.793   4.255
 5530SOL     OW17488   6.760   3.304   6.654
 5530SOL    HW117489   6.752   3.369   6.729
 5530SOL    HW217490   6.670   3.273   6.626
 5531SOL     OW17491   2.913   3.356   0.672
 5531SOL    HW117492   2.813   3.351   0.669
 5531SOL    HW217493   2.952   3.294   0.604
 5532SOL     OW17494   2.600   2.358   1.921
 5532SOL    HW117495   2.574   2.314   2.007
 5532SOL    HW217496   2.693   2.393   1.929
 5533SOL     OW17497   2.902   0.453   1.027
 5533SOL    HW117498   2.813   0.483   0.992
 5533SOL    HW217499   2.955   0.533   1.055
 5534SOL     OW17500   0.572   3.335   5.149
 5534SOL    HW117501   0.668   3.308   5.159
 5534SOL    HW217502   0.526   3.328   5.238
 5535SOL     OW17503   5.046   4.655   3.489
 5535SOL    HW117504   5.059   4.606   3.575
 5535SOL    HW217505   5.096   4.742   3.491
 5536SOL     OW17506   2.237   1.372   4.669
 5536SOL    HW117507   2.326   1.347   4.629
 5536SOL    HW217508   2.170   1.381   4.596
 5537SOL     OW17509   3.612   1.284   3.697
 5537SOL    HW117510   3.555   1.251   3.621
 5537SOL    HW217511   3.556   1.337   3.760
 5538SOL     OW17512   4.773   2.497   2.495
 5538SOL    HW117513   4.706   2.433   2.531
 5538SOL    HW217514   4.727   2.576   2.454
 5539SOL     OW17515   1.396   0.735   6.286
 5539SOL    HW117516   1.317   0.760   6.342
 5539SOL    HW217517   1.385   0.642   6.251
 5540SOL     OW17518   5.032   6.921   5.037
 5540SOL    HW117519   5.040   6.915   5.136
 5540SOL    HW217520   5.123   6.911   4.995
 5541SOL     OW17521   4.269   3.096   5.635
 5541SOL    HW117522   4.320   3.010   5.639
 5541SOL    HW217523   4.247   3.118   5.540
 5542SOL     OW17524   4.734   4.262   6.591
 5542SOL    HW117525   4.676   4.184   6.615
 5542SOL    HW217526   4.677   4.339   6.564
 5543SOL     OW17527   0.602   0.457   6.145
 5543SOL    HW117528   0.655   0.372   6.143
 5543SOL    HW217529   0.580   0.485   6.052
 5544SOL     OW17530   3.738   5.149   0.466
 5544SOL    HW117531   3.707   5.245   0.464
 5544SOL    HW217532   3.718   5.110   0.555
 5545SOL     OW17533   5.614   1.827   3.092
 5545SOL    HW117534   5.650   1.894   3.158
 5545SOL    HW217535   5.520   1.850   3.069
 5546SOL     OW17536   0.802   6.494   4.347
 5546SOL    HW117537   0.742   6.572   4.359
 5546SOL    HW217538   0.748   6.413   4.324
 5547SOL     OW17539   5.213   1.649   4.499
 5547SOL    HW117540   5.155   1.576   4.533
 5547SOL    HW217541   5.162   1.735   4.499
 5548SOL     OW17542   1.326   3.861   5.073
 5548SOL    HW117543   1.254   3.822   5.015
 5548SOL    HW217544   1.285   3.895   5.158
 5549SOL     OW17545   4.131   2.858   0.593
 5549SOL    HW117546   4.171   2.773   0.561
 5549SOL    HW217547   4.135   2.927   0.520
 5550SOL     OW17548   3.175   3.674   1.785
 5550SOL    HW117549   3.159   3.740   1.859
 5550SOL    HW217550   3.253   3.615   1.809
 5551SOL     OW17551   1.541   4.231   2.495
 5551SOL    HW117552   1.619   4.219   2.556
 5551SOL    HW217553   1.566   4.294   2.421
 5552SOL     OW17554   0.623   0.696   0.294
 5552SOL    HW117555   0.690   0.621   0.297
 5552SOL    HW217556   0.544   0.672   0.350
 5553SOL     OW17557   5.826   5.919   0.726
 5553SOL    HW117558   5.876   5.833   0.738
 5553SOL    HW217559   5.891   5.995   0.726
 5554SOL     OW17560   6.706   2.653   1.446
 5554SOL    HW117561   6.628   2.682   1.391
 5554SOL    HW217562   6.779   2.721   1.437
 5555SOL     OW17563   1.334   4.812   1.960
 5555SOL    HW117564   1.412   4.780   2.014
 5555SOL    HW217565   1.275   4.735   1.937
 5556SOL     OW17566   6.760   1.844   5.057
 5556SOL    HW117567   6.716   1.757   5.033
 5556SOL    HW217568   6.706   1.919   5.018
 5557SOL     OW17569   3.478   0.036   3.005
 5557SOL    HW117570   3.471   7.014   3.095
 5557SOL    HW217571   3.563   0.006   2.961
 5558SOL     OW17572   3.831   3.413   6.201
 5558SOL    HW117573   3.854   3.439   6.294
 5558SOL    HW217574   3.827   3.494   6.143
 5559SOL     OW17575   3.791   0.514   2.548
 5559SOL    HW117576   3.837   0.459   2.618
 5559SOL    HW217577   3.798   0.467   2.460
 5560SOL     OW17578   6.969   5.586   3.595
 5560SOL    HW117579   6.929   5.495   3.593
 5560SOL    HW217580   6.995   5.609   3.689
 5561SOL     OW17581   3.495   0.717   3.569
 5561SOL    HW117582   3.529   0.770   3.491
 5561SOL    HW217583   3.487   0.776   3.649
 5562SOL     OW17584   5.045   3.291   0.909
 5562SOL    HW117585   5.025   3.341   0.825
 5562SOL    HW217586   5.018   3.195   0.898
 5563SOL     OW17587   2.037   4.066   2.381
 5563SOL    HW117588   2.040   3.990   2.315
 5563SOL    HW217589   1.986   4.037   2.463
 5564SOL     OW17590   4.406   6.847   6.632
 5564SOL    HW117591   4.464   6.894   6.699
 5564SOL    HW217592   4.406   6.899   6.546
 5565SOL     OW17593   3.125   1.968   6.105
 5565SOL    HW117594   3.205   2.001   6.055
 5565SOL    HW217595   3.131   1.869   6.116
 5566SOL     OW17596   1.302   5.189   5.370
 5566SOL    HW117597   1.325   5.222   5.279
 5566SOL    HW217598   1.308   5.089   5.372
 5567SOL     OW17599   1.125   5.027   6.664
 5567SOL    HW117600   1.026   5.010   6.662
 5567SOL    HW217601   1.143   5.120   6.696
 5568SOL     OW17602   5.492   5.210   1.943
 5568SOL    HW117603   5.425   5.225   2.015
 5568SOL    HW217604   5.515   5.298   1.899
 5569SOL     OW17605   1.548   2.193   2.698
 5569SOL    HW117606   1.537   2.238   2.787
 5569SOL    HW217607   1.633   2.224   2.655
 5570SOL     OW17608   6.621   3.918   1.196
 5570SOL    HW117609   6.608   3.941   1.292
 5570SOL    HW217610   6.606   3.820   1.183
 5571SOL     OW17611   0.082   4.614   6.617
 5571SOL    HW117612   0.018   4.618   6.540
 5571SOL    HW217613   0.167   4.661   6.592
 5572SOL     OW17614   0.965   4.515   5.405
 5572SOL    HW117615   0.981   4.583   5.476
 5572SOL    HW217616   0.952   4.425   5.447
 5573SOL     OW17617   3.245   4.952   3.367
 5573SOL    HW117618   3.340   4.936   3.392
 5573SOL    HW217619   3.232   4.927   3.271
 5574SOL     OW17620   1.205   1.298   6.271
 5574SOL    HW117621   1.165   1.272   6.184
 5574SOL    HW217622   1.297   1.336   6.256
 5575SOL     OW17623   0.061   0.463   1.954
 5575SOL    HW117624   0.114   0.409   2.020
 5575SOL    HW217625   0.085   0.559   1.962
 5576SOL     OW17626   1.790   4.624   3.554
 5576SOL    HW117627   1.831   4.544   3.598
 5576SOL    HW217628   1.831   4.707   3.589
 5577SOL     OW17629   2.779   2.399   6.415
 5577SOL    HW117630   2.746   2.333   6.348
 5577SOL    HW217631   2.877   2.415   6.402
 5578SOL     OW17632   3.610   3.832   3.990
 5578SOL    HW117633   3.553   3.809   3.911
 5578SOL    HW217634   3.670   3.755   4.011
 5579SOL     OW17635   5.984   3.210   1.641
 5579SOL    HW117636   5.992   3.121   1.596
 5579SOL    HW217637   6.050   3.214   1.716
 5580SOL     OW17638   5.345   2.376   6.327
 5580SOL    HW117639   5.418   2.415   6.271
 5580SOL    HW217640   5.363   2.394   6.423
 5581SOL     OW17641   1.455   1.407   6.185
 5581SOL    HW117642   1.552   1.403   6.211
 5581SOL    HW217643   1.448   1.411   6.085
 5582SOL     OW17644   2.862   2.367   5.991
 5582SOL    HW117645   2.936   2.312   6.032
 5582SOL    HW217646   2.822   2.317   5.915
 5583SOL     OW17647   5.870   6.628   0.945
 5583SOL    HW117648   5.923   6.689   0.887
 5583SOL    HW217649   5.772   6.646   0.933
 5584SOL     OW17650   1.069   3.317   4.915
 5584SOL    HW117651   1.100   3.330   4.821
 5584SOL    HW217652   1.129   3.253   4.961
 5585SOL     OW17653   6.311   4.895   1.210
 5585SOL    HW117654   6.318   4.993   1.190
 5585SOL    HW217655   6.260   4.882   1.295
 5586SOL     OW17656   1.058   6.580   1.856
 5586SOL    HW117657   1.082   6.489   1.824
 5586SOL    HW217658   0.993   6.622   1.793
 5587SOL     OW17659   5.746   0.780   5.282
 5587SOL    HW117660   5.739   0.701   5.342
 5587SOL    HW217661   5.706   0.758   5.193
 5588SOL     OW17662   2.937   6.870   0.875
 5588SOL    HW117663   2.858   6.927   0.855
 5588SOL    HW217664   2.955   6.871   0.974
 5589SOL     OW17665   0.431   4.339   5.530
 5589SOL    HW117666   0.379   4.335   5.444
 5589SOL    HW217667   0.516   4.389   5.514
 5590SOL     OW17668   5.962   5.207   3.347
 5590SOL    HW117669   5.953   5.255   3.434
 5590SOL    HW217670   5.883   5.148   3.332
 5591SOL     OW17671   5.336   1.783   2.842
 5591SOL    HW117672   5.360   1.872   2.802
 5591SOL    HW217673   5.379   1.710   2.788
 5592SOL     OW17674   0.083   5.180   4.068
 5592SOL    HW117675   0.167   5.208   4.114
 5592SOL    HW217676   0.013   5.159   4.136
 5593SOL     OW17677   1.924   3.713   0.864
 5593SOL    HW117678   1.978   3.704   0.947
 5593SOL    HW217679   1.921   3.808   0.835
 5594SOL     OW17680   6.211   0.898   5.794
 5594SOL    HW117681   6.131   0.955   5.814
 5594SOL    HW217682   6.280   0.912   5.864
 5595SOL     OW17683   0.258   1.725   0.453
 5595SOL    HW117684   0.308   1.776   0.522
 5595SOL    HW217685   0.174   1.688   0.492
 5596SOL     OW17686   4.209   6.161   3.057
 5596SOL    HW117687   4.237   6.188   2.965
 5596SOL    HW217688   4.171   6.240   3.105
 5597SOL     OW17689   5.045   3.375   2.023
 5597SOL    HW117690   5.133   3.390   1.977
 5597SOL    HW217691   4.992   3.460   2.019
 5598SOL     OW17692   3.454   0.283   4.075
 5598SOL    HW117693   3.522   0.245   4.138
 5598SOL    HW217694   3.492   0.362   4.028
 5599SOL     OW17695   1.216   1.340   3.655
 5599SOL    HW117696   1.213   1.290   3.742
 5599SOL    HW217697   1.191   1.436   3.671
 5600SOL     OW17698   2.589   2.860   5.395
 5600SOL    HW117699   2.573   2.923   5.318
 5600SOL    HW217700   2.556   2.902   5.479
 5601SOL     OW17701   2.209   0.736   6.300
 5601SOL    HW117702   2.233   0.642   6.275
 5601SOL    HW217703   2.268   0.766   6.376
 5602SOL     OW17704   1.903   1.156   6.945
 5602SOL    HW117705   1.899   1.161   0.025
 5602SOL    HW217706   1.998   1.151   6.916
 5603SOL     OW17707   6.388   3.636   5.034
 5603SOL    HW117708   6.391   3.704   4.961
 5603SOL    HW217709   6.443   3.557   5.008
 5604SOL     OW17710   5.200   0.895   6.747
 5604SOL    HW117711   5.267   0.828   6.779
 5604SOL    HW217712   5.194   0.892   6.648
 5605SOL     OW17713   1.091   1.532   6.676
 5605SOL    HW117714   1.132   1.447   6.708
 5605SOL    HW217715   1.035   1.513   6.595
 5606SOL     OW17716   6.011   6.984   2.810
 5606SOL    HW117717   6.107   6.974   2.836
 5606SOL    HW217718   5.954   6.929   2.871
 5607SOL     OW17719   4.964   0.892   1.131
 5607SOL    HW117720   4.927   0.984   1.140
 5607SOL    HW217721   4.904   0.828   1.179
 5608SOL     OW17722   3.445   6.765   4.987
 5608SOL    HW117723   3.347   6.756   5.004
 5608SOL    HW217724   3.464   6.743   4.891
 5609SOL     OW17725   1.209   6.222   4.574
 5609SOL    HW117726   1.258   6.195   4.656
 5609SOL    HW217727   1.240   6.313   4.545
 5610SOL     OW17728   4.904   0.430   6.791
 5610SOL    HW117729   4.934   0.460   6.700
 5610SOL    HW217730   4.804   0.429   6.795
 5611SOL     OW17731   1.715   3.882   4.265
 5611SOL    HW117732   1.751   3.943   4.336
 5611SOL    HW217733   1.778   3.806   4.251
 5612SOL     OW17734   3.579   6.310   4.328
 5612SOL    HW117735   3.625   6.341   4.412
 5612SOL    HW217736   3.482   6.292   4.348
 5613SOL     OW17737   2.899   5.053   2.370
 5613SOL    HW117738   2.991   5.014   2.375
 5613SOL    HW217739   2.857   5.028   2.283
 5614SOL     OW17740   4.784   2.090   4.625
 5614SOL    HW117741   4.802   2.010   4.683
 5614SOL    HW217742   4.703   2.138   4.659
 5615SOL     OW17743   0.705   1.661   1.672
 5615SOL    HW117744   0.662   1.730   1.729
 5615SOL    HW217745   0.792   1.696   1.637
 5616SOL     OW17746   2.271   6.916   4.863
 5616SOL    HW117747   2.276   6.902   4.962
 5616SOL    HW217748   2.200   6.857   4.824
 5617SOL     OW17749   0.694   1.313   6.161
 5617SOL    HW117750   0.673   1.308   6.063
 5617SOL    HW217751   0.689   1.408   6.192
 5618SOL     OW17752   6.203   4.857   3.470
 5618SOL    HW117753   6.236   4.871   3.563
 5618SOL    HW217754   6.224   4.937   3.415
 5619SOL     OW17755   2.165   3.559   5.229
 5619SOL    HW117756   2.109   3.590   5.306
 5619SOL    HW217757   2.175   3.634   5.163
 5620SOL     OW17758   4.962   1.868   6.723
 5620SOL    HW117759   4.878   1.914   6.692
 5620SOL    HW217760   4.964   1.775   6.686
 5621SOL     OW17761   2.522   1.343   6.444
 5621SOL    HW117762   2.598   1.407   6.457
 5621SOL    HW217763   2.451   1.362   6.512
 5622SOL     OW17764   5.607   0.520   5.563
 5622SOL    HW117765   5.651   0.515   5.474
 5622SOL    HW217766   5.675   0.536   5.634
 5623SOL     OW17767   6.938   6.082   6.697
 5623SOL    HW117768   6.885   6.151   6.648
 5623SOL    HW217769   6.935   5.996   6.645
 5624SOL     OW17770   1.047   4.366   2.763
 5624SOL    HW117771   1.103   4.317   2.697
 5624SOL    HW217772   1.015   4.303   2.834
 5625SOL     OW17773   6.786   1.546   5.390
 5625SOL    HW117774   6.775   1.595   5.303
 5625SOL    HW217775   6.883   1.531   5.407
 5626SOL     OW17776   5.658   6.950   5.376
 5626SOL    HW117777   5.604   6.940   5.292
 5626SOL    HW217778   5.634   0.016   5.421
 5627SOL     OW17779   1.414   0.550   1.575
 5627SOL    HW117780   1.396   0.506   1.487
 5627SOL    HW217781   1.342   0.526   1.640
 5628SOL     OW17782   1.572   1.322   4.695
 5628SOL    HW117783   1.634   1.377   4.639
 5628SOL    HW217784   1.478   1.351   4.677
 5629SOL     OW17785   3.660   3.466   3.769
 5629SOL    HW117786   3.617   3.465   3.859
 5629SOL    HW217787   3.659   3.559   3.733
 5630SOL     OW17788   6.405   3.805   0.598
 5630SOL    HW117789   6.395   3.815   0.697
 5630SOL    HW217790   6.502   3.791   0.576
 5631SOL     OW17791   5.954   1.448   6.201
 5631SOL    HW117792   5.988   1.356   6.182
 5631SOL    HW217793   5.950   1.463   6.300
 5632SOL     OW17794   3.210   2.276   0.622
 5632SOL    HW117795   3.226   2.326   0.537
 5632SOL    HW217796   3.297   2.261   0.669
 5633SOL     OW17797   0.165   2.592   5.567
 5633SOL    HW117798   0.240   2.531   5.538
 5633SOL    HW217799   0.082   2.568   5.517
 5634SOL     OW17800   4.976   6.050   5.238
 5634SOL    HW117801   5.022   6.002   5.312
 5634SOL    HW217802   5.040   6.063   5.162
 5635SOL     OW17803   3.142   1.627   6.172
 5635SOL    HW117804   3.194   1.586   6.247
 5635SOL    HW217805   3.203   1.645   6.095
 5636SOL     OW17806   4.656   0.193   4.536
 5636SOL    HW117807   4.636   0.120   4.471
 5636SOL    HW217808   4.576   0.252   4.546
 5637SOL     OW17809   5.914   6.800   2.999
 5637SOL    HW117810   5.872   6.712   3.019
 5637SOL    HW217811   6.001   6.808   3.049
 5638SOL     OW17812   0.378   3.676   6.995
 5638SOL    HW117813   0.342   3.765   6.965
 5638SOL    HW217814   0.340   3.604   6.937
 5639SOL     OW17815   4.295   6.766   6.967
 5639SOL    HW117816   4.301   6.667   6.968
 5639SOL    HW217817   4.380   6.805   7.003
 5640SOL     OW17818   1.741   6.942   3.591
 5640SOL    HW117819   1.684   0.003   3.603
 5640SOL    HW217820   1.755   6.899   3.680
 5641SOL     OW17821   6.940   5.582   4.828
 5641SOL    HW117822   6.921   5.590   4.926
 5641SOL    HW217823   6.969   5.671   4.793
 5642SOL     OW17824   1.671   1.168   0.555
 5642SOL    HW117825   1.620   1.134   0.476
 5642SOL    HW217826   1.688   1.266   0.544
 5643SOL     OW17827   5.497   1.917   6.395
 5643SOL    HW117828   5.487   1.828   6.351
 5643SOL    HW217829   5.425   1.979   6.363
 5644SOL     OW17830   2.742   0.153   5.757
 5644SOL    HW117831   2.816   0.212   5.724
 5644SOL    HW217832   2.686   0.124   5.680
 5645SOL     OW17833   5.423   3.714   4.288
 5645SOL    HW117834   5.327   3.740   4.301
 5645SOL    HW217835   5.462   3.687   4.376
 5646SOL     OW17836   0.408   4.176   2.486
 5646SOL    HW117837   0.338   4.201   2.419
 5646SOL    HW217838   0.498   4.173   2.441
 5647SOL     OW17839   4.604   5.920   2.679
 5647SOL    HW117840   4.558   5.983   2.742
 5647SOL    HW217841   4.592   5.826   2.711
 5648SOL     OW17842   5.646   6.518   3.310
 5648SOL    HW117843   5.602   6.447   3.366
 5648SOL    HW217844   5.702   6.577   3.368
 5649SOL     OW17845   0.286   0.390   4.713
 5649SOL    HW117846   0.319   0.472   4.760
 5649SOL    HW217847   0.348   0.314   4.732
 5650SOL     OW17848   0.202   3.764   6.234
 5650SOL    HW117849   0.217   3.829   6.309
 5650SOL    HW217850   0.105   3.743   6.227
 5651SOL     OW17851   2.624   1.448   1.382
 5651SOL    HW117852   2.563   1.409   1.451
 5651SOL    HW217853   2.581   1.442   1.292
 5652SOL     OW17854   0.663   6.165   2.902
 5652SOL    HW117855   0.755   6.205   2.905
 5652SOL    HW217856   0.626   6.175   2.809
 5653SOL     OW17857   6.645   0.558   2.837
 5653SOL    HW117858   6.599   0.638   2.800
 5653SOL    HW217859   6.633   0.481   2.774
 5654SOL     OW17860   3.201   6.235   5.627
 5654SOL    HW117861   3.195   6.280   5.716
 5654SOL    HW217862   3.293   6.200   5.614
 5655SOL     OW17863   6.204   3.593   4.622
 5655SOL    HW117864   6.219   3.554   4.531
 5655SOL    HW217865   6.253   3.538   4.690
 5656SOL     OW17866   0.330   4.176   1.409
 5656SOL    HW117867   0.354   4.118   1.487
 5656SOL    HW217868   0.371   4.266   1.420
 5657SOL     OW17869   6.221   6.114   5.259
 5657SOL    HW117870   6.222   6.127   5.159
 5657SOL    HW217871   6.304   6.152   5.298
 5658SOL     OW17872   2.960   2.545   5.636
 5658SOL    HW117873   2.999   2.548   5.544
 5658SOL    HW217874   2.897   2.622   5.648
 5659SOL     OW17875   2.278   4.199   6.254
 5659SOL    HW117876   2.258   4.103   6.236
 5659SOL    HW217877   2.254   4.253   6.173
 5660SOL     OW17878   3.934   0.302   4.305
 5660SOL    HW117879   3.980   0.347   4.228
 5660SOL    HW217880   3.950   0.354   4.388
 5661SOL     OW17881   0.552   5.589   5.831
 5661SOL    HW117882   0.573   5.538   5.914
 5661SOL    HW217883   0.560   5.687   5.849
 5662SOL     OW17884   2.438   6.266   0.997
 5662SOL    HW117885   2.378   6.228   0.927
 5662SOL    HW217886   2.533   6.246   0.973
 5663SOL     OW17887   3.047   2.086   6.693
 5663SOL    HW117888   3.090   2.176   6.685
 5663SOL    HW217889   2.969   2.081   6.630
 5664SOL     OW17890   5.142   5.397   4.710
 5664SOL    HW117891   5.155   5.492   4.738
 5664SOL    HW217892   5.078   5.394   4.632
 5665SOL     OW17893   1.984   0.662   0.782
 5665SOL    HW117894   2.063   0.693   0.834
 5665SOL    HW217895   1.994   0.565   0.761
 5666SOL     OW17896   5.959   3.076   4.646
 5666SOL    HW117897   5.875   3.067   4.592
 5666SOL    HW217898   6.022   3.138   4.599
 5667SOL     OW17899   2.608   4.568   3.999
 5667SOL    HW117900   2.519   4.527   4.019
 5667SOL    HW217901   2.624   4.566   3.901
 5668SOL     OW17902   4.255   4.725   3.919
 5668SOL    HW117903   4.342   4.694   3.880
 5668SOL    HW217904   4.185   4.727   3.847
 5669SOL     OW17905   6.021   3.858   5.371
 5669SOL    HW117906   5.924   3.876   5.382
 5669SOL    HW217907   6.054   3.897   5.285
 5670SOL     OW17908   1.301   3.188   4.126
 5670SOL    HW117909   1.290   3.091   4.103
 5670SOL    HW217910   1.378   3.226   4.073
 5671SOL     OW17911   6.253   5.873   2.466
 5671SOL    HW117912   6.342   5.918   2.458
 5671SOL    HW217913   6.249   5.797   2.401
 5672SOL     OW17914   5.362   3.187   4.624
 5672SOL    HW117915   5.383   3.169   4.528
 5672SOL    HW217916   5.447   3.184   4.677
 5673SOL     OW17917   0.518   1.815   0.394
 5673SOL    HW117918   0.516   1.747   0.321
 5673SOL    HW217919   0.431   1.864   0.396
 5674SOL     OW17920   2.853   5.798   5.166
 5674SOL    HW117921   2.830   5.895   5.175
 5674SOL    HW217922   2.929   5.787   5.102
 5675SOL     OW17923   3.415   2.439   0.927
 5675SOL    HW117924   3.391   2.535   0.944
 5675SOL    HW217925   3.334   2.390   0.894
 5676SOL     OW17926   3.515   0.902   2.052
 5676SOL    HW117927   3.502   0.826   1.989
 5676SOL    HW217928   3.444   0.899   2.123
 5677SOL     OW17929   1.363   1.620   6.315
 5677SOL    HW117930   1.398   1.548   6.255
 5677SOL    HW217931   1.267   1.638   6.292
 5678SOL     OW17932   3.969   1.873   2.032
 5678SOL    HW117933   3.996   1.842   1.942
 5678SOL    HW217934   3.885   1.826   2.061
 5679SOL     OW17935   0.598   3.781   5.988
 5679SOL    HW117936   0.555   3.787   5.898
 5679SOL    HW217937   0.533   3.742   6.053
 5680SOL     OW17938   0.457   5.196   4.855
 5680SOL    HW117939   0.451   5.291   4.884
 5680SOL    HW217940   0.380   5.145   4.893
 5681SOL     OW17941   1.529   3.491   3.025
 5681SOL    HW117942   1.467   3.456   3.095
 5681SOL    HW217943   1.479   3.507   2.940
 5682SOL     OW17944   2.120   4.836   0.684
 5682SOL    HW117945   2.168   4.907   0.736
 5682SOL    HW217946   2.102   4.758   0.744
 5683SOL     OW17947   6.948   6.962   5.769
 5683SOL    HW117948   6.956   7.011   5.682
 5683SOL    HW217949   6.863   6.989   5.815
 5684SOL     OW17950   1.725   3.173   5.006
 5684SOL    HW117951   1.774   3.249   5.049
 5684SOL    HW217952   1.717   3.190   4.908
 5685SOL     OW17953   1.619   2.005   2.081
 5685SOL    HW117954   1.618   1.928   2.018
 5685SOL    HW217955   1.588   1.976   2.171
 5686SOL     OW17956   5.882   5.374   5.454
 5686SOL    HW117957   5.939   5.456   5.455
 5686SOL    HW217958   5.893   5.324   5.540
 5687SOL     OW17959   1.175   0.291   6.842
 5687SOL    HW117960   1.271   0.301   6.813
 5687SOL    HW217961   1.162   0.336   6.930
 5688SOL     OW17962   1.363   2.559   2.705
 5688SOL    HW117963   1.461   2.543   2.692
 5688SOL    HW217964   1.346   2.658   2.709
 5689SOL     OW17965   6.845   1.794   0.910
 5689SOL    HW117966   6.839   1.891   0.884
 5689SOL    HW217967   6.760   1.748   0.886
 5690SOL     OW17968   2.895   5.095   7.016
 5690SOL    HW117969   2.963   5.115   6.946
 5690SOL    HW217970   2.846   5.011   6.992
 5691SOL     OW17971   4.794   2.965   3.803
 5691SOL    HW117972   4.739   2.884   3.783
 5691SOL    HW217973   4.889   2.948   3.778
 5692SOL     OW17974   6.750   5.022   1.550
 5692SOL    HW117975   6.811   4.957   1.595
 5692SOL    HW217976   6.716   4.982   1.464
 5693SOL     OW17977   3.188   1.333   2.306
 5693SOL    HW117978   3.254   1.349   2.232
 5693SOL    HW217979   3.171   1.235   2.314
 5694SOL     OW17980   0.411   6.839   1.103
 5694SOL    HW117981   0.394   6.798   1.013
 5694SOL    HW217982   0.433   6.936   1.091
 5695SOL     OW17983   2.036   1.252   2.146
 5695SOL    HW117984   1.983   1.253   2.231
 5695SOL    HW217985   1.992   1.191   2.080
 5696SOL     OW17986   0.382   0.630   3.497
 5696SOL    HW117987   0.431   0.545   3.518
 5696SOL    HW217988   0.433   0.682   3.429
 5697SOL     OW17989   5.881   1.931   0.651
 5697SOL    HW117990   5.935   1.951   0.569
 5697SOL    HW217991   5.938   1.880   0.716
 5698SOL     OW17992   3.038   2.217   3.234
 5698SOL    HW117993   3.021   2.183   3.142
 5698SOL    HW217994   3.134   2.202   3.258
 5699SOL     OW17995   2.345   2.508   2.565
 5699SOL    HW117996   2.256   2.478   2.599
 5699SOL    HW217997   2.398   2.549   2.639
 5700SOL     OW17998   5.689   6.967   2.173
 5700SOL    HW117999   5.673   6.872   2.146
 5700SOL    HW218000   5.674   0.007   2.095
 5701SOL     OW18001   1.523   0.469   0.397
 5701SOL    HW118002   1.535   0.370   0.400
 5701SOL    HW218003   1.534   0.506   0.489
 5702SOL     OW18004   1.152   6.517   4.909
 5702SOL    HW118005   1.178   6.423   4.932
 5702SOL    HW218006   1.234   6.569   4.886
 5703SOL     OW18007   1.303   2.815   6.250
 5703SOL    HW118008   1.333   2.902   6.290
 5703SOL    HW218009   1.286   2.749   6.322
 5704SOL     OW18010   3.881   5.599   4.604
 5704SOL    HW118011   3.929   5.645   4.529
 5704SOL    HW218012   3.945   5.541   4.654
 5705SOL     OW18013   5.579   1.122   4.796
 5705SOL    HW118014   5.553   1.150   4.704
 5705SOL    HW218015   5.673   1.149   4.814
 5706SOL     OW18016   5.275   1.101   1.103
 5706SOL    HW118017   5.268   1.013   1.056
 5706SOL    HW218018   5.236   1.092   1.195
 5707SOL     OW18019   5.734   5.852   1.549
 5707SOL    HW118020   5.808   5.785   1.537
 5707SOL    HW218021   5.724   5.874   1.645
 5708SOL     OW18022   5.610   6.573   2.277
 5708SOL    HW118023   5.538   6.565   2.346
 5708SOL    HW218024   5.682   6.633   2.310
 5709SOL     OW18025   0.163   2.329   1.929
 5709SOL    HW118026   0.134   2.425   1.935
 5709SOL    HW218027   0.090   2.271   1.965
 5710SOL     OW18028   5.349   1.356   1.014
 5710SOL    HW118029   5.430   1.392   1.061
 5710SOL    HW218030   5.323   1.268   1.055
 5711SOL     OW18031   4.468   1.277   2.442
 5711SOL    HW118032   4.456   1.237   2.351
 5711SOL    HW218033   4.549   1.335   2.442
 5712SOL     OW18034   6.801   6.239   6.520
 5712SOL    HW118035   6.795   6.324   6.468
 5712SOL    HW218036   6.716   6.187   6.510
 5713SOL     OW18037   1.066   1.720   0.287
 5713SOL    HW118038   1.025   1.808   0.260
 5713SOL    HW218039   0.993   1.655   0.307
 5714SOL     OW18040   5.749   0.108   1.339
 5714SOL    HW118041   5.843   0.097   1.370
 5714SOL    HW218042   5.717   0.022   1.299
 5715SOL     OW18043   0.271   6.254   1.070
 5715SOL    HW118044   0.205   6.181   1.051
 5715SOL    HW218045   0.223   6.335   1.102
 5716SOL     OW18046   6.881   4.826   5.733
 5716SOL    HW118047   6.879   4.774   5.818
 5716SOL    HW218048   6.954   4.791   5.674
 5717SOL     OW18049   0.023   5.905   3.374
 5717SOL    HW118050   7.012   5.810   3.382
 5717SOL    HW218051   0.117   5.906   3.340
 5718SOL     OW18052   1.109   4.184   0.347
 5718SOL    HW118053   1.127   4.180   0.249
 5718SOL    HW218054   1.038   4.252   0.365
 5719SOL     OW18055   3.205   3.489   0.959
 5719SOL    HW118056   3.134   3.426   0.927
 5719SOL    HW218057   3.260   3.444   1.030
 5720SOL     OW18058   2.901   4.586   6.395
 5720SOL    HW118059   2.967   4.623   6.330
 5720SOL    HW218060   2.853   4.509   6.354
 5721SOL     OW18061   0.744   3.042   0.298
 5721SOL    HW118062   0.768   2.956   0.341
 5721SOL    HW218063   0.745   3.115   0.366
 5722SOL     OW18064   1.419   0.444   6.189
 5722SOL    HW118065   1.483   0.369   6.202
 5722SOL    HW218066   1.439   0.490   6.102
 5723SOL     OW18067   4.070   3.503   0.408
 5723SOL    HW118068   4.150   3.544   0.364
 5723SOL    HW218069   3.987   3.549   0.376
 5724SOL     OW18070   6.663   1.710   6.198
 5724SOL    HW118071   6.762   1.699   6.198
 5724SOL    HW218072   6.625   1.677   6.111
 5725SOL     OW18073   0.020   4.274   4.285
 5725SOL    HW118074   0.008   4.290   4.383
 5725SOL    HW218075   6.966   4.317   4.235
 5726SOL     OW18076   3.872   4.891   2.010
 5726SOL    HW118077   3.791   4.833   2.002
 5726SOL    HW218078   3.953   4.838   1.986
 5727SOL     OW18079   1.159   3.178   6.324
 5727SOL    HW118080   1.086   3.150   6.385
 5727SOL    HW218081   1.127   3.251   6.263
 5728SOL     OW18082   2.634   6.416   4.265
 5728SOL    HW118083   2.699   6.374   4.328
 5728SOL    HW218084   2.543   6.416   4.307
 5729SOL     OW18085   2.940   1.936   4.793
 5729SOL    HW118086   2.894   2.022   4.771
 5729SOL    HW218087   2.884   1.859   4.760
 5730SOL     OW18088   6.374   4.563   4.843
 5730SOL    HW118089   6.459   4.564   4.896
 5730SOL    HW218090   6.337   4.656   4.839
 5731SOL     OW18091   0.134   6.770   2.848
 5731SOL    HW118092   0.071   6.697   2.822
 5731SOL    HW218093   0.091   6.858   2.832
 5732SOL     OW18094   5.353   0.701   3.425
 5732SOL    HW118095   5.376   0.684   3.329
 5732SOL    HW218096   5.321   0.795   3.435
 5733SOL     OW18097   2.911   1.099   5.049
 5733SOL    HW118098   2.863   1.114   4.962
 5733SOL    HW218099   3.009   1.108   5.034
 5734SOL     OW18100   1.978   6.681   4.517
 5734SOL    HW118101   1.976   6.582   4.504
 5734SOL    HW218102   2.073   6.713   4.516
 5735SOL     OW18103   2.492   0.951   1.561
 5735SOL    HW118104   2.490   0.938   1.462
 5735SOL    HW218105   2.398   0.959   1.595
 5736SOL     OW18106   1.641   4.834   1.022
 5736SOL    HW118107   1.662   4.875   1.111
 5736SOL    HW218108   1.693   4.750   1.012
 5737SOL     OW18109   6.053   4.044   6.839
 5737SOL    HW118110   5.986   4.101   6.792
 5737SOL    HW218111   6.035   3.948   6.819
 5738SOL     OW18112   0.615   5.460   4.497
 5738SOL    HW118113   0.593   5.485   4.403
 5738SOL    HW218114   0.560   5.513   4.560
 5739SOL     OW18115   0.633   2.442   0.649
 5739SOL    HW118116   0.633   2.519   0.584
 5739SOL    HW218117   0.577   2.466   0.728
 5740SOL     OW18118   4.543   5.003   0.476
 5740SOL    HW118119   4.592   5.072   0.423
 5740SOL    HW218120   4.556   4.913   0.434
 5741SOL     OW18121   0.112   2.590   1.961
 5741SOL    HW118122   0.162   2.675   1.979
 5741SOL    HW218123   0.019   2.599   1.996
 5742SOL     OW18124   0.638   5.087   3.222
 5742SOL    HW118125   0.685   5.160   3.173
 5742SOL    HW218126   0.705   5.030   3.270
 5743SOL     OW18127   0.362   0.455   5.065
 5743SOL    HW118128   0.393   0.374   5.115
 5743SOL    HW218129   0.269   0.479   5.094
 5744SOL     OW18130   6.158   0.258   1.793
 5744SOL    HW118131   6.095   0.191   1.832
 5744SOL    HW218132   6.168   0.335   1.856
 5745SOL     OW18133   6.934   3.523   2.081
 5745SOL    HW118134   6.896   3.614   2.100
 5745SOL    HW218135   6.890   3.486   1.999
 5746SOL     OW18136   0.141   3.573   5.811
 5746SOL    HW118137   0.104   3.538   5.897
 5746SOL    HW218138   0.136   3.501   5.741
 5747SOL     OW18139   0.033   5.973   3.955
 5747SOL    HW118140   6.973   5.925   3.990
 5747SOL    HW218141   0.007   6.063   3.921
 5748SOL     OW18142   1.603   1.215   4.070
 5748SOL    HW118143   1.565   1.208   3.978
 5748SOL    HW218144   1.595   1.126   4.116
 5749SOL     OW18145   0.692   0.874   3.451
 5749SOL    HW118146   0.770   0.923   3.412
 5749SOL    HW218147   0.644   0.824   3.379
 5750SOL     OW18148   4.986   6.405   2.517
 5750SOL    HW118149   5.028   6.316   2.497
 5750SOL    HW218150   4.998   6.466   2.438
 5751SOL     OW18151   1.368   2.126   6.714
 5751SOL    HW118152   1.361   2.095   6.809
 5751SOL    HW218153   1.343   2.223   6.709
 5752SOL     OW18154   2.032   0.986   6.546
 5752SOL    HW118155   1.963   1.056   6.531
 5752SOL    HW218156   1.991   0.895   6.534
 5753SOL     OW18157   3.979   1.591   6.729
 5753SOL    HW118158   3.904   1.644   6.768
 5753SOL    HW218159   3.958   1.493   6.735
 5754SOL     OW18160   6.354   5.690   0.579
 5754SOL    HW118161   6.409   5.616   0.541
 5754SOL    HW218162   6.337   5.758   0.509
 5755SOL     OW18163   3.176   3.482   2.061
 5755SOL    HW118164   3.276   3.480   2.052
 5755SOL    HW218165   3.136   3.525   1.980
 5756SOL     OW18166   6.502   0.123   3.886
 5756SOL    HW118167   6.407   0.107   3.913
 5756SOL    HW218168   6.507   0.135   3.787
 5757SOL     OW18169   6.284   6.652   1.816
 5757SOL    HW118170   6.377   6.689   1.811
 5757SOL    HW218171   6.261   6.606   1.730
 5758SOL     OW18172   3.501   0.640   5.782
 5758SOL    HW118173   3.474   0.544   5.789
 5758SOL    HW218174   3.444   0.696   5.843
 5759SOL     OW18175   0.937   1.192   5.785
 5759SOL    HW118176   0.881   1.274   5.772
 5759SOL    HW218177   1.013   1.213   5.846
 5760SOL     OW18178   6.676   5.941   1.532
 5760SOL    HW118179   6.601   5.876   1.537
 5760SOL    HW218180   6.758   5.901   1.572
 5761SOL     OW18181   3.763   0.761   4.549
 5761SOL    HW118182   3.787   0.843   4.601
 5761SOL    HW218183   3.845   0.724   4.505
 5762SOL     OW18184   5.151   6.864   1.243
 5762SOL    HW118185   5.098   6.816   1.313
 5762SOL    HW218186   5.196   6.797   1.184
 5763SOL     OW18187   3.549   0.960   0.405
 5763SOL    HW118188   3.458   0.977   0.369
 5763SOL    HW218189   3.545   0.887   0.473
 5764SOL     OW18190   3.479   2.892   6.610
 5764SOL    HW118191   3.520   2.940   6.532
 5764SOL    HW218192   3.382   2.913   6.615
 5765SOL     OW18193   6.403   4.979   6.256
 5765SOL    HW118194   6.362   5.038   6.187
 5765SOL    HW218195   6.503   4.981   6.247
 5766SOL     OW18196   2.211   1.601   3.205
 5766SOL    HW118197   2.285   1.606   3.272
 5766SOL    HW218198   2.229   1.526   3.141
 5767SOL     OW18199   5.468   6.709   0.230
 5767SOL    HW118200   5.386   6.655   0.212
 5767SOL    HW218201   5.461   6.797   0.183
 5768SOL     OW18202   5.721   6.875   1.716
 5768SOL    HW118203   5.785   6.829   1.655
 5768SOL    HW218204   5.747   6.858   1.811
 5769SOL     OW18205   0.079   4.661   3.062
 5769SOL    HW118206   0.155   4.646   3.126
 5769SOL    HW218207   7.018   4.689   3.113
 5770SOL     OW18208   4.669   2.035   1.382
 5770SOL    HW118209   4.674   2.023   1.283
 5770SOL    HW218210   4.728   2.111   1.409
 5771SOL     OW18211   0.960   0.308   1.808
 5771SOL    HW118212   0.868   0.346   1.800
 5771SOL    HW218213   0.986   0.302   1.904
 5772SOL     OW18214   6.015   4.969   5.240
 5772SOL    HW118215   5.948   5.043   5.227
 5772SOL    HW218216   5.976   4.884   5.207
 5773SOL     OW18217   5.101   6.443   5.009
 5773SOL    HW118218   5.094   6.373   5.080
 5773SOL    HW218219   5.011   6.460   4.970
 5774SOL     OW18220   1.708   4.875   1.884
 5774SOL    HW118221   1.717   4.780   1.915
 5774SOL    HW218222   1.639   4.921   1.940
 5775SOL     OW18223   0.818   0.972   0.935
 5775SOL    HW118224   0.797   0.874   0.934
 5775SOL    HW218225   0.873   0.993   1.016
 5776SOL     OW18226   4.850   0.890   5.779
 5776SOL    HW118227   4.889   0.800   5.757
 5776SOL    HW218228   4.915   0.961   5.753
 5777SOL     OW18229   5.405   6.536   4.688
 5777SOL    HW118230   5.402   6.554   4.786
 5777SOL    HW218231   5.431   6.441   4.672
 5778SOL     OW18232   2.667   6.453   3.806
 5778SOL    HW118233   2.620   6.365   3.801
 5778SOL    HW218234   2.627   6.508   3.879
 5779SOL     OW18235   3.695   6.913   2.066
 5779SOL    HW118236   3.735   6.951   2.149
 5779SOL    HW218237   3.763   6.856   2.020
 5780SOL     OW18238   6.553   4.607   6.834
 5780SOL    HW118239   6.585   4.611   6.739
 5780SOL    HW218240   6.575   4.517   6.872
 5781SOL     OW18241   4.416   4.436   5.740
 5781SOL    HW118242   4.462   4.493   5.672
 5781SOL    HW218243   4.320   4.427   5.715
 5782SOL     OW18244   5.061   1.752   2.779
 5782SOL    HW118245   4.983   1.788   2.830
 5782SOL    HW218246   5.146   1.782   2.823
 5783SOL     OW18247   3.040   6.421   3.482
 5783SOL    HW118248   2.968   6.427   3.413
 5783SOL    HW218249   3.042   6.329   3.520
 5784SOL     OW18250   0.503   6.785   2.452
 5784SOL    HW118251   0.445   6.807   2.374
 5784SOL    HW218252   0.599   6.794   2.426
 5785SOL     OW18253   2.710   1.012   6.257
 5785SOL    HW118254   2.749   1.029   6.167
 5785SOL    HW218255   2.783   0.994   6.322
 5786SOL     OW18256   2.307   1.550   6.827
 5786SOL    HW118257   2.356   1.573   6.743
 5786SOL    HW218258   2.373   1.535   6.901
 5787SOL     OW18259   0.724   1.816   5.869
 5787SOL    HW118260   0.780   1.812   5.786
 5787SOL    HW218261   0.772   1.868   5.939
 5788SOL     OW18262   0.519   2.588   1.429
 5788SOL    HW118263   0.586   2.600   1.502
 5788SOL    HW218264   0.450   2.522   1.457
 5789SOL     OW18265   2.973   0.894   0.161
 5789SOL    HW118266   2.948   0.818   0.100
 5789SOL    HW218267   2.986   0.859   0.254
 5790SOL     OW18268   6.593   6.029   2.209
 5790SOL    HW118269   6.549   6.031   2.299
 5790SOL    HW218270   6.579   6.116   2.163
 5791SOL     OW18271   3.748   0.778   1.094
 5791SOL    HW118272   3.702   0.703   1.141
 5791SOL    HW218273   3.683   0.825   1.033
 5792SOL     OW18274   4.468   2.002   2.779
 5792SOL    HW118275   4.539   2.015   2.709
 5792SOL    HW218276   4.379   1.991   2.735
 5793SOL     OW18277   4.941   2.348   0.853
 5793SOL    HW118278   4.895   2.424   0.898
 5793SOL    HW218279   5.023   2.382   0.806
 5794SOL     OW18280   3.370   6.106   0.106
 5794SOL    HW118281   3.406   6.023   0.148
 5794SOL    HW218282   3.442   6.148   0.050
 5795SOL     OW18283   1.241   0.451   1.767
 5795SOL    HW118284   1.213   0.372   1.822
 5795SOL    HW218285   1.166   0.516   1.762
 5796SOL     OW18286   4.773   0.884   6.079
 5796SOL    HW118287   4.839   0.833   6.134
 5796SOL    HW218288   4.814   0.908   5.991
 5797SOL     OW18289   5.837   1.503   0.252
 5797SOL    HW118290   5.896   1.488   0.332
 5797SOL    HW218291   5.870   1.582   0.201
 5798SOL     OW18292   2.325   2.771   4.848
 5798SOL    HW118293   2.307   2.820   4.763
 5798SOL    HW218294   2.338   2.836   4.922
 5799SOL     OW18295   2.923   0.815   3.812
 5799SOL    HW118296   2.840   0.759   3.802
 5799SOL    HW218297   3.002   0.756   3.824
 5800SOL     OW18298   1.440   6.152   1.431
 5800SOL    HW118299   1.505   6.152   1.507
 5800SOL    HW218300   1.392   6.065   1.427
 5801SOL     OW18301   1.455   2.462   3.182
 5801SOL    HW118302   1.521   2.433   3.251
 5801SOL    HW218303   1.481   2.425   3.092
 5802SOL     OW18304   0.023   0.002   2.796
 5802SOL    HW118305   0.026   0.093   2.755
 5802SOL    HW218306   6.962   7.014   2.855
 5803SOL     OW18307   0.238   6.382   4.483
 5803SOL    HW118308   0.229   6.300   4.427
 5803SOL    HW218309   0.205   6.364   4.576
 5804SOL     OW18310   5.606   2.300   3.335
 5804SOL    HW118311   5.531   2.320   3.273
 5804SOL    HW218312   5.642   2.385   3.374
 5805SOL     OW18313   0.769   2.366   1.444
 5805SOL    HW118314   0.723   2.398   1.361
 5805SOL    HW218315   0.861   2.406   1.449
 5806SOL     OW18316   6.604   4.281   1.356
 5806SOL    HW118317   6.696   4.290   1.395
 5806SOL    HW218318   6.611   4.284   1.256
 5807SOL     OW18319   0.814   0.802   3.110
 5807SOL    HW118320   0.783   0.804   3.014
 5807SOL    HW218321   0.762   0.734   3.160
 5808SOL     OW18322   6.237   5.438   5.773
 5808SOL    HW118323   6.330   5.404   5.792
 5808SOL    HW218324   6.232   5.534   5.798
 5809SOL     OW18325   6.532   3.416   4.987
 5809SOL    HW118326   6.528   3.348   4.914
 5809SOL    HW218327   6.580   3.377   5.066
 5810SOL     OW18328   0.669   6.157   5.241
 5810SOL    HW118329   0.576   6.125   5.257
 5810SOL    HW218330   0.670   6.217   5.161
 5811SOL     OW18331   3.072   4.872   0.541
 5811SOL    HW118332   3.099   4.846   0.448
 5811SOL    HW218333   3.108   4.805   0.606
 5812SOL     OW18334   6.582   1.907   5.978
 5812SOL    HW118335   6.664   1.922   6.033
 5812SOL    HW218336   6.521   1.986   5.985
 5813SOL     OW18337   6.526   5.840   0.715
 5813SOL    HW118338   6.548   5.791   0.799
 5813SOL    HW218339   6.448   5.795   0.670
 5814SOL     OW18340   5.001   1.950   2.593
 5814SOL    HW118341   4.972   1.898   2.512
 5814SOL    HW218342   5.027   1.886   2.666
 5815SOL     OW18343   6.949   4.397   4.764
 5815SOL    HW118344   6.944   4.327   4.836
 5815SOL    HW218345   6.889   4.473   4.787
 5816SOL     OW18346   6.755   4.130   1.060
 5816SOL    HW118347   6.662   4.146   1.026
 5816SOL    HW218348   6.758   4.043   1.109
 5817SOL     OW18349   6.522   2.746   3.720
 5817SOL    HW118350   6.476   2.752   3.631
 5817SOL    HW218351   6.615   2.782   3.711
 5818SOL     OW18352   2.610   1.062   3.947
 5818SOL    HW118353   2.575   1.028   3.860
 5818SOL    HW218354   2.639   0.985   4.004
 5819SOL     OW18355   3.890   4.314   1.540
 5819SOL    HW118356   3.880   4.251   1.617
 5819SOL    HW218357   3.869   4.407   1.571
 5820SOL     OW18358   0.281   6.491   2.543
 5820SOL    HW118359   0.223   6.570   2.560
 5820SOL    HW218360   0.375   6.511   2.571
 5821SOL     OW18361   4.757   6.260   1.907
 5821SOL    HW118362   4.828   6.329   1.923
 5821SOL    HW218363   4.789   6.172   1.942
 5822SOL     OW18364   1.311   3.612   3.487
 5822SOL    HW118365   1.212   3.610   3.479
 5822SOL    HW218366   1.341   3.544   3.553
 5823SOL     OW18367   2.379   6.359   4.653
 5823SOL    HW118368   2.432   6.351   4.738
 5823SOL    HW218369   2.289   6.317   4.666
 5824SOL     OW18370   2.193   5.727   2.439
 5824SOL    HW118371   2.280   5.727   2.488
 5824SOL    HW218372   2.210   5.747   2.342
 5825SOL     OW18373   3.370   2.090   4.645
 5825SOL    HW118374   3.425   2.064   4.724
 5825SOL    HW218375   3.275   2.103   4.673
 5826SOL     OW18376   1.301   6.190   5.681
 5826SOL    HW118377   1.371   6.176   5.610
 5826SOL    HW218378   1.346   6.207   5.769
 5827SOL     OW18379   2.072   4.302   4.229
 5827SOL    HW118380   2.150   4.240   4.225
 5827SOL    HW218381   2.100   4.393   4.200
 5828SOL     OW18382   4.415   0.172   5.208
 5828SOL    HW118383   4.372   0.208   5.291
 5828SOL    HW218384   4.346   0.161   5.137
 5829SOL     OW18385   1.887   1.315   2.975
 5829SOL    HW118386   1.909   1.398   3.026
 5829SOL    HW218387   1.840   1.250   3.034
 5830SOL     OW18388   5.235   5.149   4.412
 5830SOL    HW118389   5.327   5.173   4.443
 5830SOL    HW218390   5.206   5.064   4.456
 5831SOL     OW18391   2.735   1.755   4.001
 5831SOL    HW118392   2.652   1.709   4.035
 5831SOL    HW218393   2.735   1.850   4.030
 5832SOL     OW18394   2.983   5.220   3.132
 5832SOL    HW118395   3.028   5.289   3.075
 5832SOL    HW218396   2.978   5.253   3.226
 5833SOL     OW18397   2.228   4.616   1.728
 5833SOL    HW118398   2.285   4.696   1.749
 5833SOL    HW218399   2.251   4.583   1.636
 5834SOL     OW18400   5.897   1.864   6.585
 5834SOL    HW118401   5.935   1.857   6.493
 5834SOL    HW218402   5.801   1.836   6.585
 5835SOL     OW18403   3.683   0.525   3.609
 5835SOL    HW118404   3.612   0.596   3.604
 5835SOL    HW218405   3.743   0.535   3.530
 5836SOL     OW18406   5.723   5.186   1.567
 5836SOL    HW118407   5.689   5.092   1.569
 5836SOL    HW218408   5.650   5.248   1.538
 5837SOL     OW18409   2.312   3.864   0.069
 5837SOL    HW118410   2.223   3.908   0.081
 5837SOL    HW218411   2.313   3.776   0.116
 5838SOL     OW18412   2.630   3.053   0.853
 5838SOL    HW118413   2.628   3.127   0.920
 5838SOL    HW218414   2.667   3.087   0.767
 5839SOL     OW18415   2.637   1.737   1.185
 5839SOL    HW118416   2.552   1.787   1.199
 5839SOL    HW218417   2.618   1.653   1.134
 5840SOL     OW18418   6.335   3.640   2.317
 5840SOL    HW118419   6.314   3.601   2.228
 5840SOL    HW218420   6.252   3.680   2.356
 5841SOL     OW18421   4.957   1.602   0.577
 5841SOL    HW118422   4.916   1.551   0.502
 5841SOL    HW218423   5.026   1.664   0.540
 5842SOL     OW18424   3.623   2.041   2.260
 5842SOL    HW118425   3.567   1.965   2.228
 5842SOL    HW218426   3.650   2.098   2.183
 5843SOL     OW18427   3.309   2.440   1.344
 5843SOL    HW118428   3.240   2.371   1.364
 5843SOL    HW218429   3.400   2.401   1.357
 5844SOL     OW18430   6.678   5.199   5.349
 5844SOL    HW118431   6.698   5.254   5.431
 5844SOL    HW218432   6.637   5.112   5.377
 5845SOL     OW18433   2.416   6.012   3.342
 5845SOL    HW118434   2.395   5.991   3.247
 5845SOL    HW218435   2.401   6.110   3.359
 5846SOL     OW18436   0.443   4.021   5.447
 5846SOL    HW118437   0.533   4.063   5.459
 5846SOL    HW218438   0.392   4.026   5.533
 5847SOL     OW18439   2.166   3.626   5.629
 5847SOL    HW118440   2.250   3.679   5.637
 5847SOL    HW218441   2.135   3.598   5.720
 5848SOL     OW18442   2.887   6.634   1.598
 5848SOL    HW118443   2.912   6.731   1.596
 5848SOL    HW218444   2.871   6.601   1.505
 5849SOL     OW18445   2.614   6.082   6.379
 5849SOL    HW118446   2.642   5.986   6.386
 5849SOL    HW218447   2.591   6.104   6.284
 5850SOL     OW18448   5.301   2.384   1.434
 5850SOL    HW118449   5.332   2.289   1.439
 5850SOL    HW218450   5.346   2.437   1.506
 5851SOL     OW18451   1.397   2.635   6.057
 5851SOL    HW118452   1.370   2.706   6.123
 5851SOL    HW218453   1.480   2.590   6.090
 5852SOL     OW18454   4.327   5.250   2.957
 5852SOL    HW118455   4.383   5.167   2.959
 5852SOL    HW218456   4.376   5.324   3.003
 5853SOL     OW18457   4.038   4.588   6.750
 5853SOL    HW118458   3.996   4.597   6.840
 5853SOL    HW218459   3.992   4.516   6.699
 5854SOL     OW18460   2.739   4.297   5.518
 5854SOL    HW118461   2.726   4.201   5.491
 5854SOL    HW218462   2.741   4.354   5.436
 5855SOL     OW18463   1.609   2.137   4.536
 5855SOL    HW118464   1.706   2.118   4.551
 5855SOL    HW218465   1.599   2.206   4.465
 5856SOL     OW18466   0.563   0.834   2.188
 5856SOL    HW118467   0.506   0.914   2.168
 5856SOL    HW218468   0.658   0.862   2.196
 5857SOL     OW18469   6.396   5.825   6.690
 5857SOL    HW118470   6.409   5.808   6.592
 5857SOL    HW218471   6.318   5.772   6.723
 5858SOL     OW18472   2.812   1.673   1.389
 5858SOL    HW118473   2.741   1.663   1.319
 5858SOL    HW218474   2.833   1.584   1.429
 5859SOL     OW18475   6.134   5.244   1.306
 5859SOL    HW118476   6.059   5.182   1.332
 5859SOL    HW218477   6.179   5.278   1.388
 5860SOL     OW18478   1.868   2.662   1.765
 5860SOL    HW118479   1.896   2.708   1.681
 5860SOL    HW218480   1.797   2.716   1.810
 5861SOL     OW18481   5.145   6.640   4.731
 5861SOL    HW118482   5.128   6.730   4.771
 5861SOL    HW218483   5.244   6.625   4.721
 5862SOL     OW18484   0.528   5.099   1.401
 5862SOL    HW118485   0.597   5.134   1.465
 5862SOL    HW218486   0.500   5.171   1.338
 5863SOL     OW18487   4.129   6.498   6.231
 5863SOL    HW118488   4.070   6.549   6.293
 5863SOL    HW218489   4.224   6.506   6.261
 5864SOL     OW18490   3.671   3.646   3.512
 5864SOL    HW118491   3.674   3.693   3.424
 5864SOL    HW218492   3.613   3.565   3.504
 5865SOL     OW18493   6.869   6.382   1.336
 5865SOL    HW118494   6.848   6.452   1.268
 5865SOL    HW218495   6.838   6.413   1.426
 5866SOL     OW18496   2.931   3.663   4.090
 5866SOL    HW118497   2.884   3.729   4.149
 5866SOL    HW218498   3.021   3.699   4.065
 5867SOL     OW18499   4.258   0.919   0.718
 5867SOL    HW118500   4.194   0.961   0.654
 5867SOL    HW218501   4.263   0.973   0.801
 5868SOL     OW18502   1.514   1.007   0.742
 5868SOL    HW118503   1.558   1.075   0.683
 5868SOL    HW218504   1.474   1.053   0.822
 5869SOL     OW18505   2.065   5.285   3.977
 5869SOL    HW118506   2.076   5.384   3.973
 5869SOL    HW218507   2.131   5.246   4.041
 5870SOL     OW18508   3.902   6.393   3.584
 5870SOL    HW118509   3.838   6.469   3.597
 5870SOL    HW218510   3.870   6.334   3.509
 5871SOL     OW18511   4.044   3.203   3.142
 5871SOL    HW118512   3.996   3.153   3.071
 5871SOL    HW218513   3.977   3.243   3.205
 5872SOL     OW18514   3.765   5.242   1.607
 5872SOL    HW118515   3.745   5.340   1.610
 5872SOL    HW218516   3.764   5.210   1.513
 5873SOL     OW18517   4.302   6.962   2.728
 5873SOL    HW118518   4.322   6.874   2.686
 5873SOL    HW218519   4.387   7.005   2.759
 5874SOL     OW18520   0.031   3.318   4.466
 5874SOL    HW118521   0.013   3.267   4.550
 5874SOL    HW218522   0.090   3.397   4.487
 5875SOL     OW18523   4.786   2.820   1.272
 5875SOL    HW118524   4.738   2.908   1.272
 5875SOL    HW218525   4.806   2.793   1.178
 5876SOL     OW18526   3.422   3.601   2.967
 5876SOL    HW118527   3.380   3.647   2.889
 5876SOL    HW218528   3.351   3.555   3.020
 5877SOL     OW18529   4.569   4.467   1.456
 5877SOL    HW118530   4.520   4.535   1.401
 5877SOL    HW218531   4.624   4.514   1.525
 5878SOL     OW18532   0.024   3.509   1.590
 5878SOL    HW118533   0.033   3.589   1.531
 5878SOL    HW218534   0.060   3.429   1.542
 5879SOL     OW18535   2.064   4.256   4.859
 5879SOL    HW118536   2.037   4.285   4.767
 5879SOL    HW218537   2.001   4.295   4.926
 5880SOL     OW18538   2.636   5.138   0.103
 5880SOL    HW118539   2.727   5.128   0.062
 5880SOL    HW218540   2.580   5.059   0.081
 5881SOL     OW18541   1.491   6.558   4.500
 5881SOL    HW118542   1.551   6.638   4.494
 5881SOL    HW218543   1.527   6.495   4.569
 5882SOL     OW18544   4.861   0.568   3.399
 5882SOL    HW118545   4.898   0.517   3.476
 5882SOL    HW218546   4.917   0.550   3.317
 5883SOL     OW18547   0.568   3.438   5.637
 5883SOL    HW118548   0.660   3.414   5.669
 5883SOL    HW218549   0.573   3.474   5.544
 5884SOL     OW18550   0.192   1.160   3.443
 5884SOL    HW118551   0.281   1.127   3.474
 5884SOL    HW218552   0.136   1.183   3.522
 5885SOL     OW18553   6.056   5.902   0.477
 5885SOL    HW118554   6.032   5.821   0.530
 5885SOL    HW218555   6.147   5.892   0.438
 5886SOL     OW18556   5.584   1.758   5.630
 5886SOL    HW118557   5.500   1.799   5.663
 5886SOL    HW218558   5.662   1.800   5.676
 5887SOL     OW18559   3.097   0.013   2.261
 5887SOL    HW118560   3.035   6.959   2.236
 5887SOL    HW218561   3.045   0.088   2.303
 5888SOL     OW18562   6.480   6.408   1.783
 5888SOL    HW118563   6.491   6.317   1.743
 5888SOL    HW218564   6.418   6.463   1.726
 5889SOL     OW18565   3.127   0.020   0.760
 5889SOL    HW118566   3.092   6.960   0.809
 5889SOL    HW218567   3.057   0.054   0.697
 5890SOL     OW18568   4.486   5.271   6.052
 5890SOL    HW118569   4.548   5.216   5.997
 5890SOL    HW218570   4.429   5.211   6.108
 5891SOL     OW18571   2.178   2.964   6.876
 5891SOL    HW118572   2.182   2.872   6.915
 5891SOL    HW218573   2.266   3.010   6.889
 5892SOL     OW18574   2.857   5.552   1.693
 5892SOL    HW118575   2.880   5.491   1.617
 5892SOL    HW218576   2.816   5.499   1.767
 5893SOL     OW18577   0.938   2.904   1.902
 5893SOL    HW118578   0.989   2.826   1.867
 5893SOL    HW218579   0.937   2.902   2.002
 5894SOL     OW18580   1.902   3.851   3.574
 5894SOL    HW118581   1.934   3.783   3.508
 5894SOL    HW218582   1.936   3.941   3.548
 5895SOL     OW18583   5.269   5.202   2.489
 5895SOL    HW118584   5.267   5.213   2.588
 5895SOL    HW218585   5.266   5.105   2.466
 5896SOL     OW18586   5.977   1.629   5.760
 5896SOL    HW118587   6.030   1.709   5.734
 5896SOL    HW218588   5.911   1.608   5.687
 5897SOL     OW18589   4.493   4.291   0.701
 5897SOL    HW118590   4.505   4.369   0.763
 5897SOL    HW218591   4.575   4.281   0.644
 5898SOL     OW18592   1.499   5.709   2.696
 5898SOL    HW118593   1.438   5.766   2.640
 5898SOL    HW218594   1.591   5.750   2.696
 5899SOL     OW18595   5.229   0.942   3.410
 5899SOL    HW118596   5.153   0.980   3.462
 5899SOL    HW218597   5.287   1.017   3.377
 5900SOL     OW18598   3.731   5.119   1.834
 5900SOL    HW118599   3.685   5.185   1.894
 5900SOL    HW218600   3.760   5.165   1.750
 5901SOL     OW18601   3.024   6.697   3.473
 5901SOL    HW118602   3.041   6.598   3.472
 5901SOL    HW218603   3.074   6.738   3.549
 5902SOL     OW18604   5.995   2.349   0.111
 5902SOL    HW118605   6.025   2.405   0.033
 5902SOL    HW218606   5.988   2.407   0.192
 5903SOL     OW18607   0.621   1.877   6.227
 5903SOL    HW118608   0.560   1.906   6.152
 5903SOL    HW218609   0.634   1.952   6.291
 5904SOL     OW18610   0.645   2.998   1.699
 5904SOL    HW118611   0.563   3.027   1.649
 5904SOL    HW218612   0.698   2.935   1.641
 5905SOL     OW18613   6.830   3.795   2.110
 5905SOL    HW118614   6.869   3.830   2.025
 5905SOL    HW218615   6.796   3.872   2.165
 5906SOL     OW18616   6.601   1.331   3.349
 5906SOL    HW118617   6.631   1.427   3.354
 5906SOL    HW218618   6.674   1.276   3.310
 5907SOL     OW18619   1.616   0.911   2.440
 5907SOL    HW118620   1.610   1.001   2.482
 5907SOL    HW218621   1.524   0.878   2.417
 5908SOL     OW18622   0.766   3.190   5.454
 5908SOL    HW118623   0.670   3.220   5.455
 5908SOL    HW218624   0.795   3.173   5.360
 5909SOL     OW18625   6.678   4.360   6.604
 5909SOL    HW118626   6.675   4.456   6.575
 5909SOL    HW218627   6.755   4.346   6.666
 5910SOL     OW18628   1.359   1.649   3.471
 5910SOL    HW118629   1.273   1.613   3.435
 5910SOL    HW218630   1.417   1.678   3.395
 5911SOL     OW18631   6.068   5.372   6.764
 5911SOL    HW118632   6.155   5.421   6.770
 5911SOL    HW218633   6.081   5.287   6.714
 5912SOL     OW18634   0.686   1.810   2.343
 5912SOL    HW118635   0.724   1.748   2.275
 5912SOL    HW218636   0.586   1.812   2.335
 5913SOL     OW18637   0.182   3.597   1.058
 5913SOL    HW118638   0.240   3.649   0.996
 5913SOL    HW218639   0.101   3.650   1.081
 5914SOL     OW18640   1.686   6.906   0.762
 5914SOL    HW118641   1.650   6.823   0.805
 5914SOL    HW218642   1.752   6.882   0.691
 5915SOL     OW18643   4.337   0.450   5.196
 5915SOL    HW118644   4.335   0.429   5.294
 5915SOL    HW218645   4.243   0.459   5.162
 5916SOL     OW18646   0.824   0.416   2.849
 5916SOL    HW118647   0.789   0.332   2.807
 5916SOL    HW218648   0.918   0.401   2.880
 5917SOL     OW18649   3.604   3.278   0.320
 5917SOL    HW118650   3.587   3.338   0.397
 5917SOL    HW218651   3.639   3.190   0.353
 5918SOL     OW18652   3.507   6.517   4.818
 5918SOL    HW118653   3.420   6.513   4.769
 5918SOL    HW218654   3.510   6.447   4.888
 5919SOL     OW18655   3.038   3.470   4.892
 5919SOL    HW118656   3.092   3.408   4.948
 5919SOL    HW218657   3.019   3.554   4.943
 5920SOL     OW18658   1.236   0.142   5.368
 5920SOL    HW118659   1.234   0.111   5.273
 5920SOL    HW218660   1.230   0.242   5.371
 5921SOL     OW18661   2.483   4.187   1.253
 5921SOL    HW118662   2.395   4.230   1.232
 5921SOL    HW218663   2.498   4.110   1.191
 5922SOL     OW18664   5.075   2.843   2.684
 5922SOL    HW118665   5.140   2.897   2.631
 5922SOL    HW218666   4.983   2.857   2.649
 5923SOL     OW18667   5.981   0.974   2.599
 5923SOL    HW118668   5.978   0.887   2.650
 5923SOL    HW218669   5.905   1.032   2.629
 5924SOL     OW18670   0.302   6.122   3.300
 5924SOL    HW118671   0.303   6.023   3.311
 5924SOL    HW218672   0.318   6.145   3.204
 5925SOL     OW18673   4.429   0.723   1.113
 5925SOL    HW118674   4.452   0.627   1.095
 5925SOL    HW218675   4.402   0.733   1.209
 5926SOL     OW18676   4.890   3.278   3.471
 5926SOL    HW118677   4.907   3.376   3.479
 5926SOL    HW218678   4.860   3.242   3.559
 5927SOL     OW18679   1.319   0.150   1.581
 5927SOL    HW118680   1.407   0.173   1.539
 5927SOL    HW218681   1.335   0.100   1.666
 5928SOL     OW18682   2.789   0.014   0.188
 5928SOL    HW118683   2.771   7.000   0.281
 5928SOL    HW218684   2.879   7.005   0.159
 5929SOL     OW18685   1.034   0.959   1.705
 5929SOL    HW118686   1.128   0.990   1.689
 5929SOL    HW218687   0.990   0.939   1.618
 5930SOL     OW18688   0.660   4.664   1.755
 5930SOL    HW118689   0.611   4.577   1.745
 5930SOL    HW218690   0.718   4.660   1.837
 5931SOL     OW18691   4.492   0.415   4.573
 5931SOL    HW118692   4.549   0.453   4.646
 5931SOL    HW218693   4.510   0.464   4.488
 5932SOL     OW18694   3.194   5.759   0.716
 5932SOL    HW118695   3.151   5.843   0.685
 5932SOL    HW218696   3.179   5.687   0.649
 5933SOL     OW18697   6.998   5.551   4.210
 5933SOL    HW118698   6.917   5.549   4.152
 5933SOL    HW218699   0.004   5.458   4.235
 5934SOL     OW18700   3.235   4.586   6.934
 5934SOL    HW118701   3.191   4.555   7.019
 5934SOL    HW218702   3.202   4.530   6.858
 5935SOL     OW18703   1.566   0.894   5.452
 5935SOL    HW118704   1.512   0.881   5.369
 5935SOL    HW218705   1.520   0.957   5.514
 5936SOL     OW18706   4.037   3.137   2.074
 5936SOL    HW118707   4.098   3.155   1.997
 5936SOL    HW218708   3.959   3.082   2.042
 5937SOL     OW18709   0.853   2.765   0.430
 5937SOL    HW118710   0.947   2.787   0.456
 5937SOL    HW218711   0.852   2.684   0.371
 5938SOL     OW18712   0.492   3.393   4.134
 5938SOL    HW118713   0.507   3.364   4.228
 5938SOL    HW218714   0.397   3.377   4.108
 5939SOL     OW18715   5.048   1.534   6.157
 5939SOL    HW118716   5.091   1.606   6.212
 5939SOL    HW218717   5.030   1.454   6.215
 5940SOL     OW18718   5.215   5.085   1.114
 5940SOL    HW118719   5.206   4.987   1.134
 5940SOL    HW218720   5.235   5.098   1.017
 5941SOL     OW18721   1.581   1.396   3.080
 5941SOL    HW118722   1.622   1.342   3.153
 5941SOL    HW218723   1.631   1.482   3.070
 5942SOL     OW18724   4.651   2.240   6.410
 5942SOL    HW118725   4.706   2.322   6.426
 5942SOL    HW218726   4.613   2.209   6.497
 5943SOL     OW18727   1.935   4.286   2.218
 5943SOL    HW118728   1.992   4.352   2.171
 5943SOL    HW218729   1.981   4.197   2.220
 5944SOL     OW18730   6.812   3.314   5.675
 5944SOL    HW118731   6.873   3.392   5.660
 5944SOL    HW218732   6.720   3.347   5.699
 5945SOL     OW18733   0.312   6.810   4.191
 5945SOL    HW118734   0.302   6.862   4.106
 5945SOL    HW218735   0.376   6.735   4.176
 5946SOL     OW18736   3.108   2.864   6.663
 5946SOL    HW118737   3.148   2.772   6.666
 5946SOL    HW218738   3.016   2.858   6.624
 5947SOL     OW18739   3.447   3.629   5.670
 5947SOL    HW118740   3.366   3.582   5.635
 5947SOL    HW218741   3.508   3.563   5.713
 5948SOL     OW18742   4.643   3.785   1.696
 5948SOL    HW118743   4.675   3.879   1.703
 5948SOL    HW218744   4.555   3.783   1.648
 5949SOL     OW18745   1.735   4.784   4.332
 5949SOL    HW118746   1.782   4.696   4.320
 5949SOL    HW218747   1.759   4.823   4.421
 5950SOL     OW18748   1.755   6.646   5.093
 5950SOL    HW118749   1.719   6.620   5.183
 5950SOL    HW218750   1.682   6.641   5.025
 5951SOL     OW18751   6.878   3.137   6.398
 5951SOL    HW118752   6.874   3.171   6.492
 5951SOL    HW218753   6.794   3.086   6.377
 5952SOL     OW18754   3.463   4.155   1.903
 5952SOL    HW118755   3.551   4.137   1.947
 5952SOL    HW218756   3.395   4.090   1.938
 5953SOL     OW18757   6.742   2.791   6.956
 5953SOL    HW118758   6.758   2.726   0.010
 5953SOL    HW218759   6.803   2.769   6.880
 5954SOL     OW18760   2.677   5.289   3.717
 5954SOL    HW118761   2.598   5.260   3.771
 5954SOL    HW218762   2.680   5.237   3.632
 5955SOL     OW18763   4.545   3.001   0.483
 5955SOL    HW118764   4.617   2.965   0.544
 5955SOL    HW218765   4.480   3.054   0.537
 5956SOL     OW18766   3.954   2.375   6.620
 5956SOL    HW118767   3.895   2.453   6.599
 5956SOL    HW218768   4.048   2.408   6.632
 5957SOL     OW18769   0.205   2.769   3.942
 5957SOL    HW118770   0.223   2.792   3.846
 5957SOL    HW218771   0.250   2.683   3.965
 5958SOL     OW18772   2.425   6.254   2.053
 5958SOL    HW118773   2.380   6.176   2.010
 5958SOL    HW218774   2.357   6.311   2.099
 5959SOL     OW18775   4.985   4.472   2.669
 5959SOL    HW118776   4.947   4.547   2.723
 5959SOL    HW218777   4.997   4.501   2.574
 5960SOL     OW18778   6.231   6.944   6.724
 5960SOL    HW118779   6.251   6.864   6.668
 5960SOL    HW218780   6.254   6.925   6.819
 5961SOL     OW18781   1.671   1.934   3.282
 5961SOL    HW118782   1.631   1.970   3.199
 5961SOL    HW218783   1.770   1.953   3.283
 5962SOL     OW18784   5.127   5.324   0.378
 5962SOL    HW118785   5.033   5.346   0.407
 5962SOL    HW218786   5.147   5.229   0.403
 5963SOL     OW18787   2.242   4.286   1.114
 5963SOL    HW118788   2.183   4.217   1.073
 5963SOL    HW218789   2.302   4.325   1.044
 5964SOL     OW18790   1.659   6.522   3.893
 5964SOL    HW118791   1.730   6.526   3.822
 5964SOL    HW218792   1.691   6.573   3.973
 5965SOL     OW18793   1.986   0.137   1.656
 5965SOL    HW118794   2.038   0.198   1.715
 5965SOL    HW218795   1.901   0.182   1.629
 5966SOL     OW18796   2.876   1.851   5.496
 5966SOL    HW118797   2.882   1.756   5.466
 5966SOL    HW218798   2.869   1.911   5.417
 5967SOL     OW18799   4.677   2.255   5.773
 5967SOL    HW118800   4.577   2.262   5.780
 5967SOL    HW218801   4.709   2.318   5.703
 5968SOL     OW18802   6.483   1.949   3.266
 5968SOL    HW118803   6.574   1.988   3.255
 5968SOL    HW218804   6.441   1.984   3.350
 5969SOL     OW18805   5.052   6.615   1.697
 5969SOL    HW118806   4.984   6.543   1.711
 5969SOL    HW218807   5.111   6.622   1.777
 5970SOL     OW18808   5.850   1.908   0.294
 5970SOL    HW118809   5.902   1.937   0.213
 5970SOL    HW218810   5.906   1.848   0.350
 5971SOL     OW18811   6.873   5.314   3.604
 5971SOL    HW118812   6.858   5.236   3.543
 5971SOL    HW218813   6.946   5.291   3.669
 5972SOL     OW18814   6.186   5.282   0.317
 5972SOL    HW118815   6.176   5.186   0.291
 5972SOL    HW218816   6.117   5.304   0.386
 5973SOL     OW18817   3.291   0.729   2.102
 5973SOL    HW118818   3.257   0.646   2.059
 5973SOL    HW218819   3.224   0.803   2.089
 5974SOL     OW18820   5.314   1.093   4.412
 5974SOL    HW118821   5.374   1.133   4.481
 5974SOL    HW218822   5.324   1.143   4.326
 5975SOL     OW18823   4.021   4.510   0.417
 5975SOL    HW118824   4.074   4.427   0.398
 5975SOL    HW218825   3.937   4.486   0.466
 5976SOL     OW18826   0.882   1.954   6.053
 5976SOL    HW118827   0.885   2.050   6.080
 5976SOL    HW218828   0.972   1.912   6.066
 5977SOL     OW18829   0.782   5.511   1.720
 5977SOL    HW118830   0.789   5.520   1.820
 5977SOL    HW218831   0.873   5.495   1.682
 5978SOL     OW18832   2.859   3.844   6.070
 5978SOL    HW118833   2.865   3.763   6.010
 5978SOL    HW218834   2.941   3.848   6.127
 5979SOL     OW18835   5.799   0.845   1.517
 5979SOL    HW118836   5.893   0.820   1.492
 5979SOL    HW218837   5.798   0.884   1.609
 5980SOL     OW18838   3.991   2.449   0.813
 5980SOL    HW118839   3.906   2.496   0.836
 5980SOL    HW218840   4.005   2.452   0.714
 5981SOL     OW18841   4.482   2.166   1.095
 5981SOL    HW118842   4.486   2.147   0.997
 5981SOL    HW218843   4.408   2.113   1.136
 5982SOL     OW18844   5.894   2.722   1.650
 5982SOL    HW118845   5.827   2.649   1.663
 5982SOL    HW218846   5.875   2.771   1.565
 5983SOL     OW18847   0.094   1.609   3.642
 5983SOL    HW118848   0.130   1.623   3.550
 5983SOL    HW218849   0.116   1.688   3.699
 5984SOL     OW18850   6.296   5.922   1.402
 5984SOL    HW118851   6.269   5.934   1.306
 5984SOL    HW218852   6.222   5.876   1.452
 5985SOL     OW18853   0.364   4.432   2.560
 5985SOL    HW118854   0.388   4.336   2.546
 5985SOL    HW218855   0.283   4.438   2.618
 5986SOL     OW18856   3.959   3.329   2.829
 5986SOL    HW118857   4.013   3.357   2.750
 5986SOL    HW218858   3.908   3.246   2.807
 5987SOL     OW18859   0.397   6.151   4.335
 5987SOL    HW118860   0.339   6.108   4.266
 5987SOL    HW218861   0.424   6.242   4.303
 5988SOL     OW18862   1.770   2.116   0.797
 5988SOL    HW118863   1.710   2.125   0.876
 5988SOL    HW218864   1.740   2.179   0.725
 5989SOL     OW18865   2.519   6.684   5.826
 5989SOL    HW118866   2.567   6.660   5.910
 5989SOL    HW218867   2.574   6.656   5.747
 5990SOL     OW18868   2.206   3.996   1.467
 5990SOL    HW118869   2.166   4.087   1.478
 5990SOL    HW218870   2.266   3.976   1.544
 5991SOL     OW18871   5.164   1.229   0.555
 5991SOL    HW118872   5.170   1.225   0.655
 5991SOL    HW218873   5.080   1.277   0.529
 5992SOL     OW18874   2.724   4.780   3.293
 5992SOL    HW118875   2.690   4.780   3.199
 5992SOL    HW218876   2.768   4.867   3.313
 5993SOL     OW18877   5.487   1.264   0.407
 5993SOL    HW118878   5.550   1.272   0.329
 5993SOL    HW218879   5.462   1.355   0.439
 5994SOL     OW18880   0.882   4.506   1.071
 5994SOL    HW118881   0.910   4.567   1.145
 5994SOL    HW218882   0.928   4.533   0.986
 5995SOL     OW18883   5.318   4.667   1.105
 5995SOL    HW118884   5.340   4.680   1.008
 5995SOL    HW218885   5.394   4.701   1.160
 5996SOL     OW18886   2.322   0.799   1.813
 5996SOL    HW118887   2.266   0.862   1.761
 5996SOL    HW218888   2.346   0.720   1.756
 5997SOL     OW18889   6.371   0.563   4.506
 5997SOL    HW118890   6.446   0.599   4.561
 5997SOL    HW218891   6.284   0.579   4.553
 5998SOL     OW18892   6.050   6.470   0.039
 5998SOL    HW118893   6.067   6.563   0.070
 5998SOL    HW218894   5.978   6.470   6.990
 5999SOL     OW18895   5.456   3.707   0.985
 5999SOL    HW118896   5.393   3.746   1.052
 5999SOL    HW218897   5.475   3.611   1.009
 6000SOL     OW18898   0.613   5.226   1.866
 6000SOL    HW118899   0.525   5.270   1.881
 6000SOL    HW218900   0.665   5.225   1.951
 6001SOL     OW18901   0.041   6.313   5.872
 6001SOL    HW118902   0.035   6.216   5.895
 6001SOL    HW218903   0.137   6.338   5.855
 6002SOL     OW18904   5.449   4.843   4.515
 6002SOL    HW118905   5.440   4.925   4.459
 6002SOL    HW218906   5.546   4.824   4.530
 6003SOL     OW18907   2.356   0.878   5.081
 6003SOL    HW118908   2.413   0.955   5.111
 6003SOL    HW218909   2.326   0.894   4.986
 6004SOL     OW18910   5.463   2.956   4.909
 6004SOL    HW118911   5.521   2.877   4.931
 6004SOL    HW218912   5.509   3.013   4.840
 6005SOL     OW18913   3.840   3.637   0.302
 6005SOL    HW118914   3.865   3.638   0.205
 6005SOL    HW218915   3.741   3.651   0.311
 6006SOL     OW18916   2.807   6.225   5.796
 6006SOL    HW118917   2.849   6.299   5.743
 6006SOL    HW218918   2.716   6.253   5.826
 6007SOL     OW18919   3.399   6.552   4.490
 6007SOL    HW118920   3.349   6.519   4.570
 6007SOL    HW218921   3.346   6.530   4.407
 6008SOL     OW18922   2.513   3.947   6.730
 6008SOL    HW118923   2.468   3.889   6.798
 6008SOL    HW218924   2.555   4.026   6.775
 6009SOL     OW18925   2.167   5.456   2.585
 6009SOL    HW118926   2.070   5.438   2.572
 6009SOL    HW218927   2.191   5.545   2.546
 6010SOL     OW18928   0.192   5.237   5.967
 6010SOL    HW118929   0.129   5.314   5.966
 6010SOL    HW218930   0.241   5.233   5.880
 6011SOL     OW18931   5.736   2.037   3.200
 6011SOL    HW118932   5.721   2.130   3.166
 6011SOL    HW218933   5.766   2.041   3.295
 6012SOL     OW18934   6.525   1.153   5.656
 6012SOL    HW118935   6.587   1.232   5.657
 6012SOL    HW218936   6.439   1.179   5.611
 6013SOL     OW18937   6.033   1.684   2.733
 6013SOL    HW118938   6.045   1.781   2.757
 6013SOL    HW218939   6.117   1.650   2.690
 6014SOL     OW18940   4.096   3.725   4.076
 6014SOL    HW118941   4.115   3.627   4.076
 6014SOL    HW218942   4.157   3.770   4.011
 6015SOL     OW18943   6.903   0.513   3.225
 6015SOL    HW118944   6.974   0.577   3.197
 6015SOL    HW218945   6.893   0.515   3.324
 6016SOL     OW18946   4.164   1.804   4.058
 6016SOL    HW118947   4.075   1.788   4.015
 6016SOL    HW218948   4.236   1.768   3.999
 6017SOL     OW18949   1.448   2.581   5.138
 6017SOL    HW118950   1.371   2.531   5.098
 6017SOL    HW218951   1.534   2.534   5.113
 6018SOL     OW18952   2.202   0.884   3.959
 6018SOL    HW118953   2.242   0.936   4.034
 6018SOL    HW218954   2.254   0.901   3.875
 6019SOL     OW18955   6.608   3.014   6.406
 6019SOL    HW118956   6.599   2.916   6.391
 6019SOL    HW218957   6.593   3.035   6.502
 6020SOL     OW18958   0.536   5.643   4.666
 6020SOL    HW118959   0.458   5.700   4.643
 6020SOL    HW218960   0.516   5.592   4.750
 6021SOL     OW18961   5.007   0.338   3.853
 6021SOL    HW118962   5.081   0.287   3.896
 6021SOL    HW218963   4.947   0.376   3.924
 6022SOL     OW18964   6.484   3.921   0.870
 6022SOL    HW118965   6.526   3.831   0.879
 6022SOL    HW218966   6.391   3.918   0.907
 6023SOL     OW18967   4.144   7.002   2.995
 6023SOL    HW118968   4.222   0.045   3.003
 6023SOL    HW218969   4.140   6.965   2.903
 6024SOL     OW18970   0.643   6.626   6.998
 6024SOL    HW118971   0.648   6.608   6.900
 6024SOL    HW218972   0.596   6.712   7.015
 6025SOL     OW18973   3.850   0.564   5.855
 6025SOL    HW118974   3.766   0.578   5.907
 6025SOL    HW218975   3.913   0.641   5.871
 6026SOL     OW18976   5.264   6.116   3.591
 6026SOL    HW118977   5.326   6.190   3.567
 6026SOL    HW218978   5.243   6.119   3.688
 6027SOL     OW18979   6.071   4.228   5.333
 6027SOL    HW118980   6.057   4.160   5.260
 6027SOL    HW218981   6.009   4.207   5.409
 6028SOL     OW18982   5.742   5.761   6.361
 6028SOL    HW118983   5.788   5.740   6.447
 6028SOL    HW218984   5.653   5.716   6.359
 6029SOL     OW18985   2.771   1.275   2.738
 6029SOL    HW118986   2.772   1.332   2.820
 6029SOL    HW218987   2.812   1.326   2.661
 6030SOL     OW18988   5.970   3.103   4.943
 6030SOL    HW118989   5.907   3.154   5.002
 6030SOL    HW218990   5.949   3.121   4.847
 6031SOL     OW18991   0.195   0.498   3.690
 6031SOL    HW118992   0.266   0.433   3.717
 6031SOL    HW218993   0.218   0.539   3.602
 6032SOL     OW18994   3.161   7.011   3.058
 6032SOL    HW118995   3.223   0.069   3.052
 6032SOL    HW218996   3.205   6.937   3.109
 6033SOL     OW18997   0.887   1.713   2.726
 6033SOL    HW118998   0.864   1.620   2.697
 6033SOL    HW218999   0.808   1.772   2.713
 6034SOL     OW19000   0.612   0.536   1.015
 6034SOL    HW119001   0.535   0.581   1.062
 6034SOL    HW219002   0.660   0.603   0.958
 6035SOL     OW19003   1.894   1.368   2.690
 6035SOL    HW119004   1.880   1.346   2.787
 6035SOL    HW219005   1.811   1.411   2.654
 6036SOL     OW19006   0.061   3.758   0.201
 6036SOL    HW119007   0.153   3.730   0.227
 6036SOL    HW219008   7.018   3.681   0.212
 6037SOL     OW19009   4.790   0.622   6.320
 6037SOL    HW119010   4.703   0.574   6.307
 6037SOL    HW219011   4.805   0.639   6.417
 6038SOL     OW19012   2.171   1.260   0.081
 6038SOL    HW119013   2.188   1.166   0.112
 6038SOL    HW219014   2.089   1.295   0.128
 6039SOL     OW19015   3.482   2.962   4.227
 6039SOL    HW119016   3.544   2.967   4.305
 6039SOL    HW219017   3.390   2.990   4.256
 6040SOL     OW19018   6.740   1.124   0.735
 6040SOL    HW119019   6.708   1.210   0.775
 6040SOL    HW219020   6.675   1.094   0.666
 6041SOL     OW19021   0.308   3.113   4.682
 6041SOL    HW119022   0.370   3.180   4.721
 6041SOL    HW219023   0.300   3.127   4.583
 6042SOL     OW19024   2.758   6.177   3.740
 6042SOL    HW119025   2.798   6.186   3.649
 6042SOL    HW219026   2.692   6.102   3.739
 6043SOL     OW19027   2.187   5.047   1.596
 6043SOL    HW119028   2.274   5.080   1.633
 6043SOL    HW219029   2.122   5.035   1.671
 6044SOL     OW19030   6.478   3.866   6.879
 6044SOL    HW119031   6.414   3.864   6.802
 6044SOL    HW219032   6.568   3.895   6.847
 6045SOL     OW19033   4.855   1.381   4.120
 6045SOL    HW119034   4.939   1.364   4.171
 6045SOL    HW219035   4.776   1.368   4.180
 6046SOL     OW19036   3.254   3.729   2.780
 6046SOL    HW119037   3.157   3.706   2.786
 6046SOL    HW219038   3.268   3.792   2.703
 6047SOL     OW19039   0.071   1.349   0.314
 6047SOL    HW119040   0.032   1.432   0.275
 6047SOL    HW219041   0.001   1.277   0.316
 6048SOL     OW19042   6.336   5.677   3.657
 6048SOL    HW119043   6.286   5.609   3.710
 6048SOL    HW219044   6.277   5.756   3.641
 6049SOL     OW19045   5.342   4.806   6.943
 6049SOL    HW119046   5.346   4.709   6.919
 6049SOL    HW219047   5.344   4.816   0.022
 6050SOL     OW19048   1.829   5.449   3.218
 6050SOL    HW119049   1.772   5.526   3.188
 6050SOL    HW219050   1.771   5.369   3.234
 6051SOL     OW19051   0.407   1.840   2.606
 6051SOL    HW119052   0.397   1.834   2.507
 6051SOL    HW219053   0.373   1.928   2.638
 6052SOL     OW19054   5.183   6.044   6.489
 6052SOL    HW119055   5.189   5.953   6.528
 6052SOL    HW219056   5.268   6.094   6.505
 6053SOL     OW19057   3.633   1.967   5.623
 6053SOL    HW119058   3.623   1.919   5.536
 6053SOL    HW219059   3.687   1.912   5.686
 6054SOL     OW19060   4.480   3.874   6.355
 6054SOL    HW119061   4.550   3.895   6.287
 6054SOL    HW219062   4.506   3.792   6.406
 6055SOL     OW19063   2.702   4.407   1.569
 6055SOL    HW119064   2.682   4.311   1.551
 6055SOL    HW219065   2.641   4.441   1.641
 6056SOL     OW19066   5.147   6.542   3.156
 6056SOL    HW119067   5.092   6.459   3.141
 6056SOL    HW219068   5.137   6.603   3.077
 6057SOL     OW19069   5.838   1.216   3.964
 6057SOL    HW119070   5.850   1.118   3.976
 6057SOL    HW219071   5.805   1.234   3.871
 6058SOL     OW19072   6.860   3.263   6.100
 6058SOL    HW119073   6.779   3.206   6.087
 6058SOL    HW219074   6.937   3.206   6.128
 6059SOL     OW19075   4.161   2.307   6.404
 6059SOL    HW119076   4.098   2.384   6.394
 6059SOL    HW219077   4.254   2.341   6.419
 6060SOL     OW19078   2.390   2.255   1.142
 6060SOL    HW119079   2.438   2.332   1.102
 6060SOL    HW219080   2.380   2.183   1.073
 6061SOL     OW19081   2.616   4.733   6.774
 6061SOL    HW119082   2.589   4.779   6.690
 6061SOL    HW219083   2.544   4.669   6.802
 6062SOL     OW19084   2.114   2.555   5.519
 6062SOL    HW119085   2.098   2.609   5.437
 6062SOL    HW219086   2.081   2.462   5.505
 6063SOL     OW19087   4.718   3.837   6.191
 6063SOL    HW119088   4.734   3.933   6.216
 6063SOL    HW219089   4.760   3.777   6.260
 6064SOL     OW19090   5.839   5.789   0.189
 6064SOL    HW119091   5.748   5.831   0.193
 6064SOL    HW219092   5.896   5.839   0.123
 6065SOL     OW19093   1.759   5.621   1.429
 6065SOL    HW119094   1.660   5.622   1.422
 6065SOL    HW219095   1.799   5.664   1.348
 6066SOL     OW19096   5.850   5.618   2.332
 6066SOL    HW119097   5.802   5.530   2.336
 6066SOL    HW219098   5.783   5.691   2.322
 6067SOL     OW19099   6.713   4.634   5.557
 6067SOL    HW119100   6.622   4.621   5.519
 6067SOL    HW219101   6.717   4.592   5.648
 6068SOL     OW19102   4.412   2.067   3.779
 6068SOL    HW119103   4.498   2.054   3.828
 6068SOL    HW219104   4.397   2.164   3.761
 6069SOL     OW19105   0.928   4.835   5.177
 6069SOL    HW119106   0.982   4.850   5.260
 6069SOL    HW219107   0.836   4.870   5.191
 6070SOL     OW19108   2.363   0.978   1.305
 6070SOL    HW119109   2.273   0.934   1.296
 6070SOL    HW219110   2.357   1.071   1.269
 6071SOL     OW19111   6.111   0.026   6.508
 6071SOL    HW119112   6.171   0.100   6.479
 6071SOL    HW219113   6.146   7.006   6.593
 6072SOL     OW19114   6.900   3.050   0.073
 6072SOL    HW119115   6.891   2.967   0.017
 6072SOL    HW219116   6.996   3.077   0.076
 6073SOL     OW19117   4.590   4.224   0.011
 6073SOL    HW119118   4.576   4.255   6.937
 6073SOL    HW219119   4.582   4.302   0.073
 6074SOL     OW19120   1.319   5.848   2.577
 6074SOL    HW119121   1.226   5.885   2.571
 6074SOL    HW219122   1.367   5.865   2.491
 6075SOL     OW19123   6.376   0.276   0.034
 6075SOL    HW119124   6.356   0.339   6.978
 6075SOL    HW219125   6.405   0.328   0.114
 6076SOL     OW19126   0.114   6.483   3.239
 6076SOL    HW119127   0.152   6.444   3.323
 6076SOL    HW219128   0.071   6.411   3.184
 6077SOL     OW19129   5.282   6.253   2.824
 6077SOL    HW119130   5.353   6.289   2.885
 6077SOL    HW219131   5.227   6.328   2.787
 6078SOL     OW19132   5.703   4.144   0.440
 6078SOL    HW119133   5.644   4.063   0.440
 6078SOL    HW219134   5.708   4.181   0.348
 6079SOL     OW19135   3.498   1.610   0.428
 6079SOL    HW119136   3.504   1.616   0.528
 6079SOL    HW219137   3.557   1.680   0.387
 6080SOL     OW19138   6.298   3.465   5.608
 6080SOL    HW119139   6.335   3.409   5.533
 6080SOL    HW219140   6.227   3.526   5.572
 6081SOL     OW19141   2.194   3.802   4.336
 6081SOL    HW119142   2.111   3.753   4.308
 6081SOL    HW219143   2.197   3.807   4.436
 6082SOL     OW19144   3.859   0.820   0.729
 6082SOL    HW119145   3.793   0.755   0.767
 6082SOL    HW219146   3.810   0.886   0.671
 6083SOL     OW19147   4.910   0.580   5.521
 6083SOL    HW119148   4.973   0.505   5.500
 6083SOL    HW219149   4.825   0.567   5.470
 6084SOL     OW19150   6.663   4.908   3.073
 6084SOL    HW119151   6.599   4.832   3.067
 6084SOL    HW219152   6.619   4.984   3.121
 6085SOL     OW19153   0.615   6.469   1.133
 6085SOL    HW119154   0.667   6.521   1.065
 6085SOL    HW219155   0.557   6.403   1.086
 6086SOL     OW19156   4.710   3.511   0.453
 6086SOL    HW119157   4.695   3.570   0.532
 6086SOL    HW219158   4.727   3.418   0.484
 6087SOL     OW19159   4.024   0.425   0.339
 6087SOL    HW119160   4.088   0.375   0.397
 6087SOL    HW219161   3.973   0.490   0.395
 6088SOL     OW19162   3.684   6.118   2.580
 6088SOL    HW119163   3.625   6.097   2.658
 6088SOL    HW219164   3.747   6.041   2.565
 6089SOL     OW19165   6.213   5.453   2.879
 6089SOL    HW119166   6.291   5.408   2.837
 6089SOL    HW219167   6.206   5.427   2.976
 6090SOL     OW19168   3.687   5.758   4.713
 6090SOL    HW119169   3.745   5.680   4.688
 6090SOL    HW219170   3.598   5.724   4.742
 6091SOL     OW19171   0.477   2.771   1.811
 6091SOL    HW119172   0.534   2.798   1.733
 6091SOL    HW219173   0.505   2.680   1.842
 6092SOL     OW19174   2.017   6.766   0.882
 6092SOL    HW119175   1.957   6.741   0.806
 6092SOL    HW219176   2.057   6.856   0.865
 6093SOL     OW19177   3.681   3.281   2.732
 6093SOL    HW119178   3.690   3.364   2.788
 6093SOL    HW219179   3.584   3.264   2.713
 6094SOL     OW19180   0.629   0.207   5.926
 6094SOL    HW119181   0.535   0.185   5.953
 6094SOL    HW219182   0.674   0.125   5.892
 6095SOL     OW19183   5.318   5.164   2.153
 6095SOL    HW119184   5.219   5.176   2.153
 6095SOL    HW219185   5.345   5.111   2.234
 6096SOL     OW19186   5.167   5.989   2.799
 6096SOL    HW119187   5.198   6.084   2.803
 6096SOL    HW219188   5.097   5.980   2.727
 6097SOL     OW19189   2.542   5.261   1.513
 6097SOL    HW119190   2.561   5.345   1.565
 6097SOL    HW219191   2.542   5.281   1.415
 6098SOL     OW19192   5.733   1.386   5.375
 6098SOL    HW119193   5.663   1.425   5.314
 6098SOL    HW219194   5.810   1.354   5.321
 6099SOL     OW19195   3.524   0.073   5.399
 6099SOL    HW119196   3.466   0.067   5.480
 6099SOL    HW219197   3.483   0.135   5.332
 6100SOL     OW19198   6.938   5.438   6.084
 6100SOL    HW119199   6.926   5.512   6.017
 6100SOL    HW219200   6.935   5.475   6.176
 6101SOL     OW19201   0.887   2.982   0.700
 6101SOL    HW119202   0.803   3.018   0.740
 6101SOL    HW219203   0.904   3.026   0.611
 6102SOL     OW19204   2.897   0.552   3.051
 6102SOL    HW119205   2.900   0.651   3.037
 6102SOL    HW219206   2.990   0.518   3.068
 6103SOL     OW19207   5.860   0.270   2.411
 6103SOL    HW119208   5.841   0.287   2.508
 6103SOL    HW219209   5.783   0.304   2.356
 6104SOL     OW19210   6.097   1.130   5.018
 6104SOL    HW119211   6.071   1.226   5.008
 6104SOL    HW219212   6.186   1.115   4.974
 6105SOL     OW19213   3.843   5.062   6.433
 6105SOL    HW119214   3.762   5.038   6.487
 6105SOL    HW219215   3.924   5.057   6.491
 6106SOL     OW19216   6.494   3.960   5.056
 6106SOL    HW119217   6.583   3.997   5.030
 6106SOL    HW219218   6.486   3.960   5.156
 6107SOL     OW19219   5.895   5.149   4.950
 6107SOL    HW119220   5.896   5.180   5.045
 6107SOL    HW219221   5.867   5.224   4.891
 6108SOL     OW19222   3.224   0.316   6.168
 6108SOL    HW119223   3.261   0.397   6.213
 6108SOL    HW219224   3.124   0.320   6.170
 6109SOL     OW19225   6.931   6.426   3.997
 6109SOL    HW119226   6.884   6.465   4.076
 6109SOL    HW219227   6.988   6.496   3.955
 6110SOL     OW19228   1.136   1.770   3.944
 6110SOL    HW119229   1.110   1.860   3.910
 6110SOL    HW219230   1.056   1.723   3.979
 6111SOL     OW19231   3.149   2.915   0.935
 6111SOL    HW119232   3.122   2.903   0.839
 6111SOL    HW219233   3.074   2.886   0.994
 6112SOL     OW19234   4.846   6.305   3.807
 6112SOL    HW119235   4.805   6.261   3.887
 6112SOL    HW219236   4.945   6.298   3.813
 6113SOL     OW19237   3.085   5.178   0.809
 6113SOL    HW119238   2.998   5.192   0.760
 6113SOL    HW219239   3.115   5.264   0.849
 6114SOL     OW19240   5.016   3.514   1.659
 6114SOL    HW119241   5.046   3.424   1.689
 6114SOL    HW219242   4.948   3.503   1.586
 6115SOL     OW19243   6.062   0.920   4.724
 6115SOL    HW119244   6.161   0.931   4.723
 6115SOL    HW219245   6.030   0.894   4.632
 6116SOL     OW19246   6.023   2.765   0.474
 6116SOL    HW119247   6.039   2.689   0.411
 6116SOL    HW219248   5.942   2.816   0.444
 6117SOL     OW19249   2.605   2.688   1.041
 6117SOL    HW119250   2.631   2.592   1.031
 6117SOL    HW219251   2.574   2.724   0.953
 6118SOL     OW19252   5.917   0.679   0.991
 6118SOL    HW119253   5.888   0.606   0.928
 6118SOL    HW219254   5.924   0.642   1.084
 6119SOL     OW19255   0.611   0.871   6.242
 6119SOL    HW119256   0.685   0.938   6.235
 6119SOL    HW219257   0.595   0.849   6.338
 6120SOL     OW19258   3.323   1.138   3.685
 6120SOL    HW119259   3.262   1.094   3.752
 6120SOL    HW219260   3.318   1.089   3.598
 6121SOL     OW19261   3.075   0.855   5.400
 6121SOL    HW119262   3.103   0.799   5.321
 6121SOL    HW219263   3.135   0.836   5.477
 6122SOL     OW19264   4.472   4.874   4.657
 6122SOL    HW119265   4.435   4.914   4.573
 6122SOL    HW219266   4.572   4.881   4.655
 6123SOL     OW19267   6.152   1.475   5.219
 6123SOL    HW119268   6.163   1.487   5.317
 6123SOL    HW219269   6.241   1.472   5.175
 6124SOL     OW19270   2.155   6.308   4.096
 6124SOL    HW119271   2.174   6.238   4.028
 6124SOL    HW219272   2.058   6.309   4.117
 6125SOL     OW19273   3.255   0.980   5.904
 6125SOL    HW119274   3.318   0.949   5.832
 6125SOL    HW219275   3.279   1.073   5.931
 6126SOL     OW19276   5.758   2.920   6.363
 6126SOL    HW119277   5.736   2.859   6.439
 6126SOL    HW219278   5.857   2.923   6.349
 6127SOL     OW19279   4.885   2.160   2.478
 6127SOL    HW119280   4.910   2.150   2.382
 6127SOL    HW219281   4.941   2.099   2.534
 6128SOL     OW19282   5.636   5.591   4.974
 6128SOL    HW119283   5.579   5.526   5.024
 6128SOL    HW219284   5.582   5.633   4.901
 6129SOL     OW19285   2.264   5.971   3.035
 6129SOL    HW119286   2.177   5.988   2.988
 6129SOL    HW219287   2.340   5.984   2.971
 6130SOL     OW19288   6.062   2.464   6.849
 6130SOL    HW119289   6.090   2.418   6.766
 6130SOL    HW219290   5.974   2.509   6.834
 6131SOL     OW19291   6.028   3.164   2.822
 6131SOL    HW119292   6.084   3.234   2.777
 6131SOL    HW219293   5.959   3.130   2.759
 6132SOL     OW19294   4.561   6.116   6.257
 6132SOL    HW119295   4.629   6.145   6.324
 6132SOL    HW219296   4.519   6.030   6.287
 6133SOL     OW19297   0.398   2.550   3.951
 6133SOL    HW119298   0.452   2.562   3.869
 6133SOL    HW219299   0.361   2.457   3.954
 6134SOL     OW19300   0.207   6.915   5.375
 6134SOL    HW119301   0.297   6.901   5.335
 6134SOL    HW219302   0.215   6.970   5.458
 6135SOL     OW19303   6.217   6.045   0.126
 6135SOL    HW119304   6.250   5.982   0.196
 6135SOL    HW219305   6.243   6.138   0.149
 6136SOL     OW19306   1.210   2.097   3.258
 6136SOL    HW119307   1.211   2.196   3.243
 6136SOL    HW219308   1.166   2.052   3.179
 6137SOL     OW19309   6.888   4.875   0.984
 6137SOL    HW119310   6.921   4.781   0.996
 6137SOL    HW219311   6.791   4.879   1.005
 6138SOL     OW19312   5.435   0.955   2.413
 6138SOL    HW119313   5.496   0.878   2.431
 6138SOL    HW219314   5.441   1.021   2.488
 6139SOL     OW19315   1.964   2.311   5.362
 6139SOL    HW119316   1.923   2.361   5.438
 6139SOL    HW219317   1.914   2.332   5.278
 6140SOL     OW19318   2.044   0.370   3.897
 6140SOL    HW119319   2.059   0.468   3.914
 6140SOL    HW219320   1.996   0.359   3.810
 6141SOL     OW19321   1.100   0.061   0.373
 6141SOL    HW119322   1.156   0.123   0.429
 6141SOL    HW219323   1.082   0.104   0.285
 6142SOL     OW19324   0.408   0.048   1.830
 6142SOL    HW119325   0.376   6.989   1.881
 6142SOL    HW219326   0.340   0.121   1.836
 6143SOL     OW19327   0.979   3.130   5.622
 6143SOL    HW119328   1.028   3.216   5.605
 6143SOL    HW219329   0.910   3.117   5.551
 6144SOL     OW19330   3.390   5.781   2.610
 6144SOL    HW119331   3.322   5.827   2.666
 6144SOL    HW219332   3.473   5.764   2.664
 6145SOL     OW19333   5.445   3.162   4.358
 6145SOL    HW119334   5.488   3.100   4.292
 6145SOL    HW219335   5.393   3.232   4.309
 6146SOL     OW19336   5.770   1.562   5.567
 6146SOL    HW119337   5.710   1.642   5.569
 6146SOL    HW219338   5.748   1.507   5.486
 6147SOL     OW19339   1.485   1.860   5.809
 6147SOL    HW119340   1.519   1.945   5.767
 6147SOL    HW219341   1.501   1.863   5.908
 6148SOL     OW19342   4.106   5.114   6.890
 6148SOL    HW119343   4.098   5.208   6.924
 6148SOL    HW219344   4.031   5.059   6.928
 6149SOL     OW19345   4.085   1.772   1.800
 6149SOL    HW119346   4.022   1.694   1.801
 6149SOL    HW219347   4.063   1.830   1.722
 6150SOL     OW19348   0.601   4.770   4.199
 6150SOL    HW119349   0.661   4.840   4.160
 6150SOL    HW219350   0.623   4.756   4.295
 6151SOL     OW19351   4.050   5.197   2.374
 6151SOL    HW119352   4.117   5.123   2.379
 6151SOL    HW219353   4.012   5.203   2.282
 6152SOL     OW19354   0.157   3.793   3.110
 6152SOL    HW119355   0.136   3.812   3.205
 6152SOL    HW219356   0.073   3.801   3.055
 6153SOL     OW19357   5.878   6.313   0.894
 6153SOL    HW119358   5.881   6.411   0.917
 6153SOL    HW219359   5.858   6.261   0.977
 6154SOL     OW19360   4.262   4.655   2.804
 6154SOL    HW119361   4.186   4.686   2.861
 6154SOL    HW219362   4.246   4.684   2.709
 6155SOL     OW19363   1.686   1.867   4.147
 6155SOL    HW119364   1.755   1.904   4.209
 6155SOL    HW219365   1.617   1.818   4.201
 6156SOL     OW19366   4.430   4.502   2.532
 6156SOL    HW119367   4.457   4.488   2.436
 6156SOL    HW219368   4.454   4.421   2.585
 6157SOL     OW19369   0.333   2.785   0.987
 6157SOL    HW119370   0.332   2.721   0.910
 6157SOL    HW219371   0.396   2.751   1.057
 6158SOL     OW19372   3.501   0.397   6.052
 6158SOL    HW119373   3.483   0.464   6.124
 6158SOL    HW219374   3.416   0.377   6.003
 6159SOL     OW19375   6.341   2.108   1.182
 6159SOL    HW119376   6.342   2.189   1.240
 6159SOL    HW219377   6.388   2.128   1.096
 6160SOL     OW19378   0.844   6.965   1.097
 6160SOL    HW119379   0.866   6.867   1.100
 6160SOL    HW219380   0.866   7.002   1.007
 6161SOL     OW19381   6.034   4.087   0.145
 6161SOL    HW119382   6.059   4.169   0.196
 6161SOL    HW219383   6.041   4.104   0.047
 6162SOL     OW19384   6.107   6.247   1.104
 6162SOL    HW119385   6.110   6.188   1.024
 6162SOL    HW219386   6.152   6.201   1.182
 6163SOL     OW19387   6.006   5.970   3.125
 6163SOL    HW119388   6.013   5.977   3.025
 6163SOL    HW219389   5.970   5.880   3.150
 6164SOL     OW19390   3.238   4.157   4.468
 6164SOL    HW119391   3.176   4.224   4.510
 6164SOL    HW219392   3.189   4.071   4.452
 6165SOL     OW19393   3.031   0.602   0.452
 6165SOL    HW119394   2.962   0.531   0.467
 6165SOL    HW219395   3.100   0.568   0.388
 6166SOL     OW19396   3.298   1.251   6.011
 6166SOL    HW119397   3.380   1.307   6.023
 6166SOL    HW219398   3.241   1.255   6.093
 6167SOL     OW19399   1.071   3.143   3.008
 6167SOL    HW119400   1.125   3.183   2.934
 6167SOL    HW219401   1.109   3.172   3.096
 6168SOL     OW19402   0.675   3.558   4.012
 6168SOL    HW119403   0.604   3.499   4.050
 6168SOL    HW219404   0.754   3.558   4.073
 6169SOL     OW19405   2.324   1.205   0.478
 6169SOL    HW119406   2.372   1.169   0.398
 6169SOL    HW219407   2.374   1.284   0.514
 6170SOL     OW19408   2.864   4.732   1.124
 6170SOL    HW119409   2.847   4.648   1.175
 6170SOL    HW219410   2.922   4.712   1.045
 6171SOL     OW19411   2.207   4.175   1.746
 6171SOL    HW119412   2.200   4.222   1.834
 6171SOL    HW219413   2.142   4.216   1.681
 6172SOL     OW19414   2.728   4.974   1.510
 6172SOL    HW119415   2.695   4.964   1.416
 6172SOL    HW219416   2.718   5.070   1.539
 6173SOL     OW19417   1.201   5.512   2.629
 6173SOL    HW119418   1.161   5.422   2.645
 6173SOL    HW219419   1.138   5.567   2.574
 6174SOL     OW19420   6.239   4.836   1.489
 6174SOL    HW119421   6.256   4.916   1.545
 6174SOL    HW219422   6.324   4.784   1.478
 6175SOL     OW19423   5.723   0.164   4.031
 6175SOL    HW119424   5.626   0.152   4.012
 6175SOL    HW219425   5.771   0.078   4.017
 6176SOL     OW19426   6.237   3.143   0.468
 6176SOL    HW119427   6.174   3.078   0.511
 6176SOL    HW219428   6.331   3.116   0.490
 6177SOL     OW19429   6.107   2.401   2.679
 6177SOL    HW119430   6.157   2.456   2.612
 6177SOL    HW219431   6.104   2.306   2.649
 6178SOL     OW19432   6.721   2.946   0.922
 6178SOL    HW119433   6.645   2.882   0.931
 6178SOL    HW219434   6.691   3.038   0.948
 6179SOL     OW19435   0.872   1.349   5.081
 6179SOL    HW119436   0.799   1.290   5.115
 6179SOL    HW219437   0.850   1.379   4.988
 6180SOL     OW19438   3.176   1.048   6.492
 6180SOL    HW119439   3.262   1.086   6.458
 6180SOL    HW219440   3.169   1.064   6.590
 6181SOL     OW19441   4.385   6.388   6.414
 6181SOL    HW119442   4.453   6.366   6.483
 6181SOL    HW219443   4.293   6.372   6.451
 6182SOL     OW19444   4.856   6.913   5.445
 6182SOL    HW119445   4.813   6.953   5.364
 6182SOL    HW219446   4.809   6.828   5.469
 6183SOL     OW19447   2.743   0.598   2.536
 6183SOL    HW119448   2.757   0.667   2.465
 6183SOL    HW219449   2.646   0.573   2.538
 6184SOL     OW19450   6.699   0.953   5.551
 6184SOL    HW119451   6.679   0.856   5.538
 6184SOL    HW219452   6.622   0.997   5.597
 6185SOL     OW19453   2.594   2.548   0.170
 6185SOL    HW119454   2.586   2.485   0.093
 6185SOL    HW219455   2.510   2.602   0.177
 6186SOL     OW19456   4.350   1.047   4.158
 6186SOL    HW119457   4.372   1.102   4.238
 6186SOL    HW219458   4.375   0.952   4.174
 6187SOL     OW19459   3.000   4.830   4.274
 6187SOL    HW119460   3.018   4.904   4.209
 6187SOL    HW219461   2.922   4.776   4.242
 6188SOL     OW19462   2.814   0.168   2.007
 6188SOL    HW119463   2.774   0.144   1.919
 6188SOL    HW219464   2.849   0.086   2.052
 6189SOL     OW19465   5.090   4.818   3.123
 6189SOL    HW119466   5.085   4.721   3.098
 6189SOL    HW219467   5.171   4.833   3.179
 6190SOL     OW19468   5.162   2.935   5.899
 6190SOL    HW119469   5.196   2.869   5.832
 6190SOL    HW219470   5.062   2.933   5.899
 6191SOL     OW19471   7.004   1.629   6.543
 6191SOL    HW119472   6.918   1.647   6.494
 6191SOL    HW219473   0.032   1.554   6.500
 6192SOL     OW19474   3.397   2.080   0.503
 6192SOL    HW119475   3.376   2.119   0.592
 6192SOL    HW219476   3.472   2.015   0.511
 6193SOL     OW19477   0.191   0.221   1.791
 6193SOL    HW119478   0.237   0.296   1.839
 6193SOL    HW219479   0.121   0.259   1.730
 6194SOL     OW19480   2.657   0.338   0.730
 6194SOL    HW119481   2.604   0.290   0.799
 6194SOL    HW219482   2.629   0.308   0.639
 6195SOL     OW19483   2.538   0.284   5.888
 6195SOL    HW119484   2.484   0.216   5.936
 6195SOL    HW219485   2.593   0.239   5.817
 6196SOL     OW19486   1.162   1.921   5.560
 6196SOL    HW119487   1.190   2.013   5.587
 6196SOL    HW219488   1.155   1.916   5.460
 6197SOL     OW19489   2.802   2.920   1.640
 6197SOL    HW119490   2.720   2.870   1.667
 6197SOL    HW219491   2.792   2.953   1.546
 6198SOL     OW19492   3.412   5.130   2.689
 6198SOL    HW119493   3.460   5.062   2.633
 6198SOL    HW219494   3.476   5.202   2.716
 6199SOL     OW19495   0.283   0.380   6.748
 6199SOL    HW119496   0.347   0.456   6.759
 6199SOL    HW219497   0.191   0.416   6.731
 6200SOL     OW19498   3.893   0.147   5.951
 6200SOL    HW119499   3.845   0.062   5.976
 6200SOL    HW219500   3.962   0.126   5.882
 6201SOL     OW19501   2.284   5.024   4.559
 6201SOL    HW119502   2.383   5.037   4.566
 6201SOL    HW219503   2.241   5.045   4.646
 6202SOL     OW19504   1.907   2.127   1.480
 6202SOL    HW119505   1.874   2.143   1.386
 6202SOL    HW219506   1.982   2.189   1.500
 6203SOL     OW19507   5.585   2.451   3.948
 6203SOL    HW119508   5.650   2.521   3.919
 6203SOL    HW219509   5.498   2.465   3.901
 6204SOL     OW19510   1.091   6.689   5.664
 6204SOL    HW119511   1.070   6.591   5.663
 6204SOL    HW219512   1.136   6.713   5.750
 6205SOL     OW19513   4.922   6.392   0.011
 6205SOL    HW119514   4.879   6.366   6.944
 6205SOL    HW219515   4.861   6.369   0.086
 6206SOL     OW19516   5.008   0.081   3.592
 6206SOL    HW119517   4.943   0.006   3.607
 6206SOL    HW219518   4.994   0.119   3.500
 6207SOL     OW19519   2.128   4.105   4.525
 6207SOL    HW119520   2.143   4.014   4.562
 6207SOL    HW219521   2.147   4.105   4.427
 6208SOL     OW19522   5.396   4.831   5.554
 6208SOL    HW119523   5.431   4.899   5.490
 6208SOL    HW219524   5.453   4.750   5.551
 6209SOL     OW19525   2.037   5.629   1.017
 6209SOL    HW119526   2.104   5.616   0.943
 6209SOL    HW219527   1.992   5.543   1.037
 6210SOL     OW19528   0.081   4.002   2.743
 6210SOL    HW119529   0.179   4.019   2.748
 6210SOL    HW219530   0.058   3.968   2.652
 6211SOL     OW19531   2.628   0.795   5.501
 6211SOL    HW119532   2.712   0.741   5.495
 6211SOL    HW219533   2.621   0.837   5.591
 6212SOL     OW19534   6.713   0.522   3.682
 6212SOL    HW119535   6.803   0.500   3.721
 6212SOL    HW219536   6.676   0.603   3.727
 6213SOL     OW19537   6.611   6.856   0.230
 6213SOL    HW119538   6.578   6.951   0.228
 6213SOL    HW219539   6.603   6.821   0.323
 6214SOL     OW19540   5.040   4.582   1.845
 6214SOL    HW119541   5.110   4.530   1.895
 6214SOL    HW219542   4.969   4.612   1.909
 6215SOL     OW19543   3.243   4.739   1.315
 6215SOL    HW119544   3.321   4.677   1.305
 6215SOL    HW219545   3.159   4.692   1.285
 6216SOL     OW19546   6.948   2.641   2.823
 6216SOL    HW119547   6.970   2.624   2.727
 6216SOL    HW219548   6.863   2.594   2.846
 6217SOL     OW19549   4.345   1.696   1.765
 6217SOL    HW119550   4.250   1.724   1.780
 6217SOL    HW219551   4.347   1.603   1.728
 6218SOL     OW19552   4.800   6.031   4.501
 6218SOL    HW119553   4.857   5.952   4.525
 6218SOL    HW219554   4.714   6.026   4.550
 6219SOL     OW19555   0.086   1.360   4.453
 6219SOL    HW119556   0.176   1.362   4.410
 6219SOL    HW219557   0.093   1.393   4.547
 6220SOL     OW19558   1.216   3.121   5.074
 6220SOL    HW119559   1.278   3.110   5.151
 6220SOL    HW219560   1.133   3.067   5.090
 6221SOL     OW19561   4.208   4.754   4.186
 6221SOL    HW119562   4.132   4.805   4.227
 6221SOL    HW219563   4.203   4.761   4.086
 6222SOL     OW19564   6.606   2.008   1.271
 6222SOL    HW119565   6.508   2.027   1.269
 6222SOL    HW219566   6.622   1.918   1.311
 6223SOL     OW19567   5.164   4.266   3.842
 6223SOL    HW119568   5.174   4.269   3.942
 6223SOL    HW219569   5.254   4.259   3.800
 6224SOL     OW19570   2.261   0.162   4.382
 6224SOL    HW119571   2.332   0.212   4.430
 6224SOL    HW219572   2.187   0.224   4.357
 6225SOL     OW19573   3.798   1.760   6.841
 6225SOL    HW119574   3.706   1.762   6.879
 6225SOL    HW219575   3.850   1.838   6.875
 6226SOL     OW19576   0.048   6.255   4.234
 6226SOL    HW119577   0.007   6.165   4.219
 6226SOL    HW219578   0.082   6.291   4.148
 6227SOL     OW19579   2.517   4.240   6.391
 6227SOL    HW119580   2.499   4.291   6.475
 6227SOL    HW219581   2.432   4.230   6.339
 6228SOL     OW19582   0.092   2.372   2.774
 6228SOL    HW119583   0.022   2.317   2.730
 6228SOL    HW219584   0.129   2.438   2.708
 6229SOL     OW19585   1.161   2.256   1.857
 6229SOL    HW119586   1.238   2.234   1.917
 6229SOL    HW219587   1.181   2.222   1.764
 6230SOL     OW19588   1.928   2.234   3.944
 6230SOL    HW119589   1.925   2.135   3.960
 6230SOL    HW219590   1.839   2.265   3.912
 6231SOL     OW19591   6.576   5.080   1.801
 6231SOL    HW119592   6.660   5.067   1.748
 6231SOL    HW219593   6.569   5.007   1.869
 6232SOL     OW19594   1.070   0.680   0.162
 6232SOL    HW119595   1.105   0.689   0.255
 6232SOL    HW219596   1.147   0.674   0.098
 6233SOL     OW19597   4.028   1.141   6.634
 6233SOL    HW119598   4.121   1.121   6.663
 6233SOL    HW219599   3.970   1.060   6.649
 6234SOL     OW19600   2.818   1.991   3.739
 6234SOL    HW119601   2.725   1.985   3.702
 6234SOL    HW219602   2.882   2.017   3.667
 6235SOL     OW19603   2.207   5.427   2.142
 6235SOL    HW119604   2.289   5.474   2.174
 6235SOL    HW219605   2.157   5.390   2.221
 6236SOL     OW19606   0.334   4.241   0.318
 6236SOL    HW119607   0.360   4.210   0.410
 6236SOL    HW219608   0.306   4.163   0.263
 6237SOL     OW19609   3.503   5.901   6.194
 6237SOL    HW119610   3.463   5.993   6.192
 6237SOL    HW219611   3.486   5.859   6.283
 6238SOL     OW19612   5.123   3.544   1.009
 6238SOL    HW119613   5.167   3.615   0.954
 6238SOL    HW219614   5.088   3.473   0.948
 6239SOL     OW19615   3.640   6.275   3.513
 6239SOL    HW119616   3.684   6.275   3.424
 6239SOL    HW219617   3.576   6.351   3.519
 6240SOL     OW19618   2.822   3.940   0.166
 6240SOL    HW119619   2.876   4.000   0.106
 6240SOL    HW219620   2.850   3.845   0.152
 6241SOL     OW19621   4.823   6.776   2.457
 6241SOL    HW119622   4.885   6.750   2.531
 6241SOL    HW219623   4.876   6.800   2.375
 6242SOL     OW19624   3.453   2.098   2.763
 6242SOL    HW119625   3.458   2.086   2.664
 6242SOL    HW219626   3.542   2.075   2.803
 6243SOL     OW19627   6.182   5.370   3.137
 6243SOL    HW119628   6.227   5.336   3.220
 6243SOL    HW219629   6.103   5.426   3.162
 6244SOL     OW19630   1.419   1.767   1.758
 6244SOL    HW119631   1.513   1.798   1.772
 6244SOL    HW219632   1.392   1.705   1.832
 6245SOL     OW19633   2.500   3.738   0.293
 6245SOL    HW119634   2.458   3.705   0.377
 6245SOL    HW219635   2.558   3.817   0.313
 6246SOL     OW19636   4.222   6.677   0.318
 6246SOL    HW119637   4.151   6.680   0.247
 6246SOL    HW219638   4.305   6.636   0.280
 6247SOL     OW19639   6.793   6.993   2.917
 6247SOL    HW119640   6.790   6.995   3.017
 6247SOL    HW219641   6.779   6.899   2.886
 6248SOL     OW19642   0.945   5.973   0.640
 6248SOL    HW119643   1.022   6.021   0.681
 6248SOL    HW219644   0.899   6.032   0.573
 6249SOL     OW19645   6.159   2.671   5.870
 6249SOL    HW119646   6.068   2.632   5.885
 6249SOL    HW219647   6.151   2.748   5.807
 6250SOL     OW19648   6.576   4.472   6.005
 6250SOL    HW119649   6.564   4.441   5.911
 6250SOL    HW219650   6.565   4.395   6.067
 6251SOL     OW19651   4.397   1.101   1.227
 6251SOL    HW119652   4.302   1.076   1.246
 6251SOL    HW219653   4.416   1.191   1.266
 6252SOL     OW19654   1.910   6.446   5.248
 6252SOL    HW119655   1.866   6.500   5.176
 6252SOL    HW219656   1.996   6.409   5.214
 6253SOL     OW19657   2.467   3.297   1.402
 6253SOL    HW119658   2.450   3.339   1.492
 6253SOL    HW219659   2.559   3.320   1.371
 6254SOL     OW19660   5.000   0.520   0.308
 6254SOL    HW119661   4.976   0.617   0.297
 6254SOL    HW219662   4.981   0.492   0.402
 6255SOL     OW19663   0.607   3.026   3.300
 6255SOL    HW119664   0.577   3.097   3.363
 6255SOL    HW219665   0.679   3.062   3.241
 6256SOL     OW19666   3.629   5.160   4.270
 6256SOL    HW119667   3.614   5.064   4.295
 6256SOL    HW219668   3.719   5.189   4.303
 6257SOL     OW19669   4.072   2.778   6.744
 6257SOL    HW119670   4.092   2.768   6.841
 6257SOL    HW219671   4.000   2.847   6.732
 6258SOL     OW19672   4.590   1.835   3.173
 6258SOL    HW119673   4.635   1.905   3.118
 6258SOL    HW219674   4.506   1.873   3.213
 6259SOL     OW19675   3.542   2.092   1.725
 6259SOL    HW119676   3.557   2.022   1.795
 6259SOL    HW219677   3.551   2.183   1.766
 6260SOL     OW19678   3.312   4.408   1.283
 6260SOL    HW119679   3.237   4.424   1.218
 6260SOL    HW219680   3.290   4.330   1.342
 6261SOL     OW19681   4.711   6.679   5.996
 6261SOL    HW119682   4.749   6.772   5.997
 6261SOL    HW219683   4.768   6.619   6.052
 6262SOL     OW19684   6.952   5.488   5.154
 6262SOL    HW119685   6.965   5.456   5.247
 6262SOL    HW219686   6.859   5.469   5.124
 6263SOL     OW19687   6.482   0.733   1.358
 6263SOL    HW119688   6.419   0.810   1.365
 6263SOL    HW219689   6.450   0.670   1.288
 6264SOL     OW19690   2.502   1.407   0.542
 6264SOL    HW119691   2.587   1.408   0.596
 6264SOL    HW219692   2.524   1.425   0.446
 6265SOL     OW19693   6.111   3.389   0.454
 6265SOL    HW119694   6.016   3.388   0.487
 6265SOL    HW219695   6.154   3.301   0.472
 6266SOL     OW19696   2.435   0.074   2.483
 6266SOL    HW119697   2.526   0.055   2.521
 6266SOL    HW219698   2.417   0.011   2.408
 6267SOL     OW19699   3.144   6.322   0.129
 6267SOL    HW119700   3.224   6.262   0.133
 6267SOL    HW219701   3.094   6.318   0.216
 6268SOL     OW19702   2.130   6.170   2.102
 6268SOL    HW119703   2.084   6.257   2.082
 6268SOL    HW219704   2.095   6.099   2.041
 6269SOL     OW19705   6.503   4.225   6.432
 6269SOL    HW119706   6.492   4.127   6.445
 6269SOL    HW219707   6.562   4.262   6.504
 6270SOL     OW19708   0.588   1.343   3.922
 6270SOL    HW119709   0.671   1.397   3.933
 6270SOL    HW219710   0.613   1.247   3.904
 6271SOL     OW19711   5.880   1.882   1.368
 6271SOL    HW119712   5.904   1.952   1.301
 6271SOL    HW219713   5.956   1.817   1.377
 6272SOL     OW19714   2.591   2.495   3.711
 6272SOL    HW119715   2.543   2.522   3.794
 6272SOL    HW219716   2.602   2.574   3.651
 6273SOL     OW19717   3.882   1.257   2.715
 6273SOL    HW119718   3.950   1.216   2.654
 6273SOL    HW219719   3.929   1.303   2.790
 6274SOL     OW19720   2.851   5.712   0.009
 6274SOL    HW119721   2.927   5.768   6.994
 6274SOL    HW219722   2.767   5.736   6.981
 6275SOL     OW19723   3.446   0.639   4.878
 6275SOL    HW119724   3.516   0.695   4.922
 6275SOL    HW219725   3.431   0.672   4.785
 6276SOL     OW19726   1.250   5.167   3.560
 6276SOL    HW119727   1.279   5.081   3.516
 6276SOL    HW219728   1.297   5.176   3.648
 6277SOL     OW19729   6.173   3.581   4.087
 6277SOL    HW119730   6.263   3.619   4.066
 6277SOL    HW219731   6.138   3.531   4.007
 6278SOL     OW19732   4.919   1.088   3.168
 6278SOL    HW119733   4.965   1.009   3.209
 6278SOL    HW219734   4.823   1.065   3.150
 6279SOL     OW19735   3.949   1.835   5.763
 6279SOL    HW119736   3.991   1.835   5.672
 6279SOL    HW219737   3.948   1.742   5.799
 6280SOL     OW19738   1.221   5.246   5.893
 6280SOL    HW119739   1.272   5.296   5.823
 6280SOL    HW219740   1.280   5.176   5.933
 6281SOL     OW19741   3.339   6.067   4.716
 6281SOL    HW119742   3.248   6.031   4.695
 6281SOL    HW219743   3.408   6.009   4.673
 6282SOL     OW19744   0.725   6.814   4.358
 6282SOL    HW119745   0.806   6.814   4.299
 6282SOL    HW219746   0.750   6.846   4.449
 6283SOL     OW19747   0.788   2.876   4.997
 6283SOL    HW119748   0.790   2.884   4.897
 6283SOL    HW219749   0.716   2.811   5.023
 6284SOL     OW19750   2.471   4.920   0.011
 6284SOL    HW119751   2.394   4.937   6.970
 6284SOL    HW219752   2.504   4.826   7.018
 6285SOL     OW19753   2.154   4.048   2.087
 6285SOL    HW119754   2.132   3.967   2.141
 6285SOL    HW219755   2.087   4.059   2.013
 6286SOL     OW19756   6.975   6.170   4.676
 6286SOL    HW119757   0.051   6.181   4.701
 6286SOL    HW219758   6.952   6.233   4.603
 6287SOL     OW19759   3.627   4.861   2.826
 6287SOL    HW119760   3.665   4.857   2.734
 6287SOL    HW219761   3.532   4.830   2.824
 6288SOL     OW19762   6.173   3.505   0.798
 6288SOL    HW119763   6.116   3.424   0.786
 6288SOL    HW219764   6.190   3.547   0.709
 6289SOL     OW19765   0.509   6.519   2.686
 6289SOL    HW119766   0.508   6.501   2.784
 6289SOL    HW219767   0.602   6.544   2.658
 6290SOL     OW19768   5.763   4.002   4.080
 6290SOL    HW119769   5.664   4.004   4.094
 6290SOL    HW219770   5.806   3.948   4.152
 6291SOL     OW19771   3.520   4.147   3.605
 6291SOL    HW119772   3.509   4.119   3.510
 6291SOL    HW219773   3.430   4.167   3.644
 6292SOL     OW19774   7.009   0.991   1.720
 6292SOL    HW119775   6.920   1.006   1.676
 6292SOL    HW219776   0.037   1.078   1.728
 6293SOL     OW19777   5.863   4.940   5.829
 6293SOL    HW119778   5.827   4.868   5.770
 6293SOL    HW219779   5.876   4.903   5.921
 6294SOL     OW19780   3.134   6.351   1.508
 6294SOL    HW119781   3.192   6.304   1.441
 6294SOL    HW219782   3.079   6.420   1.461
 6295SOL     OW19783   6.549   5.717   6.021
 6295SOL    HW119784   6.604   5.720   6.104
 6295SOL    HW219785   6.471   5.780   6.030
 6296SOL     OW19786   6.135   2.139   3.516
 6296SOL    HW119787   6.105   2.205   3.586
 6296SOL    HW219788   6.203   2.078   3.556
 6297SOL     OW19789   5.498   1.286   5.850
 6297SOL    HW119790   5.468   1.378   5.874
 6297SOL    HW219791   5.576   1.291   5.788
 6298SOL     OW19792   6.218   2.526   4.143
 6298SOL    HW119793   6.313   2.535   4.175
 6298SOL    HW219794   6.186   2.433   4.160
 6299SOL     OW19795   0.031   2.505   0.100
 6299SOL    HW119796   0.004   2.521   0.195
 6299SOL    HW219797   0.130   2.517   0.091
 6300SOL     OW19798   5.139   1.296   3.461
 6300SOL    HW119799   5.079   1.327   3.387
 6300SOL    HW219800   5.220   1.252   3.423
 6301SOL     OW19801   3.224   0.497   1.279
 6301SOL    HW119802   3.241   0.502   1.181
 6301SOL    HW219803   3.208   0.402   1.306
 6302SOL     OW19804   6.482   0.276   3.016
 6302SOL    HW119805   6.506   0.217   3.094
 6302SOL    HW219806   6.499   0.371   3.041
 6303SOL     OW19807   2.527   5.358   4.403
 6303SOL    HW119808   2.567   5.446   4.379
 6303SOL    HW219809   2.513   5.352   4.502
 6304SOL     OW19810   4.559   0.826   4.866
 6304SOL    HW119811   4.637   0.855   4.922
 6304SOL    HW219812   4.528   0.736   4.896
 6305SOL     OW19813   5.316   0.161   2.782
 6305SOL    HW119814   5.225   0.147   2.821
 6305SOL    HW219815   5.379   0.094   2.821
 6306SOL     OW19816   6.125   3.217   4.212
 6306SOL    HW119817   6.143   3.192   4.117
 6306SOL    HW219818   6.210   3.222   4.263
 6307SOL     OW19819   2.043   4.767   0.147
 6307SOL    HW119820   2.041   4.865   0.128
 6307SOL    HW219821   2.003   4.717   0.070
 6308SOL     OW19822   4.367   2.389   6.074
 6308SOL    HW119823   4.317   2.375   5.988
 6308SOL    HW219824   4.410   2.302   6.101
 6309SOL     OW19825   6.132   2.060   5.504
 6309SOL    HW119826   6.111   2.148   5.546
 6309SOL    HW219827   6.061   2.036   5.439
 6310SOL     OW19828   6.965   5.437   4.571
 6310SOL    HW119829   6.957   5.404   4.665
 6310SOL    HW219830   6.910   5.520   4.561
 6311SOL     OW19831   5.809   0.166   4.476
 6311SOL    HW119832   5.858   0.080   4.471
 6311SOL    HW219833   5.863   0.239   4.434
 6312SOL     OW19834   5.770   3.914   5.432
 6312SOL    HW119835   5.715   3.903   5.348
 6312SOL    HW219836   5.742   3.844   5.498
 6313SOL     OW19837   2.399   5.556   4.093
 6313SOL    HW119838   2.397   5.519   4.000
 6313SOL    HW219839   2.484   5.530   4.137
 6314SOL     OW19840   1.248   0.103   3.330
 6314SOL    HW119841   1.183   0.119   3.255
 6314SOL    HW219842   1.310   0.181   3.337
 6315SOL     OW19843   1.808   3.326   0.340
 6315SOL    HW119844   1.733   3.339   0.405
 6315SOL    HW219845   1.787   3.249   0.280
 6316SOL     OW19846   4.299   1.107   4.941
 6316SOL    HW119847   4.380   1.093   4.884
 6316SOL    HW219848   4.327   1.142   5.031
 6317SOL     OW19849   6.700   5.581   4.220
 6317SOL    HW119850   6.750   5.591   4.305
 6317SOL    HW219851   6.639   5.501   4.226
 6318SOL     OW19852   1.682   2.450   4.002
 6318SOL    HW119853   1.587   2.435   4.032
 6318SOL    HW219854   1.697   2.403   3.916
 6319SOL     OW19855   1.473   1.738   3.246
 6319SOL    HW119856   1.492   1.705   3.153
 6319SOL    HW219857   1.542   1.806   3.272
 6320SOL     OW19858   0.392   2.325   2.893
 6320SOL    HW119859   0.373   2.387   2.817
 6320SOL    HW219860   0.328   2.344   2.968
 6321SOL     OW19861   2.101   3.969   5.902
 6321SOL    HW119862   2.040   4.016   5.966
 6321SOL    HW219863   2.047   3.934   5.825
 6322SOL     OW19864   2.607   6.661   0.022
 6322SOL    HW119865   2.557   6.653   6.956
 6322SOL    HW219866   2.687   6.601   0.020
 6323SOL     OW19867   4.600   1.504   2.233
 6323SOL    HW119868   4.581   1.581   2.294
 6323SOL    HW219869   4.515   1.475   2.189
 6324SOL     OW19870   3.202   1.885   0.884
 6324SOL    HW119871   3.200   1.962   0.948
 6324SOL    HW219872   3.112   1.843   0.880
 6325SOL     OW19873   1.697   3.090   3.302
 6325SOL    HW119874   1.772   3.025   3.312
 6325SOL    HW219875   1.688   3.116   3.206
 6326SOL     OW19876   4.822   6.768   1.226
 6326SOL    HW119877   4.866   6.788   1.139
 6326SOL    HW219878   4.892   6.756   1.297
 6327SOL     OW19879   3.894   5.199   5.447
 6327SOL    HW119880   3.857   5.291   5.450
 6327SOL    HW219881   3.975   5.193   5.504
 6328SOL     OW19882   3.042   4.401   6.756
 6328SOL    HW119883   3.067   4.352   6.673
 6328SOL    HW219884   2.970   4.467   6.735
 6329SOL     OW19885   0.753   2.024   3.488
 6329SOL    HW119886   0.786   2.041   3.581
 6329SOL    HW219887   0.695   2.100   3.460
 6330SOL     OW19888   3.120   0.527   6.973
 6330SOL    HW119889   3.123   0.453   6.906
 6330SOL    HW219890   3.201   0.585   6.962
 6331SOL     OW19891   5.323   3.046   1.381
 6331SOL    HW119892   5.315   3.143   1.407
 6331SOL    HW219893   5.380   3.039   1.299
 6332SOL     OW19894   4.590   6.068   2.138
 6332SOL    HW119895   4.543   6.154   2.121
 6332SOL    HW219896   4.538   6.014   2.205
 6333SOL     OW19897   2.408   5.273   2.538
 6333SOL    HW119898   2.490   5.330   2.538
 6333SOL    HW219899   2.329   5.328   2.566
 6334SOL     OW19900   2.220   1.002   2.149
 6334SOL    HW119901   2.171   1.087   2.164
 6334SOL    HW219902   2.284   1.013   2.073
 6335SOL     OW19903   6.523   1.035   6.939
 6335SOL    HW119904   6.489   0.967   7.004
 6335SOL    HW219905   6.539   0.991   6.850
 6336SOL     OW19906   1.789   2.794   5.313
 6336SOL    HW119907   1.876   2.797   5.361
 6336SOL    HW219908   1.722   2.851   5.361
 6337SOL     OW19909   0.628   4.616   5.011
 6337SOL    HW119910   0.723   4.629   4.985
 6337SOL    HW219911   0.613   4.647   5.104
 6338SOL     OW19912   3.511   1.176   4.438
 6338SOL    HW119913   3.587   1.234   4.408
 6338SOL    HW219914   3.545   1.087   4.466
 6339SOL     OW19915   6.669   2.562   3.984
 6339SOL    HW119916   6.702   2.628   3.917
 6339SOL    HW219917   6.738   2.549   4.055
 6340SOL     OW19918   3.314   5.547   3.229
 6340SOL    HW119919   3.314   5.455   3.266
 6340SOL    HW219920   3.293   5.613   3.301
 6341SOL     OW19921   6.189   5.304   1.953
 6341SOL    HW119922   6.157   5.340   2.040
 6341SOL    HW219923   6.279   5.344   1.931
 6342SOL     OW19924   1.157   3.738   0.396
 6342SOL    HW119925   1.082   3.672   0.409
 6342SOL    HW219926   1.221   3.702   0.329
 6343SOL     OW19927   3.979   1.451   0.278
 6343SOL    HW119928   3.964   1.429   0.182
 6343SOL    HW219929   3.986   1.366   0.331
 6344SOL     OW19930   6.157   4.721   4.688
 6344SOL    HW119931   6.200   4.794   4.741
 6344SOL    HW219932   6.086   4.677   4.742
 6345SOL     OW19933   1.990   1.839   1.059
 6345SOL    HW119934   2.075   1.817   1.108
 6345SOL    HW219935   1.994   1.932   1.025
 6346SOL     OW19936   0.868   5.129   3.845
 6346SOL    HW119937   0.874   5.169   3.753
 6346SOL    HW219938   0.835   5.198   3.909
 6347SOL     OW19939   2.860   0.771   0.884
 6347SOL    HW119940   2.896   0.715   0.959
 6347SOL    HW219941   2.801   0.716   0.827
 6348SOL     OW19942   0.059   2.398   4.334
 6348SOL    HW119943   0.010   2.352   4.260
 6348SOL    HW219944   0.131   2.456   4.296
 6349SOL     OW19945   0.997   0.928   0.312
 6349SOL    HW119946   1.061   0.895   0.381
 6349SOL    HW219947   1.002   0.869   0.231
 6350SOL     OW19948   6.823   5.664   3.240
 6350SOL    HW119949   6.729   5.660   3.206
 6350SOL    HW219950   6.853   5.572   3.266
 6351SOL     OW19951   0.212   2.151   3.206
 6351SOL    HW119952   0.165   2.063   3.204
 6351SOL    HW219953   0.311   2.137   3.211
 6352SOL     OW19954   6.401   4.307   2.788
 6352SOL    HW119955   6.356   4.295   2.700
 6352SOL    HW219956   6.486   4.253   2.790
 6353SOL     OW19957   6.904   6.974   2.108
 6353SOL    HW119958   6.934   0.034   2.056
 6353SOL    HW219959   6.878   7.002   2.200
 6354SOL     OW19960   6.501   0.030   4.751
 6354SOL    HW119961   6.408   0.023   4.786
 6354SOL    HW219962   6.546   0.110   4.792
 6355SOL     OW19963   1.314   1.882   1.380
 6355SOL    HW119964   1.298   1.795   1.425
 6355SOL    HW219965   1.309   1.870   1.281
 6356SOL     OW19966   3.452   3.577   1.419
 6356SOL    HW119967   3.390   3.549   1.493
 6356SOL    HW219968   3.494   3.496   1.378
 6357SOL     OW19969   4.959   1.618   1.185
 6357SOL    HW119970   5.010   1.576   1.111
 6357SOL    HW219971   4.922   1.547   1.245
 6358SOL     OW19972   0.952   2.757   5.314
 6358SOL    HW119973   0.949   2.728   5.410
 6358SOL    HW219974   1.009   2.693   5.262
 6359SOL     OW19975   6.841   0.706   6.473
 6359SOL    HW119976   6.791   0.753   6.400
 6359SOL    HW219977   6.929   0.750   6.488
 6360SOL     OW19978   2.228   5.179   4.159
 6360SOL    HW119979   2.230   5.103   4.224
 6360SOL    HW219980   2.319   5.220   4.154
 6361SOL     OW19981   3.262   6.454   5.189
 6361SOL    HW119982   3.324   6.450   5.267
 6361SOL    HW219983   3.170   6.427   5.217
 6362SOL     OW19984   6.880   5.085   5.687
 6362SOL    HW119985   6.979   5.071   5.683
 6362SOL    HW219986   6.837   5.004   5.727
 6363SOL     OW19987   0.950   5.575   3.582
 6363SOL    HW119988   0.930   5.666   3.546
 6363SOL    HW219989   0.940   5.576   3.682
 6364SOL     OW19990   2.758   1.496   6.464
 6364SOL    HW119991   2.853   1.467   6.449
 6364SOL    HW219992   2.757   1.588   6.503
 6365SOL     OW19993   3.772   5.744   2.485
 6365SOL    HW119994   3.834   5.735   2.564
 6365SOL    HW219995   3.764   5.656   2.439
 6366SOL     OW19996   0.653   4.396   5.257
 6366SOL    HW119997   0.666   4.436   5.347
 6366SOL    HW219998   0.555   4.386   5.238
 6367SOL     OW19999   5.596   5.502   2.042
 6367SOL    HW120000   5.524   5.531   2.106
 6367SOL    HW220001   5.596   5.563   1.962
 6368SOL     OW20002   2.941   1.615   2.335
 6368SOL    HW120003   2.969   1.607   2.239
 6368SOL    HW220004   2.858   1.671   2.341
 6369SOL     OW20005   2.287   6.052   5.312
 6369SOL    HW120006   2.190   6.074   5.296
 6369SOL    HW220007   2.326   6.010   5.230
 6370SOL     OW20008   5.570   2.725   2.474
 6370SOL    HW120009   5.512   2.771   2.540
 6370SOL    HW220010   5.524   2.723   2.385
 6371SOL     OW20011   4.264   1.302   3.300
 6371SOL    HW120012   4.362   1.285   3.304
 6371SOL    HW220013   4.222   1.278   3.388
 6372SOL     OW20014   2.790   0.236   2.808
 6372SOL    HW120015   2.849   0.316   2.819
 6372SOL    HW220016   2.828   0.159   2.860
 6373SOL     OW20017   3.660   4.455   0.176
 6373SOL    HW120018   3.759   4.455   0.189
 6373SOL    HW220019   3.631   4.369   0.136
 6374SOL     OW20020   3.039   3.084   4.389
 6374SOL    HW120021   2.964   3.131   4.343
 6374SOL    HW220022   3.125   3.129   4.367
 6375SOL     OW20023   2.061   5.888   1.954
 6375SOL    HW120024   2.079   5.951   1.878
 6375SOL    HW220025   2.121   5.809   1.947
 6376SOL     OW20026   1.456   1.424   5.305
 6376SOL    HW120027   1.371   1.472   5.321
 6376SOL    HW220028   1.527   1.489   5.279
 6377SOL     OW20029   0.883   2.392   3.699
 6377SOL    HW120030   0.850   2.365   3.609
 6377SOL    HW220031   0.861   2.488   3.716
 6378SOL     OW20032   3.730   4.928   3.818
 6378SOL    HW120033   3.792   4.898   3.745
 6378SOL    HW220034   3.769   4.905   3.907
 6379SOL     OW20035   2.145   4.672   2.164
 6379SOL    HW120036   2.188   4.714   2.084
 6379SOL    HW220037   2.201   4.597   2.197
 6380SOL     OW20038   1.436   0.950   6.128
 6380SOL    HW120039   1.471   1.013   6.197
 6380SOL    HW220040   1.446   0.856   6.160
 6381SOL     OW20041   3.541   3.589   2.678
 6381SOL    HW120042   3.508   3.562   2.769
 6381SOL    HW220043   3.595   3.673   2.686
 6382SOL     OW20044   1.717   4.821   4.808
 6382SOL    HW120045   1.808   4.828   4.767
 6382SOL    HW220046   1.674   4.735   4.779
 6383SOL     OW20047   4.030   1.558   3.836
 6383SOL    HW120048   3.980   1.639   3.868
 6383SOL    HW220049   4.074   1.578   3.749
 6384SOL     OW20050   7.012   4.139   1.799
 6384SOL    HW120051   6.978   4.076   1.869
 6384SOL    HW220052   0.023   4.088   1.719
 6385SOL     OW20053   1.138   5.864   5.200
 6385SOL    HW120054   1.186   5.786   5.240
 6385SOL    HW220055   1.051   5.877   5.248
 6386SOL     OW20056   1.864   5.365   2.754
 6386SOL    HW120057   1.768   5.338   2.758
 6386SOL    HW220058   1.878   5.428   2.678
 6387SOL     OW20059   5.947   0.905   4.966
 6387SOL    HW120060   5.985   0.898   4.874
 6387SOL    HW220061   5.957   0.999   4.999
 6388SOL     OW20062   2.059   4.839   2.684
 6388SOL    HW120063   2.147   4.857   2.729
 6388SOL    HW220064   1.984   4.861   2.747
 6389SOL     OW20065   1.508   3.972   1.029
 6389SOL    HW120066   1.463   3.911   0.964
 6389SOL    HW220067   1.458   3.971   1.116
 6390SOL     OW20068   0.475   3.304   4.815
 6390SOL    HW120069   0.567   3.273   4.789
 6390SOL    HW220070   0.457   3.393   4.773
 6391SOL     OW20071   3.588   0.746   0.576
 6391SOL    HW120072   3.511   0.685   0.555
 6391SOL    HW220073   3.646   0.704   0.646
 6392SOL     OW20074   1.323   5.712   4.278
 6392SOL    HW120075   1.421   5.701   4.294
 6392SOL    HW220076   1.292   5.798   4.320
 6393SOL     OW20077   4.741   1.257   6.742
 6393SOL    HW120078   4.688   1.241   6.659
 6393SOL    HW220079   4.723   1.349   6.776
 6394SOL     OW20080   4.041   5.912   2.050
 6394SOL    HW120081   3.979   5.890   1.975
 6394SOL    HW220082   3.989   5.929   2.133
 6395SOL     OW20083   5.455   2.101   0.200
 6395SOL    HW120084   5.490   2.186   0.239
 6395SOL    HW220085   5.499   2.023   0.244
 6396SOL     OW20086   6.332   2.523   6.526
 6396SOL    HW120087   6.413   2.466   6.534
 6396SOL    HW220088   6.261   2.489   6.588
 6397SOL     OW20089   6.485   0.420   0.557
 6397SOL    HW120090   6.546   0.453   0.485
 6397SOL    HW220091   6.520   0.333   0.593
 6398SOL     OW20092   4.235   1.013   1.576
 6398SOL    HW120093   4.285   0.927   1.575
 6398SOL    HW220094   4.297   1.087   1.605
 6399SOL     OW20095   0.845   6.195   6.110
 6399SOL    HW120096   0.898   6.137   6.048
 6399SOL    HW220097   0.747   6.176   6.098
 6400SOL     OW20098   3.225   4.908   4.769
 6400SOL    HW120099   3.240   4.937   4.864
 6400SOL    HW220100   3.151   4.841   4.766
 6401SOL     OW20101   0.157   4.963   5.694
 6401SOL    HW120102   0.134   4.866   5.689
 6401SOL    HW220103   0.253   4.976   5.670
 6402SOL     OW20104   2.101   3.470   3.040
 6402SOL    HW120105   2.154   3.397   2.996
 6402SOL    HW220106   2.044   3.432   3.112
 6403SOL     OW20107   6.916   6.285   1.996
 6403SOL    HW120108   6.926   6.343   1.916
 6403SOL    HW220109   6.986   6.309   2.064
 6404SOL     OW20110   5.021   0.778   2.496
 6404SOL    HW120111   4.983   0.832   2.572
 6404SOL    HW220112   5.075   0.838   2.437
 6405SOL     OW20113   3.761   0.270   1.663
 6405SOL    HW120114   3.744   0.219   1.748
 6405SOL    HW220115   3.809   0.355   1.685
 6406SOL     OW20116   2.338   2.009   3.433
 6406SOL    HW120117   2.393   1.928   3.411
 6406SOL    HW220118   2.359   2.083   3.369
 6407SOL     OW20119   5.050   6.132   6.909
 6407SOL    HW120120   5.090   6.203   6.850
 6407SOL    HW220121   5.103   6.126   6.993
 6408SOL     OW20122   6.039   2.461   1.168
 6408SOL    HW120123   6.085   2.430   1.085
 6408SOL    HW220124   6.108   2.490   1.235
 6409SOL     OW20125   0.847   5.052   1.623
 6409SOL    HW120126   0.787   5.132   1.618
 6409SOL    HW220127   0.857   5.023   1.718
 6410SOL     OW20128   0.286   0.020   1.383
 6410SOL    HW120129   0.335   0.108   1.387
 6410SOL    HW220130   0.325   6.985   1.309
 6411SOL     OW20131   1.793   1.606   3.116
 6411SOL    HW120132   1.841   1.687   3.083
 6411SOL    HW220133   1.816   1.590   3.212
 6412SOL     OW20134   5.903   2.181   4.902
 6412SOL    HW120135   5.949   2.258   4.947
 6412SOL    HW220136   5.808   2.205   4.884
 6413SOL     OW20137   0.346   5.151   0.790
 6413SOL    HW120138   0.407   5.217   0.746
 6413SOL    HW220139   0.331   5.178   0.886
 6414SOL     OW20140   6.003   0.577   3.572
 6414SOL    HW120141   6.073   0.611   3.634
 6414SOL    HW220142   6.014   0.619   3.482
 6415SOL     OW20143   1.266   1.599   1.938
 6415SOL    HW120144   1.276   1.558   2.028
 6415SOL    HW220145   1.189   1.559   1.890
 6416SOL     OW20146   2.752   6.304   6.436
 6416SOL    HW120147   2.700   6.219   6.431
 6416SOL    HW220148   2.836   6.294   6.382
 6417SOL     OW20149   6.949   5.907   4.464
 6417SOL    HW120150   6.993   5.940   4.380
 6417SOL    HW220151   6.972   5.969   4.540
 6418SOL     OW20152   6.889   5.121   2.310
 6418SOL    HW120153   6.809   5.160   2.265
 6418SOL    HW220154   6.967   5.123   2.247
 6419SOL     OW20155   2.612   2.582   0.436
 6419SOL    HW120156   2.576   2.497   0.474
 6419SOL    HW220157   2.595   2.585   0.338
 6420SOL     OW20158   0.612   2.133   0.032
 6420SOL    HW120159   0.537   2.067   0.032
 6420SOL    HW220160   0.696   2.088   0.063
 6421SOL     OW20161   5.511   1.587   0.276
 6421SOL    HW120162   5.458   1.544   0.349
 6421SOL    HW220163   5.555   1.517   0.220
 6422SOL     OW20164   5.544   2.515   3.096
 6422SOL    HW120165   5.447   2.533   3.108
 6422SOL    HW220166   5.558   2.451   3.020
 6423SOL     OW20167   5.405   3.967   0.680
 6423SOL    HW120168   5.392   3.907   0.602
 6423SOL    HW220169   5.337   4.039   0.679
 6424SOL     OW20170   5.907   3.614   5.136
 6424SOL    HW120171   5.917   3.712   5.117
 6424SOL    HW220172   5.985   3.565   5.096
 6425SOL     OW20173   0.769   5.797   0.808
 6425SOL    HW120174   0.807   5.835   0.723
 6425SOL    HW220175   0.792   5.700   0.815
 6426SOL     OW20176   6.615   3.494   3.444
 6426SOL    HW120177   6.576   3.572   3.493
 6426SOL    HW220178   6.709   3.480   3.473
 6427SOL     OW20179   0.882   3.753   6.018
 6427SOL    HW120180   0.786   3.733   5.998
 6427SOL    HW220181   0.913   3.828   5.960
 6428SOL     OW20182   6.021   3.961   5.111
 6428SOL    HW120183   6.113   3.975   5.073
 6428SOL    HW220184   5.954   4.006   5.052
 6429SOL     OW20185   1.196   1.057   5.410
 6429SOL    HW120186   1.264   1.063   5.337
 6429SOL    HW220187   1.242   1.043   5.498
 6430SOL     OW20188   6.354   3.252   7.005
 6430SOL    HW120189   6.328   3.182   0.051
 6430SOL    HW220190   6.273   3.302   6.975
 6431SOL     OW20191   5.727   1.372   2.265
 6431SOL    HW120192   5.822   1.382   2.234
 6431SOL    HW220193   5.714   1.281   2.303
 6432SOL     OW20194   6.044   3.930   0.396
 6432SOL    HW120195   6.094   3.998   0.449
 6432SOL    HW220196   6.038   3.961   0.301
 6433SOL     OW20197   2.136   3.332   1.625
 6433SOL    HW120198   2.104   3.412   1.573
 6433SOL    HW220199   2.182   3.269   1.563
 6434SOL     OW20200   1.651   6.051   0.976
 6434SOL    HW120201   1.566   6.103   0.969
 6434SOL    HW220202   1.727   6.105   0.939
 6435SOL     OW20203   5.580   3.465   1.073
 6435SOL    HW120204   5.626   3.460   0.984
 6435SOL    HW220205   5.647   3.443   1.145
 6436SOL     OW20206   2.598   2.403   1.059
 6436SOL    HW120207   2.632   2.370   0.971
 6436SOL    HW220208   2.669   2.395   1.128
 6437SOL     OW20209   0.199   1.288   1.574
 6437SOL    HW120210   0.202   1.340   1.489
 6437SOL    HW220211   0.159   1.344   1.647
 6438SOL     OW20212   0.712   3.166   4.780
 6438SOL    HW120213   0.787   3.209   4.831
 6438SOL    HW220214   0.736   3.071   4.759
 6439SOL     OW20215   0.210   6.107   2.750
 6439SOL    HW120216   0.257   6.114   2.661
 6439SOL    HW220217   0.203   6.198   2.791
 6440SOL     OW20218   0.501   0.489   2.131
 6440SOL    HW120219   0.533   0.526   2.218
 6440SOL    HW220220   0.556   0.410   2.106
 6441SOL     OW20221   4.997   1.858   3.192
 6441SOL    HW120222   4.958   1.830   3.280
 6441SOL    HW220223   5.095   1.837   3.191
 6442SOL     OW20224   1.561   1.905   3.578
 6442SOL    HW120225   1.504   1.889   3.659
 6442SOL    HW220226   1.508   1.889   3.495
 6443SOL     OW20227   2.003   0.831   1.248
 6443SOL    HW120228   2.076   0.764   1.263
 6443SOL    HW220229   2.001   0.856   1.151
 6444SOL     OW20230   0.839   1.146   2.537
 6444SOL    HW120231   0.882   1.220   2.588
 6444SOL    HW220232   0.759   1.113   2.587
 6445SOL     OW20233   3.326   4.635   6.127
 6445SOL    HW120234   3.332   4.683   6.039
 6445SOL    HW220235   3.374   4.687   6.197
 6446SOL     OW20236   0.159   1.039   1.278
 6446SOL    HW120237   0.183   1.132   1.250
 6446SOL    HW220238   0.101   0.997   1.209
 6447SOL     OW20239   1.986   1.030   3.499
 6447SOL    HW120240   1.941   1.005   3.413
 6447SOL    HW220241   1.955   1.121   3.528
 6448SOL     OW20242   6.383   3.025   2.584
 6448SOL    HW120243   6.383   3.123   2.601
 6448SOL    HW220244   6.473   2.997   2.552
 6449SOL     OW20245   4.242   2.222   0.652
 6449SOL    HW120246   4.181   2.285   0.604
 6449SOL    HW220247   4.220   2.220   0.749
 6450SOL     OW20248   6.355   2.576   0.205
 6450SOL    HW120249   6.301   2.658   0.185
 6450SOL    HW220250   6.453   2.599   0.200
 6451SOL     OW20251   3.163   6.400   4.338
 6451SOL    HW120252   3.219   6.328   4.378
 6451SOL    HW220253   3.100   6.361   4.271
 6452SOL     OW20254   3.880   5.825   4.179
 6452SOL    HW120255   3.783   5.818   4.200
 6452SOL    HW220256   3.892   5.863   4.087
 6453SOL     OW20257   2.440   5.124   6.637
 6453SOL    HW120258   2.499   5.180   6.695
 6453SOL    HW220259   2.364   5.179   6.605
 6454SOL     OW20260   3.815   0.912   4.867
 6454SOL    HW120261   3.851   1.004   4.876
 6454SOL    HW220262   3.889   0.845   4.876
 6455SOL     OW20263   6.457   3.476   0.177
 6455SOL    HW120264   6.455   3.413   0.100
 6455SOL    HW220265   6.509   3.558   0.152
 6456SOL     OW20266   6.354   1.788   4.270
 6456SOL    HW120267   6.365   1.702   4.221
 6456SOL    HW220268   6.297   1.850   4.216
 6457SOL     OW20269   5.436   3.252   2.173
 6457SOL    HW120270   5.410   3.176   2.113
 6457SOL    HW220271   5.534   3.248   2.191
 6458SOL     OW20272   1.390   5.566   3.878
 6458SOL    HW120273   1.313   5.549   3.940
 6458SOL    HW220274   1.410   5.483   3.827
 6459SOL     OW20275   5.804   4.262   0.200
 6459SOL    HW120276   5.822   4.333   0.269
 6459SOL    HW220277   5.878   4.195   0.200
 6460SOL     OW20278   3.778   4.872   1.574
 6460SOL    HW120279   3.744   4.913   1.489
 6460SOL    HW220280   3.877   4.856   1.566
 6461SOL     OW20281   2.932   5.589   4.448
 6461SOL    HW120282   2.894   5.653   4.381
 6461SOL    HW220283   2.901   5.614   4.540
 6462SOL     OW20284   1.877   3.862   2.572
 6462SOL    HW120285   1.788   3.831   2.606
 6462SOL    HW220286   1.924   3.787   2.527
 6463SOL     OW20287   1.992   3.085   6.134
 6463SOL    HW120288   1.980   3.154   6.205
 6463SOL    HW220289   1.940   3.111   6.053
 6464SOL     OW20290   0.924   5.112   1.930
 6464SOL    HW120291   0.939   5.157   2.018
 6464SOL    HW220292   0.840   5.145   1.889
 6465SOL     OW20293   6.655   0.575   3.121
 6465SOL    HW120294   6.647   0.590   3.022
 6465SOL    HW220295   6.752   0.566   3.145
 6466SOL     OW20296   6.285   2.958   4.359
 6466SOL    HW120297   6.369   3.008   4.337
 6466SOL    HW220298   6.232   3.010   4.426
 6467SOL     OW20299   3.905   6.903   6.206
 6467SOL    HW120300   3.885   6.816   6.159
 6467SOL    HW220301   3.820   6.952   6.223
 6468SOL     OW20302   6.498   4.898   2.019
 6468SOL    HW120303   6.490   4.849   1.932
 6468SOL    HW220304   6.522   4.833   2.091
 6469SOL     OW20305   5.960   1.973   5.934
 6469SOL    HW120306   5.980   1.875   5.936
 6469SOL    HW220307   5.907   1.998   6.015
 6470SOL     OW20308   6.688   6.268   4.682
 6470SOL    HW120309   6.761   6.306   4.626
 6470SOL    HW220310   6.673   6.172   4.657
 6471SOL     OW20311   6.654   6.874   4.872
 6471SOL    HW120312   6.589   6.930   4.820
 6471SOL    HW220313   6.660   6.908   4.965
 6472SOL     OW20314   1.447   6.763   1.774
 6472SOL    HW120315   1.531   6.811   1.747
 6472SOL    HW220316   1.435   6.683   1.717
 6473SOL     OW20317   2.172   1.342   5.705
 6473SOL    HW120318   2.243   1.344   5.776
 6473SOL    HW220319   2.085   1.314   5.746
 6474SOL     OW20320   2.048   3.077   6.674
 6474SOL    HW120321   2.113   3.033   6.735
 6474SOL    HW220322   1.956   3.042   6.691
 6475SOL     OW20323   4.091   5.243   3.749
 6475SOL    HW120324   3.994   5.249   3.724
 6475SOL    HW220325   4.101   5.186   3.831
 6476SOL     OW20326   4.926   5.681   2.973
 6476SOL    HW120327   4.915   5.678   2.874
 6476SOL    HW220328   4.950   5.775   3.001
 6477SOL     OW20329   6.791   6.323   0.026
 6477SOL    HW120330   6.810   6.411   0.070
 6477SOL    HW220331   6.711   6.281   0.069
 6478SOL     OW20332   4.062   6.162   1.267
 6478SOL    HW120333   4.087   6.094   1.198
 6478SOL    HW220334   4.137   6.226   1.279
 6479SOL     OW20335   3.086   5.550   2.735
 6479SOL    HW120336   2.996   5.592   2.719
 6479SOL    HW220337   3.117   5.506   2.651
 6480SOL     OW20338   2.330   0.658   0.427
 6480SOL    HW120339   2.256   0.594   0.409
 6480SOL    HW220340   2.350   0.710   0.343
 6481SOL     OW20341   4.687   0.487   1.222
 6481SOL    HW120342   4.598   0.464   1.183
 6481SOL    HW220343   4.760   0.450   1.163
 6482SOL     OW20344   0.201   0.473   5.443
 6482SOL    HW120345   0.298   0.484   5.419
 6482SOL    HW220346   0.193   0.413   5.523
 6483SOL     OW20347   1.472   5.146   1.653
 6483SOL    HW120348   1.445   5.071   1.592
 6483SOL    HW220349   1.439   5.127   1.745
 6484SOL     OW20350   4.817   0.147   2.978
 6484SOL    HW120351   4.914   0.156   3.001
 6484SOL    HW220352   4.803   0.168   2.882
 6485SOL     OW20353   0.255   2.818   1.973
 6485SOL    HW120354   0.328   2.807   1.905
 6485SOL    HW220355   0.191   2.887   1.942
 6486SOL     OW20356   1.291   3.144   3.405
 6486SOL    HW120357   1.273   3.058   3.357
 6486SOL    HW220358   1.246   3.143   3.494
 6487SOL     OW20359   5.956   5.704   3.203
 6487SOL    HW120360   5.868   5.671   3.234
 6487SOL    HW220361   6.029   5.661   3.255
 6488SOL     OW20362   3.335   5.177   4.221
 6488SOL    HW120363   3.318   5.081   4.244
 6488SOL    HW220364   3.433   5.193   4.218
 6489SOL     OW20365   2.908   1.026   6.442
 6489SOL    HW120366   2.995   1.076   6.430
 6489SOL    HW220367   2.921   0.954   6.510
 6490SOL     OW20368   4.606   0.889   0.295
 6490SOL    HW120369   4.595   0.792   0.320
 6490SOL    HW220370   4.702   0.906   0.271
 6491SOL     OW20371   5.492   1.046   6.007
 6491SOL    HW120372   5.517   1.142   5.991
 6491SOL    HW220373   5.392   1.038   6.009
 6492SOL     OW20374   5.956   5.670   5.806
 6492SOL    HW120375   6.042   5.641   5.762
 6492SOL    HW220376   5.949   5.628   5.896
 6493SOL     OW20377   6.968   0.167   5.231
 6493SOL    HW120378   0.005   0.195   5.154
 6493SOL    HW220379   6.953   0.069   5.228
 6494SOL     OW20380   0.397   2.473   3.469
 6494SOL    HW120381   0.445   2.503   3.386
 6494SOL    HW220382   0.299   2.467   3.450
 6495SOL     OW20383   5.645   4.538   1.698
 6495SOL    HW120384   5.614   4.465   1.759
 6495SOL    HW220385   5.584   4.543   1.619
 6496SOL     OW20386   0.374   6.489   3.516
 6496SOL    HW120387   0.308   6.414   3.518
 6496SOL    HW220388   0.399   6.508   3.422
 6497SOL     OW20389   0.866   6.792   1.375
 6497SOL    HW120390   0.889   6.888   1.356
 6497SOL    HW220391   0.913   6.733   1.308
 6498SOL     OW20392   1.343   3.377   4.519
 6498SOL    HW120393   1.382   3.285   4.523
 6498SOL    HW220394   1.416   3.444   4.505
 6499SOL     OW20395   6.467   1.372   2.965
 6499SOL    HW120396   6.412   1.308   3.018
 6499SOL    HW220397   6.422   1.391   2.878
 6500SOL     OW20398   5.765   4.955   1.866
 6500SOL    HW120399   5.715   4.942   1.952
 6500SOL    HW220400   5.856   4.913   1.875
 6501SOL     OW20401   6.604   4.425   1.084
 6501SOL    HW120402   6.582   4.521   1.106
 6501SOL    HW220403   6.557   4.400   0.999
 6502SOL     OW20404   0.669   5.666   1.510
 6502SOL    HW120405   0.635   5.741   1.567
 6502SOL    HW220406   0.719   5.601   1.566
 6503SOL     OW20407   4.042   0.513   3.822
 6503SOL    HW120408   4.128   0.541   3.779
 6503SOL    HW220409   3.975   0.587   3.813
 6504SOL     OW20410   2.301   2.497   0.193
 6504SOL    HW120411   2.302   2.400   0.171
 6504SOL    HW220412   2.211   2.535   0.170
 6505SOL     OW20413   5.511   5.108   0.625
 6505SOL    HW120414   5.498   5.198   0.667
 6505SOL    HW220415   5.608   5.084   0.627
 6506SOL     OW20416   2.161   1.279   1.693
 6506SOL    HW120417   2.133   1.323   1.778
 6506SOL    HW220418   2.126   1.331   1.615
 6507SOL     OW20419   3.092   1.021   1.577
 6507SOL    HW120420   3.080   1.050   1.671
 6507SOL    HW220421   3.038   0.938   1.560
 6508SOL     OW20422   1.331   2.828   1.630
 6508SOL    HW120423   1.425   2.861   1.639
 6508SOL    HW220424   1.295   2.805   1.721
 6509SOL     OW20425   1.429   2.841   3.851
 6509SOL    HW120426   1.480   2.897   3.916
 6509SOL    HW220427   1.487   2.768   3.816
 6510SOL     OW20428   6.072   4.387   6.184
 6510SOL    HW120429   6.030   4.409   6.272
 6510SOL    HW220430   6.134   4.460   6.157
 6511SOL     OW20431   6.691   0.010   5.912
 6511SOL    HW120432   6.727   6.944   5.948
 6511SOL    HW220433   6.605   7.013   5.864
 6512SOL     OW20434   5.302   6.558   4.183
 6512SOL    HW120435   5.245   6.506   4.119
 6512SOL    HW220436   5.245   6.591   4.259
 6513SOL     OW20437   1.590   6.702   3.488
 6513SOL    HW120438   1.650   6.779   3.468
 6513SOL    HW220439   1.642   6.617   3.483
 6514SOL     OW20440   2.857   0.517   3.783
 6514SOL    HW120441   2.916   0.495   3.860
 6514SOL    HW220442   2.911   0.562   3.712
 6515SOL     OW20443   1.482   0.601   3.333
 6515SOL    HW120444   1.527   0.619   3.246
 6515SOL    HW220445   1.539   0.538   3.387
 6516SOL     OW20446   1.771   1.308   5.592
 6516SOL    HW120447   1.831   1.360   5.530
 6516SOL    HW220448   1.795   1.211   5.588
 6517SOL     OW20449   2.855   2.041   0.864
 6517SOL    HW120450   2.897   2.052   0.954
 6517SOL    HW220451   2.877   2.121   0.807
 6518SOL     OW20452   5.610   6.423   1.055
 6518SOL    HW120453   5.630   6.413   1.152
 6518SOL    HW220454   5.542   6.355   1.027
 6519SOL     OW20455   0.832   2.066   3.765
 6519SOL    HW120456   0.785   2.137   3.816
 6519SOL    HW220457   0.918   2.043   3.810
 6520SOL     OW20458   5.741   5.324   0.909
 6520SOL    HW120459   5.666   5.331   0.974
 6520SOL    HW220460   5.707   5.340   0.816
 6521SOL     OW20461   1.174   2.196   5.623
 6521SOL    HW120462   1.154   2.212   5.720
 6521SOL    HW220463   1.113   2.254   5.568
 6522SOL     OW20464   2.751   4.709   4.193
 6522SOL    HW120465   2.707   4.650   4.125
 6522SOL    HW220466   2.701   4.703   4.279
 6523SOL     OW20467   2.395   2.362   0.765
 6523SOL    HW120468   2.488   2.345   0.798
 6523SOL    HW220469   2.396   2.367   0.665
 6524SOL     OW20470   3.907   2.518   5.596
 6524SOL    HW120471   3.893   2.426   5.634
 6524SOL    HW220472   3.818   2.561   5.581
 6525SOL     OW20473   0.659   2.506   4.389
 6525SOL    HW120474   0.709   2.422   4.369
 6525SOL    HW220475   0.608   2.495   4.475
 6526SOL     OW20476   1.652   5.982   3.404
 6526SOL    HW120477   1.597   5.901   3.425
 6526SOL    HW220478   1.730   5.955   3.347
 6527SOL     OW20479   1.969   1.117   4.629
 6527SOL    HW120480   1.962   1.204   4.580
 6527SOL    HW220481   1.879   1.087   4.659
 6528SOL     OW20482   0.113   0.628   3.120
 6528SOL    HW120483   0.208   0.630   3.087
 6528SOL    HW220484   0.075   0.720   3.119
 6529SOL     OW20485   6.531   3.249   2.745
 6529SOL    HW120486   6.505   3.318   2.677
 6529SOL    HW220487   6.462   3.245   2.817
 6530SOL     OW20488   0.217   1.523   6.961
 6530SOL    HW120489   0.304   1.557   6.926
 6530SOL    HW220490   0.234   1.467   0.022
 6531SOL     OW20491   5.230   2.235   5.725
 6531SOL    HW120492   5.141   2.196   5.750
 6531SOL    HW220493   5.293   2.228   5.802
 6532SOL     OW20494   1.560   1.646   6.898
 6532SOL    HW120495   1.635   1.644   6.833
 6532SOL    HW220496   1.474   1.663   6.849
 6533SOL     OW20497   4.916   0.446   0.587
 6533SOL    HW120498   5.008   0.434   0.623
 6533SOL    HW220499   4.869   0.518   0.638
 6534SOL     OW20500   3.654   2.591   6.877
 6534SOL    HW120501   3.744   2.589   6.921
 6534SOL    HW220502   3.615   2.682   6.886
 6535SOL     OW20503   2.110   3.280   5.179
 6535SOL    HW120504   2.130   3.371   5.215
 6535SOL    HW220505   2.019   3.252   5.209
 6536SOL     OW20506   0.414   1.519   0.316
 6536SOL    HW120507   0.389   1.428   0.351
 6536SOL    HW220508   0.352   1.587   0.354
 6537SOL     OW20509   0.489   0.754   6.454
 6537SOL    HW120510   0.419   0.740   6.384
 6537SOL    HW220511   0.445   0.784   6.539
 6538SOL     OW20512   3.145   2.726   5.874
 6538SOL    HW120513   3.200   2.691   5.950
 6538SOL    HW220514   3.048   2.708   5.892
 6539SOL     OW20515   3.331   1.314   7.001
 6539SOL    HW120516   3.256   1.249   7.015
 6539SOL    HW220517   3.394   1.310   0.059
 6540SOL     OW20518   4.051   2.218   2.928
 6540SOL    HW120519   4.081   2.276   2.852
 6540SOL    HW220520   4.061   2.268   3.014
 6541SOL     OW20521   2.877   2.223   5.081
 6541SOL    HW120522   2.968   2.258   5.058
 6541SOL    HW220523   2.884   2.128   5.109
 6542SOL     OW20524   4.562   4.419   2.911
 6542SOL    HW120525   4.598   4.372   2.991
 6542SOL    HW220526   4.463   4.430   2.919
 6543SOL     OW20527   1.235   6.257   6.043
 6543SOL    HW120528   1.252   6.282   6.138
 6543SOL    HW220529   1.318   6.270   5.989
 6544SOL     OW20530   0.598   5.523   2.804
 6544SOL    HW120531   0.643   5.545   2.889
 6544SOL    HW220532   0.528   5.591   2.783
 6545SOL     OW20533   5.939   2.588   6.233
 6545SOL    HW120534   5.960   2.516   6.168
 6545SOL    HW220535   5.872   2.651   6.194
 6546SOL     OW20536   3.264   4.792   6.407
 6546SOL    HW120537   3.337   4.829   6.350
 6546SOL    HW220538   3.285   4.809   6.503
 6547SOL     OW20539   4.071   1.239   6.373
 6547SOL    HW120540   4.159   1.206   6.338
 6547SOL    HW220541   4.038   1.178   6.445
 6548SOL     OW20542   5.093   3.919   5.906
 6548SOL    HW120543   5.060   3.832   5.945
 6548SOL    HW220544   5.016   3.981   5.893
 6549SOL     OW20545   2.753   2.346   2.326
 6549SOL    HW120546   2.665   2.392   2.316
 6549SOL    HW220547   2.806   2.354   2.242
 6550SOL     OW20548   0.941   6.150   2.060
 6550SOL    HW120549   1.041   6.157   2.061
 6550SOL    HW220550   0.902   6.228   2.109
 6551SOL     OW20551   3.625   5.288   2.058
 6551SOL    HW120552   3.611   5.243   2.146
 6551SOL    HW220553   3.540   5.285   2.005
 6552SOL     OW20554   4.564   4.839   5.711
 6552SOL    HW120555   4.615   4.770   5.660
 6552SOL    HW220556   4.615   4.925   5.711
 6553SOL     OW20557   6.891   3.574   3.042
 6553SOL    HW120558   6.802   3.532   3.030
 6553SOL    HW220559   6.911   3.635   2.965
 6554SOL     OW20560   6.582   3.275   4.760
 6554SOL    HW120561   6.545   3.202   4.702
 6554SOL    HW220562   6.621   3.347   4.702
 6555SOL     OW20563   0.857   1.683   1.306
 6555SOL    HW120564   0.850   1.618   1.382
 6555SOL    HW220565   0.889   1.635   1.224
 6556SOL     OW20566   3.745   0.137   3.296
 6556SOL    HW120567   3.676   0.085   3.346
 6556SOL    HW220568   3.814   0.074   3.259
 6557SOL     OW20569   5.447   6.408   0.307
 6557SOL    HW120570   5.521   6.369   0.361
 6557SOL    HW220571   5.443   6.507   0.321
 6558SOL     OW20572   6.184   6.999   5.618
 6558SOL    HW120573   6.202   0.054   5.555
 6558SOL    HW220574   6.270   6.954   5.642
 6559SOL     OW20575   2.808   3.979   1.054
 6559SOL    HW120576   2.784   4.075   1.063
 6559SOL    HW220577   2.851   3.947   1.139
 6560SOL     OW20578   4.349   1.676   0.944
 6560SOL    HW120579   4.395   1.746   0.999
 6560SOL    HW220580   4.418   1.614   0.906
 6561SOL     OW20581   3.929   4.054   4.828
 6561SOL    HW120582   4.016   4.079   4.786
 6561SOL    HW220583   3.934   3.960   4.862
 6562SOL     OW20584   0.366   4.366   5.265
 6562SOL    HW120585   0.352   4.457   5.227
 6562SOL    HW220586   0.281   4.314   5.262
 6563SOL     OW20587   1.077   6.055   2.349
 6563SOL    HW120588   1.007   6.025   2.414
 6563SOL    HW220589   1.041   6.128   2.292
 6564SOL     OW20590   1.719   5.158   3.115
 6564SOL    HW120591   1.816   5.159   3.138
 6564SOL    HW220592   1.691   5.065   3.091
 6565SOL     OW20593   6.709   3.250   5.123
 6565SOL    HW120594   6.753   3.298   5.198
 6565SOL    HW220595   6.684   3.157   5.153
 6566SOL     OW20596   3.761   1.045   0.564
 6566SOL    HW120597   3.722   1.133   0.587
 6566SOL    HW220598   3.861   1.048   0.576
 6567SOL     OW20599   6.752   2.455   0.684
 6567SOL    HW120600   6.676   2.400   0.649
 6567SOL    HW220601   6.715   2.535   0.733
 6568SOL     OW20602   5.465   3.373   1.738
 6568SOL    HW120603   5.504   3.444   1.680
 6568SOL    HW220604   5.530   3.296   1.743
 6569SOL     OW20605   1.287   3.963   5.603
 6569SOL    HW120606   1.249   4.019   5.677
 6569SOL    HW220607   1.387   3.973   5.602
 6570SOL     OW20608   0.117   4.077   2.245
 6570SOL    HW120609   0.166   4.112   2.165
 6570SOL    HW220610   0.146   3.983   2.262
 6571SOL     OW20611   2.436   5.155   3.826
 6571SOL    HW120612   2.342   5.124   3.830
 6571SOL    HW220613   2.497   5.082   3.858
 6572SOL     OW20614   1.789   3.642   5.627
 6572SOL    HW120615   1.756   3.616   5.718
 6572SOL    HW220616   1.807   3.560   5.573
 6573SOL     OW20617   1.432   2.274   1.714
 6573SOL    HW120618   1.470   2.359   1.676
 6573SOL    HW220619   1.478   2.196   1.672
 6574SOL     OW20620   2.268   4.547   4.427
 6574SOL    HW120621   2.317   4.543   4.514
 6574SOL    HW220622   2.272   4.458   4.382
 6575SOL     OW20623   1.166   1.692   2.478
 6575SOL    HW120624   1.128   1.778   2.444
 6575SOL    HW220625   1.094   1.638   2.521
 6576SOL     OW20626   0.602   5.511   4.226
 6576SOL    HW120627   0.542   5.525   4.147
 6576SOL    HW220628   0.692   5.551   4.207
 6577SOL     OW20629   0.098   3.763   5.503
 6577SOL    HW120630   0.156   3.695   5.458
 6577SOL    HW220631   0.087   3.843   5.443
 6578SOL     OW20632   6.413   6.006   3.877
 6578SOL    HW120633   6.333   5.973   3.827
 6578SOL    HW220634   6.384   6.074   3.944
 6579SOL     OW20635   0.270   3.710   3.975
 6579SOL    HW120636   0.244   3.800   3.939
 6579SOL    HW220637   0.353   3.678   3.928
 6580SOL     OW20638   5.710   2.473   0.660
 6580SOL    HW120639   5.769   2.392   0.667
 6580SOL    HW220640   5.622   2.455   0.703
 6581SOL     OW20641   2.616   2.189   5.244
 6581SOL    HW120642   2.702   2.231   5.272
 6581SOL    HW220643   2.545   2.259   5.240
 6582SOL     OW20644   6.316   0.763   2.367
 6582SOL    HW120645   6.298   0.704   2.445
 6582SOL    HW220646   6.329   0.857   2.399
 6583SOL     OW20647   6.664   1.046   6.120
 6583SOL    HW120648   6.682   1.125   6.179
 6583SOL    HW220649   6.597   1.071   6.050
 6584SOL     OW20650   5.809   2.423   0.401
 6584SOL    HW120651   5.902   2.428   0.438
 6584SOL    HW220652   5.772   2.515   0.391
 6585SOL     OW20653   2.708   0.675   2.816
 6585SOL    HW120654   2.727   0.633   2.727
 6585SOL    HW220655   2.786   0.731   2.843
 6586SOL     OW20656   5.723   1.880   6.916
 6586SOL    HW120657   5.822   1.882   6.899
 6586SOL    HW220658   5.703   1.921   7.005
 6587SOL     OW20659   1.146   5.789   1.890
 6587SOL    HW120660   1.138   5.690   1.899
 6587SOL    HW220661   1.068   5.833   1.934
 6588SOL     OW20662   3.405   3.108   0.552
 6588SOL    HW120663   3.417   3.054   0.636
 6588SOL    HW220664   3.488   3.101   0.496
 6589SOL     OW20665   5.099   1.321   5.904
 6589SOL    HW120666   5.075   1.295   5.998
 6589SOL    HW220667   5.123   1.418   5.902
 6590SOL     OW20668   6.386   1.773   5.065
 6590SOL    HW120669   6.361   1.790   5.161
 6590SOL    HW220670   6.432   1.853   5.028
 6591SOL     OW20671   5.024   0.598   2.266
 6591SOL    HW120672   5.108   0.641   2.235
 6591SOL    HW220673   4.997   0.636   2.354
 6592SOL     OW20674   5.544   4.986   5.345
 6592SOL    HW120675   5.571   4.893   5.317
 6592SOL    HW220676   5.584   5.052   5.282
 6593SOL     OW20677   5.469   1.112   2.989
 6593SOL    HW120678   5.569   1.119   2.994
 6593SOL    HW220679   5.430   1.203   2.973
 6594SOL     OW20680   5.390   1.069   0.106
 6594SOL    HW120681   5.440   1.115   0.033
 6594SOL    HW220682   5.385   1.129   0.186
 6595SOL     OW20683   3.686   2.753   6.225
 6595SOL    HW120684   3.719   2.774   6.317
 6595SOL    HW220685   3.677   2.838   6.172
 6596SOL     OW20686   2.414   5.739   4.854
 6596SOL    HW120687   2.353   5.660   4.859
 6596SOL    HW220688   2.396   5.790   4.770
 6597SOL     OW20689   0.224   4.409   6.976
 6597SOL    HW120690   0.203   4.326   0.007
 6597SOL    HW220691   0.147   4.433   6.917
 6598SOL     OW20692   3.353   6.227   4.096
 6598SOL    HW120693   3.414   6.175   4.155
 6598SOL    HW220694   3.390   6.228   4.002
 6599SOL     OW20695   4.272   3.794   6.503
 6599SOL    HW120696   4.206   3.741   6.450
 6599SOL    HW220697   4.344   3.828   6.443
 6600SOL     OW20698   4.246   4.814   4.927
 6600SOL    HW120699   4.257   4.717   4.948
 6600SOL    HW220700   4.156   4.844   4.955
 6601SOL     OW20701   1.195   1.267   1.928
 6601SOL    HW120702   1.164   1.339   1.990
 6601SOL    HW220703   1.236   1.193   1.981
 6602SOL     OW20704   5.640   1.444   1.022
 6602SOL    HW120705   5.677   1.485   1.106
 6602SOL    HW220706   5.713   1.433   0.955
 6603SOL     OW20707   2.604   2.145   1.282
 6603SOL    HW120708   2.666   2.222   1.274
 6603SOL    HW220709   2.522   2.162   1.227
 6604SOL     OW20710   4.139   5.340   5.099
 6604SOL    HW120711   4.045   5.312   5.077
 6604SOL    HW220712   4.145   5.360   5.197
 6605SOL     OW20713   5.469   6.218   0.934
 6605SOL    HW120714   5.503   6.125   0.920
 6605SOL    HW220715   5.369   6.217   0.929
 6606SOL     OW20716   0.489   2.505   3.225
 6606SOL    HW120717   0.426   2.555   3.164
 6606SOL    HW220718   0.555   2.454   3.170
 6607SOL     OW20719   1.865   3.240   2.562
 6607SOL    HW120720   1.895   3.331   2.590
 6607SOL    HW220721   1.855   3.181   2.643
 6608SOL     OW20722   5.376   4.213   4.617
 6608SOL    HW120723   5.284   4.181   4.597
 6608SOL    HW220724   5.430   4.137   4.655
 6609SOL     OW20725   5.375   2.342   6.599
 6609SOL    HW120726   5.371   2.404   6.678
 6609SOL    HW220727   5.294   2.284   6.597
 6610SOL     OW20728   3.831   1.546   0.886
 6610SOL    HW120729   3.844   1.573   0.981
 6610SOL    HW220730   3.738   1.512   0.873
 6611SOL     OW20731   5.426   3.474   2.612
 6611SOL    HW120732   5.393   3.523   2.532
 6611SOL    HW220733   5.351   3.458   2.676
 6612SOL     OW20734   0.510   5.713   6.247
 6612SOL    HW120735   0.490   5.796   6.195
 6612SOL    HW220736   0.550   5.738   6.335
 6613SOL     OW20737   5.761   5.024   0.600
 6613SOL    HW120738   5.843   5.009   0.656
 6613SOL    HW220739   5.787   5.049   0.507
 6614SOL     OW20740   5.615   4.376   5.973
 6614SOL    HW120741   5.671   4.316   6.030
 6614SOL    HW220742   5.666   4.399   5.890
 6615SOL     OW20743   0.339   3.602   4.875
 6615SOL    HW120744   0.278   3.577   4.799
 6615SOL    HW220745   0.337   3.701   4.888
 6616SOL     OW20746   5.179   1.298   3.893
 6616SOL    HW120747   5.173   1.337   3.985
 6616SOL    HW220748   5.164   1.199   3.897
 6617SOL     OW20749   4.221   0.090   4.411
 6617SOL    HW120750   4.222   0.184   4.376
 6617SOL    HW220751   4.278   0.032   4.353
 6618SOL     OW20752   0.289   4.252   1.139
 6618SOL    HW120753   0.283   4.352   1.132
 6618SOL    HW220754   0.284   4.225   1.235
 6619SOL     OW20755   6.437   6.100   2.430
 6619SOL    HW120756   6.350   6.146   2.415
 6619SOL    HW220757   6.498   6.159   2.484
 6620SOL     OW20758   4.735   3.204   5.592
 6620SOL    HW120759   4.795   3.190   5.671
 6620SOL    HW220760   4.785   3.181   5.508
 6621SOL     OW20761   3.204   3.174   0.871
 6621SOL    HW120762   3.194   3.080   0.904
 6621SOL    HW220763   3.122   3.226   0.895
 6622SOL     OW20764   5.892   5.258   0.068
 6622SOL    HW120765   5.809   5.252   0.012
 6622SOL    HW220766   5.959   5.193   0.034
 6623SOL     OW20767   3.170   4.083   2.747
 6623SOL    HW120768   3.081   4.056   2.709
 6623SOL    HW220769   3.241   4.022   2.712
 6624SOL     OW20770   4.969   5.172   4.022
 6624SOL    HW120771   5.029   5.119   4.082
 6624SOL    HW220772   4.912   5.110   3.968
 6625SOL     OW20773   5.510   6.972   0.241
 6625SOL    HW120774   5.572   0.012   0.191
 6625SOL    HW220775   5.417   6.982   0.206
 6626SOL     OW20776   2.763   5.366   4.025
 6626SOL    HW120777   2.700   5.289   4.012
 6626SOL    HW220778   2.857   5.332   4.023
 6627SOL     OW20779   0.466   0.891   1.730
 6627SOL    HW120780   0.389   0.925   1.675
 6627SOL    HW220781   0.551   0.906   1.680
 6628SOL     OW20782   4.199   6.111   3.822
 6628SOL    HW120783   4.162   6.163   3.745
 6628SOL    HW220784   4.126   6.088   3.886
 6629SOL     OW20785   3.104   4.244   0.293
 6629SOL    HW120786   3.089   4.146   0.309
 6629SOL    HW220787   3.061   4.271   0.207
 6630SOL     OW20788   3.629   1.142   6.047
 6630SOL    HW120789   3.681   1.144   5.962
 6630SOL    HW220790   3.577   1.227   6.055
 6631SOL     OW20791   3.113   6.801   1.519
 6631SOL    HW120792   3.052   6.880   1.527
 6631SOL    HW220793   3.202   6.823   1.560
 6632SOL     OW20794   5.979   3.177   2.099
 6632SOL    HW120795   5.990   3.142   2.006
 6632SOL    HW220796   6.048   3.137   2.158
 6633SOL     OW20797   1.074   5.867   3.017
 6633SOL    HW120798   1.153   5.837   2.964
 6633SOL    HW220799   1.055   5.963   2.996
 6634SOL     OW20800   6.300   1.808   5.417
 6634SOL    HW120801   6.382   1.758   5.443
 6634SOL    HW220802   6.237   1.811   5.495
 6635SOL     OW20803   4.385   4.894   3.572
 6635SOL    HW120804   4.415   4.837   3.495
 6635SOL    HW220805   4.361   4.985   3.539
 6636SOL     OW20806   1.858   3.136   2.851
 6636SOL    HW120807   1.950   3.167   2.875
 6636SOL    HW220808   1.791   3.183   2.907
 6637SOL     OW20809   6.865   2.795   0.533
 6637SOL    HW120810   6.833   2.885   0.564
 6637SOL    HW220811   6.875   2.796   0.434
 6638SOL     OW20812   1.612   0.517   6.538
 6638SOL    HW120813   1.683   0.559   6.482
 6638SOL    HW220814   1.573   0.438   6.490
 6639SOL     OW20815   4.097   5.480   6.003
 6639SOL    HW120816   4.003   5.508   6.023
 6639SOL    HW220817   4.133   5.428   6.080
 6640SOL     OW20818   5.769   3.900   2.955
 6640SOL    HW120819   5.711   3.889   3.036
 6640SOL    HW220820   5.842   3.966   2.976
 6641SOL     OW20821   2.556   5.525   6.616
 6641SOL    HW120822   2.612   5.516   6.698
 6641SOL    HW220823   2.588   5.604   6.563
 6642SOL     OW20824   6.649   6.567   5.905
 6642SOL    HW120825   6.613   6.641   5.848
 6642SOL    HW220826   6.733   6.598   5.949
 6643SOL     OW20827   4.272   5.939   0.290
 6643SOL    HW120828   4.176   5.966   0.285
 6643SOL    HW220829   4.279   5.844   0.322
 6644SOL     OW20830   0.813   3.660   1.861
 6644SOL    HW120831   0.852   3.595   1.926
 6644SOL    HW220832   0.848   3.640   1.770
 6645SOL     OW20833   0.067   4.677   5.637
 6645SOL    HW120834   0.009   4.622   5.578
 6645SOL    HW220835   0.151   4.627   5.659
 6646SOL     OW20836   2.048   5.022   3.807
 6646SOL    HW120837   2.071   4.991   3.900
 6646SOL    HW220838   2.054   5.122   3.803
 6647SOL     OW20839   4.369   1.359   1.761
 6647SOL    HW120840   4.435   1.420   1.718
 6647SOL    HW220841   4.386   1.265   1.731
 6648SOL     OW20842   3.815   5.468   2.144
 6648SOL    HW120843   3.739   5.414   2.106
 6648SOL    HW220844   3.881   5.488   2.072
 6649SOL     OW20845   4.042   1.749   5.483
 6649SOL    HW120846   4.111   1.803   5.435
 6649SOL    HW220847   3.976   1.712   5.418
 6650SOL     OW20848   3.848   1.476   4.035
 6650SOL    HW120849   3.889   1.489   3.945
 6650SOL    HW220850   3.759   1.523   4.039
 6651SOL     OW20851   0.689   1.390   0.762
 6651SOL    HW120852   0.764   1.413   0.824
 6651SOL    HW220853   0.692   1.293   0.740
 6652SOL     OW20854   1.004   5.195   3.419
 6652SOL    HW120855   1.016   5.213   3.321
 6652SOL    HW220856   1.091   5.210   3.466
 6653SOL     OW20857   3.789   4.021   3.669
 6653SOL    HW120858   3.706   4.057   3.626
 6653SOL    HW220859   3.767   3.936   3.717
 6654SOL     OW20860   1.943   3.521   1.595
 6654SOL    HW120861   1.963   3.552   1.688
 6654SOL    HW220862   1.908   3.427   1.598
 6655SOL     OW20863   1.410   1.016   6.954
 6655SOL    HW120864   1.417   0.944   0.003
 6655SOL    HW220865   1.319   1.058   6.959
 6656SOL     OW20866   6.360   2.477   1.889
 6656SOL    HW120867   6.449   2.482   1.843
 6656SOL    HW220868   6.288   2.469   1.820
 6657SOL     OW20869   3.564   4.909   5.358
 6657SOL    HW120870   3.659   4.919   5.328
 6657SOL    HW220871   3.512   4.864   5.286
 6658SOL     OW20872   6.604   0.173   5.622
 6658SOL    HW120873   6.597   0.224   5.536
 6658SOL    HW220874   6.518   0.182   5.672
 6659SOL     OW20875   2.055   3.384   0.240
 6659SOL    HW120876   1.963   3.375   0.279
 6659SOL    HW220877   2.051   3.370   0.141
 6660SOL     OW20878   0.230   6.668   3.079
 6660SOL    HW120879   0.180   6.584   3.101
 6660SOL    HW220880   0.216   6.691   2.983
 6661SOL     OW20881   6.976   0.060   4.079
 6661SOL    HW120882   6.905   0.070   4.149
 6661SOL    HW220883   6.938   0.081   3.989
 6662SOL     OW20884   1.010   3.563   6.446
 6662SOL    HW120885   1.089   3.528   6.497
 6662SOL    HW220886   0.928   3.511   6.472
 6663SOL     OW20887   0.244   5.286   1.679
 6663SOL    HW120888   0.290   5.215   1.626
 6663SOL    HW220889   0.289   5.297   1.767
 6664SOL     OW20890   6.693   2.141   1.973
 6664SOL    HW120891   6.649   2.159   1.885
 6664SOL    HW220892   6.637   2.181   2.046
 6665SOL     OW20893   2.417   6.277   3.386
 6665SOL    HW120894   2.436   6.370   3.355
 6665SOL    HW220895   2.454   6.265   3.479
 6666SOL     OW20896   5.488   0.937   0.425
 6666SOL    HW120897   5.422   0.913   0.353
 6666SOL    HW220898   5.479   1.034   0.447
 6667SOL     OW20899   5.338   5.033   5.117
 6667SOL    HW120900   5.262   5.090   5.085
 6667SOL    HW220901   5.398   5.088   5.175
 6668SOL     OW20902   6.197   6.040   0.902
 6668SOL    HW120903   6.129   6.079   0.840
 6668SOL    HW220904   6.289   6.055   0.864
 6669SOL     OW20905   0.865   4.981   3.349
 6669SOL    HW120906   0.927   5.055   3.376
 6669SOL    HW220907   0.919   4.907   3.307
 6670SOL     OW20908   5.237   5.120   0.127
 6670SOL    HW120909   5.160   5.057   0.115
 6670SOL    HW220910   5.203   5.212   0.145
 6671SOL     OW20911   0.613   2.433   5.392
 6671SOL    HW120912   0.680   2.440   5.466
 6671SOL    HW220913   0.577   2.525   5.371
 6672SOL     OW20914   6.910   0.927   4.964
 6672SOL    HW120915   6.811   0.942   4.966
 6672SOL    HW220916   6.954   0.993   5.025
 6673SOL     OW20917   3.788   6.151   1.943
 6673SOL    HW120918   3.811   6.061   1.907
 6673SOL    HW220919   3.692   6.172   1.923
 6674SOL     OW20920   0.738   5.917   5.124
 6674SOL    HW120921   0.783   5.925   5.034
 6674SOL    HW220922   0.723   6.008   5.162
 6675SOL     OW20923   6.282   6.592   6.278
 6675SOL    HW120924   6.283   6.542   6.191
 6675SOL    HW220925   6.289   6.526   6.353
 6676SOL     OW20926   0.404   1.407   0.809
 6676SOL    HW120927   0.406   1.490   0.863
 6676SOL    HW220928   0.496   1.369   0.802
 6677SOL     OW20929   0.540   4.988   0.637
 6677SOL    HW120930   0.462   5.029   0.683
 6677SOL    HW220931   0.516   4.969   0.542
 6678SOL     OW20932   0.798   3.497   3.754
 6678SOL    HW120933   0.737   3.481   3.677
 6678SOL    HW220934   0.744   3.504   3.838
 6679SOL     OW20935   2.348   1.110   4.819
 6679SOL    HW120936   2.258   1.151   4.809
 6679SOL    HW220937   2.388   1.096   4.728
 6680SOL     OW20938   2.762   0.378   6.588
 6680SOL    HW120939   2.682   0.361   6.530
 6680SOL    HW220940   2.736   0.434   6.666
 6681SOL     OW20941   5.718   5.507   6.177
 6681SOL    HW120942   5.729   5.601   6.210
 6681SOL    HW220943   5.769   5.496   6.092
 6682SOL     OW20944   6.355   5.253   2.491
 6682SOL    HW120945   6.446   5.213   2.490
 6682SOL    HW220946   6.345   5.317   2.415
 6683SOL     OW20947   5.190   2.997   4.148
 6683SOL    HW120948   5.150   2.924   4.093
 6683SOL    HW220949   5.289   3.000   4.132
 6684SOL     OW20950   1.908   1.022   1.990
 6684SOL    HW120951   1.946   0.936   2.023
 6684SOL    HW220952   1.951   1.047   1.904
 6685SOL     OW20953   5.871   2.884   6.683
 6685SOL    HW120954   5.954   2.837   6.655
 6685SOL    HW220955   5.791   2.831   6.655
 6686SOL     OW20956   5.042   4.474   3.703
 6686SOL    HW120957   5.019   4.530   3.783
 6686SOL    HW220958   5.067   4.382   3.734
 6687SOL     OW20959   0.489   0.069   6.960
 6687SOL    HW120960   0.491   0.110   6.869
 6687SOL    HW220961   0.484   0.140   0.009
 6688SOL     OW20962   0.541   4.544   3.023
 6688SOL    HW120963   0.591   4.630   3.032
 6688SOL    HW220964   0.544   4.513   2.928
 6689SOL     OW20965   5.356   3.805   0.457
 6689SOL    HW120966   5.456   3.808   0.452
 6689SOL    HW220967   5.317   3.859   0.383
 6690SOL     OW20968   0.676   1.201   0.343
 6690SOL    HW120969   0.690   1.102   0.348
 6690SOL    HW220970   0.632   1.225   0.256
 6691SOL     OW20971   1.231   5.545   1.141
 6691SOL    HW120972   1.168   5.585   1.075
 6691SOL    HW220973   1.222   5.445   1.139
 6692SOL     OW20974   4.615   3.399   6.609
 6692SOL    HW120975   4.669   3.335   6.554
 6692SOL    HW220976   4.627   3.378   6.706
 6693SOL     OW20977   4.106   3.587   6.411
 6693SOL    HW120978   4.167   3.555   6.337
 6693SOL    HW220979   4.080   3.509   6.468
 6694SOL     OW20980   3.067   5.858   6.953
 6694SOL    HW120981   3.036   5.883   6.861
 6694SOL    HW220982   3.129   5.780   6.946
 6695SOL     OW20983   1.637   1.699   0.225
 6695SOL    HW120984   1.627   1.607   0.187
 6695SOL    HW220985   1.668   1.761   0.153
 6696SOL     OW20986   1.507   2.236   1.280
 6696SOL    HW120987   1.416   2.219   1.242
 6696SOL    HW220988   1.577   2.206   1.215
 6697SOL     OW20989   5.389   3.457   4.651
 6697SOL    HW120990   5.367   3.366   4.616
 6697SOL    HW220991   5.326   3.480   4.726
 6698SOL     OW20992   2.751   4.374   6.273
 6698SOL    HW120993   2.681   4.324   6.325
 6698SOL    HW220994   2.801   4.310   6.214
 6699SOL     OW20995   2.129   3.327   6.731
 6699SOL    HW120996   2.088   3.236   6.729
 6699SOL    HW220997   2.080   3.388   6.668
 6700SOL     OW20998   0.099   6.314   6.443
 6700SOL    HW120999   0.103   6.314   6.343
 6700SOL    HW221000   0.006   6.293   6.473
 6701SOL     OW21001   1.536   2.617   6.944
 6701SOL    HW121002   1.499   2.631   6.852
 6701SOL    HW221003   1.512   2.695   7.003
 6702SOL     OW21004   2.716   3.342   1.286
 6702SOL    HW121005   2.774   3.290   1.349
 6702SOL    HW221006   2.774   3.392   1.222
 6703SOL     OW21007   0.326   2.000   0.296
 6703SOL    HW121008   0.233   1.971   0.316
 6703SOL    HW221009   0.358   1.957   0.212
 6704SOL     OW21010   5.206   3.472   2.772
 6704SOL    HW121011   5.159   3.511   2.693
 6704SOL    HW221012   5.144   3.473   2.851
 6705SOL     OW21013   5.005   1.790   1.436
 6705SOL    HW121014   5.041   1.884   1.439
 6705SOL    HW221015   4.963   1.774   1.347
 6706SOL     OW21016   1.566   6.709   6.842
 6706SOL    HW121017   1.609   6.692   6.753
 6706SOL    HW221018   1.538   6.621   6.882
 6707SOL     OW21019   1.538   5.180   3.344
 6707SOL    HW121020   1.563   5.166   3.440
 6707SOL    HW221021   1.615   5.159   3.285
 6708SOL     OW21022   2.056   6.122   1.219
 6708SOL    HW121023   2.007   6.134   1.305
 6708SOL    HW221024   2.155   6.131   1.235
 6709SOL     OW21025   5.136   1.760   3.841
 6709SOL    HW121026   5.126   1.752   3.940
 6709SOL    HW221027   5.049   1.790   3.801
 6710SOL     OW21028   2.318   2.771   0.697
 6710SOL    HW121029   2.260   2.750   0.776
 6710SOL    HW221030   2.273   2.740   0.613
 6711SOL     OW21031   5.806   3.493   6.852
 6711SOL    HW121032   5.739   3.512   6.780
 6711SOL    HW221033   5.814   3.574   6.911
 6712SOL     OW21034   3.010   6.390   0.920
 6712SOL    HW121035   3.052   6.330   0.853
 6712SOL    HW221036   3.067   6.394   1.003
 6713SOL     OW21037   0.621   2.341   3.045
 6713SOL    HW121038   0.643   2.259   3.098
 6713SOL    HW221039   0.542   2.322   2.986
 6714SOL     OW21040   6.619   0.702   5.047
 6714SOL    HW121041   6.701   0.715   5.103
 6714SOL    HW221042   6.539   0.695   5.106
 6715SOL     OW21043   5.316   2.726   0.564
 6715SOL    HW121044   5.294   2.704   0.659
 6715SOL    HW221045   5.274   2.658   0.503
 6716SOL     OW21046   3.412   6.291   1.041
 6716SOL    HW121047   3.408   6.391   1.049
 6716SOL    HW221048   3.490   6.266   0.984
 6717SOL     OW21049   3.751   0.701   6.857
 6717SOL    HW121050   3.783   0.652   6.938
 6717SOL    HW221051   3.709   0.788   6.884
 6718SOL     OW21052   3.941   0.126   6.474
 6718SOL    HW121053   3.989   0.143   6.560
 6718SOL    HW221054   4.006   0.099   6.404
 6719SOL     OW21055   0.893   1.833   5.175
 6719SOL    HW121056   0.879   1.856   5.078
 6719SOL    HW221057   0.991   1.820   5.192
 6720SOL     OW21058   1.427   4.677   0.829
 6720SOL    HW121059   1.410   4.768   0.791
 6720SOL    HW221060   1.340   4.629   0.841
 6721SOL     OW21061   6.320   6.229   3.008
 6721SOL    HW121062   6.249   6.264   2.947
 6721SOL    HW221063   6.283   6.222   3.101
 6722SOL     OW21064   3.982   4.248   0.008
 6722SOL    HW121065   4.053   4.253   6.959
 6722SOL    HW221066   3.912   4.181   7.000
 6723SOL     OW21067   3.588   1.768   2.625
 6723SOL    HW121068   3.584   1.858   2.582
 6723SOL    HW221069   3.579   1.778   2.724
 6724SOL     OW21070   3.205   4.564   5.820
 6724SOL    HW121071   3.105   4.560   5.823
 6724SOL    HW221072   3.235   4.654   5.854
 6725SOL     OW21073   1.097   6.170   1.564
 6725SOL    HW121074   1.038   6.100   1.605
 6725SOL    HW221075   1.085   6.171   1.465
 6726SOL     OW21076   2.342   2.448   1.844
 6726SOL    HW121077   2.428   2.402   1.864
 6726SOL    HW221078   2.339   2.536   1.890
 6727SOL     OW21079   2.963   3.908   0.846
 6727SOL    HW121080   2.909   3.924   0.929
 6727SOL    HW221081   2.959   3.812   0.821
 6728SOL     OW21082   4.280   1.244   3.938
 6728SOL    HW121083   4.325   1.189   4.008
 6728SOL    HW221084   4.275   1.339   3.967
 6729SOL     OW21085   4.419   5.576   3.970
 6729SOL    HW121086   4.374   5.516   3.904
 6729SOL    HW221087   4.440   5.524   4.053
 6730SOL     OW21088   1.186   6.748   2.721
 6730SOL    HW121089   1.144   6.832   2.686
 6730SOL    HW221090   1.124   6.705   2.787
 6731SOL     OW21091   1.673   3.473   1.497
 6731SOL    HW121092   1.574   3.462   1.492
 6731SOL    HW221093   1.696   3.570   1.487
 6732SOL     OW21094   3.369   6.126   0.593
 6732SOL    HW121095   3.279   6.153   0.627
 6732SOL    HW221096   3.411   6.061   0.656
 6733SOL     OW21097   6.484   6.003   4.192
 6733SOL    HW121098   6.444   5.911   4.194
 6733SOL    HW221099   6.414   6.069   4.168
 6734SOL     OW21100   2.761   3.750   6.829
 6734SOL    HW121101   2.736   3.832   6.777
 6734SOL    HW221102   2.690   3.729   6.896
 6735SOL     OW21103   0.476   6.928   5.847
 6735SOL    HW121104   0.550   6.883   5.896
 6735SOL    HW221105   0.462   6.885   5.758
 6736SOL     OW21106   1.690   4.351   1.889
 6736SOL    HW121107   1.693   4.256   1.921
 6736SOL    HW221108   1.765   4.403   1.929
 6737SOL     OW21109   1.698   0.166   1.195
 6737SOL    HW121110   1.683   0.097   1.265
 6737SOL    HW221111   1.611   0.209   1.171
 6738SOL     OW21112   5.250   1.729   1.065
 6738SOL    HW121113   5.279   1.718   0.971
 6738SOL    HW221114   5.187   1.656   1.090
 6739SOL     OW21115   3.489   6.272   5.664
 6739SOL    HW121116   3.553   6.256   5.739
 6739SOL    HW221117   3.534   6.252   5.577
 6740SOL     OW21118   5.660   2.232   5.930
 6740SOL    HW121119   5.736   2.272   5.981
 6740SOL    HW221120   5.694   2.194   5.843
 6741SOL     OW21121   0.636   0.555   5.611
 6741SOL    HW121122   0.724   0.566   5.564
 6741SOL    HW221123   0.647   0.491   5.687
 6742SOL     OW21124   6.420   5.947   4.846
 6742SOL    HW121125   6.396   5.994   4.761
 6742SOL    HW221126   6.371   5.859   4.851
 6743SOL     OW21127   6.033   2.186   1.171
 6743SOL    HW121128   6.081   2.108   1.131
 6743SOL    HW221129   6.097   2.262   1.184
 6744SOL     OW21130   4.395   0.767   4.128
 6744SOL    HW121131   4.362   0.803   4.041
 6744SOL    HW221132   4.494   0.777   4.133
 6745SOL     OW21133   0.857   3.804   2.871
 6745SOL    HW121134   0.846   3.813   2.970
 6745SOL    HW221135   0.772   3.830   2.825
 6746SOL     OW21136   6.068   0.679   0.379
 6746SOL    HW121137   6.036   0.766   0.414
 6746SOL    HW221138   6.103   0.623   0.454
 6747SOL     OW21139   5.231   5.322   6.426
 6747SOL    HW121140   5.170   5.315   6.346
 6747SOL    HW221141   5.251   5.231   6.461
 6748SOL     OW21142   6.602   6.258   2.599
 6748SOL    HW121143   6.699   6.265   2.574
 6748SOL    HW221144   6.563   6.350   2.605
 6749SOL     OW21145   2.656   5.178   1.118
 6749SOL    HW121146   2.559   5.172   1.099
 6749SOL    HW221147   2.707   5.192   1.033
 6750SOL     OW21148   2.391   3.214   5.409
 6750SOL    HW121149   2.407   3.309   5.381
 6750SOL    HW221150   2.403   3.154   5.330
 6751SOL     OW21151   4.541   2.636   5.689
 6751SOL    HW121152   4.632   2.641   5.731
 6751SOL    HW221153   4.550   2.600   5.596
 6752SOL     OW21154   6.793   1.078   0.030
 6752SOL    HW121155   6.722   1.082   6.979
 6752SOL    HW221156   6.775   1.148   0.099
 6753SOL     OW21157   6.078   0.461   6.457
 6753SOL    HW121158   6.006   0.530   6.451
 6753SOL    HW221159   6.074   0.415   6.545
 6754SOL     OW21160   4.161   1.484   6.920
 6754SOL    HW121161   4.205   1.531   6.996
 6754SOL    HW221162   4.106   1.549   6.867
 6755SOL     OW21163   5.297   1.820   3.107
 6755SOL    HW121164   5.321   1.799   3.012
 6755SOL    HW221165   5.317   1.741   3.164
 6756SOL     OW21166   4.575   5.104   3.097
 6756SOL    HW121167   4.581   5.011   3.062
 6756SOL    HW221168   4.650   5.159   3.061
 6757SOL     OW21169   6.163   4.289   1.235
 6757SOL    HW121170   6.245   4.278   1.292
 6757SOL    HW221171   6.186   4.343   1.155
 6758SOL     OW21172   6.882   2.299   2.558
 6758SOL    HW121173   6.820   2.253   2.621
 6758SOL    HW221174   6.944   2.233   2.517
 6759SOL     OW21175   0.456   5.276   3.912
 6759SOL    HW121176   0.508   5.306   3.831
 6759SOL    HW221177   0.439   5.178   3.906
 6760SOL     OW21178   0.746   3.875   5.265
 6760SOL    HW121179   0.697   3.922   5.338
 6760SOL    HW221180   0.684   3.860   5.188
 6761SOL     OW21181   6.314   2.865   6.761
 6761SOL    HW121182   6.249   2.909   6.823
 6761SOL    HW221183   6.397   2.921   6.755
 6762SOL     OW21184   6.792   2.231   4.473
 6762SOL    HW121185   6.826   2.211   4.382
 6762SOL    HW221186   6.722   2.302   4.467
 6763SOL     OW21187   5.838   6.075   5.627
 6763SOL    HW121188   5.865   6.027   5.710
 6763SOL    HW221189   5.904   6.056   5.554
 6764SOL     OW21190   2.046   3.764   6.845
 6764SOL    HW121191   2.049   3.841   6.910
 6764SOL    HW221192   2.043   3.678   6.896
 6765SOL     OW21193   4.560   5.362   2.003
 6765SOL    HW121194   4.505   5.441   2.029
 6765SOL    HW221195   4.626   5.341   2.076
 6766SOL     OW21196   2.826   2.418   5.302
 6766SOL    HW121197   2.839   2.388   5.208
 6766SOL    HW221198   2.916   2.439   5.342
 6767SOL     OW21199   0.401   2.968   5.640
 6767SOL    HW121200   0.388   2.890   5.701
 6767SOL    HW221201   0.329   2.967   5.570
 6768SOL     OW21202   6.775   0.552   6.122
 6768SOL    HW121203   6.852   0.532   6.183
 6768SOL    HW221204   6.809   0.588   6.035
 6769SOL     OW21205   0.852   2.230   6.147
 6769SOL    HW121206   0.775   2.176   6.180
 6769SOL    HW221207   0.835   2.327   6.164
 6770SOL     OW21208   0.694   1.782   3.406
 6770SOL    HW121209   0.703   1.875   3.441
 6770SOL    HW221210   0.630   1.731   3.464
 6771SOL     OW21211   5.405   2.504   2.512
 6771SOL    HW121212   5.315   2.547   2.510
 6771SOL    HW221213   5.476   2.573   2.499
 6772SOL     OW21214   1.134   6.832   1.635
 6772SOL    HW121215   1.051   6.788   1.670
 6772SOL    HW221216   1.196   6.762   1.599
 6773SOL     OW21217   1.712   1.212   3.244
 6773SOL    HW121218   1.666   1.133   3.285
 6773SOL    HW221219   1.810   1.206   3.261
 6774SOL     OW21220   3.758   1.295   5.373
 6774SOL    HW121221   3.713   1.328   5.455
 6774SOL    HW221222   3.689   1.266   5.307
 6775SOL     OW21223   1.723   2.818   4.941
 6775SOL    HW121224   1.640   2.854   4.898
 6775SOL    HW221225   1.785   2.894   4.963
 6776SOL     OW21226   3.113   3.479   3.724
 6776SOL    HW121227   3.189   3.530   3.765
 6776SOL    HW221228   3.027   3.525   3.746
 6777SOL     OW21229   0.121   0.561   5.194
 6777SOL    HW121230   0.120   0.509   5.279
 6777SOL    HW221231   0.055   0.521   5.130
 6778SOL     OW21232   5.951   5.982   2.039
 6778SOL    HW121233   5.955   6.042   2.119
 6778SOL    HW221234   5.966   5.887   2.068
 6779SOL     OW21235   5.957   3.328   5.836
 6779SOL    HW121236   5.873   3.361   5.792
 6779SOL    HW221237   6.028   3.315   5.767
 6780SOL     OW21238   4.683   0.858   2.050
 6780SOL    HW121239   4.709   0.762   2.060
 6780SOL    HW221240   4.738   0.900   1.978
 6781SOL     OW21241   5.571   3.846   3.134
 6781SOL    HW121242   5.614   3.848   3.224
 6781SOL    HW221243   5.533   3.754   3.118
 6782SOL     OW21244   6.778   2.187   2.809
 6782SOL    HW121245   6.782   2.087   2.811
 6782SOL    HW221246   6.683   2.217   2.817
 6783SOL     OW21247   0.955   6.527   6.728
 6783SOL    HW121248   0.948   6.623   6.755
 6783SOL    HW221249   1.050   6.496   6.739
 6784SOL     OW21250   1.684   4.942   6.371
 6784SOL    HW121251   1.704   4.924   6.275
 6784SOL    HW221252   1.760   4.991   6.413
 6785SOL     OW21253   5.536   4.440   1.947
 6785SOL    HW121254   5.502   4.532   1.969
 6785SOL    HW221255   5.568   4.395   2.030
 6786SOL     OW21256   6.298   1.174   6.299
 6786SOL    HW121257   6.217   1.183   6.357
 6786SOL    HW221258   6.333   1.265   6.277
 6787SOL     OW21259   4.287   2.411   1.397
 6787SOL    HW121260   4.377   2.381   1.363
 6787SOL    HW221261   4.285   2.402   1.496
 6788SOL     OW21262   1.884   4.300   0.987
 6788SOL    HW121263   1.832   4.346   0.915
 6788SOL    HW221264   1.864   4.202   0.985
 6789SOL     OW21265   5.854   2.484   3.112
 6789SOL    HW121266   5.754   2.490   3.115
 6789SOL    HW221267   5.893   2.531   3.192
 6790SOL     OW21268   0.878   5.808   6.978
 6790SOL    HW121269   0.850   5.745   0.030
 6790SOL    HW221270   0.859   5.902   7.007
 6791SOL     OW21271   1.875   6.302   4.161
 6791SOL    HW121272   1.776   6.304   4.147
 6791SOL    HW221273   1.901   6.215   4.203
 6792SOL     OW21274   3.070   5.542   0.524
 6792SOL    HW121275   3.046   5.591   0.440
 6792SOL    HW221276   3.078   5.444   0.505
 6793SOL     OW21277   1.507   3.478   6.220
 6793SOL    HW121278   1.591   3.508   6.264
 6793SOL    HW221279   1.434   3.543   6.240
 6794SOL     OW21280   4.679   2.396   4.270
 6794SOL    HW121281   4.602   2.380   4.333
 6794SOL    HW221282   4.662   2.479   4.218
 6795SOL     OW21283   0.757   0.334   2.527
 6795SOL    HW121284   0.730   0.310   2.620
 6795SOL    HW221285   0.826   0.269   2.494
 6796SOL     OW21286   6.733   2.359   2.328
 6796SOL    HW121287   6.727   2.350   2.428
 6796SOL    HW221288   6.780   2.279   2.291
 6797SOL     OW21289   1.675   3.759   0.433
 6797SOL    HW121290   1.700   3.729   0.525
 6797SOL    HW221291   1.743   3.825   0.400
 6798SOL     OW21292   5.021   2.114   1.709
 6798SOL    HW121293   4.967   2.177   1.763
 6798SOL    HW221294   4.993   2.119   1.613
 6799SOL     OW21295   4.303   6.769   2.513
 6799SOL    HW121296   4.248   6.815   2.444
 6799SOL    HW221297   4.400   6.772   2.487
 6800SOL     OW21298   6.679   2.734   2.278
 6800SOL    HW121299   6.671   2.809   2.213
 6800SOL    HW221300   6.772   2.697   2.276
 6801SOL     OW21301   2.161   4.796   5.269
 6801SOL    HW121302   2.075   4.844   5.254
 6801SOL    HW221303   2.198   4.821   5.358
 6802SOL     OW21304   2.470   4.168   1.765
 6802SOL    HW121305   2.372   4.159   1.749
 6802SOL    HW221306   2.517   4.191   1.680
 6803SOL     OW21307   6.294   5.536   6.113
 6803SOL    HW121308   6.371   5.518   6.052
 6803SOL    HW221309   6.282   5.635   6.123
 6804SOL     OW21310   3.129   5.667   1.708
 6804SOL    HW121311   3.039   5.624   1.716
 6804SOL    HW221312   3.187   5.612   1.648
 6805SOL     OW21313   0.555   4.088   4.227
 6805SOL    HW121314   0.577   4.162   4.164
 6805SOL    HW221315   0.596   4.002   4.195
 6806SOL     OW21316   6.085   3.859   1.872
 6806SOL    HW121317   6.121   3.774   1.833
 6806SOL    HW221318   6.058   3.921   1.799
 6807SOL     OW21319   4.118   3.692   2.734
 6807SOL    HW121320   4.038   3.671   2.677
 6807SOL    HW221321   4.199   3.646   2.697
 6808SOL     OW21322   2.712   6.688   4.268
 6808SOL    HW121323   2.707   6.588   4.277
 6808SOL    HW221324   2.805   6.714   4.243
 6809SOL     OW21325   6.360   2.536   0.616
 6809SOL    HW121326   6.376   2.589   0.532
 6809SOL    HW221327   6.276   2.484   0.607
 6810SOL     OW21328   2.934   0.054   5.056
 6810SOL    HW121329   2.894   7.000   5.001
 6810SOL    HW221330   3.033   0.057   5.040
 6811SOL     OW21331   6.548   2.282   1.535
 6811SOL    HW121332   6.524   2.185   1.545
 6811SOL    HW221333   6.618   2.292   1.465
 6812SOL     OW21334   3.390   4.761   5.184
 6812SOL    HW121335   3.303   4.730   5.223
 6812SOL    HW221336   3.373   4.836   5.120
 6813SOL     OW21337   0.429   3.609   1.584
 6813SOL    HW121338   0.429   3.511   1.602
 6813SOL    HW221339   0.515   3.649   1.616
 6814SOL     OW21340   4.641   2.283   1.665
 6814SOL    HW121341   4.625   2.210   1.731
 6814SOL    HW221342   4.619   2.371   1.706
 6815SOL     OW21343   1.804   6.307   0.865
 6815SOL    HW121344   1.864   6.309   0.945
 6815SOL    HW221345   1.783   6.400   0.836
 6816SOL     OW21346   5.659   0.528   3.247
 6816SOL    HW121347   5.695   0.473   3.322
 6816SOL    HW221348   5.564   0.553   3.267
 6817SOL     OW21349   5.823   1.358   1.395
 6817SOL    HW121350   5.741   1.304   1.376
 6817SOL    HW221351   5.904   1.308   1.364
 6818SOL     OW21352   6.873   0.065   5.517
 6818SOL    HW121353   6.874   0.084   5.419
 6818SOL    HW221354   6.791   0.105   5.558
 6819SOL     OW21355   5.880   3.598   0.537
 6819SOL    HW121356   5.849   3.518   0.487
 6819SOL    HW221357   5.979   3.598   0.544
 6820SOL     OW21358   2.423   4.584   1.087
 6820SOL    HW121359   2.361   4.639   1.143
 6820SOL    HW221360   2.488   4.536   1.146
 6821SOL     OW21361   2.236   3.229   5.882
 6821SOL    HW121362   2.286   3.293   5.940
 6821SOL    HW221363   2.287   3.215   5.797
 6822SOL     OW21364   0.482   4.566   4.750
 6822SOL    HW121365   0.520   4.526   4.834
 6822SOL    HW221366   0.551   4.564   4.678
 6823SOL     OW21367   6.700   3.424   5.355
 6823SOL    HW121368   6.677   3.521   5.362
 6823SOL    HW221369   6.621   3.369   5.386
 6824SOL     OW21370   1.275   0.744   3.876
 6824SOL    HW121371   1.297   0.651   3.904
 6824SOL    HW221372   1.359   0.791   3.849
 6825SOL     OW21373   5.001   5.452   1.181
 6825SOL    HW121374   4.941   5.444   1.260
 6825SOL    HW221375   5.095   5.434   1.208
 6826SOL     OW21376   5.959   0.380   4.314
 6826SOL    HW121377   5.908   0.387   4.228
 6826SOL    HW221378   5.929   0.453   4.376
 6827SOL     OW21379   5.163   4.980   5.552
 6827SOL    HW121380   5.243   4.922   5.564
 6827SOL    HW221381   5.090   4.927   5.509
 6828SOL     OW21382   2.449   1.925   2.422
 6828SOL    HW121383   2.423   1.925   2.326
 6828SOL    HW221384   2.522   1.992   2.436
 6829SOL     OW21385   5.714   6.628   4.819
 6829SOL    HW121386   5.669   6.699   4.765
 6829SOL    HW221387   5.649   6.555   4.840
 6830SOL     OW21388   3.670   6.766   2.704
 6830SOL    HW121389   3.594   6.809   2.655
 6830SOL    HW221390   3.663   6.666   2.695
 6831SOL     OW21391   1.810   0.384   6.927
 6831SOL    HW121392   1.836   0.481   6.936
 6831SOL    HW221393   1.893   0.329   6.917
 6832SOL     OW21394   3.491   3.596   0.329
 6832SOL    HW121395   3.451   3.665   0.390
 6832SOL    HW221396   3.457   3.505   0.355
 6833SOL     OW21397   4.199   5.445   0.192
 6833SOL    HW121398   4.149   5.391   0.260
 6833SOL    HW221399   4.278   5.393   0.159
 6834SOL     OW21400   6.638   5.499   5.236
 6834SOL    HW121401   6.634   5.509   5.137
 6834SOL    HW221402   6.616   5.405   5.261
 6835SOL     OW21403   4.358   0.601   2.825
 6835SOL    HW121404   4.352   0.673   2.893
 6835SOL    HW221405   4.266   0.578   2.793
 6836SOL     OW21406   1.036   4.702   6.526
 6836SOL    HW121407   1.100   4.638   6.570
 6836SOL    HW221408   1.084   4.754   6.456
 6837SOL     OW21409   6.226   2.438   1.665
 6837SOL    HW121410   6.144   2.381   1.669
 6837SOL    HW221411   6.204   2.526   1.623
 6838SOL     OW21412   2.170   4.417   6.838
 6838SOL    HW121413   2.130   4.453   6.754
 6838SOL    HW221414   2.109   4.437   6.915
 6839SOL     OW21415   6.324   2.264   5.271
 6839SOL    HW121416   6.284   2.355   5.276
 6839SOL    HW221417   6.419   2.271   5.238
 6840SOL     OW21418   3.043   0.503   4.636
 6840SOL    HW121419   3.099   0.513   4.553
 6840SOL    HW221420   3.095   0.534   4.715
 6841SOL     OW21421   4.789   5.921   0.616
 6841SOL    HW121422   4.779   5.876   0.705
 6841SOL    HW221423   4.827   6.012   0.629
 6842SOL     OW21424   0.121   3.092   3.154
 6842SOL    HW121425   0.147   3.138   3.239
 6842SOL    HW221426   0.103   2.995   3.173
 6843SOL     OW21427   4.406   3.028   1.688
 6843SOL    HW121428   4.482   3.013   1.750
 6843SOL    HW221429   4.425   2.981   1.601
 6844SOL     OW21430   3.288   6.499   3.979
 6844SOL    HW121431   3.365   6.561   3.964
 6844SOL    HW221432   3.304   6.446   4.062
 6845SOL     OW21433   3.678   4.271   6.979
 6845SOL    HW121434   3.579   4.274   6.961
 6845SOL    HW221435   3.713   4.364   6.985
 6846SOL     OW21436   3.852   3.365   4.276
 6846SOL    HW121437   3.772   3.344   4.220
 6846SOL    HW221438   3.838   3.452   4.323
 6847SOL     OW21439   5.077   3.630   1.249
 6847SOL    HW121440   5.078   3.585   1.160
 6847SOL    HW221441   5.116   3.722   1.240
 6848SOL     OW21442   0.867   6.337   4.800
 6848SOL    HW121443   0.854   6.248   4.755
 6848SOL    HW221444   0.964   6.359   4.802
 6849SOL     OW21445   2.472   0.255   4.537
 6849SOL    HW121446   2.515   0.345   4.543
 6849SOL    HW221447   2.543   0.184   4.547
 6850SOL     OW21448   6.398   2.773   1.967
 6850SOL    HW121449   6.444   2.737   1.886
 6850SOL    HW221450   6.355   2.698   2.017
 6851SOL     OW21451   2.285   5.268   0.656
 6851SOL    HW121452   2.188   5.292   0.657
 6851SOL    HW221453   2.324   5.291   0.566
 6852SOL     OW21454   4.789   4.714   2.435
 6852SOL    HW121455   4.745   4.744   2.520
 6852SOL    HW221456   4.732   4.738   2.357
 6853SOL     OW21457   5.692   4.473   4.261
 6853SOL    HW121458   5.603   4.431   4.281
 6853SOL    HW221459   5.764   4.422   4.309
 6854SOL     OW21460   6.169   0.781   6.738
 6854SOL    HW121461   6.070   0.788   6.751
 6854SOL    HW221462   6.193   0.817   6.648
 6855SOL     OW21463   2.771   6.855   2.823
 6855SOL    HW121464   2.816   6.766   2.815
 6855SOL    HW221465   2.705   6.852   2.899
 6856SOL     OW21466   1.027   5.027   5.421
 6856SOL    HW121467   0.930   5.049   5.436
 6856SOL    HW221468   1.069   5.002   5.507
 6857SOL     OW21469   4.488   0.945   6.624
 6857SOL    HW121470   4.524   1.034   6.594
 6857SOL    HW221471   4.436   0.904   6.549
 6858SOL     OW21472   3.196   3.090   6.458
 6858SOL    HW121473   3.174   3.179   6.418
 6858SOL    HW221474   3.111   3.041   6.478
 6859SOL     OW21475   4.325   6.875   1.627
 6859SOL    HW121476   4.288   6.814   1.558
 6859SOL    HW221477   4.394   6.827   1.682
 6860SOL     OW21478   4.555   3.257   0.059
 6860SOL    HW121479   4.516   3.348   0.075
 6860SOL    HW221480   4.545   3.200   0.140
 6861SOL     OW21481   6.598   3.704   0.062
 6861SOL    HW121482   6.629   3.769   0.132
 6861SOL    HW221483   6.556   3.754   7.006
 6862SOL     OW21484   2.682   4.903   4.408
 6862SOL    HW121485   2.751   4.937   4.473
 6862SOL    HW221486   2.674   4.804   4.419
 6863SOL     OW21487   1.175   3.481   3.857
 6863SOL    HW121488   1.149   3.575   3.839
 6863SOL    HW221489   1.097   3.432   3.897
 6864SOL     OW21490   3.124   5.598   6.032
 6864SOL    HW121491   3.219   5.628   6.040
 6864SOL    HW221492   3.095   5.604   5.937
 6865SOL     OW21493   0.812   2.465   5.563
 6865SOL    HW121494   0.892   2.524   5.579
 6865SOL    HW221495   0.753   2.467   5.644
 6866SOL     OW21496   0.360   4.074   2.743
 6866SOL    HW121497   0.386   4.102   2.651
 6866SOL    HW221498   0.384   4.146   2.808
 6867SOL     OW21499   2.809   5.540   3.702
 6867SOL    HW121500   2.790   5.584   3.615
 6867SOL    HW221501   2.745   5.464   3.717
 6868SOL     OW21502   1.637   5.492   5.147
 6868SOL    HW121503   1.566   5.427   5.118
 6868SOL    HW221504   1.631   5.574   5.089
 6869SOL     OW21505   0.281   2.560   4.270
 6869SOL    HW121506   0.354   2.598   4.214
 6869SOL    HW221507   0.276   2.611   4.357
 6870SOL     OW21508   5.255   3.938   2.906
 6870SOL    HW121509   5.310   3.877   2.850
 6870SOL    HW221510   5.314   3.990   2.967
 6871SOL     OW21511   4.456   6.294   2.061
 6871SOL    HW121512   4.357   6.284   2.073
 6871SOL    HW221513   4.494   6.341   2.140
 6872SOL     OW21514   3.325   4.115   1.051
 6872SOL    HW121515   3.245   4.159   1.011
 6872SOL    HW221516   3.299   4.075   1.140
 6873SOL     OW21517   4.985   4.798   5.425
 6873SOL    HW121518   4.886   4.807   5.431
 6873SOL    HW221519   5.012   4.706   5.453
 6874SOL     OW21520   1.608   1.768   6.460
 6874SOL    HW121521   1.586   1.690   6.518
 6874SOL    HW221522   1.656   1.737   6.378
 6875SOL     OW21523   3.735   6.785   4.979
 6875SOL    HW121524   3.642   6.784   5.017
 6875SOL    HW221525   3.740   6.720   4.903
 6876SOL     OW21526   3.072   6.622   4.510
 6876SOL    HW121527   3.084   6.561   4.431
 6876SOL    HW221528   3.030   6.708   4.480
 6877SOL     OW21529   1.873   3.934   0.371
 6877SOL    HW121530   1.883   4.033   0.360
 6877SOL    HW221531   1.961   3.889   0.352
 6878SOL     OW21532   2.091   1.738   5.017
 6878SOL    HW121533   2.126   1.741   5.110
 6878SOL    HW221534   2.158   1.696   4.957
 6879SOL     OW21535   6.303   1.485   6.009
 6879SOL    HW121536   6.321   1.583   6.011
 6879SOL    HW221537   6.206   1.469   5.991
 6880SOL     OW21538   0.957   4.481   4.616
 6880SOL    HW121539   0.997   4.413   4.678
 6880SOL    HW221540   1.007   4.479   4.529
 6881SOL     OW21541   5.027   6.159   1.400
 6881SOL    HW121542   4.995   6.065   1.388
 6881SOL    HW221543   5.056   6.173   1.494
 6882SOL     OW21544   2.656   6.066   5.307
 6882SOL    HW121545   2.631   5.975   5.341
 6882SOL    HW221546   2.724   6.107   5.368
 6883SOL     OW21547   2.831   6.644   2.056
 6883SOL    HW121548   2.736   6.613   2.051
 6883SOL    HW221549   2.876   6.601   2.134
 6884SOL     OW21550   1.731   4.896   3.066
 6884SOL    HW121551   1.633   4.874   3.060
 6884SOL    HW221552   1.775   4.835   3.132
 6885SOL     OW21553   4.127   4.798   4.610
 6885SOL    HW121554   4.184   4.747   4.546
 6885SOL    HW221555   4.170   4.799   4.700
 6886SOL     OW21556   5.035   6.821   0.750
 6886SOL    HW121557   5.012   6.877   0.670
 6886SOL    HW221558   4.979   6.848   0.827
 6887SOL     OW21559   6.329   0.867   4.746
 6887SOL    HW121560   6.343   0.819   4.832
 6887SOL    HW221561   6.377   0.818   4.673
 6888SOL     OW21562   6.744   6.848   3.836
 6888SOL    HW121563   6.686   6.774   3.870
 6888SOL    HW221564   6.737   6.927   3.898
 6889SOL     OW21565   2.250   3.888   6.290
 6889SOL    HW121566   2.285   3.866   6.199
 6889SOL    HW221567   2.150   3.887   6.288
 6890SOL     OW21568   1.286   0.773   1.476
 6890SOL    HW121569   1.222   0.748   1.403
 6890SOL    HW221570   1.334   0.691   1.508
 6891SOL     OW21571   5.030   5.566   5.414
 6891SOL    HW121572   5.107   5.512   5.447
 6891SOL    HW221573   4.951   5.506   5.398
 6892SOL     OW21574   3.145   1.865   4.095
 6892SOL    HW121575   3.192   1.950   4.072
 6892SOL    HW221576   3.070   1.884   4.159
 6893SOL     OW21577   4.932   7.006   1.110
 6893SOL    HW121578   4.987   6.991   1.193
 6893SOL    HW221579   4.933   0.084   1.087
 6894SOL     OW21580   5.959   4.589   5.890
 6894SOL    HW121581   5.914   4.659   5.946
 6894SOL    HW221582   5.982   4.628   5.801
 6895SOL     OW21583   4.806   4.881   4.636
 6895SOL    HW121584   4.870   4.896   4.561
 6895SOL    HW221585   4.776   4.785   4.636
 6896SOL     OW21586   5.392   2.311   2.312
 6896SOL    HW121587   5.294   2.317   2.293
 6896SOL    HW221588   5.417   2.375   2.384
 6897SOL     OW21589   4.043   1.203   1.538
 6897SOL    HW121590   4.085   1.113   1.551
 6897SOL    HW221591   4.035   1.222   1.440
 6898SOL     OW21592   4.087   1.429   1.694
 6898SOL    HW121593   4.068   1.361   1.622
 6898SOL    HW221594   4.179   1.415   1.729
 6899SOL     OW21595   5.701   4.707   5.714
 6899SOL    HW121596   5.648   4.711   5.798
 6899SOL    HW221597   5.712   4.612   5.685
 6900SOL     OW21598   4.288   0.359   5.992
 6900SOL    HW121599   4.269   0.445   5.943
 6900SOL    HW221600   4.276   0.282   5.929
 6901SOL     OW21601   1.299   0.601   7.019
 6901SOL    HW121602   1.273   0.654   6.939
 6901SOL    HW221603   1.391   0.628   0.028
 6902SOL     OW21604   6.625   5.560   2.729
 6902SOL    HW121605   6.607   5.644   2.780
 6902SOL    HW221606   6.548   5.496   2.742
 6903SOL     OW21607   6.121   4.309   6.667
 6903SOL    HW121608   6.145   4.237   6.602
 6903SOL    HW221609   6.202   4.364   6.687
 6904SOL     OW21610   0.706   1.511   2.655
 6904SOL    HW121611   0.714   1.434   2.719
 6904SOL    HW221612   0.617   1.554   2.666
 6905SOL     OW21613   3.675   5.341   0.730
 6905SOL    HW121614   3.726   5.276   0.786
 6905SOL    HW221615   3.592   5.298   0.695
 6906SOL     OW21616   6.235   6.318   2.457
 6906SOL    HW121617   6.204   6.378   2.530
 6906SOL    HW221618   6.252   6.372   2.374
 6907SOL     OW21619   3.456   0.676   1.832
 6907SOL    HW121620   3.358   0.684   1.815
 6907SOL    HW221621   3.479   0.580   1.848
 6908SOL     OW21622   5.261   6.986   0.127
 6908SOL    HW121623   5.223   6.958   0.039
 6908SOL    HW221624   5.201   0.034   0.169
 6909SOL     OW21625   2.562   2.393   6.956
 6909SOL    HW121626   2.621   2.394   6.876
 6909SOL    HW221627   2.593   2.322   7.019
 6910SOL     OW21628   4.453   0.961   0.975
 6910SOL    HW121629   4.436   0.876   1.025
 6910SOL    HW221630   4.434   1.039   1.034
 6911SOL     OW21631   3.767   6.559   4.814
 6911SOL    HW121632   3.820   6.474   4.810
 6911SOL    HW221633   3.670   6.537   4.819
 6912SOL     OW21634   3.511   5.908   1.791
 6912SOL    HW121635   3.483   5.996   1.831
 6912SOL    HW221636   3.555   5.852   1.861
 6913SOL     OW21637   4.173   5.948   5.916
 6913SOL    HW121638   4.267   5.982   5.925
 6913SOL    HW221639   4.174   5.848   5.908
 6914SOL     OW21640   0.237   5.352   6.962
 6914SOL    HW121641   0.282   5.265   6.941
 6914SOL    HW221642   0.138   5.337   6.971
 6915SOL     OW21643   0.964   6.926   6.527
 6915SOL    HW121644   0.908   6.843   6.535
 6915SOL    HW221645   0.909   7.006   6.549
 6916SOL     OW21646   6.256   0.296   6.363
 6916SOL    HW121647   6.235   0.311   6.266
 6916SOL    HW221648   6.193   0.351   6.419
 6917SOL     OW21649   4.316   6.272   5.955
 6917SOL    HW121650   4.264   6.218   5.888
 6917SOL    HW221651   4.267   6.273   6.042
 6918SOL     OW21652   1.924   2.325   3.349
 6918SOL    HW121653   1.931   2.423   3.369
 6918SOL    HW221654   2.015   2.290   3.328
 6919SOL     OW21655   1.943   5.847   3.664
 6919SOL    HW121656   1.895   5.933   3.682
 6919SOL    HW221657   2.016   5.835   3.731
 6920SOL     OW21658   5.779   5.483   4.076
 6920SOL    HW121659   5.781   5.512   4.172
 6920SOL    HW221660   5.852   5.528   4.026
 6921SOL     OW21661   1.856   4.932   2.840
 6921SOL    HW121662   1.801   4.985   2.776
 6921SOL    HW221663   1.804   4.914   2.923
 6922SOL     OW21664   1.667   6.099   1.639
 6922SOL    HW121665   1.634   6.125   1.730
 6922SOL    HW221666   1.737   6.027   1.648
 6923SOL     OW21667   5.210   5.684   4.287
 6923SOL    HW121668   5.176   5.696   4.380
 6923SOL    HW221669   5.151   5.620   4.238
 6924SOL     OW21670   5.418   6.294   2.588
 6924SOL    HW121671   5.489   6.356   2.623
 6924SOL    HW221672   5.372   6.249   2.664
 6925SOL     OW21673   4.580   5.818   2.025
 6925SOL    HW121674   4.673   5.831   2.061
 6925SOL    HW221675   4.540   5.907   2.004
 6926SOL     OW21676   2.627   3.642   5.640
 6926SOL    HW121677   2.717   3.684   5.654
 6926SOL    HW221678   2.637   3.563   5.581
 6927SOL     OW21679   4.017   3.837   0.722
 6927SOL    HW121680   3.930   3.804   0.759
 6927SOL    HW221681   4.021   3.816   0.624
 6928SOL     OW21682   6.627   0.641   6.641
 6928SOL    HW121683   6.718   0.650   6.600
 6928SOL    HW221684   6.623   0.557   6.695
 6929SOL     OW21685   3.346   5.781   1.071
 6929SOL    HW121686   3.387   5.838   1.000
 6929SOL    HW221687   3.416   5.756   1.139
 6930SOL     OW21688   0.241   1.232   3.021
 6930SOL    HW121689   0.192   1.317   3.041
 6930SOL    HW221690   0.176   1.159   3.003
 6931SOL     OW21691   2.333   0.366   1.418
 6931SOL    HW121692   2.388   0.384   1.336
 6931SOL    HW221693   2.305   0.270   1.418
 6932SOL     OW21694   3.231   2.694   0.281
 6932SOL    HW121695   3.209   2.792   0.283
 6932SOL    HW221696   3.237   2.664   0.186
 6933SOL     OW21697   3.097   6.205   5.090
 6933SOL    HW121698   2.998   6.222   5.087
 6933SOL    HW221699   3.122   6.171   5.180
 6934SOL     OW21700   5.383   4.729   6.537
 6934SOL    HW121701   5.417   4.643   6.575
 6934SOL    HW221702   5.321   4.773   6.603
 6935SOL     OW21703   4.391   5.398   3.361
 6935SOL    HW121704   4.442   5.398   3.275
 6935SOL    HW221705   4.293   5.402   3.341
 6936SOL     OW21706   0.879   4.541   0.477
 6936SOL    HW121707   0.787   4.507   0.453
 6936SOL    HW221708   0.880   4.641   0.472
 6937SOL     OW21709   4.335   5.760   6.520
 6937SOL    HW121710   4.375   5.707   6.595
 6937SOL    HW221711   4.275   5.830   6.558
 6938SOL     OW21712   6.513   1.996   5.236
 6938SOL    HW121713   6.544   2.015   5.143
 6938SOL    HW221714   6.592   1.997   5.298
 6939SOL     OW21715   6.907   4.791   1.650
 6939SOL    HW121716   6.888   4.798   1.748
 6939SOL    HW221717   6.985   4.730   1.636
 6940SOL     OW21718   4.191   0.609   4.257
 6940SOL    HW121719   4.151   0.550   4.187
 6940SOL    HW221720   4.254   0.674   4.215
 6941SOL     OW21721   3.383   2.767   5.105
 6941SOL    HW121722   3.431   2.731   5.185
 6941SOL    HW221723   3.349   2.690   5.050
 6942SOL     OW21724   6.277   1.422   6.417
 6942SOL    HW121725   6.191   1.391   6.457
 6942SOL    HW221726   6.267   1.516   6.384
 6943SOL     OW21727   5.917   4.485   6.811
 6943SOL    HW121728   5.938   4.570   6.762
 6943SOL    HW221729   5.823   4.489   6.844
 6944SOL     OW21730   1.753   7.015   0.158
 6944SOL    HW121731   1.777   6.946   0.090
 6944SOL    HW221732   1.679   0.053   0.124
 6945SOL     OW21733   3.850   1.351   7.020
 6945SOL    HW121734   3.857   1.352   6.920
 6945SOL    HW221735   3.825   1.259   0.030
 6946SOL     OW21736   6.412   4.158   2.275
 6946SOL    HW121737   6.314   4.169   2.257
 6946SOL    HW221738   6.432   4.062   2.292
 6947SOL     OW21739   3.464   6.584   0.989
 6947SOL    HW121740   3.551   6.540   1.010
 6947SOL    HW221741   3.464   6.678   1.022
 6948SOL     OW21742   3.014   1.824   5.853
 6948SOL    HW121743   3.074   1.747   5.831
 6948SOL    HW221744   3.045   1.905   5.803
 6949SOL     OW21745   5.126   0.322   2.432
 6949SOL    HW121746   5.153   0.371   2.350
 6949SOL    HW221747   5.097   0.387   2.502
 6950SOL     OW21748   3.733   1.578   3.094
 6950SOL    HW121749   3.687   1.545   3.176
 6950SOL    HW221750   3.798   1.508   3.062
 6951SOL     OW21751   4.829   3.865   5.502
 6951SOL    HW121752   4.925   3.882   5.480
 6951SOL    HW221753   4.820   3.843   5.599
 6952SOL     OW21754   0.174   3.890   6.629
 6952SOL    HW121755   0.172   3.898   6.729
 6952SOL    HW221756   0.141   3.800   6.602
 6953SOL     OW21757   5.718   2.493   4.947
 6953SOL    HW121758   5.700   2.432   5.024
 6953SOL    HW221759   5.710   2.443   4.861
 6954SOL     OW21760   0.115   4.654   1.624
 6954SOL    HW121761   0.160   4.743   1.628
 6954SOL    HW221762   0.182   4.584   1.599
 6955SOL     OW21763   0.360   1.091   4.030
 6955SOL    HW121764   0.343   1.018   4.096
 6955SOL    HW221765   0.449   1.077   3.987
 6956SOL     OW21766   3.278   3.925   1.646
 6956SOL    HW121767   3.235   3.901   1.733
 6956SOL    HW221768   3.362   3.976   1.663
 6957SOL     OW21769   1.522   4.482   0.642
 6957SOL    HW121770   1.556   4.518   0.555
 6957SOL    HW221771   1.487   4.558   0.698
 6958SOL     OW21772   1.807   3.143   5.912
 6958SOL    HW121773   1.766   3.153   5.821
 6958SOL    HW221774   1.746   3.184   5.980
 6959SOL     OW21775   4.169   0.831   5.057
 6959SOL    HW121776   4.075   0.856   5.080
 6959SOL    HW221777   4.211   0.905   5.004
 6960SOL     OW21778   1.255   5.750   6.558
 6960SOL    HW121779   1.194   5.830   6.559
 6960SOL    HW221780   1.207   5.674   6.515
 6961SOL     OW21781   6.000   0.928   3.434
 6961SOL    HW121782   5.909   0.888   3.449
 6961SOL    HW221783   6.046   0.879   3.360
 6962SOL     OW21784   3.215   3.751   1.002
 6962SOL    HW121785   3.309   3.771   0.973
 6962SOL    HW221786   3.199   3.653   0.997
 6963SOL     OW21787   6.049   5.961   1.755
 6963SOL    HW121788   6.144   5.989   1.764
 6963SOL    HW221789   6.005   5.963   1.846
 6964SOL     OW21790   3.672   5.082   5.568
 6964SOL    HW121791   3.694   4.986   5.582
 6964SOL    HW221792   3.743   5.124   5.511
 6965SOL     OW21793   6.018   1.239   6.034
 6965SOL    HW121794   6.033   1.140   6.033
 6965SOL    HW221795   6.043   1.276   5.944
 6966SOL     OW21796   4.640   1.892   3.940
 6966SOL    HW121797   4.631   1.974   3.997
 6966SOL    HW221798   4.579   1.821   3.975
 6967SOL     OW21799   2.578   2.556   6.339
 6967SOL    HW121800   2.659   2.509   6.374
 6967SOL    HW221801   2.558   2.635   6.397
 6968SOL     OW21802   4.140   0.679   3.493
 6968SOL    HW121803   4.147   0.760   3.550
 6968SOL    HW221804   4.211   0.613   3.520
 6969SOL     OW21805   3.270   3.342   1.227
 6969SOL    HW121806   3.235   3.249   1.241
 6969SOL    HW221807   3.208   3.408   1.268
 6970SOL     OW21808   5.133   4.483   0.582
 6970SOL    HW121809   5.108   4.566   0.631
 6970SOL    HW221810   5.233   4.476   0.575
 6971SOL     OW21811   6.080   1.662   2.209
 6971SOL    HW121812   6.089   1.563   2.224
 6971SOL    HW221813   6.109   1.684   2.116
 6972SOL     OW21814   5.193   5.830   4.547
 6972SOL    HW121815   5.216   5.927   4.548
 6972SOL    HW221816   5.093   5.820   4.548
 6973SOL     OW21817   1.261   4.086   3.413
 6973SOL    HW121818   1.327   4.138   3.466
 6973SOL    HW221819   1.170   4.129   3.420
 6974SOL     OW21820   3.363   4.060   4.900
 6974SOL    HW121821   3.379   4.064   4.801
 6974SOL    HW221822   3.450   4.072   4.948
 6975SOL     OW21823   1.795   6.397   6.355
 6975SOL    HW121824   1.729   6.390   6.430
 6975SOL    HW221825   1.888   6.388   6.391
 6976SOL     OW21826   1.381   6.194   0.973
 6976SOL    HW121827   1.316   6.118   0.977
 6976SOL    HW221828   1.367   6.253   1.053
 6977SOL     OW21829   5.458   2.798   1.352
 6977SOL    HW121830   5.469   2.887   1.307
 6977SOL    HW221831   5.398   2.741   1.296
 6978SOL     OW21832   4.446   2.449   3.578
 6978SOL    HW121833   4.382   2.435   3.653
 6978SOL    HW221834   4.452   2.365   3.523
 6979SOL     OW21835   0.131   3.546   4.586
 6979SOL    HW121836   0.096   3.636   4.561
 6979SOL    HW221837   0.091   3.518   4.673
 6980SOL     OW21838   4.974   1.907   5.012
 6980SOL    HW121839   4.951   1.850   5.090
 6980SOL    HW221840   5.072   1.900   4.994
 6981SOL     OW21841   3.760   3.627   6.016
 6981SOL    HW121842   3.700   3.691   5.968
 6981SOL    HW221843   3.806   3.568   5.949
 6982SOL     OW21844   0.554   0.244   4.719
 6982SOL    HW121845   0.500   0.221   4.638
 6982SOL    HW221846   0.602   0.330   4.703
 6983SOL     OW21847   6.243   1.132   2.947
 6983SOL    HW121848   6.248   1.101   2.852
 6983SOL    HW221849   6.335   1.134   2.987
 6984SOL     OW21850   1.764   1.266   6.205
 6984SOL    HW121851   1.825   1.197   6.166
 6984SOL    HW221852   1.737   1.330   6.133
 6985SOL     OW21853   5.066   6.798   3.915
 6985SOL    HW121854   5.096   6.709   3.951
 6985SOL    HW221855   5.104   6.871   3.972
 6986SOL     OW21856   2.014   6.090   5.256
 6986SOL    HW121857   2.035   6.173   5.206
 6986SOL    HW221858   1.926   6.053   5.223
 6987SOL     OW21859   6.787   3.512   6.269
 6987SOL    HW121860   6.705   3.500   6.324
 6987SOL    HW221861   6.783   3.453   6.188
 6988SOL     OW21862   5.652   1.759   6.569
 6988SOL    HW121863   5.609   1.807   6.646
 6988SOL    HW221864   5.610   1.788   6.483
 6989SOL     OW21865   1.864   3.422   4.667
 6989SOL    HW121866   1.933   3.478   4.621
 6989SOL    HW221867   1.793   3.481   4.703
 6990SOL     OW21868   4.192   3.500   1.838
 6990SOL    HW121869   4.169   3.597   1.830
 6990SOL    HW221870   4.237   3.470   1.754
 6991SOL     OW21871   4.256   4.554   5.422
 6991SOL    HW121872   4.217   4.629   5.475
 6991SOL    HW221873   4.193   4.476   5.423
 6992SOL     OW21874   6.632   6.609   4.760
 6992SOL    HW121875   6.700   6.680   4.743
 6992SOL    HW221876   6.566   6.641   4.828
 6993SOL     OW21877   0.584   0.037   3.305
 6993SOL    HW121878   0.639   7.012   3.235
 6993SOL    HW221879   0.612   0.133   3.313
 6994SOL     OW21880   1.731   2.265   0.566
 6994SOL    HW121881   1.674   2.294   0.489
 6994SOL    HW221882   1.827   2.287   0.547
 6995SOL     OW21883   1.365   5.068   3.943
 6995SOL    HW121884   1.345   4.971   3.931
 6995SOL    HW221885   1.456   5.088   3.904
 6996SOL     OW21886   1.642   6.613   5.337
 6996SOL    HW121887   1.658   6.712   5.330
 6996SOL    HW221888   1.607   6.591   5.427
 6997SOL     OW21889   4.170   5.134   4.287
 6997SOL    HW121890   4.229   5.149   4.207
 6997SOL    HW221891   4.150   5.222   4.330
 6998SOL     OW21892   2.663   2.083   2.357
 6998SOL    HW121893   2.642   2.053   2.264
 6998SOL    HW221894   2.725   2.162   2.354
 6999SOL     OW21895   5.221   2.132   6.522
 6999SOL    HW121896   5.244   2.148   6.426
 6999SOL    HW221897   5.221   2.033   6.540
 7000SOL     OW21898   0.015   0.080   1.484
 7000SOL    HW121899   0.110   0.072   1.456
 7000SOL    HW221900   7.004   7.012   1.521
 7001SOL     OW21901   2.882   1.797   6.801
 7001SOL    HW121902   2.927   1.777   6.714
 7001SOL    HW221903   2.783   1.793   6.789
 7002SOL     OW21904   2.660   5.105   1.873
 7002SOL    HW121905   2.732   5.169   1.848
 7002SOL    HW221906   2.697   5.034   1.933
 7003SOL     OW21907   1.773   6.230   5.764
 7003SOL    HW121908   1.738   6.288   5.837
 7003SOL    HW221909   1.870   6.251   5.749
 7004SOL     OW21910   1.977   3.826   6.334
 7004SOL    HW121911   1.911   3.833   6.260
 7004SOL    HW221912   1.929   3.810   6.420
 7005SOL     OW21913   6.224   0.451   6.109
 7005SOL    HW121914   6.323   0.457   6.098
 7005SOL    HW221915   6.182   0.539   6.086
 7006SOL     OW21916   5.094   5.460   4.144
 7006SOL    HW121917   5.171   5.423   4.091
 7006SOL    HW221918   5.016   5.473   4.084
 7007SOL     OW21919   5.336   5.056   1.728
 7007SOL    HW121920   5.315   5.118   1.652
 7007SOL    HW221921   5.362   5.110   1.808
 7008SOL     OW21922   0.677   6.241   4.324
 7008SOL    HW121923   0.582   6.214   4.337
 7008SOL    HW221924   0.711   6.203   4.238
 7009SOL     OW21925   0.103   4.618   1.313
 7009SOL    HW121926   0.084   4.591   1.407
 7009SOL    HW221927   0.020   4.613   1.259
 7010SOL     OW21928   5.416   4.167   5.959
 7010SOL    HW121929   5.493   4.225   5.931
 7010SOL    HW221930   5.342   4.176   5.893
 7011SOL     OW21931   0.987   0.089   5.502
 7011SOL    HW121932   1.041   0.116   5.581
 7011SOL    HW221933   1.044   0.091   5.420
 7012SOL     OW21934   0.482   0.488   1.595
 7012SOL    HW121935   0.554   0.480   1.664
 7012SOL    HW221936   0.408   0.546   1.629
 7013SOL     OW21937   6.359   2.319   1.340
 7013SOL    HW121938   6.413   2.334   1.422
 7013SOL    HW221939   6.330   2.408   1.303
 7014SOL     OW21940   2.273   4.965   0.877
 7014SOL    HW121941   2.210   4.962   0.954
 7014SOL    HW221942   2.312   5.056   0.868
 7015SOL     OW21943   5.003   2.535   2.350
 7015SOL    HW121944   4.918   2.511   2.398
 7015SOL    HW221945   4.984   2.550   2.253
 7016SOL     OW21946   4.621   4.611   0.576
 7016SOL    HW121947   4.594   4.664   0.496
 7016SOL    HW221948   4.660   4.523   0.547
 7017SOL     OW21949   5.386   2.330   5.219
 7017SOL    HW121950   5.324   2.292   5.288
 7017SOL    HW221951   5.335   2.349   5.135
 7018SOL     OW21952   0.362   3.771   2.734
 7018SOL    HW121953   0.371   3.859   2.781
 7018SOL    HW221954   0.315   3.706   2.794
 7019SOL     OW21955   6.844   6.336   2.478
 7019SOL    HW121956   6.855   6.240   2.453
 7019SOL    HW221957   6.918   6.390   2.438
 7020SOL     OW21958   6.915   5.590   6.776
 7020SOL    HW121959   6.849   5.657   6.810
 7020SOL    HW221960   7.002   5.601   6.825
 7021SOL     OW21961   2.973   6.653   5.247
 7021SOL    HW121962   3.001   6.590   5.320
 7021SOL    HW221963   2.943   6.739   5.288
 7022SOL     OW21964   3.727   5.136   5.830
 7022SOL    HW121965   3.787   5.059   5.852
 7022SOL    HW221966   3.717   5.144   5.731
 7023SOL     OW21967   4.064   5.472   2.392
 7023SOL    HW121968   3.973   5.508   2.410
 7023SOL    HW221969   4.070   5.378   2.427
 7024SOL     OW21970   5.926   6.802   1.990
 7024SOL    HW121971   6.010   6.855   1.987
 7024SOL    HW221972   5.947   6.705   1.977
 7025SOL     OW21973   2.748   0.449   1.280
 7025SOL    HW121974   2.667   0.391   1.282
 7025SOL    HW221975   2.797   0.435   1.195
 7026SOL     OW21976   4.821   2.606   0.663
 7026SOL    HW121977   4.778   2.589   0.574
 7026SOL    HW221978   4.904   2.552   0.671
 7027SOL     OW21979   6.061   5.863   4.747
 7027SOL    HW121980   5.971   5.902   4.726
 7027SOL    HW221981   6.049   5.773   4.788
 7028SOL     OW21982   3.257   0.930   4.447
 7028SOL    HW121983   3.351   0.943   4.417
 7028SOL    HW221984   3.216   0.853   4.399
 7029SOL     OW21985   3.800   0.466   4.012
 7029SOL    HW121986   3.817   0.490   4.107
 7029SOL    HW221987   3.857   0.522   3.953
 7030SOL     OW21988   1.452   3.737   4.014
 7030SOL    HW121989   1.381   3.705   4.076
 7030SOL    HW221990   1.426   3.827   3.977
 7031SOL     OW21991   1.719   0.761   4.351
 7031SOL    HW121992   1.733   0.685   4.415
 7031SOL    HW221993   1.803   0.814   4.343
 7032SOL     OW21994   5.873   2.636   3.336
 7032SOL    HW121995   5.838   2.717   3.383
 7032SOL    HW221996   5.863   2.556   3.395
 7033SOL     OW21997   0.097   1.227   4.869
 7033SOL    HW121998   0.013   1.202   4.822
 7033SOL    HW221999   0.131   1.150   4.922
 7034SOL     OW22000   0.361   5.052   3.703
 7034SOL    HW122001   0.398   5.143   3.686
 7034SOL    HW222002   0.262   5.057   3.714
 7035SOL     OW22003   0.154   4.877   1.309
 7035SOL    HW122004   0.072   4.929   1.286
 7035SOL    HW222005   0.134   4.779   1.310
 7036SOL     OW22006   6.569   5.356   0.553
 7036SOL    HW122007   6.513   5.389   0.478
 7036SOL    HW222008   6.510   5.325   0.627
 7037SOL     OW22009   1.013   0.287   6.401
 7037SOL    HW122010   0.997   0.366   6.460
 7037SOL    HW222011   0.948   0.215   6.424
 7038SOL     OW22012   2.252   3.034   4.386
 7038SOL    HW122013   2.249   3.130   4.361
 7038SOL    HW222014   2.285   2.980   4.309
 7039SOL     OW22015   3.700   1.782   0.287
 7039SOL    HW122016   3.799   1.791   0.294
 7039SOL    HW222017   3.678   1.720   0.212
 7040SOL     OW22018   6.127   2.315   6.649
 7040SOL    HW122019   6.078   2.346   6.568
 7040SOL    HW222020   6.179   2.232   6.627
 7041SOL     OW22021   1.882   1.533   3.504
 7041SOL    HW122022   1.899   1.620   3.458
 7041SOL    HW222023   1.850   1.550   3.597
 7042SOL     OW22024   2.111   1.088   6.816
 7042SOL    HW122025   2.127   0.989   6.812
 7042SOL    HW222026   2.089   1.121   6.724
 7043SOL     OW22027   1.729   2.793   1.420
 7043SOL    HW122028   1.777   2.870   1.378
 7043SOL    HW222029   1.796   2.731   1.463
 7044SOL     OW22030   0.014   5.657   0.706
 7044SOL    HW122031   6.942   5.618   0.697
 7044SOL    HW222032   0.081   5.583   0.704
 7045SOL     OW22033   0.386   4.928   0.425
 7045SOL    HW122034   0.403   4.946   0.328
 7045SOL    HW222035   0.292   4.899   0.438
 7046SOL     OW22036   2.948   2.253   3.843
 7046SOL    HW122037   2.898   2.167   3.849
 7046SOL    HW222038   2.970   2.285   3.935
 7047SOL     OW22039   1.565   0.019   3.247
 7047SOL    HW122040   1.473   0.048   3.274
 7047SOL    HW222041   1.632   0.081   3.287
 7048SOL     OW22042   7.015   5.276   7.008
 7048SOL    HW122043   6.976   5.265   0.079
 7048SOL    HW222044   6.944   5.258   6.939
 7049SOL     OW22045   2.557   0.923   6.998
 7049SOL    HW122046   2.512   0.834   6.985
 7049SOL    HW222047   2.525   0.988   6.929
 7050SOL     OW22048   4.336   3.397   5.481
 7050SOL    HW122049   4.337   3.495   5.462
 7050SOL    HW222050   4.403   3.375   5.552
 7051SOL     OW22051   6.105   6.402   2.945
 7051SOL    HW122052   6.037   6.339   2.982
 7051SOL    HW222053   6.121   6.476   3.010
 7052SOL     OW22054   6.270   0.310   5.223
 7052SOL    HW122055   6.224   0.246   5.284
 7052SOL    HW222056   6.334   0.366   5.276
 7053SOL     OW22057   6.397   3.170   6.234
 7053SOL    HW122058   6.440   3.126   6.312
 7053SOL    HW222059   6.309   3.126   6.214
 7054SOL     OW22060   6.213   2.140   2.907
 7054SOL    HW122061   6.217   2.115   3.004
 7054SOL    HW222062   6.163   2.226   2.897
 7055SOL     OW22063   4.372   1.783   3.457
 7055SOL    HW122064   4.465   1.781   3.492
 7055SOL    HW222065   4.361   1.711   3.388
 7056SOL     OW22066   4.612   5.654   4.344
 7056SOL    HW122067   4.571   5.600   4.418
 7056SOL    HW222068   4.546   5.723   4.313
 7057SOL     OW22069   5.701   6.011   3.016
 7057SOL    HW122070   5.791   5.984   3.049
 7057SOL    HW222071   5.670   5.947   2.946
 7058SOL     OW22072   0.094   3.819   4.747
 7058SOL    HW122073   0.031   3.854   4.817
 7058SOL    HW222074   0.186   3.854   4.766
 7059SOL     OW22075   1.826   1.022   2.289
 7059SOL    HW122076   1.815   0.999   2.192
 7059SOL    HW222077   1.758   0.972   2.343
 7060SOL     OW22078   3.918   6.976   0.904
 7060SOL    HW122079   3.983   6.901   0.897
 7060SOL    HW222080   3.845   6.950   0.967
 7061SOL     OW22081   0.874   1.065   2.917
 7061SOL    HW122082   0.883   1.110   3.006
 7061SOL    HW222083   0.896   0.968   2.926
 7062SOL     OW22084   6.894   1.404   5.880
 7062SOL    HW122085   6.886   1.317   5.832
 7062SOL    HW222086   6.897   1.388   5.979
 7063SOL     OW22087   1.791   6.446   1.751
 7063SOL    HW122088   1.822   6.476   1.660
 7063SOL    HW222089   1.871   6.425   1.807
 7064SOL     OW22090   3.467   2.703   0.417
 7064SOL    HW122091   3.450   2.676   0.512
 7064SOL    HW222092   3.381   2.705   0.367
 7065SOL     OW22093   3.204   3.446   2.504
 7065SOL    HW122094   3.158   3.510   2.566
 7065SOL    HW222095   3.294   3.483   2.480
 7066SOL     OW22096   2.416   4.860   1.797
 7066SOL    HW122097   2.499   4.828   1.844
 7066SOL    HW222098   2.431   4.954   1.766
 7067SOL     OW22099   0.749   4.176   5.049
 7067SOL    HW122100   0.824   4.110   5.058
 7067SOL    HW222101   0.720   4.207   5.139
 7068SOL     OW22102   0.735   0.809   2.835
 7068SOL    HW122103   0.725   0.905   2.808
 7068SOL    HW222104   0.829   0.779   2.819
 7069SOL     OW22105   1.478   4.542   5.517
 7069SOL    HW122106   1.466   4.501   5.427
 7069SOL    HW222107   1.576   4.544   5.540
 7070SOL     OW22108   5.888   5.040   2.931
 7070SOL    HW122109   5.849   5.117   2.882
 7070SOL    HW222110   5.988   5.045   2.928
 7071SOL     OW22111   1.456   6.268   5.307
 7071SOL    HW122112   1.478   6.340   5.241
 7071SOL    HW222113   1.493   6.293   5.396
 7072SOL     OW22114   0.203   0.227   6.518
 7072SOL    HW122115   0.186   0.229   6.616
 7072SOL    HW222116   0.280   0.287   6.496
 7073SOL     OW22117   1.792   2.482   6.916
 7073SOL    HW122118   1.855   2.557   6.896
 7073SOL    HW222119   1.700   2.519   6.930
 7074SOL     OW22120   3.598   1.607   6.702
 7074SOL    HW122121   3.602   1.647   6.611
 7074SOL    HW222122   3.680   1.634   6.753
 7075SOL     OW22123   0.999   6.290   3.386
 7075SOL    HW122124   1.059   6.213   3.363
 7075SOL    HW222125   1.048   6.376   3.373
 7076SOL     OW22126   3.572   1.432   6.368
 7076SOL    HW122127   3.613   1.349   6.406
 7076SOL    HW222128   3.612   1.512   6.413
 7077SOL     OW22129   1.156   5.627   6.293
 7077SOL    HW122130   1.067   5.631   6.340
 7077SOL    HW222131   1.143   5.595   6.200
 7078SOL     OW22132   0.725   0.467   1.800
 7078SOL    HW122133   0.712   0.552   1.851
 7078SOL    HW222134   0.665   0.396   1.837
 7079SOL     OW22135   5.233   6.588   4.441
 7079SOL    HW122136   5.319   6.548   4.473
 7079SOL    HW222137   5.173   6.603   4.519
 7080SOL     OW22138   5.752   0.824   3.709
 7080SOL    HW122139   5.757   0.839   3.611
 7080SOL    HW222140   5.769   0.727   3.729
 7081SOL     OW22141   4.660   1.120   4.575
 7081SOL    HW122142   4.660   1.174   4.659
 7081SOL    HW222143   4.608   1.035   4.590
 7082SOL     OW22144   6.005   1.184   0.509
 7082SOL    HW122145   5.918   1.233   0.509
 7082SOL    HW222146   5.991   1.092   0.544
 7083SOL     OW22147   4.033   0.372   5.227
 7083SOL    HW122148   4.075   0.317   5.155
 7083SOL    HW222149   3.961   0.320   5.272
 7084SOL     OW22150   6.024   5.626   0.343
 7084SOL    HW122151   5.942   5.667   0.303
 7084SOL    HW222152   6.103   5.644   0.284
 7085SOL     OW22153   4.816   1.585   1.571
 7085SOL    HW122154   4.907   1.598   1.611
 7085SOL    HW222155   4.783   1.672   1.535
 7086SOL     OW22156   1.180   0.988   6.031
 7086SOL    HW122157   1.120   0.934   6.091
 7086SOL    HW222158   1.274   0.984   6.065
 7087SOL     OW22159   2.248   2.455   4.607
 7087SOL    HW122160   2.292   2.440   4.695
 7087SOL    HW222161   2.220   2.551   4.601
 7088SOL     OW22162   0.010   1.901   4.439
 7088SOL    HW122163   7.010   1.892   4.342
 7088SOL    HW222164   0.060   1.987   4.455
 7089SOL     OW22165   2.944   1.937   1.791
 7089SOL    HW122166   2.954   2.035   1.773
 7089SOL    HW222167   2.996   1.885   1.723
 7090SOL     OW22168   3.198   1.092   5.038
 7090SOL    HW122169   3.258   1.107   5.116
 7090SOL    HW222170   3.250   1.050   4.963
 7091SOL     OW22171   6.579   5.893   0.323
 7091SOL    HW122172   6.592   5.992   0.335
 7091SOL    HW222173   6.597   5.868   0.228
 7092SOL     OW22174   3.694   2.206   0.468
 7092SOL    HW122175   3.664   2.111   0.458
 7092SOL    HW222176   3.615   2.267   0.455
 7093SOL     OW22177   3.912   3.092   6.247
 7093SOL    HW122178   3.840   3.033   6.210
 7093SOL    HW222179   3.871   3.175   6.285
 7094SOL     OW22180   6.245   0.819   6.453
 7094SOL    HW122181   6.320   0.878   6.424
 7094SOL    HW222182   6.276   0.723   6.450
 7095SOL     OW22183   1.187   4.219   1.320
 7095SOL    HW122184   1.193   4.177   1.411
 7095SOL    HW222185   1.102   4.271   1.313
 7096SOL     OW22186   3.783   6.802   3.240
 7096SOL    HW122187   3.815   6.880   3.185
 7096SOL    HW222188   3.739   6.736   3.180
 7097SOL     OW22189   1.702   1.594   1.509
 7097SOL    HW122190   1.692   1.694   1.500
 7097SOL    HW222191   1.661   1.550   1.429
 7098SOL     OW22192   1.141   0.344   6.140
 7098SOL    HW122193   1.237   0.362   6.162
 7098SOL    HW222194   1.096   0.300   6.218
 7099SOL     OW22195   6.874   1.414   5.134
 7099SOL    HW122196   6.939   1.352   5.178
 7099SOL    HW222197   6.921   1.470   5.066
 7100SOL     OW22198   5.573   1.799   1.131
 7100SOL    HW122199   5.484   1.797   1.085
 7100SOL    HW222200   5.644   1.769   1.067
 7101SOL     OW22201   1.518   0.768   4.861
 7101SOL    HW122202   1.587   0.704   4.896
 7101SOL    HW222203   1.532   0.783   4.763
 7102SOL     OW22204   4.416   2.509   0.845
 7102SOL    HW122205   4.336   2.508   0.904
 7102SOL    HW222206   4.485   2.570   0.883
 7103SOL     OW22207   2.162   6.894   6.006
 7103SOL    HW122208   2.140   6.882   6.103
 7103SOL    HW222209   2.205   6.982   5.991
 7104SOL     OW22210   0.502   3.360   1.345
 7104SOL    HW122211   0.498   3.365   1.445
 7104SOL    HW222212   0.419   3.399   1.307
 7105SOL     OW22213   2.103   2.681   5.235
 7105SOL    HW122214   2.059   2.736   5.164
 7105SOL    HW222215   2.202   2.682   5.221
 7106SOL     OW22216   3.130   2.995   5.108
 7106SOL    HW122217   3.080   3.077   5.081
 7106SOL    HW222218   3.078   2.946   5.178
 7107SOL     OW22219   1.689   1.475   0.044
 7107SOL    HW122220   1.611   1.519   0.001
 7107SOL    HW222221   1.686   1.376   0.027
 7108SOL     OW22222   4.735   6.910   2.021
 7108SOL    HW122223   4.689   6.876   1.939
 7108SOL    HW222224   4.816   6.963   1.995
 7109SOL     OW22225   4.616   6.015   6.715
 7109SOL    HW122226   4.648   5.985   6.625
 7109SOL    HW222227   4.525   6.055   6.706
 7110SOL     OW22228   3.532   4.877   4.153
 7110SOL    HW122229   3.550   4.872   4.251
 7110SOL    HW222230   3.519   4.784   4.117
 7111SOL     OW22231   1.148   2.769   3.511
 7111SOL    HW122232   1.183   2.812   3.427
 7111SOL    HW222233   1.156   2.833   3.587
 7112SOL     OW22234   1.765   6.184   3.174
 7112SOL    HW122235   1.717   6.192   3.261
 7112SOL    HW222236   1.774   6.088   3.149
 7113SOL     OW22237   3.761   4.024   5.904
 7113SOL    HW122238   3.740   3.929   5.880
 7113SOL    HW222239   3.677   4.077   5.910
 7114SOL     OW22240   3.621   6.468   1.204
 7114SOL    HW122241   3.619   6.561   1.242
 7114SOL    HW222242   3.688   6.413   1.255
 7115SOL     OW22243   3.997   2.739   1.295
 7115SOL    HW122244   3.951   2.784   1.219
 7115SOL    HW222245   3.959   2.772   1.382
 7116SOL     OW22246   6.145   4.431   3.809
 7116SOL    HW122247   6.135   4.459   3.713
 7116SOL    HW222248   6.228   4.377   3.820
 7117SOL     OW22249   5.234   6.854   2.453
 7117SOL    HW122250   5.148   6.844   2.502
 7117SOL    HW222251   5.259   6.950   2.447
 7118SOL     OW22252   6.696   3.603   3.881
 7118SOL    HW122253   6.741   3.528   3.833
 7118SOL    HW222254   6.686   3.681   3.819
 7119SOL     OW22255   0.535   2.192   2.383
 7119SOL    HW122256   0.509   2.285   2.410
 7119SOL    HW222257   0.512   2.179   2.286
 7120SOL     OW22258   4.683   6.226   4.031
 7120SOL    HW122259   4.736   6.191   4.108
 7120SOL    HW222260   4.682   6.326   4.033
 7121SOL     OW22261   1.911   6.475   1.228
 7121SOL    HW122262   1.818   6.471   1.192
 7121SOL    HW222263   1.970   6.521   1.161
 7122SOL     OW22264   7.010   5.989   0.519
 7122SOL    HW122265   6.996   6.043   0.435
 7122SOL    HW222266   0.077   5.941   0.513
 7123SOL     OW22267   2.989   4.894   0.837
 7123SOL    HW122268   2.933   4.858   0.762
 7123SOL    HW222269   3.026   4.983   0.811
 7124SOL     OW22270   0.310   5.743   6.573
 7124SOL    HW122271   0.252   5.817   6.606
 7124SOL    HW222272   0.293   5.660   6.627
 7125SOL     OW22273   1.348   5.929   3.301
 7125SOL    HW122274   1.311   6.009   3.254
 7125SOL    HW222275   1.420   5.958   3.364
 7126SOL     OW22276   1.682   3.816   1.427
 7126SOL    HW122277   1.627   3.757   1.369
 7126SOL    HW222278   1.762   3.848   1.376
 7127SOL     OW22279   2.073   0.554   5.098
 7127SOL    HW122280   2.068   0.476   5.036
 7127SOL    HW222281   1.992   0.611   5.085
 7128SOL     OW22282   3.407   3.232   2.725
 7128SOL    HW122283   3.328   3.280   2.686
 7128SOL    HW222284   3.408   3.137   2.694
 7129SOL     OW22285   3.402   2.156   0.774
 7129SOL    HW122286   3.501   2.167   0.787
 7129SOL    HW222287   3.361   2.120   0.857
 7130SOL     OW22288   1.845   0.604   2.993
 7130SOL    HW122289   1.818   0.514   3.027
 7130SOL    HW222290   1.899   0.652   3.063
 7131SOL     OW22291   2.450   1.173   3.515
 7131SOL    HW122292   2.406   1.129   3.436
 7131SOL    HW222293   2.491   1.103   3.573
 7132SOL     OW22294   2.857   3.438   2.569
 7132SOL    HW122295   2.834   3.357   2.516
 7132SOL    HW222296   2.856   3.519   2.510
 7133SOL     OW22297   6.565   3.993   1.463
 7133SOL    HW122298   6.616   3.976   1.548
 7133SOL    HW222299   6.564   4.091   1.444
 7134SOL     OW22300   4.521   4.465   2.265
 7134SOL    HW122301   4.604   4.432   2.309
 7134SOL    HW222302   4.483   4.393   2.206
 7135SOL     OW22303   0.432   1.655   5.724
 7135SOL    HW122304   0.500   1.591   5.689
 7135SOL    HW222305   0.341   1.616   5.714
 7136SOL     OW22306   1.589   1.955   6.696
 7136SOL    HW122307   1.509   2.015   6.704
 7136SOL    HW222308   1.594   1.919   6.603
 7137SOL     OW22309   5.364   1.852   4.684
 7137SOL    HW122310   5.439   1.786   4.682
 7137SOL    HW222311   5.389   1.934   4.633
 7138SOL     OW22312   2.049   1.908   6.741
 7138SOL    HW122313   2.047   2.003   6.709
 7138SOL    HW222314   2.098   1.851   6.675
 7139SOL     OW22315   2.386   2.036   0.446
 7139SOL    HW122316   2.465   2.027   0.385
 7139SOL    HW222317   2.390   1.965   0.517
 7140SOL     OW22318   6.599   4.714   4.342
 7140SOL    HW122319   6.590   4.658   4.260
 7140SOL    HW222320   6.529   4.688   4.409
 7141SOL     OW22321   0.523   0.059   2.282
 7141SOL    HW122322   0.498   6.988   2.250
 7141SOL    HW222323   0.607   0.089   2.236
 7142SOL     OW22324   3.632   6.166   3.768
 7142SOL    HW122325   3.535   6.192   3.771
 7142SOL    HW222326   3.664   6.167   3.673
 7143SOL     OW22327   1.736   2.550   3.716
 7143SOL    HW122328   1.662   2.593   3.664
 7143SOL    HW222329   1.722   2.451   3.719
 7144SOL     OW22330   1.568   3.532   3.886
 7144SOL    HW122331   1.531   3.617   3.923
 7144SOL    HW222332   1.665   3.525   3.909
 7145SOL     OW22333   3.783   5.405   6.873
 7145SOL    HW122334   3.767   5.388   6.776
 7145SOL    HW222335   3.878   5.382   6.896
 7146SOL     OW22336   3.465   5.003   1.687
 7146SOL    HW122337   3.443   4.976   1.593
 7146SOL    HW222338   3.398   5.070   1.718
 7147SOL     OW22339   0.818   1.061   3.627
 7147SOL    HW122340   0.831   1.137   3.563
 7147SOL    HW222341   0.794   0.979   3.576
 7148SOL     OW22342   6.585   1.767   0.319
 7148SOL    HW122343   6.647   1.689   0.309
 7148SOL    HW222344   6.530   1.776   0.236
 7149SOL     OW22345   1.066   0.591   4.824
 7149SOL    HW122346   1.033   0.615   4.732
 7149SOL    HW222347   1.151   0.639   4.842
 7150SOL     OW22348   5.821   2.881   5.741
 7150SOL    HW122349   5.743   2.895   5.802
 7150SOL    HW222350   5.902   2.926   5.780
 7151SOL     OW22351   1.592   0.380   0.086
 7151SOL    HW122352   1.572   0.476   0.104
 7151SOL    HW222353   1.655   0.373   0.009
 7152SOL     OW22354   1.250   2.317   5.091
 7152SOL    HW122355   1.239   2.319   5.191
 7152SOL    HW222356   1.174   2.366   5.049
 7153SOL     OW22357   4.382   2.172   2.969
 7153SOL    HW122358   4.398   2.087   2.919
 7153SOL    HW222359   4.381   2.248   2.905
 7154SOL     OW22360   3.282   6.777   4.715
 7154SOL    HW122361   3.260   6.720   4.636
 7154SOL    HW222362   3.378   6.805   4.710
 7155SOL     OW22363   2.494   1.322   4.028
 7155SOL    HW122364   2.493   1.392   3.956
 7155SOL    HW222365   2.532   1.237   3.992
 7156SOL     OW22366   2.361   5.702   5.321
 7156SOL    HW122367   2.385   5.605   5.311
 7156SOL    HW222368   2.295   5.712   5.396
 7157SOL     OW22369   5.317   4.863   0.209
 7157SOL    HW122370   5.335   4.886   0.304
 7157SOL    HW222371   5.262   4.934   0.166
 7158SOL     OW22372   3.892   0.586   3.395
 7158SOL    HW122373   3.974   0.621   3.441
 7158SOL    HW222374   3.919   0.541   3.310
 7159SOL     OW22375   1.466   6.236   0.084
 7159SOL    HW122376   1.514   6.323   0.074
 7159SOL    HW222377   1.422   6.233   0.174
 7160SOL     OW22378   6.904   0.885   2.280
 7160SOL    HW122379   6.940   0.865   2.371
 7160SOL    HW222380   6.915   0.805   2.221
 7161SOL     OW22381   3.099   3.973   4.882
 7161SOL    HW122382   3.040   3.981   4.963
 7161SOL    HW222383   3.192   3.999   4.906
 7162SOL     OW22384   3.373   5.005   3.977
 7162SOL    HW122385   3.397   5.102   3.974
 7162SOL    HW222386   3.405   4.966   4.063
 7163SOL     OW22387   1.175   6.175   3.662
 7163SOL    HW122388   1.217   6.220   3.583
 7163SOL    HW222389   1.117   6.240   3.711
 7164SOL     OW22390   3.653   1.587   4.481
 7164SOL    HW122391   3.692   1.679   4.493
 7164SOL    HW222392   3.647   1.542   4.570
 7165SOL     OW22393   4.210   5.246   1.950
 7165SOL    HW122394   4.118   5.266   1.983
 7165SOL    HW222395   4.249   5.328   1.908
 7166SOL     OW22396   3.389   6.560   2.513
 7166SOL    HW122397   3.437   6.582   2.429
 7166SOL    HW222398   3.383   6.641   2.571
 7167SOL     OW22399   5.688   3.402   0.833
 7167SOL    HW122400   5.652   3.481   0.785
 7167SOL    HW222401   5.741   3.345   0.770
 7168SOL     OW22402   6.946   1.340   4.252
 7168SOL    HW122403   7.001   1.356   4.334
 7168SOL    HW222404   6.895   1.423   4.228
 7169SOL     OW22405   2.570   2.677   6.819
 7169SOL    HW122406   2.668   2.658   6.810
 7169SOL    HW222407   2.553   2.727   6.904
 7170SOL     OW22408   4.899   3.595   4.070
 7170SOL    HW122409   4.895   3.555   4.162
 7170SOL    HW222410   4.912   3.694   4.078
 7171SOL     OW22411   3.937   3.691   5.430
 7171SOL    HW122412   4.013   3.730   5.481
 7171SOL    HW222413   3.852   3.734   5.459
 7172SOL     OW22414   5.950   5.861   1.191
 7172SOL    HW122415   5.895   5.929   1.240
 7172SOL    HW222416   6.047   5.883   1.202
 7173SOL     OW22417   6.905   6.298   4.452
 7173SOL    HW122418   6.899   6.394   4.425
 7173SOL    HW222419   6.967   6.249   4.391
 7174SOL     OW22420   1.038   6.035   5.986
 7174SOL    HW122421   1.035   6.037   5.886
 7174SOL    HW222422   1.109   6.098   6.017
 7175SOL     OW22423   6.376   3.699   5.345
 7175SOL    HW122424   6.365   3.700   5.245
 7175SOL    HW222425   6.295   3.657   5.386
 7176SOL     OW22426   1.059   3.561   0.990
 7176SOL    HW122427   1.002   3.601   0.918
 7176SOL    HW222428   1.062   3.622   1.069
 7177SOL     OW22429   0.864   5.138   1.264
 7177SOL    HW122430   0.842   5.060   1.322
 7177SOL    HW222431   0.879   5.219   1.321
 7178SOL     OW22432   6.351   0.355   6.627
 7178SOL    HW122433   6.347   0.392   6.534
 7178SOL    HW222434   6.365   0.256   6.622
 7179SOL     OW22435   0.461   3.700   5.502
 7179SOL    HW122436   0.492   3.761   5.429
 7179SOL    HW222437   0.392   3.637   5.465
 7180SOL     OW22438   6.948   0.662   2.131
 7180SOL    HW122439   7.017   0.622   2.191
 7180SOL    HW222440   6.886   0.590   2.098
 7181SOL     OW22441   5.526   5.930   2.481
 7181SOL    HW122442   5.553   5.963   2.572
 7181SOL    HW222443   5.440   5.974   2.454
 7182SOL     OW22444   4.265   3.522   6.204
 7182SOL    HW122445   4.359   3.540   6.177
 7182SOL    HW222446   4.233   3.438   6.160
 7183SOL     OW22447   2.339   2.772   3.006
 7183SOL    HW122448   2.386   2.762   2.918
 7183SOL    HW222449   2.388   2.720   3.076
 7184SOL     OW22450   2.020   5.235   3.206
 7184SOL    HW122451   1.978   5.322   3.180
 7184SOL    HW222452   2.104   5.222   3.154
 7185SOL     OW22453   5.105   2.621   6.622
 7185SOL    HW122454   5.013   2.634   6.659
 7185SOL    HW222455   5.164   2.585   6.694
 7186SOL     OW22456   1.029   6.638   4.452
 7186SOL    HW122457   0.984   6.691   4.524
 7186SOL    HW222458   0.964   6.575   4.410
 7187SOL     OW22459   1.808   5.100   1.464
 7187SOL    HW122460   1.869   5.023   1.480
 7187SOL    HW222461   1.847   5.182   1.506
 7188SOL     OW22462   4.959   0.684   1.574
 7188SOL    HW122463   4.945   0.652   1.668
 7188SOL    HW222464   4.873   0.719   1.537
 7189SOL     OW22465   5.748   0.628   5.747
 7189SOL    HW122466   5.690   0.710   5.742
 7189SOL    HW222467   5.843   0.653   5.735
 7190SOL     OW22468   4.874   5.241   2.578
 7190SOL    HW122469   4.931   5.322   2.594
 7190SOL    HW222470   4.788   5.270   2.536
 7191SOL     OW22471   0.535   3.093   1.270
 7191SOL    HW122472   0.577   3.110   1.181
 7191SOL    HW222473   0.517   3.181   1.315
 7192SOL     OW22474   3.001   4.160   5.884
 7192SOL    HW122475   3.043   4.201   5.803
 7192SOL    HW222476   3.030   4.210   5.966
 7193SOL     OW22477   5.980   1.949   4.976
 7193SOL    HW122478   6.028   1.920   4.893
 7193SOL    HW222479   5.936   2.038   4.960
 7194SOL     OW22480   3.127   0.986   2.099
 7194SOL    HW122481   3.074   0.942   2.171
 7194SOL    HW222482   3.200   1.041   2.139
 7195SOL     OW22483   0.520   0.182   2.999
 7195SOL    HW122484   0.509   0.085   3.024
 7195SOL    HW222485   0.436   0.232   3.021
 7196SOL     OW22486   3.809   3.967   1.777
 7196SOL    HW122487   3.870   4.045   1.765
 7196SOL    HW222488   3.759   3.977   1.864
 7197SOL     OW22489   1.943   0.917   4.293
 7197SOL    HW122490   2.001   0.989   4.254
 7197SOL    HW222491   1.968   0.902   4.389
 7198SOL     OW22492   0.252   0.300   5.636
 7198SOL    HW122493   0.248   0.320   5.734
 7198SOL    HW222494   0.293   0.210   5.622
 7199SOL     OW22495   6.292   5.678   2.073
 7199SOL    HW122496   6.326   5.602   2.018
 7199SOL    HW222497   6.350   5.758   2.059
 7200SOL     OW22498   1.246   2.245   2.359
 7200SOL    HW122499   1.260   2.181   2.435
 7200SOL    HW222500   1.332   2.258   2.310
 7201SOL     OW22501   1.725   4.229   3.789
 7201SOL    HW122502   1.766   4.256   3.876
 7201SOL    HW222503   1.717   4.130   3.785
 7202SOL     OW22504   2.654   6.862   6.159
 7202SOL    HW122505   2.605   6.942   6.124
 7202SOL    HW222506   2.587   6.798   6.199
 7203SOL     OW22507   5.524   0.337   0.371
 7203SOL    HW122508   5.555   0.431   0.359
 7203SOL    HW222509   5.427   0.337   0.395
 7204SOL     OW22510   0.236   2.862   2.726
 7204SOL    HW122511   0.182   2.831   2.805
 7204SOL    HW222512   0.288   2.944   2.752
 7205SOL     OW22513   1.006   3.877   1.539
 7205SOL    HW122514   0.972   3.964   1.502
 7205SOL    HW222515   0.937   3.806   1.526
 7206SOL     OW22516   6.274   1.059   1.546
 7206SOL    HW122517   6.305   1.010   1.628
 7206SOL    HW222518   6.192   1.015   1.509
 7207SOL     OW22519   4.055   0.043   1.358
 7207SOL    HW122520   4.017   6.989   1.413
 7207SOL    HW222521   4.083   0.118   1.418
 7208SOL     OW22522   2.398   0.601   5.126
 7208SOL    HW122523   2.397   0.701   5.116
 7208SOL    HW222524   2.317   0.572   5.176
 7209SOL     OW22525   3.158   3.682   5.419
 7209SOL    HW122526   3.060   3.699   5.430
 7209SOL    HW222527   3.196   3.745   5.352
 7210SOL     OW22528   4.728   0.003   4.313
 7210SOL    HW122529   4.745   0.048   4.225
 7210SOL    HW222530   4.693   6.931   4.297
 7211SOL     OW22531   0.951   5.103   2.476
 7211SOL    HW122532   0.964   5.173   2.547
 7211SOL    HW222533   1.027   5.108   2.411
 7212SOL     OW22534   5.555   0.036   3.256
 7212SOL    HW122535   5.543   7.013   3.345
 7212SOL    HW222536   5.611   6.998   3.197
 7213SOL     OW22537   5.898   6.332   5.711
 7213SOL    HW122538   5.823   6.358   5.772
 7213SOL    HW222539   5.873   6.248   5.662
 7214SOL     OW22540   1.367   5.019   5.967
 7214SOL    HW122541   1.459   5.025   5.927
 7214SOL    HW222542   1.374   5.000   6.065
 7215SOL     OW22543   1.097   3.078   1.281
 7215SOL    HW122544   1.174   3.023   1.314
 7215SOL    HW222545   1.130   3.170   1.259
 7216SOL     OW22546   2.872   1.658   2.698
 7216SOL    HW122547   2.873   1.586   2.767
 7216SOL    HW222548   2.820   1.736   2.732
 7217SOL     OW22549   0.136   3.495   1.833
 7217SOL    HW122550   0.085   3.491   1.747
 7217SOL    HW222551   0.073   3.513   1.909
 7218SOL     OW22552   6.179   3.108   3.968
 7218SOL    HW122553   6.122   3.089   3.888
 7218SOL    HW222554   6.244   3.033   3.981
 7219SOL     OW22555   2.476   1.337   1.596
 7219SOL    HW122556   2.411   1.268   1.627
 7219SOL    HW222557   2.533   1.366   1.674
 7220SOL     OW22558   6.997   1.734   3.189
 7220SOL    HW122559   6.919   1.769   3.137
 7220SOL    HW222560   0.040   1.688   3.126
 7221SOL     OW22561   6.848   3.973   4.690
 7221SOL    HW122562   6.805   4.037   4.754
 7221SOL    HW222563   6.779   3.908   4.658
 7222SOL     OW22564   6.581   0.144   2.810
 7222SOL    HW122565   6.665   0.102   2.842
 7222SOL    HW222566   6.532   0.184   2.888
 7223SOL     OW22567   4.797   1.507   4.462
 7223SOL    HW122568   4.864   1.463   4.522
 7223SOL    HW222569   4.750   1.438   4.408
 7224SOL     OW22570   5.605   1.699   3.391
 7224SOL    HW122571   5.561   1.642   3.461
 7224SOL    HW222572   5.592   1.796   3.414
 7225SOL     OW22573   2.932   0.481   1.658
 7225SOL    HW122574   2.944   0.523   1.568
 7225SOL    HW222575   2.989   0.399   1.664
 7226SOL     OW22576   5.826   6.746   5.290
 7226SOL    HW122577   5.776   6.826   5.322
 7226SOL    HW222578   5.838   6.752   5.190
 7227SOL     OW22579   0.165   3.374   5.600
 7227SOL    HW122580   0.208   3.314   5.533
 7227SOL    HW222581   0.151   3.324   5.685
 7228SOL     OW22582   1.925   0.208   2.760
 7228SOL    HW122583   1.897   0.291   2.711
 7228SOL    HW222584   1.985   0.233   2.836
 7229SOL     OW22585   6.915   0.073   3.436
 7229SOL    HW122586   6.910   7.013   3.496
 7229SOL    HW222587   6.999   0.123   3.455
 7230SOL     OW22588   6.421   5.404   1.090
 7230SOL    HW122589   6.413   5.501   1.113
 7230SOL    HW222590   6.432   5.350   1.173
 7231SOL     OW22591   5.697   0.669   0.041
 7231SOL    HW122592   5.776   0.628   0.086
 7231SOL    HW222593   5.675   0.617   6.978
 7232SOL     OW22594   3.154   4.031   0.723
 7232SOL    HW122595   3.228   3.964   0.729
 7232SOL    HW222596   3.072   3.994   0.765
 7233SOL     OW22597   0.909   2.047   5.753
 7233SOL    HW122598   0.850   2.084   5.682
 7233SOL    HW222599   0.965   2.120   5.792
 7234SOL     OW22600   5.163   2.582   4.244
 7234SOL    HW122601   5.099   2.506   4.230
 7234SOL    HW222602   5.201   2.611   4.156
 7235SOL     OW22603   5.998   2.806   4.750
 7235SOL    HW122604   5.980   2.778   4.656
 7235SOL    HW222605   5.989   2.905   4.757
 7236SOL     OW22606   1.126   1.447   3.353
 7236SOL    HW122607   1.130   1.411   3.446
 7236SOL    HW222608   1.185   1.393   3.293
 7237SOL     OW22609   5.940   5.935   5.151
 7237SOL    HW122610   5.921   5.854   5.207
 7237SOL    HW222611   6.036   5.936   5.125
 7238SOL     OW22612   1.499   0.094   2.605
 7238SOL    HW122613   1.512   0.119   2.701
 7238SOL    HW222614   1.581   0.046   2.573
 7239SOL     OW22615   4.638   2.178   2.339
 7239SOL    HW122616   4.555   2.211   2.384
 7239SOL    HW222617   4.713   2.176   2.405
 7240SOL     OW22618   3.465   3.275   3.503
 7240SOL    HW122619   3.446   3.319   3.591
 7240SOL    HW222620   3.380   3.236   3.467
 7241SOL     OW22621   4.318   0.350   4.817
 7241SOL    HW122622   4.336   0.448   4.821
 7241SOL    HW222623   4.223   0.334   4.790
 7242SOL     OW22624   6.329   5.904   0.412
 7242SOL    HW122625   6.414   5.900   0.360
 7242SOL    HW222626   6.333   5.981   0.475
 7243SOL     OW22627   0.764   5.865   1.056
 7243SOL    HW122628   0.818   5.945   1.080
 7243SOL    HW222629   0.768   5.850   0.958
 7244SOL     OW22630   5.421   1.833   1.600
 7244SOL    HW122631   5.387   1.923   1.625
 7244SOL    HW222632   5.520   1.830   1.611
 7245SOL     OW22633   5.864   2.061   3.466
 7245SOL    HW122634   5.956   2.100   3.471
 7245SOL    HW222635   5.861   1.976   3.520
 7246SOL     OW22636   0.800   5.592   5.420
 7246SOL    HW122637   0.869   5.523   5.399
 7246SOL    HW222638   0.721   5.582   5.360
 7247SOL     OW22639   3.882   5.425   4.221
 7247SOL    HW122640   3.897   5.494   4.292
 7247SOL    HW222641   3.811   5.455   4.159
 7248SOL     OW22642   3.426   1.034   4.887
 7248SOL    HW122643   3.453   0.954   4.941
 7248SOL    HW222644   3.467   1.116   4.927
 7249SOL     OW22645   4.642   2.965   6.336
 7249SOL    HW122646   4.549   2.946   6.305
 7249SOL    HW222647   4.683   2.880   6.370
 7250SOL     OW22648   3.149   3.105   0.117
 7250SOL    HW122649   3.062   3.105   0.167
 7250SOL    HW222650   3.139   3.051   0.034
 7251SOL     OW22651   5.700   1.318   5.683
 7251SOL    HW122652   5.710   1.417   5.672
 7251SOL    HW222653   5.709   1.274   5.594
 7252SOL     OW22654   4.770   3.433   5.398
 7252SOL    HW122655   4.715   3.438   5.314
 7252SOL    HW222656   4.725   3.372   5.463
 7253SOL     OW22657   5.174   4.889   6.721
 7253SOL    HW122658   5.227   4.882   6.806
 7253SOL    HW222659   5.080   4.860   6.739
 7254SOL     OW22660   5.413   6.133   5.124
 7254SOL    HW122661   5.467   6.213   5.097
 7254SOL    HW222662   5.415   6.123   5.223
 7255SOL     OW22663   3.553   3.269   3.131
 7255SOL    HW122664   3.498   3.345   3.166
 7255SOL    HW222665   3.498   3.214   3.068
 7256SOL     OW22666   3.036   5.866   3.651
 7256SOL    HW122667   3.016   5.923   3.731
 7256SOL    HW222668   2.979   5.894   3.574
 7257SOL     OW22669   6.137   5.470   2.456
 7257SOL    HW122670   6.111   5.390   2.509
 7257SOL    HW222671   6.124   5.553   2.511
 7258SOL     OW22672   3.015   0.609   6.463
 7258SOL    HW122673   3.021   0.509   6.461
 7258SOL    HW222674   3.104   0.647   6.484
 7259SOL     OW22675   3.429   4.451   5.890
 7259SOL    HW122676   3.493   4.526   5.909
 7259SOL    HW222677   3.338   4.488   5.871
 7260SOL     OW22678   4.083   2.246   2.656
 7260SOL    HW122679   4.132   2.159   2.656
 7260SOL    HW222680   4.062   2.273   2.562
 7261SOL     OW22681   2.431   4.843   1.327
 7261SOL    HW122682   2.433   4.776   1.401
 7261SOL    HW222683   2.523   4.877   1.311
 7262SOL     OW22684   5.911   0.424   4.628
 7262SOL    HW122685   5.827   0.475   4.609
 7262SOL    HW222686   5.890   0.349   4.691
 7263SOL     OW22687   5.238   5.312   1.266
 7263SOL    HW122688   5.334   5.341   1.262
 7263SOL    HW222689   5.224   5.234   1.207
 7264SOL     OW22690   0.068   6.910   4.591
 7264SOL    HW122691   0.003   6.878   4.660
 7264SOL    HW222692   0.160   6.916   4.632
 7265SOL     OW22693   4.489   2.649   6.909
 7265SOL    HW122694   4.404   2.616   6.869
 7265SOL    HW222695   4.493   2.748   6.902
 7266SOL     OW22696   4.146   1.696   2.903
 7266SOL    HW122697   4.167   1.685   2.805
 7266SOL    HW222698   4.110   1.787   2.919
 7267SOL     OW22699   5.074   2.061   3.958
 7267SOL    HW122700   5.044   2.017   3.874
 7267SOL    HW222701   5.092   1.992   4.028
 7268SOL     OW22702   4.220   6.320   0.154
 7268SOL    HW122703   4.152   6.301   0.226
 7268SOL    HW222704   4.312   6.309   0.192
 7269SOL     OW22705   1.684   0.065   2.838
 7269SOL    HW122706   1.712   0.052   2.933
 7269SOL    HW222707   1.737   0.139   2.798
 7270SOL     OW22708   3.186   2.440   1.626
 7270SOL    HW122709   3.277   2.479   1.633
 7270SOL    HW222710   3.193   2.343   1.604
 7271SOL     OW22711   5.884   5.407   3.556
 7271SOL    HW122712   5.914   5.340   3.624
 7271SOL    HW222713   5.813   5.465   3.595
 7272SOL     OW22714   5.764   1.291   1.847
 7272SOL    HW122715   5.785   1.245   1.933
 7272SOL    HW222716   5.666   1.283   1.828
 7273SOL     OW22717   6.132   5.337   4.853
 7273SOL    HW122718   6.132   5.333   4.953
 7273SOL    HW222719   6.212   5.289   4.817
 7274SOL     OW22720   5.813   4.930   3.484
 7274SOL    HW122721   5.809   4.840   3.526
 7274SOL    HW222722   5.721   4.960   3.459
 7275SOL     OW22723   6.139   6.793   2.398
 7275SOL    HW122724   6.107   6.718   2.340
 7275SOL    HW222725   6.165   6.871   2.341
 7276SOL     OW22726   4.078   1.959   2.893
 7276SOL    HW122727   3.986   1.926   2.875
 7276SOL    HW222728   4.077   2.059   2.902
 7277SOL     OW22729   5.719   2.624   3.781
 7277SOL    HW122730   5.640   2.643   3.722
 7277SOL    HW222731   5.729   2.698   3.848
 7278SOL     OW22732   3.575   1.066   3.245
 7278SOL    HW122733   3.538   1.141   3.300
 7278SOL    HW222734   3.675   1.064   3.254
 7279SOL     OW22735   3.547   3.838   2.087
 7279SOL    HW122736   3.593   3.757   2.125
 7279SOL    HW222737   3.458   3.850   2.132
 7280SOL     OW22738   6.827   1.639   5.762
 7280SOL    HW122739   6.729   1.644   5.777
 7280SOL    HW222740   6.863   1.557   5.807
 7281SOL     OW22741   3.932   6.430   3.857
 7281SOL    HW122742   3.931   6.409   3.759
 7281SOL    HW222743   3.851   6.484   3.880
 7282SOL     OW22744   0.548   3.878   1.267
 7282SOL    HW122745   0.565   3.894   1.170
 7282SOL    HW222746   0.585   3.953   1.321
 7283SOL     OW22747   2.927   6.195   3.208
 7283SOL    HW122748   2.939   6.293   3.195
 7283SOL    HW222749   2.976   6.146   3.136
 7284SOL     OW22750   0.648   0.573   3.898
 7284SOL    HW122751   0.659   0.642   3.969
 7284SOL    HW222752   0.659   0.616   3.808
 7285SOL     OW22753   4.961   2.657   2.098
 7285SOL    HW122754   5.019   2.587   2.057
 7285SOL    HW222755   4.929   2.719   2.027
 7286SOL     OW22756   6.456   1.141   4.763
 7286SOL    HW122757   6.540   1.145   4.709
 7286SOL    HW222758   6.406   1.057   4.742
 7287SOL     OW22759   3.391   1.663   4.463
 7287SOL    HW122760   3.371   1.710   4.377
 7287SOL    HW222761   3.485   1.629   4.462
 7288SOL     OW22762   2.972   2.157   1.409
 7288SOL    HW122763   2.898   2.203   1.459
 7288SOL    HW222764   2.948   2.061   1.396
 7289SOL     OW22765   6.676   2.416   1.249
 7289SOL    HW122766   6.706   2.329   1.289
 7289SOL    HW222767   6.682   2.488   1.318
 7290SOL     OW22768   3.286   2.029   5.038
 7290SOL    HW122769   3.382   2.057   5.046
 7290SOL    HW222770   3.229   2.109   5.024
 7291SOL     OW22771   1.070   0.904   0.631
 7291SOL    HW122772   1.028   0.993   0.651
 7291SOL    HW222773   1.116   0.870   0.713
 7292SOL     OW22774   3.887   1.479   2.449
 7292SOL    HW122775   3.890   1.475   2.549
 7292SOL    HW222776   3.911   1.390   2.411
 7293SOL     OW22777   6.497   1.249   3.929
 7293SOL    HW122778   6.402   1.222   3.948
 7293SOL    HW222779   6.513   1.340   3.967
 7294SOL     OW22780   2.485   1.340   2.803
 7294SOL    HW122781   2.578   1.310   2.783
 7294SOL    HW222782   2.425   1.317   2.727
 7295SOL     OW22783   5.209   4.136   1.382
 7295SOL    HW122784   5.206   4.232   1.355
 7295SOL    HW222785   5.263   4.126   1.466
 7296SOL     OW22786   3.195   0.289   2.810
 7296SOL    HW122787   3.121   0.356   2.801
 7296SOL    HW222788   3.209   0.268   2.907
 7297SOL     OW22789   4.114   0.077   0.203
 7297SOL    HW122790   4.123   0.003   0.137
 7297SOL    HW222791   4.184   0.146   0.186
 7298SOL     OW22792   3.712   4.507   0.838
 7298SOL    HW122793   3.804   4.494   0.875
 7298SOL    HW222794   3.685   4.424   0.787
 7299SOL     OW22795   6.727   3.217   7.002
 7299SOL    HW122796   6.763   3.309   6.989
 7299SOL    HW222797   6.801   3.156   0.010
 7300SOL     OW22798   1.106   4.283   1.991
 7300SOL    HW122799   1.147   4.218   2.055
 7300SOL    HW222800   1.079   4.235   1.908
 7301SOL     OW22801   3.627   1.939   0.489
 7301SOL    HW122802   3.631   1.888   0.575
 7301SOL    HW222803   3.659   1.882   0.414
 7302SOL     OW22804   5.411   1.915   6.785
 7302SOL    HW122805   5.333   1.903   6.724
 7302SOL    HW222806   5.464   1.995   6.755
 7303SOL     OW22807   3.793   2.361   1.295
 7303SOL    HW122808   3.892   2.359   1.280
 7303SOL    HW222809   3.774   2.407   1.382
 7304SOL     OW22810   2.724   0.043   0.714
 7304SOL    HW122811   2.806   0.059   0.658
 7304SOL    HW222812   2.685   0.130   0.743
 7305SOL     OW22813   6.740   0.266   6.571
 7305SOL    HW122814   6.751   0.330   6.495
 7305SOL    HW222815   6.689   0.310   6.644
 7306SOL     OW22816   1.811   3.475   0.991
 7306SOL    HW122817   1.860   3.530   0.923
 7306SOL    HW222818   1.875   3.450   1.064
 7307SOL     OW22819   4.164   6.439   1.828
 7307SOL    HW122820   4.225   6.518   1.841
 7307SOL    HW222821   4.177   6.375   1.903
 7308SOL     OW22822   3.662   1.757   2.890
 7308SOL    HW122823   3.716   1.838   2.914
 7308SOL    HW222824   3.679   1.685   2.957
 7309SOL     OW22825   2.383   4.785   3.858
 7309SOL    HW122826   2.409   4.791   3.954
 7309SOL    HW222827   2.454   4.738   3.806
 7310SOL     OW22828   4.787   3.006   0.649
 7310SOL    HW122829   4.884   2.988   0.634
 7310SOL    HW222830   4.776   3.075   0.720
 7311SOL     OW22831   1.435   6.558   5.753
 7311SOL    HW122832   1.473   6.617   5.682
 7311SOL    HW222833   1.339   6.581   5.769
 7312SOL     OW22834   5.905   2.030   4.248
 7312SOL    HW122835   5.871   2.026   4.154
 7312SOL    HW222836   5.838   2.077   4.306
 7313SOL     OW22837   3.586   0.782   3.322
 7313SOL    HW122838   3.596   0.878   3.297
 7313SOL    HW222839   3.653   0.727   3.272
 7314SOL     OW22840   2.368   5.555   4.641
 7314SOL    HW122841   2.292   5.499   4.673
 7314SOL    HW222842   2.448   5.539   4.699
 7315SOL     OW22843   2.376   4.803   2.512
 7315SOL    HW122844   2.374   4.896   2.475
 7315SOL    HW222845   2.355   4.805   2.609
 7316SOL     OW22846   3.607   1.064   2.432
 7316SOL    HW122847   3.666   1.051   2.352
 7316SOL    HW222848   3.637   1.145   2.482
 7317SOL     OW22849   5.996   1.763   1.664
 7317SOL    HW122850   6.011   1.862   1.664
 7317SOL    HW222851   5.932   1.740   1.737
 7318SOL     OW22852   4.506   6.328   1.753
 7318SOL    HW122853   4.536   6.320   1.849
 7318SOL    HW222854   4.544   6.253   1.700
 7319SOL     OW22855   4.654   5.115   5.912
 7319SOL    HW122856   4.726   5.073   5.856
 7319SOL    HW222857   4.626   5.052   5.984
 7320SOL     OW22858   1.386   3.191   0.550
 7320SOL    HW122859   1.304   3.145   0.515
 7320SOL    HW222860   1.365   3.288   0.565
 7321SOL     OW22861   2.248   2.200   5.356
 7321SOL    HW122862   2.311   2.256   5.302
 7321SOL    HW222863   2.154   2.225   5.335
 7322SOL     OW22864   2.768   2.014   4.039
 7322SOL    HW122865   2.706   2.071   4.093
 7322SOL    HW222866   2.742   2.018   3.942
 7323SOL     OW22867   2.369   1.664   0.224
 7323SOL    HW122868   2.280   1.637   0.260
 7323SOL    HW222869   2.439   1.602   0.259
 7324SOL     OW22870   5.489   3.900   5.000
 7324SOL    HW122871   5.391   3.884   4.999
 7324SOL    HW222872   5.537   3.815   5.022
 7325SOL     OW22873   3.389   0.566   6.688
 7325SOL    HW122874   3.487   0.552   6.693
 7325SOL    HW222875   3.368   0.663   6.699
 7326SOL     OW22876   3.579   6.527   6.892
 7326SOL    HW122877   3.497   6.564   6.848
 7326SOL    HW222878   3.645   6.601   6.908
 7327SOL     OW22879   2.035   4.506   3.330
 7327SOL    HW122880   1.967   4.488   3.402
 7327SOL    HW222881   2.007   4.463   3.245
 7328SOL     OW22882   4.181   5.509   6.732
 7328SOL    HW122883   4.225   5.450   6.664
 7328SOL    HW222884   4.133   5.583   6.685
 7329SOL     OW22885   2.699   4.040   6.360
 7329SOL    HW122886   2.631   4.111   6.378
 7329SOL    HW222887   2.676   3.958   6.412
 7330SOL     OW22888   2.251   3.639   1.557
 7330SOL    HW122889   2.196   3.659   1.638
 7330SOL    HW222890   2.332   3.587   1.584
 7331SOL     OW22891   5.498   1.559   2.711
 7331SOL    HW122892   5.582   1.609   2.686
 7331SOL    HW222893   5.444   1.543   2.629
 7332SOL     OW22894   1.944   6.983   5.101
 7332SOL    HW122895   1.870   6.989   5.034
 7332SOL    HW222896   1.997   6.899   5.085
 7333SOL     OW22897   6.400   1.833   2.075
 7333SOL    HW122898   6.320   1.781   2.045
 7333SOL    HW222899   6.376   1.930   2.083
 7334SOL     OW22900   1.065   4.992   4.999
 7334SOL    HW122901   0.997   4.926   5.030
 7334SOL    HW222902   1.137   4.945   4.948
 7335SOL     OW22903   6.200   2.932   1.862
 7335SOL    HW122904   6.113   2.911   1.906
 7335SOL    HW222905   6.274   2.888   1.912
 7336SOL     OW22906   2.451   0.435   1.172
 7336SOL    HW122907   2.514   0.507   1.143
 7336SOL    HW222908   2.428   0.377   1.094
 7337SOL     OW22909   3.092   1.709   2.087
 7337SOL    HW122910   2.999   1.738   2.064
 7337SOL    HW222911   3.144   1.788   2.120
 7338SOL     OW22912   5.065   2.745   0.268
 7338SOL    HW122913   4.969   2.738   0.242
 7338SOL    HW222914   5.074   2.804   0.348
 7339SOL     OW22915   0.155   6.984   3.690
 7339SOL    HW122916   0.153   6.898   3.639
 7339SOL    HW222917   0.111   0.035   3.636
 7340SOL     OW22918   2.943   0.139   0.575
 7340SOL    HW122919   2.922   0.231   0.542
 7340SOL    HW222920   2.999   0.091   0.508
 7341SOL     OW22921   6.553   5.403   3.137
 7341SOL    HW122922   6.463   5.362   3.148
 7341SOL    HW222923   6.611   5.343   3.082
 7342SOL     OW22924   0.079   4.970   0.053
 7342SOL    HW122925   0.044   5.042   0.114
 7342SOL    HW222926   0.163   5.003   0.009
 7343SOL     OW22927   0.583   1.712   2.921
 7343SOL    HW122928   0.486   1.687   2.919
 7343SOL    HW222929   0.606   1.762   2.838
 7344SOL     OW22930   2.006   1.815   5.873
 7344SOL    HW122931   2.059   1.734   5.897
 7344SOL    HW222932   1.911   1.801   5.901
 7345SOL     OW22933   1.445   6.947   6.770
 7345SOL    HW122934   1.364   6.967   6.713
 7345SOL    HW222935   1.467   6.850   6.763
 7346SOL     OW22936   3.683   5.429   2.894
 7346SOL    HW122937   3.646   5.336   2.903
 7346SOL    HW222938   3.703   5.466   2.985
 7347SOL     OW22939   5.722   2.850   3.402
 7347SOL    HW122940   5.662   2.858   3.482
 7347SOL    HW222941   5.667   2.833   3.321
 7348SOL     OW22942   5.449   0.071   6.331
 7348SOL    HW122943   5.534   0.125   6.337
 7348SOL    HW222944   5.426   0.056   6.235
 7349SOL     OW22945   3.540   2.322   1.422
 7349SOL    HW122946   3.568   2.373   1.504
 7349SOL    HW222947   3.620   2.307   1.363
 7350SOL     OW22948   1.657   1.560   2.603
 7350SOL    HW122949   1.561   1.535   2.616
 7350SOL    HW222950   1.673   1.651   2.640
 7351SOL     OW22951   5.996   4.786   6.927
 7351SOL    HW122952   5.910   4.834   6.945
 7351SOL    HW222953   6.013   4.719   7.000
 7352SOL     OW22954   6.685   1.524   3.040
 7352SOL    HW122955   6.624   1.450   3.013
 7352SOL    HW222956   6.646   1.573   3.118
 7353SOL     OW22957   5.535   1.648   4.731
 7353SOL    HW122958   5.485   1.620   4.650
 7353SOL    HW222959   5.599   1.576   4.759
 7354SOL     OW22960   5.667   4.490   5.133
 7354SOL    HW122961   5.689   4.417   5.198
 7354SOL    HW222962   5.657   4.452   5.042
 7355SOL     OW22963   6.988   5.511   0.380
 7355SOL    HW122964   0.065   5.492   0.395
 7355SOL    HW222965   6.933   5.446   0.432
 7356SOL     OW22966   7.005   1.981   6.477
 7356SOL    HW122967   0.047   1.952   6.550
 7356SOL    HW222968   6.912   1.955   6.500
 7357SOL     OW22969   0.638   0.840   0.654
 7357SOL    HW122970   0.565   0.778   0.682
 7357SOL    HW222971   0.632   0.856   0.556
 7358SOL     OW22972   3.365   1.382   3.814
 7358SOL    HW122973   3.337   1.292   3.780
 7358SOL    HW222974   3.305   1.409   3.890
 7359SOL     OW22975   3.194   3.721   4.002
 7359SOL    HW122976   3.254   3.736   4.080
 7359SOL    HW222977   3.248   3.687   3.925
 7360SOL     OW22978   1.669   4.219   6.202
 7360SOL    HW122979   1.718   4.293   6.248
 7360SOL    HW222980   1.636   4.251   6.113
 7361SOL     OW22981   4.341   0.098   2.031
 7361SOL    HW122982   4.366   0.194   2.043
 7361SOL    HW222983   4.347   0.074   1.934
 7362SOL     OW22984   1.010   4.824   0.110
 7362SOL    HW122985   1.021   4.786   0.202
 7362SOL    HW222986   1.020   4.924   0.114
 7363SOL     OW22987   5.006   2.143   5.845
 7363SOL    HW122988   5.047   2.098   5.924
 7363SOL    HW222989   4.915   2.104   5.828
 7364SOL     OW22990   5.162   0.134   0.417
 7364SOL    HW122991   5.065   0.143   0.439
 7364SOL    HW222992   5.213   0.112   0.501
 7365SOL     OW22993   5.200   6.980   1.654
 7365SOL    HW122994   5.123   6.917   1.642
 7365SOL    HW222995   5.286   6.929   1.654
 7366SOL     OW22996   2.964   6.818   0.513
 7366SOL    HW122997   2.959   6.770   0.600
 7366SOL    HW222998   2.901   6.895   0.513
 7367SOL     OW22999   4.281   3.000   5.922
 7367SOL    HW123000   4.275   3.063   6.000
 7367SOL    HW223001   4.253   3.047   5.839
 7368SOL     OW23002   3.226   3.027   4.861
 7368SOL    HW123003   3.219   3.003   4.958
 7368SOL    HW223004   3.135   3.047   4.825
 7369SOL     OW23005   6.940   6.826   6.403
 7369SOL    HW123006   0.005   6.800   6.448
 7369SOL    HW223007   6.916   6.755   6.336
 7370SOL     OW23008   0.065   5.858   0.895
 7370SOL    HW123009   0.022   5.814   0.973
 7370SOL    HW223010   0.028   5.821   0.810
 7371SOL     OW23011   2.169   4.644   3.705
 7371SOL    HW123012   2.134   4.705   3.633
 7371SOL    HW223013   2.206   4.699   3.780
 7372SOL     OW23014   2.630   0.378   5.307
 7372SOL    HW123015   2.609   0.409   5.400
 7372SOL    HW223016   2.643   0.278   5.308
 7373SOL     OW23017   3.858   1.645   1.150
 7373SOL    HW123018   3.932   1.695   1.196
 7373SOL    HW223019   3.770   1.671   1.190
 7374SOL     OW23020   2.204   3.725   0.558
 7374SOL    HW123021   2.223   3.632   0.589
 7374SOL    HW223022   2.145   3.721   0.477
 7375SOL     OW23023   2.374   5.703   2.983
 7375SOL    HW123024   2.337   5.788   3.022
 7375SOL    HW223025   2.323   5.625   3.018
 7376SOL     OW23026   3.441   4.386   6.809
 7376SOL    HW123027   3.503   4.348   6.740
 7376SOL    HW223028   3.407   4.475   6.779
 7377SOL     OW23029   5.446   5.972   1.170
 7377SOL    HW123030   5.372   6.035   1.149
 7377SOL    HW223031   5.509   5.967   1.093
 7378SOL     OW23032   1.097   1.666   6.273
 7378SOL    HW123033   1.070   1.587   6.328
 7378SOL    HW223034   1.026   1.737   6.280
 7379SOL     OW23035   4.278   0.737   0.458
 7379SOL    HW123036   4.199   0.680   0.479
 7379SOL    HW223037   4.286   0.810   0.525
 7380SOL     OW23038   0.294   3.525   6.788
 7380SOL    HW123039   0.324   3.522   6.692
 7380SOL    HW223040   0.223   3.456   6.803
 7381SOL     OW23041   5.324   2.497   0.821
 7381SOL    HW123042   5.302   2.561   0.895
 7381SOL    HW223043   5.373   2.419   0.859
 7382SOL     OW23044   0.841   5.294   3.602
 7382SOL    HW123045   0.899   5.261   3.527
 7382SOL    HW223046   0.873   5.384   3.631
 7383SOL     OW23047   1.792   4.640   2.673
 7383SOL    HW123048   1.809   4.638   2.771
 7383SOL    HW223049   1.875   4.666   2.624
 7384SOL     OW23050   5.776   1.590   1.228
 7384SOL    HW123051   5.718   1.662   1.267
 7384SOL    HW223052   5.794   1.521   1.298
 7385SOL     OW23053   5.340   0.159   2.178
 7385SOL    HW123054   5.404   0.190   2.248
 7385SOL    HW223055   5.364   0.200   2.090
 7386SOL     OW23056   6.256   1.681   5.681
 7386SOL    HW123057   6.239   1.766   5.731
 7386SOL    HW223058   6.348   1.648   5.700
 7387SOL     OW23059   4.967   5.754   4.101
 7387SOL    HW123060   4.991   5.748   4.004
 7387SOL    HW223061   4.963   5.850   4.129
 7388SOL     OW23062   5.179   3.492   4.837
 7388SOL    HW123063   5.150   3.412   4.890
 7388SOL    HW223064   5.102   3.553   4.824
 7389SOL     OW23065   2.407   3.119   5.662
 7389SOL    HW123066   2.398   3.158   5.571
 7389SOL    HW223067   2.458   3.033   5.657
 7390SOL     OW23068   4.666   6.520   0.461
 7390SOL    HW123069   4.693   6.589   0.528
 7390SOL    HW223070   4.627   6.441   0.509
 7391SOL     OW23071   6.857   5.189   0.909
 7391SOL    HW123072   6.789   5.261   0.923
 7391SOL    HW223073   6.821   5.102   0.942
 7392SOL     OW23074   1.423   4.442   1.863
 7392SOL    HW123075   1.505   4.488   1.829
 7392SOL    HW223076   1.343   4.498   1.843
 7393SOL     OW23077   1.435   4.012   0.695
 7393SOL    HW123078   1.363   4.081   0.706
 7393SOL    HW223079   1.438   3.984   0.599
 7394SOL     OW23080   2.944   3.687   0.177
 7394SOL    HW123081   2.944   3.669   0.078
 7394SOL    HW223082   3.021   3.641   0.219
 7395SOL     OW23083   2.596   6.764   0.259
 7395SOL    HW123084   2.588   6.717   0.171
 7395SOL    HW223085   2.521   6.830   0.268
 7396SOL     OW23086   6.864   7.018   2.399
 7396SOL    HW123087   6.795   0.036   2.460
 7396SOL    HW223088   6.887   6.925   2.429
 7397SOL     OW23089   5.664   4.261   3.983
 7397SOL    HW123090   5.727   4.337   3.987
 7397SOL    HW223091   5.712   4.176   4.003
 7398SOL     OW23092   4.222   6.286   2.806
 7398SOL    HW123093   4.224   6.367   2.747
 7398SOL    HW223094   4.129   6.271   2.839
 7399SOL     OW23095   5.168   6.188   4.302
 7399SOL    HW123096   5.191   6.096   4.271
 7399SOL    HW223097   5.246   6.249   4.284
 7400SOL     OW23098   2.601   4.386   6.638
 7400SOL    HW123099   2.636   4.402   6.730
 7400SOL    HW223100   2.673   4.346   6.581
 7401SOL     OW23101   6.570   2.842   4.155
 7401SOL    HW123102   6.642   2.890   4.104
 7401SOL    HW223103   6.491   2.828   4.096
 7402SOL     OW23104   2.061   6.293   4.884
 7402SOL    HW123105   2.102   6.285   4.793
 7402SOL    HW223106   2.078   6.209   4.935
 7403SOL     OW23107   2.147   2.816   1.806
 7403SOL    HW123108   2.080   2.844   1.874
 7403SOL    HW223109   2.112   2.739   1.754
 7404SOL     OW23110   1.428   2.952   2.523
 7404SOL    HW123111   1.478   3.038   2.529
 7404SOL    HW223112   1.397   2.925   2.614
 7405SOL     OW23113   3.401   5.132   6.191
 7405SOL    HW123114   3.348   5.073   6.130
 7405SOL    HW223115   3.380   5.228   6.172
 7406SOL     OW23116   6.041   6.032   2.859
 7406SOL    HW123117   5.974   5.986   2.801
 7406SOL    HW223118   6.122   6.055   2.805
 7407SOL     OW23119   3.772   1.560   6.018
 7407SOL    HW123120   3.833   1.557   6.096
 7407SOL    HW223121   3.825   1.566   5.933
 7408SOL     OW23122   0.903   3.561   4.914
 7408SOL    HW123123   0.969   3.489   4.935
 7408SOL    HW223124   0.811   3.530   4.934
 7409SOL     OW23125   2.188   0.046   4.625
 7409SOL    HW123126   2.243   6.990   4.660
 7409SOL    HW223127   2.210   0.061   4.529
 7410SOL     OW23128   4.437   5.787   5.765
 7410SOL    HW123129   4.435   5.881   5.798
 7410SOL    HW223130   4.456   5.725   5.841
 7411SOL     OW23131   5.986   3.681   5.776
 7411SOL    HW123132   6.071   3.719   5.738
 7411SOL    HW223133   5.989   3.689   5.876
 7412SOL     OW23134   1.242   0.542   0.654
 7412SOL    HW123135   1.327   0.516   0.607
 7412SOL    HW223136   1.242   0.502   0.746
 7413SOL     OW23137   5.936   4.045   3.128
 7413SOL    HW123138   5.966   4.028   3.222
 7413SOL    HW223139   5.955   4.140   3.104
 7414SOL     OW23140   0.227   6.069   2.023
 7414SOL    HW123141   0.135   6.037   2.003
 7414SOL    HW223142   0.293   5.996   2.003
 7415SOL     OW23143   2.906   1.733   3.080
 7415SOL    HW123144   2.992   1.705   3.037
 7415SOL    HW223145   2.883   1.670   3.154
 7416SOL     OW23146   6.528   0.613   2.274
 7416SOL    HW123147   6.495   0.519   2.284
 7416SOL    HW223148   6.453   0.677   2.293
 7417SOL     OW23149   0.374   5.301   1.269
 7417SOL    HW123150   0.275   5.302   1.280
 7417SOL    HW223151   0.408   5.395   1.264
 7418SOL     OW23152   2.443   3.589   1.032
 7418SOL    HW123153   2.371   3.573   0.964
 7418SOL    HW223154   2.414   3.554   1.121
 7419SOL     OW23155   6.191   2.011   5.817
 7419SOL    HW123156   6.105   2.005   5.867
 7419SOL    HW223157   6.173   2.041   5.724
 7420SOL     OW23158   0.331   5.918   1.607
 7420SOL    HW123159   0.384   5.915   1.522
 7420SOL    HW223160   0.283   6.005   1.614
 7421SOL     OW23161   4.267   2.031   1.225
 7421SOL    HW123162   4.245   2.029   1.323
 7421SOL    HW223163   4.328   1.955   1.203
 7422SOL     OW23164   1.392   2.303   0.323
 7422SOL    HW123165   1.348   2.309   0.413
 7422SOL    HW223166   1.434   2.213   0.312
 7423SOL     OW23167   3.147   4.246   0.872
 7423SOL    HW123168   3.145   4.345   0.854
 7423SOL    HW223169   3.156   4.197   0.786
 7424SOL     OW23170   5.562   6.951   3.791
 7424SOL    HW123171   5.648   6.919   3.830
 7424SOL    HW223172   5.507   6.872   3.762
 7425SOL     OW23173   3.937   0.566   4.830
 7425SOL    HW123174   3.853   0.597   4.785
 7425SOL    HW223175   3.965   0.478   4.791
 7426SOL     OW23176   0.063   0.533   6.654
 7426SOL    HW123177   0.023   0.444   6.634
 7426SOL    HW223178   0.057   0.591   6.573
 7427SOL     OW23179   5.200   5.337   5.856
 7427SOL    HW123180   5.220   5.407   5.924
 7427SOL    HW223181   5.262   5.259   5.868
 7428SOL     OW23182   5.427   1.594   5.434
 7428SOL    HW123183   5.491   1.612   5.510
 7428SOL    HW223184   5.334   1.594   5.469
 7429SOL     OW23185   5.770   6.165   3.565
 7429SOL    HW123186   5.811   6.231   3.628
 7429SOL    HW223187   5.838   6.135   3.498
 7430SOL     OW23188   0.893   3.895   4.372
 7430SOL    HW123189   0.924   3.849   4.454
 7430SOL    HW223190   0.909   3.994   4.380
 7431SOL     OW23191   0.153   3.500   2.681
 7431SOL    HW123192   0.080   3.534   2.621
 7431SOL    HW223193   0.163   3.561   2.759
 7432SOL     OW23194   2.052   6.190   5.767
 7432SOL    HW123195   2.140   6.181   5.813
 7432SOL    HW223196   2.055   6.144   5.678
 7433SOL     OW23197   0.751   6.932   0.624
 7433SOL    HW123198   0.687   6.979   0.563
 7433SOL    HW223199   0.710   6.847   0.656
 7434SOL     OW23200   4.377   6.775   0.673
 7434SOL    HW123201   4.391   6.868   0.638
 7434SOL    HW223202   4.340   6.718   0.601
 7435SOL     OW23203   1.127   4.764   6.852
 7435SOL    HW123204   1.070   4.761   6.934
 7435SOL    HW223205   1.105   4.847   6.799
 7436SOL     OW23206   5.357   3.585   6.891
 7436SOL    HW123207   5.278   3.570   6.831
 7436SOL    HW223208   5.397   3.497   6.916
 7437SOL     OW23209   6.755   6.789   5.513
 7437SOL    HW123210   6.822   6.746   5.573
 7437SOL    HW223211   6.675   6.817   5.565
 7438SOL     OW23212   6.570   4.424   0.541
 7438SOL    HW123213   6.616   4.390   0.624
 7438SOL    HW223214   6.638   4.465   0.480
 7439SOL     OW23215   1.458   6.366   3.149
 7439SOL    HW123216   1.543   6.418   3.142
 7439SOL    HW223217   1.384   6.417   3.105
 7440SOL     OW23218   1.213   0.874   4.534
 7440SOL    HW123219   1.311   0.855   4.544
 7440SOL    HW223220   1.177   0.822   4.456
 7441SOL     OW23221   6.803   0.618   4.132
 7441SOL    HW123222   6.862   0.573   4.198
 7441SOL    HW223223   6.858   0.657   4.059
 7442SOL     OW23224   1.938   1.167   0.191
 7442SOL    HW123225   1.962   1.219   0.273
 7442SOL    HW223226   1.876   1.093   0.215
 7443SOL     OW23227   6.454   1.649   1.498
 7443SOL    HW123228   6.367   1.692   1.474
 7443SOL    HW223229   6.467   1.655   1.597
 7444SOL     OW23230   1.844   3.102   5.235
 7444SOL    HW123231   1.791   3.107   5.150
 7444SOL    HW223232   1.908   3.026   5.229
 7445SOL     OW23233   5.784   3.077   2.673
 7445SOL    HW123234   5.724   3.071   2.753
 7445SOL    HW223235   5.742   3.134   2.603
 7446SOL     OW23236   4.628   4.290   2.662
 7446SOL    HW123237   4.605   4.355   2.734
 7446SOL    HW223238   4.621   4.197   2.698
 7447SOL     OW23239   1.519   3.089   6.561
 7447SOL    HW123240   1.554   3.057   6.649
 7447SOL    HW223241   1.547   3.025   6.489
 7448SOL     OW23242   0.264   0.839   5.543
 7448SOL    HW123243   0.176   0.790   5.548
 7448SOL    HW223244   0.332   0.789   5.596
 7449SOL     OW23245   3.085   0.823   3.146
 7449SOL    HW123246   3.124   0.732   3.133
 7449SOL    HW223247   3.157   0.891   3.136
 7450SOL     OW23248   4.027   1.825   2.297
 7450SOL    HW123249   4.024   1.725   2.298
 7450SOL    HW223250   4.015   1.858   2.203
 7451SOL     OW23251   0.929   0.570   2.022
 7451SOL    HW123252   0.990   0.591   1.945
 7451SOL    HW223253   0.834   0.580   1.993
 7452SOL     OW23254   1.961   5.756   3.086
 7452SOL    HW123255   1.983   5.716   3.176
 7452SOL    HW223256   1.977   5.687   3.015
 7453SOL     OW23257   6.641   4.569   5.017
 7453SOL    HW123258   6.567   4.556   5.082
 7453SOL    HW223259   6.709   4.631   5.056
 7454SOL     OW23260   2.610   2.194   0.137
 7454SOL    HW123261   2.633   2.182   0.233
 7454SOL    HW223262   2.674   2.141   0.080
 7455SOL     OW23263   4.973   0.101   0.802
 7455SOL    HW123264   5.062   0.060   0.821
 7455SOL    HW223265   4.967   0.190   0.848
 7456SOL     OW23266   1.271   3.133   5.969
 7456SOL    HW123267   1.203   3.204   5.987
 7456SOL    HW223268   1.248   3.085   5.885
 7457SOL     OW23269   0.263   6.655   5.986
 7457SOL    HW123270   0.188   6.721   5.980
 7457SOL    HW223271   0.346   6.700   6.019
 7458SOL     OW23272   2.628   0.373   1.691
 7458SOL    HW123273   2.576   0.445   1.645
 7458SOL    HW223274   2.716   0.410   1.721
 7459SOL     OW23275   3.836   5.979   3.379
 7459SOL    HW123276   3.894   5.941   3.308
 7459SOL    HW223277   3.868   5.947   3.469
 7460SOL     OW23278   0.930   5.149   6.381
 7460SOL    HW123279   1.008   5.193   6.426
 7460SOL    HW223280   0.963   5.100   6.300
 7461SOL     OW23281   3.671   1.658   3.561
 7461SOL    HW123282   3.597   1.593   3.572
 7461SOL    HW223283   3.758   1.610   3.555
 7462SOL     OW23284   1.453   2.134   4.168
 7462SOL    HW123285   1.446   2.210   4.233
 7462SOL    HW223286   1.541   2.088   4.180
 7463SOL     OW23287   3.924   3.925   2.760
 7463SOL    HW123288   4.004   3.865   2.766
 7463SOL    HW223289   3.942   4.008   2.812
 7464SOL     OW23290   4.680   5.874   0.368
 7464SOL    HW123291   4.690   5.775   0.360
 7464SOL    HW223292   4.719   5.904   0.456
 7465SOL     OW23293   3.145   1.659   2.984
 7465SOL    HW123294   3.196   1.606   3.051
 7465SOL    HW223295   3.179   1.637   2.892
 7466SOL     OW23296   0.141   6.584   0.936
 7466SOL    HW123297   0.058   6.640   0.930
 7466SOL    HW223298   0.220   6.640   0.912
 7467SOL     OW23299   4.676   2.381   1.157
 7467SOL    HW123300   4.606   2.336   1.101
 7467SOL    HW223301   4.643   2.389   1.250
 7468SOL     OW23302   4.713   4.629   4.672
 7468SOL    HW123303   4.632   4.630   4.730
 7468SOL    HW223304   4.792   4.596   4.724
 7469SOL     OW23305   5.361   2.128   1.465
 7469SOL    HW123306   5.443   2.100   1.416
 7469SOL    HW223307   5.375   2.116   1.563
 7470SOL     OW23308   0.622   3.697   3.322
 7470SOL    HW123309   0.536   3.672   3.368
 7470SOL    HW223310   0.674   3.614   3.302
 7471SOL     OW23311   6.670   4.246   5.589
 7471SOL    HW123312   6.635   4.238   5.496
 7471SOL    HW223313   6.716   4.161   5.615
 7472SOL     OW23314   4.472   5.459   3.080
 7472SOL    HW123315   4.486   5.539   3.138
 7472SOL    HW223316   4.559   5.432   3.039
 7473SOL     OW23317   1.572   2.334   6.514
 7473SOL    HW123318   1.649   2.283   6.551
 7473SOL    HW223319   1.541   2.291   6.429
 7474SOL     OW23320   2.741   1.246   2.151
 7474SOL    HW123321   2.731   1.188   2.232
 7474SOL    HW223322   2.673   1.319   2.154
 7475SOL     OW23323   5.029   1.012   6.351
 7475SOL    HW123324   5.041   0.929   6.296
 7475SOL    HW223325   5.082   1.004   6.436
 7476SOL     OW23326   1.882   6.421   4.690
 7476SOL    HW123327   1.921   6.380   4.773
 7476SOL    HW223328   1.924   6.379   4.609
 7477SOL     OW23329   4.500   4.652   4.840
 7477SOL    HW123330   4.433   4.637   4.913
 7477SOL    HW223331   4.474   4.732   4.786
 7478SOL     OW23332   0.375   4.452   1.431
 7478SOL    HW123333   0.466   4.484   1.407
 7478SOL    HW223334   0.309   4.482   1.362
 7479SOL     OW23335   3.826   0.228   4.576
 7479SOL    HW123336   3.753   0.273   4.627
 7479SOL    HW223337   3.887   0.180   4.639
 7480SOL     OW23338   5.716   4.913   0.101
 7480SOL    HW123339   5.624   4.951   0.103
 7480SOL    HW223340   5.774   4.971   0.043
 7481SOL     OW23341   5.805   6.125   0.187
 7481SOL    HW123342   5.786   6.199   0.123
 7481SOL    HW223343   5.720   6.079   0.212
 7482SOL     OW23344   4.639   0.221   5.046
 7482SOL    HW123345   4.568   0.194   5.111
 7482SOL    HW223346   4.603   0.215   4.952
 7483SOL     OW23347   3.426   0.114   7.010
 7483SOL    HW123348   3.477   0.032   6.986
 7483SOL    HW223349   3.411   0.117   0.088
 7484SOL     OW23350   3.122   6.500   1.185
 7484SOL    HW123351   3.189   6.514   1.258
 7484SOL    HW223352   3.068   6.583   1.173
 7485SOL     OW23353   0.878   0.085   5.128
 7485SOL    HW123354   0.837   0.109   5.040
 7485SOL    HW223355   0.860   0.158   5.194
 7486SOL     OW23356   1.430   2.127   5.010
 7486SOL    HW123357   1.498   2.200   4.999
 7486SOL    HW223358   1.375   2.145   5.092
 7487SOL     OW23359   2.883   5.703   2.416
 7487SOL    HW123360   2.906   5.798   2.396
 7487SOL    HW223361   2.954   5.643   2.380
 7488SOL     OW23362   4.476   1.880   4.943
 7488SOL    HW123363   4.454   1.972   4.978
 7488SOL    HW223364   4.407   1.852   4.877
 7489SOL     OW23365   0.958   3.294   3.660
 7489SOL    HW123366   0.926   3.219   3.603
 7489SOL    HW223367   0.881   3.352   3.685
 7490SOL     OW23368   5.931   0.035   2.269
 7490SOL    HW123369   5.863   6.996   2.226
 7490SOL    HW223370   5.886   0.102   2.327
 7491SOL     OW23371   0.853   0.052   0.838
 7491SOL    HW123372   0.835   7.020   0.755
 7491SOL    HW223373   0.817   0.145   0.828
 7492SOL     OW23374   1.655   2.561   2.849
 7492SOL    HW123375   1.606   2.477   2.826
 7492SOL    HW223376   1.592   2.627   2.891
 7493SOL     OW23377   5.800   4.217   6.836
 7493SOL    HW123378   5.743   4.184   6.911
 7493SOL    HW223379   5.866   4.284   6.870
 7494SOL     OW23380   4.698   1.833   1.577
 7494SOL    HW123381   4.721   1.877   1.490
 7494SOL    HW223382   4.738   1.886   1.652
 7495SOL     OW23383   1.512   1.599   3.689
 7495SOL    HW123384   1.508   1.499   3.692
 7495SOL    HW223385   1.473   1.631   3.603
 7496SOL     OW23386   0.504   5.099   5.923
 7496SOL    HW123387   0.567   5.137   5.855
 7496SOL    HW223388   0.521   5.141   6.012
 7497SOL     OW23389   0.719   4.755   3.106
 7497SOL    HW123390   0.811   4.762   3.069
 7497SOL    HW223391   0.658   4.817   3.057
 7498SOL     OW23392   5.395   1.845   4.233
 7498SOL    HW123393   5.489   1.863   4.262
 7498SOL    HW223394   5.348   1.932   4.219
 7499SOL     OW23395   3.824   5.284   3.435
 7499SOL    HW123396   3.810   5.376   3.472
 7499SOL    HW223397   3.838   5.289   3.336
 7500SOL     OW23398   4.743   4.036   1.636
 7500SOL    HW123399   4.674   4.106   1.621
 7500SOL    HW223400   4.822   4.076   1.683
 7501SOL     OW23401   1.260   3.872   3.605
 7501SOL    HW123402   1.269   3.778   3.573
 7501SOL    HW223403   1.304   3.934   3.540
 7502SOL     OW23404   1.321   1.879   4.189
 7502SOL    HW123405   1.287   1.901   4.280
 7502SOL    HW223406   1.338   1.964   4.139
 7503SOL     OW23407   2.289   1.907   0.136
 7503SOL    HW123408   2.290   1.832   0.202
 7503SOL    HW223409   2.199   1.913   0.093
 7504SOL     OW23410   5.443   5.536   5.758
 7504SOL    HW123411   5.521   5.541   5.695
 7504SOL    HW223412   5.358   5.545   5.706
 7505SOL     OW23413   1.493   2.112   3.147
 7505SOL    HW123414   1.545   2.171   3.208
 7505SOL    HW223415   1.423   2.062   3.199
 7506SOL     OW23416   3.981   0.514   3.124
 7506SOL    HW123417   4.050   0.447   3.150
 7506SOL    HW223418   3.959   0.504   3.027
 7507SOL     OW23419   1.667   6.876   5.351
 7507SOL    HW123420   1.654   6.921   5.263
 7507SOL    HW223421   1.672   6.946   5.423
 7508SOL     OW23422   5.339   5.969   3.293
 7508SOL    HW123423   5.296   6.006   3.375
 7508SOL    HW223424   5.374   6.045   3.237
 7509SOL     OW23425   3.275   4.363   6.251
 7509SOL    HW123426   3.337   4.287   6.230
 7509SOL    HW223427   3.301   4.442   6.196
 7510SOL     OW23428   3.996   3.202   5.215
 7510SOL    HW123429   3.903   3.176   5.242
 7510SOL    HW223430   3.996   3.229   5.118
 7511SOL     OW23431   1.311   1.077   2.214
 7511SOL    HW123432   1.350   0.985   2.217
 7511SOL    HW223433   1.218   1.075   2.251
 7512SOL     OW23434   2.265   2.600   2.275
 7512SOL    HW123435   2.295   2.627   2.184
 7512SOL    HW223436   2.268   2.679   2.336
 7513SOL     OW23437   2.425   2.774   0.201
 7513SOL    HW123438   2.491   2.826   0.147
 7513SOL    HW223439   2.367   2.837   0.252
 7514SOL     OW23440   2.979   5.049   2.920
 7514SOL    HW123441   2.979   5.104   3.004
 7514SOL    HW223442   3.027   5.099   2.848
 7515SOL     OW23443   0.382   4.780   3.061
 7515SOL    HW123444   0.358   4.765   2.965
 7515SOL    HW223445   0.385   4.693   3.109
 7516SOL     OW23446   2.025   3.398   1.157
 7516SOL    HW123447   2.027   3.364   1.063
 7516SOL    HW223448   2.116   3.432   1.182
 7517SOL     OW23449   1.428   5.066   1.927
 7517SOL    HW123450   1.398   4.971   1.934
 7517SOL    HW223451   1.472   5.094   2.013
 7518SOL     OW23452   5.129   3.863   2.401
 7518SOL    HW123453   5.135   3.830   2.307
 7518SOL    HW223454   5.112   3.786   2.462
 7519SOL     OW23455   1.697   0.595   4.972
 7519SOL    HW123456   1.770   0.629   5.031
 7519SOL    HW223457   1.667   0.505   5.004
 7520SOL     OW23458   1.950   0.150   4.651
 7520SOL    HW123459   1.890   0.108   4.583
 7520SOL    HW223460   2.041   0.109   4.646
 7521SOL     OW23461   4.318   2.666   5.894
 7521SOL    HW123462   4.310   2.764   5.910
 7521SOL    HW223463   4.414   2.642   5.880
 7522SOL     OW23464   2.151   6.426   2.650
 7522SOL    HW123465   2.160   6.472   2.562
 7522SOL    HW223466   2.079   6.470   2.703
 7523SOL     OW23467   6.518   6.744   6.210
 7523SOL    HW123468   6.436   6.701   6.247
 7523SOL    HW223469   6.491   6.814   6.143
 7524SOL     OW23470   6.560   1.435   5.240
 7524SOL    HW123471   6.597   1.434   5.148
 7524SOL    HW223472   6.624   1.482   5.301
 7525SOL     OW23473   0.333   6.780   0.845
 7525SOL    HW123474   0.399   6.851   0.820
 7525SOL    HW223475   0.256   6.783   0.781
 7526SOL     OW23476   3.949   2.991   5.476
 7526SOL    HW123477   3.870   3.051   5.466
 7526SOL    HW223478   3.976   2.955   5.387
 7527SOL     OW23479   2.670   6.391   1.948
 7527SOL    HW123480   2.631   6.300   1.954
 7527SOL    HW223481   2.668   6.423   1.853
 7528SOL     OW23482   6.222   2.824   0.107
 7528SOL    HW123483   6.227   2.921   0.131
 7528SOL    HW223484   6.127   2.799   0.088
 7529SOL     OW23485   1.650   0.138   4.017
 7529SOL    HW123486   1.649   0.217   3.955
 7529SOL    HW223487   1.561   0.130   4.062
 7530SOL     OW23488   0.402   3.091   3.028
 7530SOL    HW123489   0.455   3.032   3.089
 7530SOL    HW223490   0.313   3.111   3.069
 7531SOL     OW23491   1.420   2.398   3.669
 7531SOL    HW123492   1.515   2.373   3.651
 7531SOL    HW223493   1.388   2.350   3.751
 7532SOL     OW23494   4.727   4.269   2.095
 7532SOL    HW123495   4.712   4.252   2.192
 7532SOL    HW223496   4.639   4.278   2.048
 7533SOL     OW23497   3.420   0.722   5.400
 7533SOL    HW123498   3.454   0.628   5.402
 7533SOL    HW223499   3.353   0.731   5.326
 7534SOL     OW23500   4.265   6.112   4.180
 7534SOL    HW123501   4.311   6.194   4.145
 7534SOL    HW223502   4.299   6.091   4.271
 7535SOL     OW23503   2.925   5.525   6.767
 7535SOL    HW123504   2.839   5.546   6.814
 7535SOL    HW223505   2.925   5.428   6.742
 7536SOL     OW23506   4.492   5.057   6.540
 7536SOL    HW123507   4.433   5.064   6.620
 7536SOL    HW223508   4.577   5.107   6.557
 7537SOL     OW23509   2.296   4.372   4.925
 7537SOL    HW123510   2.348   4.305   4.872
 7537SOL    HW223511   2.198   4.353   4.916
 7538SOL     OW23512   3.255   4.332   5.378
 7538SOL    HW123513   3.324   4.399   5.349
 7538SOL    HW223514   3.170   4.380   5.400
 7539SOL     OW23515   0.616   2.649   5.077
 7539SOL    HW123516   0.623   2.650   5.177
 7539SOL    HW223517   0.527   2.611   5.050
 7540SOL     OW23518   2.688   0.815   0.200
 7540SOL    HW123519   2.597   0.837   0.165
 7540SOL    HW223520   2.757   0.855   0.140
 7541SOL     OW23521   0.388   2.115   6.033
 7541SOL    HW123522   0.305   2.065   6.057
 7541SOL    HW223523   0.400   2.114   5.934
 7542SOL     OW23524   1.600   0.316   5.065
 7542SOL    HW123525   1.583   0.340   5.160
 7542SOL    HW223526   1.606   0.216   5.057
 7543SOL     OW23527   2.784   2.357   1.461
 7543SOL    HW123528   2.816   2.432   1.519
 7543SOL    HW223529   2.703   2.316   1.502
 7544SOL     OW23530   1.272   1.913   2.195
 7544SOL    HW123531   1.218   1.927   2.112
 7544SOL    HW223532   1.214   1.874   2.266
 7545SOL     OW23533   4.740   0.279   3.451
 7545SOL    HW123534   4.825   0.241   3.413
 7545SOL    HW223535   4.672   0.206   3.460
 7546SOL     OW23536   5.087   6.857   5.566
 7546SOL    HW123537   5.157   6.869   5.496
 7546SOL    HW223538   5.000   6.833   5.523
 7547SOL     OW23539   2.481   6.594   0.419
 7547SOL    HW123540   2.512   6.665   0.357
 7547SOL    HW223541   2.458   6.634   0.508
 7548SOL     OW23542   2.634   3.829   0.789
 7548SOL    HW123543   2.698   3.888   0.838
 7548SOL    HW223544   2.654   3.733   0.811
 7549SOL     OW23545   6.245   0.207   2.451
 7549SOL    HW123546   6.319   0.189   2.516
 7549SOL    HW223547   6.182   0.274   2.490
 7550SOL     OW23548   1.096   5.040   0.641
 7550SOL    HW123549   1.118   5.044   0.544
 7550SOL    HW223550   1.167   5.087   0.694
 7551SOL     OW23551   5.005   3.720   6.085
 7551SOL    HW123552   4.923   3.689   6.036
 7551SOL    HW223553   4.978   3.773   6.165
 7552SOL     OW23554   3.610   5.762   4.252
 7552SOL    HW123555   3.555   5.708   4.188
 7552SOL    HW223556   3.643   5.702   4.326
 7553SOL     OW23557   4.398   4.081   6.001
 7553SOL    HW123558   4.330   4.038   6.062
 7553SOL    HW223559   4.452   4.009   5.957
 7554SOL     OW23560   0.046   1.695   0.795
 7554SOL    HW123561   6.986   1.736   0.839
 7554SOL    HW223562   0.128   1.742   0.827
 7555SOL     OW23563   2.043   6.485   5.919
 7555SOL    HW123564   2.038   6.389   5.947
 7555SOL    HW223565   2.136   6.519   5.934
 7556SOL     OW23566   0.067   3.304   2.188
 7556SOL    HW123567   7.008   3.362   2.167
 7556SOL    HW223568   0.100   3.325   2.280
 7557SOL     OW23569   4.568   4.051   0.813
 7557SOL    HW123570   4.544   4.143   0.782
 7557SOL    HW223571   4.488   3.992   0.806
 7558SOL     OW23572   1.831   3.172   3.646
 7558SOL    HW123573   1.848   3.098   3.582
 7558SOL    HW223574   1.869   3.148   3.736
 7559SOL     OW23575   0.805   5.183   0.153
 7559SOL    HW123576   0.852   5.176   0.065
 7559SOL    HW223577   0.858   5.133   0.222
 7560SOL     OW23578   4.474   0.232   5.638
 7560SOL    HW123579   4.523   0.148   5.616
 7560SOL    HW223580   4.411   0.215   5.714
 7561SOL     OW23581   1.217   3.163   0.129
 7561SOL    HW123582   1.158   3.225   0.181
 7561SOL    HW223583   1.238   3.082   0.185
 7562SOL     OW23584   4.158   6.140   5.085
 7562SOL    HW123585   4.114   6.155   5.173
 7562SOL    HW223586   4.210   6.055   5.087
 7563SOL     OW23587   1.782   1.501   3.939
 7563SOL    HW123588   1.741   1.522   4.027
 7563SOL    HW223589   1.779   1.582   3.880
 7564SOL     OW23590   6.372   5.724   4.270
 7564SOL    HW123591   6.277   5.754   4.267
 7564SOL    HW223592   6.412   5.750   4.359
 7565SOL     OW23593   5.175   4.636   6.362
 7565SOL    HW123594   5.259   4.644   6.415
 7565SOL    HW223595   5.198   4.630   6.264
 7566SOL     OW23596   1.711   5.438   4.356
 7566SOL    HW123597   1.696   5.391   4.269
 7566SOL    HW223598   1.722   5.371   4.429
 7567SOL     OW23599   2.751   3.431   0.173
 7567SOL    HW123600   2.728   3.528   0.163
 7567SOL    HW223601   2.851   3.420   0.175
 7568SOL     OW23602   4.147   4.851   3.702
 7568SOL    HW123603   4.084   4.840   3.625
 7568SOL    HW223604   4.240   4.864   3.668
 7569SOL     OW23605   4.084   0.562   2.767
 7569SOL    HW123606   4.082   0.519   2.676
 7569SOL    HW223607   3.998   0.543   2.814
 7570SOL     OW23608   5.458   4.812   4.967
 7570SOL    HW123609   5.412   4.788   4.881
 7570SOL    HW223610   5.408   4.887   5.011
 7571SOL     OW23611   6.424   4.124   0.116
 7571SOL    HW123612   6.418   4.029   0.145
 7571SOL    HW223613   6.370   4.137   0.033
 7572SOL     OW23614   6.079   1.692   3.447
 7572SOL    HW123615   5.996   1.675   3.393
 7572SOL    HW223616   6.158   1.697   3.386
 7573SOL     OW23617   3.156   5.177   3.889
 7573SOL    HW123618   3.198   5.087   3.875
 7573SOL    HW223619   3.067   5.179   3.844
 7574SOL     OW23620   4.235   5.992   1.584
 7574SOL    HW123621   4.266   5.903   1.617
 7574SOL    HW223622   4.231   6.057   1.660
 7575SOL     OW23623   5.067   3.131   4.335
 7575SOL    HW123624   5.123   3.085   4.266
 7575SOL    HW223625   5.112   3.215   4.364
 7576SOL     OW23626   0.513   4.377   1.686
 7576SOL    HW123627   0.588   4.362   1.622
 7576SOL    HW223628   0.435   4.417   1.638
 7577SOL     OW23629   4.231   1.502   3.989
 7577SOL    HW123630   4.153   1.506   3.926
 7577SOL    HW223631   4.199   1.522   4.082
 7578SOL     OW23632   2.105   5.466   5.468
 7578SOL    HW123633   2.071   5.372   5.456
 7578SOL    HW223634   2.107   5.488   5.565
 7579SOL     OW23635   4.413   1.968   4.500
 7579SOL    HW123636   4.363   2.031   4.442
 7579SOL    HW223637   4.505   1.953   4.462
 7580SOL     OW23638   2.145   3.193   2.134
 7580SOL    HW123639   2.192   3.279   2.113
 7580SOL    HW223640   2.058   3.189   2.085
 7581SOL     OW23641   5.588   1.236   1.288
 7581SOL    HW123642   5.505   1.291   1.296
 7581SOL    HW223643   5.564   1.139   1.291
 7582SOL     OW23644   4.183   2.806   1.549
 7582SOL    HW123645   4.134   2.775   1.467
 7582SOL    HW223646   4.117   2.824   1.622
 7583SOL     OW23647   6.875   3.980   3.474
 7583SOL    HW123648   6.885   4.010   3.379
 7583SOL    HW223649   6.870   4.060   3.534
 7584SOL     OW23650   1.908   2.377   1.871
 7584SOL    HW123651   1.843   2.340   1.938
 7584SOL    HW223652   1.928   2.472   1.893
 7585SOL     OW23653   2.880   4.211   0.848
 7585SOL    HW123654   2.964   4.211   0.901
 7585SOL    HW223655   2.855   4.118   0.824
 7586SOL     OW23656   1.881   2.302   3.080
 7586SOL    HW123657   1.903   2.389   3.037
 7586SOL    HW223658   1.913   2.303   3.175
 7587SOL     OW23659   2.957   0.916   5.852
 7587SOL    HW123660   2.906   0.837   5.817
 7587SOL    HW223661   3.053   0.892   5.862
 7588SOL     OW23662   0.741   4.914   1.366
 7588SOL    HW123663   0.686   4.870   1.437
 7588SOL    HW223664   0.683   4.970   1.308
 7589SOL     OW23665   5.026   5.898   6.037
 7589SOL    HW123666   4.948   5.960   6.026
 7589SOL    HW223667   5.013   5.844   6.120
 7590SOL     OW23668   2.158   0.945   5.302
 7590SOL    HW123669   2.219   0.881   5.256
 7590SOL    HW223670   2.206   1.032   5.317
 7591SOL     OW23671   6.377   5.694   6.434
 7591SOL    HW123672   6.360   5.596   6.442
 7591SOL    HW223673   6.326   5.730   6.356
 7592SOL     OW23674   4.331   4.830   5.867
 7592SOL    HW123675   4.338   4.731   5.882
 7592SOL    HW223676   4.403   4.859   5.804
 7593SOL     OW23677   6.677   4.665   0.298
 7593SOL    HW123678   6.661   4.710   0.210
 7593SOL    HW223679   6.684   4.566   0.284
 7594SOL     OW23680   0.943   6.816   4.196
 7594SOL    HW123681   0.956   6.890   4.131
 7594SOL    HW223682   0.997   6.737   4.168
 7595SOL     OW23683   0.145   3.653   6.523
 7595SOL    HW123684   0.056   3.632   6.483
 7595SOL    HW223685   0.208   3.576   6.507
 7596SOL     OW23686   5.025   5.396   2.089
 7596SOL    HW123687   5.080   5.415   2.171
 7596SOL    HW223688   5.036   5.300   2.063
 7597SOL     OW23689   2.303   4.250   2.083
 7597SOL    HW123690   2.397   4.228   2.112
 7597SOL    HW223691   2.248   4.167   2.084
 7598SOL     OW23692   6.632   1.462   2.648
 7598SOL    HW123693   6.554   1.523   2.638
 7598SOL    HW223694   6.702   1.506   2.703
 7599SOL     OW23695   5.482   3.770   2.075
 7599SOL    HW123696   5.452   3.678   2.100
 7599SOL    HW223697   5.411   3.814   2.020
 7600SOL     OW23698   2.271   2.079   2.527
 7600SOL    HW123699   2.279   2.164   2.476
 7600SOL    HW223700   2.341   2.015   2.497
 7601SOL     OW23701   1.830   1.032   5.553
 7601SOL    HW123702   1.753   0.994   5.501
 7601SOL    HW223703   1.899   0.961   5.567
 7602SOL     OW23704   1.835   2.869   5.705
 7602SOL    HW123705   1.901   2.942   5.689
 7602SOL    HW223706   1.776   2.859   5.625
 7603SOL     OW23707   6.751   1.764   2.260
 7603SOL    HW123708   6.793   1.673   2.269
 7603SOL    HW223709   6.730   1.781   2.163
 7604SOL     OW23710   5.473   5.673   6.381
 7604SOL    HW123711   5.430   5.641   6.466
 7604SOL    HW223712   5.472   5.599   6.314
 7605SOL     OW23713   5.391   3.532   5.689
 7605SOL    HW123714   5.407   3.488   5.601
 7605SOL    HW223715   5.405   3.466   5.763
 7606SOL     OW23716   5.684   1.540   3.765
 7606SOL    HW123717   5.768   1.487   3.769
 7606SOL    HW223718   5.667   1.582   3.855
 7607SOL     OW23719   5.036   6.163   5.882
 7607SOL    HW123720   5.095   6.160   5.802
 7607SOL    HW223721   5.058   6.087   5.943
 7608SOL     OW23722   3.674   3.793   5.040
 7608SOL    HW123723   3.726   3.772   4.958
 7608SOL    HW223724   3.668   3.893   5.051
 7609SOL     OW23725   1.105   2.735   3.114
 7609SOL    HW123726   1.137   2.647   3.080
 7609SOL    HW223727   1.026   2.766   3.061
 7610SOL     OW23728   5.598   0.375   2.247
 7610SOL    HW123729   5.565   0.427   2.168
 7610SOL    HW223730   5.623   0.439   2.320
 7611SOL     OW23731   1.404   1.416   1.800
 7611SOL    HW123732   1.331   1.366   1.753
 7611SOL    HW223733   1.363   1.478   1.867
 7612SOL     OW23734   4.469   1.315   2.889
 7612SOL    HW123735   4.405   1.377   2.934
 7612SOL    HW223736   4.438   1.297   2.795
 7613SOL     OW23737   6.598   0.678   2.006
 7613SOL    HW123738   6.694   0.654   1.994
 7613SOL    HW223739   6.574   0.674   2.103
 7614SOL     OW23740   4.099   0.717   0.819
 7614SOL    HW123741   4.012   0.747   0.780
 7614SOL    HW223742   4.172   0.780   0.793
 7615SOL     OW23743   3.894   4.739   5.634
 7615SOL    HW123744   3.908   4.640   5.645
 7615SOL    HW223745   3.800   4.763   5.658
 7616SOL     OW23746   0.072   6.008   3.635
 7616SOL    HW123747   0.140   5.952   3.680
 7616SOL    HW223748   0.044   5.964   3.549
 7617SOL     OW23749   3.942   5.577   3.428
 7617SOL    HW123750   3.970   5.657   3.481
 7617SOL    HW223751   3.844   5.581   3.411
 7618SOL     OW23752   3.223   1.652   0.350
 7618SOL    HW123753   3.158   1.604   0.409
 7618SOL    HW223754   3.316   1.634   0.382
 7619SOL     OW23755   5.487   3.132   5.657
 7619SOL    HW123756   5.433   3.047   5.650
 7619SOL    HW223757   5.494   3.173   5.566
 7620SOL     OW23758   2.813   5.343   1.888
 7620SOL    HW123759   2.875   5.345   1.966
 7620SOL    HW223760   2.718   5.338   1.921
 7621SOL     OW23761   2.692   2.938   1.361
 7621SOL    HW123762   2.658   2.845   1.377
 7621SOL    HW223763   2.718   2.948   1.265
 7622SOL     OW23764   5.301   2.026   1.151
 7622SOL    HW123765   5.264   1.963   1.083
 7622SOL    HW223766   5.259   2.008   1.240
 7623SOL     OW23767   6.910   6.923   4.810
 7623SOL    HW123768   6.830   6.864   4.814
 7623SOL    HW223769   6.883   7.014   4.778
 7624SOL     OW23770   6.631   0.983   4.955
 7624SOL    HW123771   6.613   0.902   5.011
 7624SOL    HW223772   6.548   1.037   4.947
 7625SOL     OW23773   2.423   4.736   0.554
 7625SOL    HW123774   2.434   4.639   0.574
 7625SOL    HW223775   2.338   4.751   0.504
 7626SOL     OW23776   2.663   4.090   5.335
 7626SOL    HW123777   2.662   4.171   5.276
 7626SOL    HW223778   2.591   4.028   5.306
 7627SOL     OW23779   6.698   0.384   0.365
 7627SOL    HW123780   6.627   0.387   0.294
 7627SOL    HW223781   6.773   0.326   0.334
 7628SOL     OW23782   4.291   1.303   0.435
 7628SOL    HW123783   4.270   1.366   0.509
 7628SOL    HW223784   4.361   1.238   0.466
 7629SOL     OW23785   6.112   5.699   2.631
 7629SOL    HW123786   6.155   5.773   2.579
 7629SOL    HW223787   6.141   5.705   2.727
 7630SOL     OW23788   5.587   1.578   1.889
 7630SOL    HW123789   5.545   1.651   1.943
 7630SOL    HW223790   5.576   1.598   1.792
 7631SOL     OW23791   1.367   0.055   3.861
 7631SOL    HW123792   1.335   0.146   3.889
 7631SOL    HW223793   1.296   7.007   3.878
 7632SOL     OW23794   4.509   0.881   4.615
 7632SOL    HW123795   4.547   0.802   4.567
 7632SOL    HW223796   4.528   0.873   4.713
 7633SOL     OW23797   6.189   3.434   6.210
 7633SOL    HW123798   6.283   3.419   6.181
 7633SOL    HW223799   6.186   3.449   6.309
 7634SOL     OW23800   1.046   2.530   1.769
 7634SOL    HW123801   1.089   2.455   1.718
 7634SOL    HW223802   0.960   2.497   1.809
 7635SOL     OW23803   2.148   4.523   5.452
 7635SOL    HW123804   2.074   4.459   5.432
 7635SOL    HW223805   2.230   4.496   5.400
 7636SOL     OW23806   1.110   1.134   3.507
 7636SOL    HW123807   1.150   1.204   3.567
 7636SOL    HW223808   1.011   1.137   3.513
 7637SOL     OW23809   3.085   6.234   4.124
 7637SOL    HW123810   3.041   6.266   4.040
 7637SOL    HW223811   3.184   6.234   4.112
 7638SOL     OW23812   4.593   4.800   1.951
 7638SOL    HW123813   4.549   4.715   1.924
 7638SOL    HW223814   4.547   4.838   2.031
 7639SOL     OW23815   0.760   2.165   4.545
 7639SOL    HW123816   0.780   2.236   4.612
 7639SOL    HW223817   0.692   2.102   4.583
 7640SOL     OW23818   2.004   2.890   6.353
 7640SOL    HW123819   2.090   2.908   6.400
 7640SOL    HW223820   2.007   2.931   6.262
 7641SOL     OW23821   6.187   3.489   2.106
 7641SOL    HW123822   6.093   3.491   2.139
 7641SOL    HW223823   6.190   3.522   2.012
 7642SOL     OW23824   1.064   2.400   2.511
 7642SOL    HW123825   1.133   2.345   2.464
 7642SOL    HW223826   1.063   2.492   2.473
 7643SOL     OW23827   5.344   3.762   3.420
 7643SOL    HW123828   5.253   3.801   3.430
 7643SOL    HW223829   5.408   3.833   3.392
 7644SOL     OW23830   6.057   3.045   3.744
 7644SOL    HW123831   6.148   3.045   3.702
 7644SOL    HW223832   5.988   3.038   3.672
 7645SOL     OW23833   4.242   2.976   0.812
 7645SOL    HW123834   4.285   3.056   0.769
 7645SOL    HW223835   4.196   2.921   0.742
 7646SOL     OW23836   0.737   0.141   2.140
 7646SOL    HW123837   0.801   0.218   2.139
 7646SOL    HW223838   0.787   0.056   2.121
 7647SOL     OW23839   2.403   4.543   6.847
 7647SOL    HW123840   2.472   4.483   6.806
 7647SOL    HW223841   2.314   4.499   6.843
 7648SOL     OW23842   2.648   0.474   3.533
 7648SOL    HW123843   2.579   0.498   3.602
 7648SOL    HW223844   2.660   0.375   3.532
 7649SOL     OW23845   3.639   1.999   1.148
 7649SOL    HW123846   3.728   2.016   1.190
 7649SOL    HW223847   3.571   2.060   1.189
 7650SOL     OW23848   6.739   5.067   0.634
 7650SOL    HW123849   6.821   5.028   0.675
 7650SOL    HW223850   6.763   5.145   0.576
 7651SOL     OW23851   5.475   1.998   5.978
 7651SOL    HW123852   5.400   2.045   6.024
 7651SOL    HW223853   5.555   2.057   5.977
 7652SOL     OW23854   0.711   3.128   2.441
 7652SOL    HW123855   0.805   3.125   2.474
 7652SOL    HW223856   0.659   3.194   2.496
 7653SOL     OW23857   4.554   2.490   2.001
 7653SOL    HW123858   4.583   2.580   2.036
 7653SOL    HW223859   4.556   2.491   1.901
 7654SOL     OW23860   5.380   3.645   5.400
 7654SOL    HW123861   5.383   3.708   5.477
 7654SOL    HW223862   5.471   3.637   5.359
 7655SOL     OW23863   5.104   4.972   6.346
 7655SOL    HW123864   5.164   5.005   6.419
 7655SOL    HW223865   5.134   4.882   6.317
 7656SOL     OW23866   0.261   0.755   5.090
 7656SOL    HW123867   0.326   0.777   5.163
 7656SOL    HW223868   0.198   0.683   5.122
 7657SOL     OW23869   3.496   1.824   3.425
 7657SOL    HW123870   3.404   1.788   3.444
 7657SOL    HW223871   3.561   1.782   3.488
 7658SOL     OW23872   4.163   0.786   5.713
 7658SOL    HW123873   4.169   0.867   5.655
 7658SOL    HW223874   4.091   0.800   5.781
 7659SOL     OW23875   5.241   6.494   6.072
 7659SOL    HW123876   5.256   6.525   6.166
 7659SOL    HW223877   5.250   6.394   6.069
 7660SOL     OW23878   5.384   5.158   3.546
 7660SOL    HW123879   5.387   5.248   3.503
 7660SOL    HW223880   5.303   5.152   3.605
 7661SOL     OW23881   5.933   3.243   3.518
 7661SOL    HW123882   5.919   3.330   3.565
 7661SOL    HW223883   5.948   3.260   3.420
 7662SOL     OW23884   6.081   5.555   3.404
 7662SOL    HW123885   6.159   5.499   3.431
 7662SOL    HW223886   5.998   5.521   3.448
 7663SOL     OW23887   0.889   6.272   6.761
 7663SOL    HW123888   0.962   6.235   6.703
 7663SOL    HW223889   0.880   6.370   6.745
 7664SOL     OW23890   4.270   5.320   4.853
 7664SOL    HW123891   4.307   5.228   4.844
 7664SOL    HW223892   4.246   5.338   4.948
 7665SOL     OW23893   2.006   5.387   3.650
 7665SOL    HW123894   1.941   5.382   3.726
 7665SOL    HW223895   2.061   5.471   3.659
 7666SOL     OW23896   2.040   0.382   2.555
 7666SOL    HW123897   2.041   0.341   2.464
 7666SOL    HW223898   1.953   0.427   2.570
 7667SOL     OW23899   5.738   6.893   5.689
 7667SOL    HW123900   5.825   6.861   5.651
 7667SOL    HW223901   5.697   6.821   5.744
 7668SOL     OW23902   3.205   2.929   2.623
 7668SOL    HW123903   3.137   2.981   2.571
 7668SOL    HW223904   3.159   2.868   2.687
 7669SOL     OW23905   4.592   6.661   5.019
 7669SOL    HW123906   4.540   6.595   4.963
 7669SOL    HW223907   4.648   6.611   5.085
 7670SOL     OW23908   1.928   5.888   1.051
 7670SOL    HW123909   1.959   5.793   1.049
 7670SOL    HW223910   1.867   5.905   0.974
 7671SOL     OW23911   4.492   2.465   4.769
 7671SOL    HW123912   4.512   2.369   4.749
 7671SOL    HW223913   4.518   2.486   4.863
 7672SOL     OW23914   5.820   0.145   1.702
 7672SOL    HW123915   5.774   0.231   1.679
 7672SOL    HW223916   5.756   0.069   1.692
 7673SOL     OW23917   1.904   3.716   0.101
 7673SOL    HW123918   1.928   3.809   0.073
 7673SOL    HW223919   1.816   3.691   0.061
 7674SOL     OW23920   5.980   1.259   5.265
 7674SOL    HW123921   6.006   1.355   5.258
 7674SOL    HW223922   6.040   1.204   5.207
 7675SOL     OW23923   5.055   0.498   3.232
 7675SOL    HW123924   5.092   0.455   3.150
 7675SOL    HW223925   5.131   0.522   3.293
 7676SOL     OW23926   2.098   0.134   1.390
 7676SOL    HW123927   2.024   0.132   1.458
 7676SOL    HW223928   2.065   0.179   1.307
 7677SOL     OW23929   1.994   2.814   2.640
 7677SOL    HW123930   1.958   2.722   2.622
 7677SOL    HW223931   1.969   2.842   2.732
 7678SOL     OW23932   4.827   6.606   5.755
 7678SOL    HW123933   4.757   6.627   5.823
 7678SOL    HW223934   4.906   6.665   5.770
 7679SOL     OW23935   1.673   5.072   4.889
 7679SOL    HW123936   1.586   5.084   4.843
 7679SOL    HW223937   1.709   4.981   4.870
 7680SOL     OW23938   4.226   0.485   0.745
 7680SOL    HW123939   4.186   0.559   0.798
 7680SOL    HW223940   4.316   0.514   0.711
 7681SOL     OW23941   3.873   2.232   5.671
 7681SOL    HW123942   3.961   2.183   5.672
 7681SOL    HW223943   3.807   2.183   5.728
 7682SOL     OW23944   2.743   0.788   0.458
 7682SOL    HW123945   2.728   0.771   0.360
 7682SOL    HW223946   2.834   0.755   0.484
 7683SOL     OW23947   6.816   3.184   3.346
 7683SOL    HW123948   6.806   3.182   3.246
 7683SOL    HW223949   6.813   3.278   3.378
 7684SOL     OW23950   3.965   1.554   5.798
 7684SOL    HW123951   4.054   1.576   5.758
 7684SOL    HW223952   3.947   1.456   5.788
 7685SOL     OW23953   4.516   4.708   1.645
 7685SOL    HW123954   4.603   4.714   1.596
 7685SOL    HW223955   4.524   4.756   1.732
 7686SOL     OW23956   2.116   0.724   2.633
 7686SOL    HW123957   2.036   0.695   2.687
 7686SOL    HW223958   2.099   0.816   2.597
 7687SOL     OW23959   4.829   4.172   5.551
 7687SOL    HW123960   4.765   4.223   5.609
 7687SOL    HW223961   4.790   4.083   5.529
 7688SOL     OW23962   6.846   0.841   3.433
 7688SOL    HW123963   6.839   0.852   3.334
 7688SOL    HW223964   6.794   0.914   3.478
 7689SOL     OW23965   3.196   0.106   5.085
 7689SOL    HW123966   3.183   0.192   5.035
 7689SOL    HW223967   3.165   0.117   5.179
 7690SOL     OW23968   0.898   5.339   2.933
 7690SOL    HW123969   0.918   5.432   2.900
 7690SOL    HW223970   0.816   5.341   2.989
 7691SOL     OW23971   6.644   3.727   5.407
 7691SOL    HW123972   6.553   3.692   5.386
 7691SOL    HW223973   6.639   3.784   5.489
 7692SOL     OW23974   1.627   6.202   1.230
 7692SOL    HW123975   1.542   6.180   1.278
 7692SOL    HW223976   1.651   6.127   1.168
 7693SOL     OW23977   4.544   0.913   0.657
 7693SOL    HW123978   4.445   0.909   0.676
 7693SOL    HW223979   4.588   0.833   0.696
 7694SOL     OW23980   5.978   4.832   3.222
 7694SOL    HW123981   5.964   4.884   3.307
 7694SOL    HW223982   5.894   4.833   3.169
 7695SOL     OW23983   5.145   0.261   6.741
 7695SOL    HW123984   5.171   0.270   6.645
 7695SOL    HW223985   5.077   0.330   6.763
 7696SOL     OW23986   1.123   4.192   5.336
 7696SOL    HW123987   1.184   4.264   5.306
 7696SOL    HW223988   1.064   4.225   5.410
 7697SOL     OW23989   4.673   0.614   2.321
 7697SOL    HW123990   4.772   0.617   2.334
 7697SOL    HW223991   4.627   0.621   2.410
 7698SOL     OW23992   0.322   1.745   6.191
 7698SOL    HW123993   0.368   1.768   6.277
 7698SOL    HW223994   0.380   1.772   6.114
 7699SOL     OW23995   3.288   3.288   1.533
 7699SOL    HW123996   3.225   3.364   1.518
 7699SOL    HW223997   3.246   3.222   1.596
 7700SOL     OW23998   5.103   0.313   5.095
 7700SOL    HW123999   5.187   0.279   5.053
 7700SOL    HW224000   5.123   0.394   5.149
 7701SOL     OW24001   6.126   1.933   5.197
 7701SOL    HW124002   6.055   1.957   5.130
 7701SOL    HW224003   6.099   1.851   5.247
 7702SOL     OW24004   1.248   6.424   6.773
 7702SOL    HW124005   1.263   6.516   6.737
 7702SOL    HW224006   1.301   6.359   6.720
 7703SOL     OW24007   0.635   2.081   6.803
 7703SOL    HW124008   0.662   1.987   6.823
 7703SOL    HW224009   0.633   2.134   6.887
 7704SOL     OW24010   3.522   4.035   1.375
 7704SOL    HW124011   3.561   4.127   1.368
 7704SOL    HW224012   3.428   4.036   1.340
 7705SOL     OW24013   4.053   3.784   4.370
 7705SOL    HW124014   3.993   3.862   4.355
 7705SOL    HW224015   4.092   3.755   4.282
 7706SOL     OW24016   6.093   1.388   5.791
 7706SOL    HW124017   6.068   1.483   5.776
 7706SOL    HW224018   6.034   1.329   5.736
 7707SOL     OW24019   0.159   4.964   6.360
 7707SOL    HW124020   0.206   4.895   6.414
 7707SOL    HW224021   0.109   5.026   6.421
 7708SOL     OW24022   4.629   1.126   5.165
 7708SOL    HW124023   4.633   1.224   5.143
 7708SOL    HW224024   4.676   1.109   5.252
 7709SOL     OW24025   3.791   2.586   1.117
 7709SOL    HW124026   3.819   2.567   1.211
 7709SOL    HW224027   3.728   2.514   1.086
 7710SOL     OW24028   3.407   1.967   6.543
 7710SOL    HW124029   3.391   1.901   6.616
 7710SOL    HW224030   3.321   1.986   6.495
 7711SOL     OW24031   4.218   6.124   4.813
 7711SOL    HW124032   4.289   6.192   4.797
 7711SOL    HW224033   4.180   6.135   4.905
 7712SOL     OW24034   6.171   4.214   5.953
 7712SOL    HW124035   6.205   4.161   6.031
 7712SOL    HW224036   6.182   4.311   5.972
 7713SOL     OW24037   0.419   5.235   6.442
 7713SOL    HW124038   0.423   5.232   6.343
 7713SOL    HW224039   0.324   5.235   6.472
 7714SOL     OW24040   5.366   4.724   4.725
 7714SOL    HW124041   5.363   4.626   4.704
 7714SOL    HW224042   5.397   4.774   4.644
 7715SOL     OW24043   3.796   2.108   1.592
 7715SOL    HW124044   3.832   2.191   1.634
 7715SOL    HW224045   3.704   2.090   1.629
 7716SOL     OW24046   4.222   2.263   4.737
 7716SOL    HW124047   4.198   2.357   4.759
 7716SOL    HW224048   4.144   2.217   4.696
 7717SOL     OW24049   2.924   6.846   6.878
 7717SOL    HW124050   2.923   6.878   6.784
 7717SOL    HW224051   2.894   6.750   6.882
 7718SOL     OW24052   2.127   6.257   3.390
 7718SOL    HW124053   2.226   6.273   3.389
 7718SOL    HW224054   2.095   6.255   3.484
 7719SOL     OW24055   5.545   2.364   5.479
 7719SOL    HW124056   5.486   2.390   5.402
 7719SOL    HW224057   5.528   2.426   5.556
 7720SOL     OW24058   5.103   6.410   1.408
 7720SOL    HW124059   5.125   6.399   1.505
 7720SOL    HW224060   5.055   6.329   1.375
 7721SOL     OW24061   0.866   5.094   2.862
 7721SOL    HW124062   0.885   5.189   2.886
 7721SOL    HW224063   0.952   5.044   2.854
 7722SOL     OW24064   0.677   5.847   3.882
 7722SOL    HW124065   0.740   5.920   3.856
 7722SOL    HW224066   0.603   5.841   3.815
 7723SOL     OW24067   6.756   1.890   6.538
 7723SOL    HW124068   6.675   1.881   6.597
 7723SOL    HW224069   6.743   1.836   6.455
 7724SOL     OW24070   2.450   6.208   6.609
 7724SOL    HW124071   2.451   6.297   6.656
 7724SOL    HW224072   2.540   6.190   6.571
 7725SOL     OW24073   4.957   4.134   3.719
 7725SOL    HW124074   4.958   4.174   3.627
 7725SOL    HW224075   5.045   4.150   3.763
 7726SOL     OW24076   5.385   5.393   3.435
 7726SOL    HW124077   5.479   5.380   3.404
 7726SOL    HW224078   5.332   5.437   3.363
 7727SOL     OW24079   6.047   3.923   2.131
 7727SOL    HW124080   6.072   3.902   2.036
 7727SOL    HW224081   5.957   3.886   2.151
 7728SOL     OW24082   2.137   2.931   3.075
 7728SOL    HW124083   2.223   2.884   3.059
 7728SOL    HW224084   2.068   2.897   3.011
 7729SOL     OW24085   5.460   1.662   6.262
 7729SOL    HW124086   5.483   1.696   6.171
 7729SOL    HW224087   5.391   1.590   6.254
 7730SOL     OW24088   4.723   6.508   2.741
 7730SOL    HW124089   4.767   6.528   2.653
 7730SOL    HW224090   4.647   6.572   2.755
 7731SOL     OW24091   6.268   1.511   3.832
 7731SOL    HW124092   6.262   1.589   3.770
 7731SOL    HW224093   6.180   1.499   3.879
 7732SOL     OW24094   4.580   4.423   1.147
 7732SOL    HW124095   4.584   4.517   1.183
 7732SOL    HW224096   4.536   4.424   1.057
 7733SOL     OW24097   3.423   5.269   0.981
 7733SOL    HW124098   3.378   5.223   0.905
 7733SOL    HW224099   3.406   5.367   0.976
 7734SOL     OW24100   1.493   2.914   2.072
 7734SOL    HW124101   1.450   2.901   2.161
 7734SOL    HW224102   1.427   2.897   1.999
 7735SOL     OW24103   5.872   4.314   0.546
 7735SOL    HW124104   5.784   4.275   0.518
 7735SOL    HW224105   5.886   4.300   0.644
 7736SOL     OW24106   5.997   4.428   6.444
 7736SOL    HW124107   6.053   4.419   6.526
 7736SOL    HW224108   5.912   4.377   6.455
 7737SOL     OW24109   4.809   2.761   0.180
 7737SOL    HW124110   4.805   2.745   0.081
 7737SOL    HW224111   4.739   2.828   0.205
 7738SOL     OW24112   1.845   5.065   6.540
 7738SOL    HW124113   1.776   5.114   6.593
 7738SOL    HW224114   1.918   5.128   6.513
 7739SOL     OW24115   5.478   4.695   2.045
 7739SOL    HW124116   5.527   4.772   2.087
 7739SOL    HW224117   5.419   4.729   1.972
 7740SOL     OW24118   6.808   5.974   3.671
 7740SOL    HW124119   6.788   5.891   3.618
 7740SOL    HW224120   6.905   5.996   3.661
 7741SOL     OW24121   3.130   5.404   3.547
 7741SOL    HW124122   3.112   5.403   3.646
 7741SOL    HW224123   3.052   5.444   3.499
 7742SOL     OW24124   6.618   0.796   4.536
 7742SOL    HW124125   6.558   0.833   4.465
 7742SOL    HW224126   6.713   0.812   4.511
 7743SOL     OW24127   4.924   3.436   2.548
 7743SOL    HW124128   4.900   3.402   2.457
 7743SOL    HW224129   4.916   3.362   2.615
 7744SOL     OW24130   0.308   6.590   4.910
 7744SOL    HW124131   0.211   6.607   4.923
 7744SOL    HW224132   0.321   6.498   4.872
 7745SOL     OW24133   5.582   2.782   5.449
 7745SOL    HW124134   5.559   2.726   5.370
 7745SOL    HW224135   5.681   2.794   5.455
 7746SOL     OW24136   1.954   0.900   6.244
 7746SOL    HW124137   1.876   0.872   6.300
 7746SOL    HW224138   2.029   0.835   6.258
 7747SOL     OW24139   4.780   5.623   0.309
 7747SOL    HW124140   4.848   5.642   0.238
 7747SOL    HW224141   4.816   5.554   0.372
 7748SOL     OW24142   2.166   3.740   6.603
 7748SOL    HW124143   2.183   3.826   6.556
 7748SOL    HW224144   2.118   3.758   6.689
 7749SOL     OW24145   5.839   3.142   6.032
 7749SOL    HW124146   5.899   3.107   6.104
 7749SOL    HW224147   5.891   3.205   5.974
 7750SOL     OW24148   4.199   5.536   3.021
 7750SOL    HW124149   4.299   5.534   3.031
 7750SOL    HW224150   4.162   5.444   3.033
 7751SOL     OW24151   0.736   2.415   1.165
 7751SOL    HW124152   0.826   2.457   1.157
 7751SOL    HW224153   0.713   2.368   1.080
 7752SOL     OW24154   3.164   0.659   2.829
 7752SOL    HW124155   3.223   0.584   2.857
 7752SOL    HW224156   3.215   0.745   2.834
 7753SOL     OW24157   4.261   0.518   5.753
 7753SOL    HW124158   4.198   0.495   5.678
 7753SOL    HW224159   4.247   0.614   5.779
 7754SOL     OW24160   4.414   6.093   1.386
 7754SOL    HW124161   4.334   6.072   1.442
 7754SOL    HW224162   4.497   6.070   1.437
 7755SOL     OW24163   1.049   3.714   6.230
 7755SOL    HW124164   1.028   3.657   6.309
 7755SOL    HW224165   0.964   3.743   6.186
 7756SOL     OW24166   1.733   3.915   2.297
 7756SOL    HW124167   1.778   3.974   2.365
 7756SOL    HW224168   1.678   3.846   2.345
 7757SOL     OW24169   1.065   4.514   0.211
 7757SOL    HW124170   1.061   4.569   0.295
 7757SOL    HW224171   1.151   4.533   0.164
 7758SOL     OW24172   0.411   1.056   5.494
 7758SOL    HW124173   0.386   1.127   5.428
 7758SOL    HW224174   0.340   0.986   5.497
 7759SOL     OW24175   3.629   1.257   2.644
 7759SOL    HW124176   3.722   1.276   2.676
 7759SOL    HW224177   3.578   1.343   2.640
 7760SOL     OW24178   4.843   3.107   0.243
 7760SOL    HW124179   4.758   3.064   0.212
 7760SOL    HW224180   4.881   3.163   0.169
 7761SOL     OW24181   5.280   5.540   2.703
 7761SOL    HW124182   5.288   5.601   2.781
 7761SOL    HW224183   5.295   5.446   2.733
 7762SOL     OW24184   4.511   1.678   0.471
 7762SOL    HW124185   4.485   1.609   0.539
 7762SOL    HW224186   4.589   1.645   0.418
 7763SOL     OW24187   1.759   0.680   3.500
 7763SOL    HW124188   1.789   0.744   3.570
 7763SOL    HW224189   1.684   0.719   3.448
 7764SOL     OW24190   3.869   4.564   5.318
 7764SOL    HW124191   3.773   4.545   5.335
 7764SOL    HW224192   3.916   4.479   5.294
 7765SOL     OW24193   6.477   4.305   4.446
 7765SOL    HW124194   6.529   4.227   4.413
 7765SOL    HW224195   6.441   4.357   4.368
 7766SOL     OW24196   6.770   2.082   5.705
 7766SOL    HW124197   6.829   2.002   5.716
 7766SOL    HW224198   6.796   2.132   5.623
 7767SOL     OW24199   4.307   0.575   3.696
 7767SOL    HW124200   4.317   0.666   3.737
 7767SOL    HW224201   4.393   0.525   3.704
 7768SOL     OW24202   3.496   5.833   3.368
 7768SOL    HW124203   3.488   5.910   3.432
 7768SOL    HW224204   3.555   5.859   3.292
 7769SOL     OW24205   3.754   2.154   6.560
 7769SOL    HW124206   3.818   2.216   6.604
 7769SOL    HW224207   3.733   2.188   6.468
 7770SOL     OW24208   1.216   2.953   3.718
 7770SOL    HW124209   1.238   3.051   3.714
 7770SOL    HW224210   1.293   2.904   3.759
 7771SOL     OW24211   0.926   3.974   5.057
 7771SOL    HW124212   0.943   3.898   4.995
 7771SOL    HW224213   0.892   3.939   5.144
 7772SOL     OW24214   5.083   5.569   1.883
 7772SOL    HW124215   5.084   5.504   1.958
 7772SOL    HW224216   5.060   5.521   1.798
 7773SOL     OW24217   2.918   6.379   6.692
 7773SOL    HW124218   2.967   6.465   6.680
 7773SOL    HW224219   2.844   6.374   6.625
 7774SOL     OW24220   5.235   1.139   2.753
 7774SOL    HW124221   5.283   1.221   2.784
 7774SOL    HW224222   5.238   1.069   2.825
 7775SOL     OW24223   3.644   1.724   1.283
 7775SOL    HW124224   3.644   1.824   1.283
 7775SOL    HW224225   3.552   1.690   1.263
 7776SOL     OW24226   2.644   1.408   3.778
 7776SOL    HW124227   2.689   1.337   3.833
 7776SOL    HW224228   2.712   1.454   3.721
 7777SOL     OW24229   5.207   5.135   3.211
 7777SOL    HW124230   5.133   5.126   3.278
 7777SOL    HW224231   5.266   5.055   3.217
 7778SOL     OW24232   0.939   3.056   1.509
 7778SOL    HW124233   0.866   2.988   1.517
 7778SOL    HW224234   0.972   3.058   1.414
 7779SOL     OW24235   2.734   0.772   3.539
 7779SOL    HW124236   2.759   0.676   3.524
 7779SOL    HW224237   2.786   0.830   3.476
 7780SOL     OW24238   6.425   5.608   4.031
 7780SOL    HW124239   6.482   5.670   3.977
 7780SOL    HW224240   6.409   5.648   4.121
 7781SOL     OW24241   3.226   3.069   1.268
 7781SOL    HW124242   3.157   2.997   1.259
 7781SOL    HW224243   3.274   3.058   1.355
 7782SOL     OW24244   5.516   4.976   3.421
 7782SOL    HW124245   5.438   4.968   3.359
 7782SOL    HW224246   5.494   5.042   3.493
 7783SOL     OW24247   0.579   6.163   3.943
 7783SOL    HW124248   0.588   6.261   3.960
 7783SOL    HW224249   0.554   6.148   3.847
 7784SOL     OW24250   1.157   2.873   2.334
 7784SOL    HW124251   1.229   2.840   2.394
 7784SOL    HW224252   1.145   2.971   2.346
 7785SOL     OW24253   6.050   6.744   2.649
 7785SOL    HW124254   6.039   6.836   2.686
 7785SOL    HW224255   6.070   6.748   2.552
 7786SOL     OW24256   5.588   0.926   6.760
 7786SOL    HW124257   5.673   0.921   6.814
 7786SOL    HW224258   5.529   0.849   6.783
 7787SOL     OW24259   0.976   2.488   1.088
 7787SOL    HW124260   1.046   2.540   1.137
 7787SOL    HW224261   0.986   2.501   0.990
 7788SOL     OW24262   1.205   4.063   2.130
 7788SOL    HW124263   1.244   4.004   2.059
 7788SOL    HW224264   1.184   4.007   2.210
 7789SOL     OW24265   3.567   0.047   6.287
 7789SOL    HW124266   3.486   0.064   6.232
 7789SOL    HW224267   3.597   0.132   6.331
 7790SOL     OW24268   3.897   5.188   4.359
 7790SOL    HW124269   3.933   5.123   4.292
 7790SOL    HW224270   3.901   5.280   4.321
 7791SOL     OW24271   2.232   6.683   1.295
 7791SOL    HW124272   2.242   6.614   1.367
 7791SOL    HW224273   2.322   6.709   1.261
 7792SOL     OW24274   1.429   1.272   2.356
 7792SOL    HW124275   1.473   1.310   2.274
 7792SOL    HW224276   1.377   1.191   2.330
 7793SOL     OW24277   5.366   1.668   0.816
 7793SOL    HW124278   5.322   1.583   0.788
 7793SOL    HW224279   5.371   1.730   0.738
 7794SOL     OW24280   1.381   1.444   2.681
 7794SOL    HW124281   1.340   1.512   2.742
 7794SOL    HW224282   1.311   1.381   2.649
 7795SOL     OW24283   4.440   3.788   1.209
 7795SOL    HW124284   4.471   3.736   1.288
 7795SOL    HW224285   4.354   3.750   1.175
 7796SOL     OW24286   3.930   1.285   0.796
 7796SOL    HW124287   3.973   1.349   0.859
 7796SOL    HW224288   3.880   1.335   0.725
 7797SOL     OW24289   1.269   6.203   3.237
 7797SOL    HW124290   1.240   6.270   3.306
 7797SOL    HW224291   1.352   6.236   3.192
 7798SOL     OW24292   1.699   3.318   0.797
 7798SOL    HW124293   1.601   3.305   0.803
 7798SOL    HW224294   1.729   3.384   0.866
 7799SOL     OW24295   1.923   6.060   4.246
 7799SOL    HW124296   1.969   6.024   4.165
 7799SOL    HW224297   1.901   5.986   4.309
 7800SOL     OW24298   0.637   0.534   2.389
 7800SOL    HW124299   0.680   0.455   2.432
 7800SOL    HW224300   0.625   0.606   2.457
 7801SOL     OW24301   2.521   2.101   0.722
 7801SOL    HW124302   2.537   2.006   0.694
 7801SOL    HW224303   2.429   2.129   0.695
 7802SOL     OW24304   6.635   4.942   3.738
 7802SOL    HW124305   6.712   4.901   3.690
 7802SOL    HW224306   6.667   4.982   3.824
 7803SOL     OW24307   3.347   2.410   6.325
 7803SOL    HW124308   3.428   2.436   6.272
 7803SOL    HW224309   3.375   2.352   6.402
 7804SOL     OW24310   2.940   1.076   5.628
 7804SOL    HW124311   2.990   1.160   5.606
 7804SOL    HW224312   2.954   1.053   5.724
 7805SOL     OW24313   6.539   1.760   6.706
 7805SOL    HW124314   6.608   1.771   6.777
 7805SOL    HW224315   6.576   1.701   6.634
 7806SOL     OW24316   6.257   2.563   4.860
 7806SOL    HW124317   6.160   2.554   4.884
 7806SOL    HW224318   6.288   2.654   4.884
 7807SOL     OW24319   1.856   5.615   5.315
 7807SOL    HW124320   1.933   5.559   5.346
 7807SOL    HW224321   1.871   5.644   5.221
 7808SOL     OW24322   6.891   2.980   4.329
 7808SOL    HW124323   6.838   2.976   4.414
 7808SOL    HW224324   6.977   2.930   4.340
 7809SOL     OW24325   3.200   0.540   3.195
 7809SOL    HW124326   3.272   0.533   3.126
 7809SOL    HW224327   3.229   0.601   3.268
 7810SOL     OW24328   2.816   6.738   5.959
 7810SOL    HW124329   2.783   6.650   5.992
 7810SOL    HW224330   2.792   6.809   6.025
 7811SOL     OW24331   1.442   4.895   3.019
 7811SOL    HW124332   1.368   4.875   3.084
 7811SOL    HW224333   1.421   4.980   2.970
 7812SOL     OW24334   3.189   0.680   6.068
 7812SOL    HW124335   3.256   0.680   6.143
 7812SOL    HW224336   3.098   0.697   6.104
 7813SOL     OW24337   5.762   1.296   0.547
 7813SOL    HW124338   5.711   1.382   0.547
 7813SOL    HW224339   5.711   1.228   0.600
 7814SOL     OW24340   0.321   2.400   1.470
 7814SOL    HW124341   0.280   2.413   1.380
 7814SOL    HW224342   0.311   2.305   1.498
 7815SOL     OW24343   4.709   6.079   3.337
 7815SOL    HW124344   4.699   6.146   3.264
 7815SOL    HW224345   4.699   6.125   3.426
 7816SOL     OW24346   1.450   1.770   5.515
 7816SOL    HW124347   1.365   1.718   5.513
 7816SOL    HW224348   1.465   1.806   5.607
 7817SOL     OW24349   4.575   0.969   5.447
 7817SOL    HW124350   4.609   0.901   5.382
 7817SOL    HW224351   4.494   0.933   5.494
 7818SOL     OW24352   4.780   0.745   2.767
 7818SOL    HW124353   4.682   0.753   2.784
 7818SOL    HW224354   4.814   0.831   2.728
 7819SOL     OW24355   2.648   2.379   4.574
 7819SOL    HW124356   2.663   2.415   4.666
 7819SOL    HW224357   2.570   2.425   4.532
 7820SOL     OW24358   1.935   0.483   6.350
 7820SOL    HW124359   1.980   0.493   6.262
 7820SOL    HW224360   1.993   0.520   6.422
 7821SOL     OW24361   3.614   5.763   6.666
 7821SOL    HW124362   3.544   5.732   6.730
 7821SOL    HW224363   3.576   5.768   6.574
 7822SOL     OW24364   0.583   1.133   4.747
 7822SOL    HW124365   0.490   1.142   4.711
 7822SOL    HW224366   0.580   1.095   4.839
 7823SOL     OW24367   2.357   2.667   5.601
 7823SOL    HW124368   2.287   2.616   5.552
 7823SOL    HW224369   2.438   2.676   5.543
 7824SOL     OW24370   6.138   3.816   2.384
 7824SOL    HW124371   6.077   3.882   2.428
 7824SOL    HW224372   6.119   3.813   2.286
 7825SOL     OW24373   3.586   2.857   4.003
 7825SOL    HW124374   3.554   2.896   4.089
 7825SOL    HW224375   3.508   2.819   3.953
 7826SOL     OW24376   6.138   6.524   1.074
 7826SOL    HW124377   6.059   6.580   1.047
 7826SOL    HW224378   6.110   6.429   1.080
 7827SOL     OW24379   4.958   3.745   0.411
 7827SOL    HW124380   5.023   3.692   0.466
 7827SOL    HW224381   4.871   3.751   0.459
 7828SOL     OW24382   0.855   6.159   0.231
 7828SOL    HW124383   0.936   6.104   0.211
 7828SOL    HW224384   0.873   6.255   0.211
 7829SOL     OW24385   3.190   4.079   3.031
 7829SOL    HW124386   3.186   4.119   2.939
 7829SOL    HW224387   3.271   4.022   3.039
 7830SOL     OW24388   6.903   4.705   6.860
 7830SOL    HW124389   6.995   4.690   6.825
 7830SOL    HW224390   6.889   4.651   6.943
 7831SOL     OW24391   3.119   2.901   6.953
 7831SOL    HW124392   3.131   2.948   6.865
 7831SOL    HW224393   3.156   2.808   6.946
 7832SOL     OW24394   3.598   2.661   5.663
 7832SOL    HW124395   3.634   2.692   5.751
 7832SOL    HW224396   3.550   2.575   5.675
 7833SOL     OW24397   6.295   0.041   1.385
 7833SOL    HW124398   6.312   7.020   1.474
 7833SOL    HW224399   6.297   0.141   1.394
 7834SOL     OW24400   5.295   1.034   1.391
 7834SOL    HW124401   5.261   1.108   1.449
 7834SOL    HW224402   5.246   0.949   1.414
 7835SOL     OW24403   2.477   2.597   4.173
 7835SOL    HW124404   2.524   2.520   4.130
 7835SOL    HW224405   2.426   2.564   4.253
 7836SOL     OW24406   2.462   0.658   6.969
 7836SOL    HW124407   2.501   0.566   6.974
 7836SOL    HW224408   2.411   0.667   6.883
 7837SOL     OW24409   5.680   6.345   2.159
 7837SOL    HW124410   5.671   6.436   2.199
 7837SOL    HW224411   5.590   6.303   2.151
 7838SOL     OW24412   3.456   5.567   4.115
 7838SOL    HW124413   3.432   5.647   4.060
 7838SOL    HW224414   3.405   5.488   4.082
 7839SOL     OW24415   7.015   5.719   3.026
 7839SOL    HW124416   0.011   5.817   3.040
 7839SOL    HW224417   6.948   5.687   3.093
 7840SOL     OW24418   4.188   2.571   6.192
 7840SOL    HW124419   4.253   2.512   6.144
 7840SOL    HW224420   4.171   2.653   6.137
 7841SOL     OW24421   1.318   2.106   5.989
 7841SOL    HW124422   1.330   2.100   6.088
 7841SOL    HW224423   1.252   2.037   5.958
 7842SOL     OW24424   1.889   1.298   2.383
 7842SOL    HW124425   1.860   1.202   2.391
 7842SOL    HW224426   1.934   1.326   2.468
 7843SOL     OW24427   0.108   2.208   1.712
 7843SOL    HW124428   0.180   2.201   1.643
 7843SOL    HW224429   0.128   2.284   1.774
 7844SOL     OW24430   3.261   1.960   3.225
 7844SOL    HW124431   3.279   1.946   3.128
 7844SOL    HW224432   3.227   1.876   3.266
 7845SOL     OW24433   1.166   1.084   4.244
 7845SOL    HW124434   1.229   1.132   4.305
 7845SOL    HW224435   1.216   1.015   4.192
 7846SOL     OW24436   4.986   6.713   2.652
 7846SOL    HW124437   5.030   6.626   2.676
 7846SOL    HW224438   4.968   6.766   2.735
 7847SOL     OW24439   0.507   6.488   6.525
 7847SOL    HW124440   0.412   6.486   6.557
 7847SOL    HW224441   0.508   6.495   6.426
 7848SOL     OW24442   4.417   3.899   1.554
 7848SOL    HW124443   4.420   3.818   1.496
 7848SOL    HW224444   4.458   3.977   1.506
 7849SOL     OW24445   5.610   4.349   4.882
 7849SOL    HW124446   5.636   4.272   4.823
 7849SOL    HW224447   5.620   4.435   4.830
 7850SOL     OW24448   1.324   2.822   4.933
 7850SOL    HW124449   1.396   2.766   4.976
 7850SOL    HW224450   1.367   2.892   4.876
 7851SOL     OW24451   2.934   6.616   0.755
 7851SOL    HW124452   2.959   6.543   0.819
 7851SOL    HW224453   2.946   6.705   0.800
 7852SOL     OW24454   2.524   6.554   0.936
 7852SOL    HW124455   2.494   6.467   0.974
 7852SOL    HW224456   2.623   6.552   0.922
 7853SOL     OW24457   1.923   1.626   0.033
 7853SOL    HW124458   1.833   1.583   0.041
 7853SOL    HW224459   1.987   1.563   7.010
 7854SOL     OW24460   3.899   3.986   4.367
 7854SOL    HW124461   3.823   3.987   4.433
 7854SOL    HW224462   3.872   4.037   4.285
 7855SOL     OW24463   2.763   6.851   4.687
 7855SOL    HW124464   2.806   6.937   4.658
 7855SOL    HW224465   2.829   6.797   4.740
 7856SOL     OW24466   2.938   3.169   6.133
 7856SOL    HW124467   2.958   3.071   6.122
 7856SOL    HW224468   2.870   3.197   6.066
 7857SOL     OW24469   0.192   2.738   5.042
 7857SOL    HW124470   0.253   2.807   5.003
 7857SOL    HW224471   0.162   2.768   5.133
 7858SOL     OW24472   5.096   2.879   3.331
 7858SOL    HW124473   5.013   2.832   3.303
 7858SOL    HW224474   5.172   2.815   3.334
 7859SOL     OW24475   6.844   6.899   0.621
 7859SOL    HW124476   6.875   6.875   0.529
 7859SOL    HW224477   6.918   6.881   0.686
 7860SOL     OW24478   4.472   6.227   1.155
 7860SOL    HW124479   4.569   6.251   1.151
 7860SOL    HW224480   4.458   6.156   1.224
 7861SOL     OW24481   6.531   3.371   0.441
 7861SOL    HW124482   6.512   3.414   0.353
 7861SOL    HW224483   6.530   3.272   0.430
 7862SOL     OW24484   2.598   4.546   1.772
 7862SOL    HW124485   2.692   4.558   1.804
 7862SOL    HW224486   2.543   4.508   1.846
 7863SOL     OW24487   4.249   5.928   2.716
 7863SOL    HW124488   4.306   5.908   2.795
 7863SOL    HW224489   4.305   5.928   2.633
 7864SOL     OW24490   1.578   5.692   5.368
 7864SOL    HW124491   1.630   5.629   5.310
 7864SOL    HW224492   1.638   5.764   5.401
 7865SOL     OW24493   4.685   0.758   3.301
 7865SOL    HW124494   4.743   0.685   3.336
 7865SOL    HW224495   4.695   0.840   3.358
 7866SOL     OW24496   3.154   0.341   5.834
 7866SOL    HW124497   3.233   0.334   5.774
 7866SOL    HW224498   3.145   0.256   5.887
 7867SOL     OW24499   6.747   3.024   0.660
 7867SOL    HW124500   6.767   2.972   0.743
 7867SOL    HW224501   6.744   3.122   0.682
 7868SOL     OW24502   4.976   6.465   1.086
 7868SOL    HW124503   4.952   6.495   0.993
 7868SOL    HW224504   5.073   6.480   1.102
 7869SOL     OW24505   6.080   1.614   4.160
 7869SOL    HW124506   6.174   1.583   4.147
 7869SOL    HW224507   6.079   1.712   4.180
 7870SOL     OW24508   6.681   0.177   3.390
 7870SOL    HW124509   6.704   0.270   3.360
 7870SOL    HW224510   6.759   0.117   3.376
 7871SOL     OW24511   5.640   3.053   3.201
 7871SOL    HW124512   5.615   2.968   3.156
 7871SOL    HW224513   5.687   3.113   3.135
 7872SOL     OW24514   6.012   4.007   3.923
 7872SOL    HW124515   5.918   3.973   3.917
 7872SOL    HW224516   6.031   4.035   4.017
 7873SOL     OW24517   6.846   5.982   5.083
 7873SOL    HW124518   6.927   5.928   5.108
 7873SOL    HW224519   6.765   5.924   5.087
 7874SOL     OW24520   6.082   6.774   0.171
 7874SOL    HW124521   6.144   6.737   0.241
 7874SOL    HW224522   6.000   6.809   0.215
 7875SOL     OW24523   5.692   2.672   0.425
 7875SOL    HW124524   5.614   2.716   0.380
 7875SOL    HW224525   5.691   2.693   0.522
 7876SOL     OW24526   6.872   2.012   4.811
 7876SOL    HW124527   6.780   2.017   4.772
 7876SOL    HW224528   6.907   1.919   4.802
 7877SOL     OW24529   5.747   3.911   1.772
 7877SOL    HW124530   5.746   3.828   1.827
 7877SOL    HW224531   5.829   3.964   1.793
 7878SOL     OW24532   3.462   4.094   2.264
 7878SOL    HW124533   3.543   4.126   2.312
 7878SOL    HW224534   3.435   4.162   2.196
 7879SOL     OW24535   6.773   1.228   4.929
 7879SOL    HW124536   6.710   1.155   4.957
 7879SOL    HW224537   6.806   1.276   5.010
 7880SOL     OW24538   2.062   6.154   6.678
 7880SOL    HW124539   2.123   6.231   6.698
 7880SOL    HW224540   1.987   6.153   6.744
 7881SOL     OW24541   0.678   4.959   5.204
 7881SOL    HW124542   0.625   4.874   5.202
 7881SOL    HW224543   0.657   5.013   5.123
 7882SOL     OW24544   1.382   4.942   0.634
 7882SOL    HW124545   1.336   4.973   0.551
 7882SOL    HW224546   1.328   4.967   0.714
 7883SOL     OW24547   2.890   2.255   2.541
 7883SOL    HW124548   2.925   2.171   2.499
 7883SOL    HW224549   2.859   2.318   2.470
 7884SOL     OW24550   0.369   2.136   5.737
 7884SOL    HW124551   0.296   2.198   5.710
 7884SOL    HW224552   0.441   2.136   5.667
 7885SOL     OW24553   5.852   4.871   2.634
 7885SOL    HW124554   5.884   4.933   2.562
 7885SOL    HW224555   5.831   4.782   2.594
 7886SOL     OW24556   3.815   4.846   2.573
 7886SOL    HW124557   3.850   4.938   2.591
 7886SOL    HW224558   3.808   4.831   2.474
 7887SOL     OW24559   0.119   3.066   0.469
 7887SOL    HW124560   0.040   3.011   0.441
 7887SOL    HW224561   0.201   3.032   0.424
 7888SOL     OW24562   0.671   1.635   5.188
 7888SOL    HW124563   0.636   1.605   5.099
 7888SOL    HW224564   0.750   1.695   5.174
 7889SOL     OW24565   5.524   5.095   0.142
 7889SOL    HW124566   5.425   5.111   0.149
 7889SOL    HW224567   5.572   5.169   0.190
 7890SOL     OW24568   1.256   2.795   1.899
 7890SOL    HW124569   1.187   2.821   1.967
 7890SOL    HW224570   1.292   2.704   1.922
 7891SOL     OW24571   5.959   0.944   4.261
 7891SOL    HW124572   5.925   0.915   4.172
 7891SOL    HW224573   5.898   1.014   4.299
 7892SOL     OW24574   1.001   2.132   4.445
 7892SOL    HW124575   1.034   2.133   4.539
 7892SOL    HW224576   0.901   2.127   4.445
 7893SOL     OW24577   5.424   6.164   0.449
 7893SOL    HW124578   5.520   6.191   0.459
 7893SOL    HW224579   5.377   6.230   0.390
 7894SOL     OW24580   2.985   6.921   6.623
 7894SOL    HW124581   2.963   6.874   6.538
 7894SOL    HW224582   3.063   6.982   6.609
 7895SOL     OW24583   5.322   6.582   2.848
 7895SOL    HW124584   5.235   6.539   2.823
 7895SOL    HW224585   5.352   6.641   2.773
 7896SOL     OW24586   2.988   2.602   0.923
 7896SOL    HW124587   2.967   2.607   1.021
 7896SOL    HW224588   2.908   2.632   0.871
 7897SOL     OW24589   5.169   0.797   1.432
 7897SOL    HW124590   5.197   0.722   1.371
 7897SOL    HW224591   5.085   0.771   1.479
 7898SOL     OW24592   4.284   6.624   2.930
 7898SOL    HW124593   4.249   6.532   2.949
 7898SOL    HW224594   4.245   6.689   2.996
 7899SOL     OW24595   6.405   5.136   3.044
 7899SOL    HW124596   6.442   5.099   2.959
 7899SOL    HW224597   6.307   5.150   3.034
 7900SOL     OW24598   6.907   3.554   0.248
 7900SOL    HW124599   6.866   3.560   0.339
 7900SOL    HW224600   6.974   3.479   0.247
 7901SOL     OW24601   0.507   2.396   6.359
 7901SOL    HW124602   0.557   2.463   6.303
 7901SOL    HW224603   0.548   2.393   6.450
 7902SOL     OW24604   1.805   0.274   1.492
 7902SOL    HW124605   1.732   0.337   1.517
 7902SOL    HW224606   1.818   0.276   1.393
 7903SOL     OW24607   3.347   1.964   5.488
 7903SOL    HW124608   3.278   2.031   5.460
 7903SOL    HW224609   3.326   1.875   5.448
 7904SOL     OW24610   5.643   3.611   2.640
 7904SOL    HW124611   5.700   3.590   2.720
 7904SOL    HW224612   5.557   3.560   2.646
 7905SOL     OW24613   6.100   2.158   1.456
 7905SOL    HW124614   6.056   2.154   1.366
 7905SOL    HW224615   6.193   2.194   1.446
 7906SOL     OW24616   6.817   6.318   6.116
 7906SOL    HW124617   6.844   6.380   6.190
 7906SOL    HW224618   6.731   6.351   6.076
 7907SOL     OW24619   5.703   5.646   3.304
 7907SOL    HW124620   5.685   5.555   3.341
 7907SOL    HW224621   5.639   5.712   3.345
 7908SOL     OW24622   1.664   6.576   6.148
 7908SOL    HW124623   1.701   6.496   6.197
 7908SOL    HW224624   1.724   6.599   6.071
 7909SOL     OW24625   6.904   4.220   2.339
 7909SOL    HW124626   6.989   4.169   2.325
 7909SOL    HW224627   6.871   4.203   2.432
 7910SOL     OW24628   1.389   4.282   4.979
 7910SOL    HW124629   1.447   4.356   4.943
 7910SOL    HW224630   1.294   4.303   4.959
 7911SOL     OW24631   6.030   3.544   6.026
 7911SOL    HW124632   6.101   3.517   6.091
 7911SOL    HW224633   6.012   3.469   5.963
 7912SOL     OW24634   5.544   5.706   1.875
 7912SOL    HW124635   5.595   5.788   1.848
 7912SOL    HW224636   5.448   5.732   1.891
 7913SOL     OW24637   1.562   4.698   6.471
 7913SOL    HW124638   1.520   4.668   6.385
 7913SOL    HW224639   1.619   4.779   6.454
 7914SOL     OW24640   1.004   0.224   4.777
 7914SOL    HW124641   1.071   0.261   4.842
 7914SOL    HW224642   0.975   0.297   4.715
 7915SOL     OW24643   3.199   6.085   2.338
 7915SOL    HW124644   3.255   6.167   2.346
 7915SOL    HW224645   3.259   6.005   2.331
 7916SOL     OW24646   1.924   0.982   3.919
 7916SOL    HW124647   1.928   1.076   3.955
 7916SOL    HW224648   2.016   0.949   3.903
 7917SOL     OW24649   5.282   1.989   2.663
 7917SOL    HW124650   5.196   2.035   2.640
 7917SOL    HW224651   5.346   1.996   2.587
 7918SOL     OW24652   1.357   2.069   2.542
 7918SOL    HW124653   1.327   2.003   2.611
 7918SOL    HW224654   1.428   2.128   2.580
 7919SOL     OW24655   0.844   6.871   4.951
 7919SOL    HW124656   0.869   6.853   5.046
 7919SOL    HW224657   0.776   6.944   4.947
 7920SOL     OW24658   5.206   0.012   0.922
 7920SOL    HW124659   5.253   6.944   0.934
 7920SOL    HW224660   5.238   0.076   0.992
 7921SOL     OW24661   5.944   3.595   0.914
 7921SOL    HW124662   5.901   3.513   0.876
 7921SOL    HW224663   6.042   3.593   0.894
 7922SOL     OW24664   2.427   6.178   3.659
 7922SOL    HW124665   2.337   6.143   3.632
 7922SOL    HW224666   2.451   6.140   3.749
 7923SOL     OW24667   5.016   0.375   0.953
 7923SOL    HW124668   5.064   0.454   0.916
 7923SOL    HW224669   5.077   0.324   1.013
 7924SOL     OW24670   5.479   6.041   0.025
 7924SOL    HW124671   5.502   6.138   0.018
 7924SOL    HW224672   5.519   6.003   0.109
 7925SOL     OW24673   2.135   5.096   5.869
 7925SOL    HW124674   2.226   5.137   5.861
 7925SOL    HW224675   2.141   5.015   5.928
 7926SOL     OW24676   4.404   5.897   6.295
 7926SOL    HW124677   4.332   5.966   6.295
 7926SOL    HW224678   4.383   5.828   6.364
 7927SOL     OW24679   5.275   0.207   3.204
 7927SOL    HW124680   5.335   0.150   3.147
 7927SOL    HW224681   5.330   0.257   3.271
 7928SOL     OW24682   5.777   1.971   3.959
 7928SOL    HW124683   5.785   1.960   3.860
 7928SOL    HW224684   5.740   2.062   3.980
 7929SOL     OW24685   4.621   3.709   5.364
 7929SOL    HW124686   4.701   3.720   5.424
 7929SOL    HW224687   4.641   3.642   5.293
 7930SOL     OW24688   4.150   5.128   0.760
 7930SOL    HW124689   4.232   5.077   0.734
 7930SOL    HW224690   4.117   5.181   0.681
 7931SOL     OW24691   4.796   0.683   0.682
 7931SOL    HW124692   4.816   0.779   0.662
 7931SOL    HW224693   4.763   0.675   0.776
 7932SOL     OW24694   0.918   3.642   0.685
 7932SOL    HW124695   0.824   3.675   0.689
 7932SOL    HW224696   0.980   3.713   0.719
 7933SOL     OW24697   1.564   1.171   0.297
 7933SOL    HW124698   1.501   1.248   0.283
 7933SOL    HW224699   1.637   1.176   0.229
 7934SOL     OW24700   6.647   5.528   0.197
 7934SOL    HW124701   6.573   5.509   0.261
 7934SOL    HW224702   6.615   5.591   0.127
 7935SOL     OW24703   6.231   3.724   3.396
 7935SOL    HW124704   6.282   3.656   3.447
 7935SOL    HW224705   6.239   3.705   3.298
 7936SOL     OW24706   2.523   5.808   3.522
 7936SOL    HW124707   2.475   5.723   3.501
 7936SOL    HW224708   2.470   5.885   3.488
 7937SOL     OW24709   3.725   1.203   1.277
 7937SOL    HW124710   3.764   1.213   1.368
 7937SOL    HW224711   3.636   1.157   1.283
 7938SOL     OW24712   2.215   6.677   3.377
 7938SOL    HW124713   2.120   6.656   3.354
 7938SOL    HW224714   2.221   6.701   3.474
 7939SOL     OW24715   1.765   6.955   3.084
 7939SOL    HW124716   1.685   6.963   3.144
 7939SOL    HW224717   1.847   6.984   3.133
 7940SOL     OW24718   6.632   1.626   4.955
 7940SOL    HW124719   6.616   1.550   4.892
 7940SOL    HW224720   6.545   1.669   4.979
 7941SOL     OW24721   3.367   0.603   1.030
 7941SOL    HW124722   3.438   0.576   1.095
 7941SOL    HW224723   3.392   0.570   0.939
 7942SOL     OW24724   1.343   3.983   1.249
 7942SOL    HW124725   1.338   4.075   1.288
 7942SOL    HW224726   1.370   3.918   1.319
 7943SOL     OW24727   1.822   5.307   0.124
 7943SOL    HW124728   1.792   5.272   0.036
 7943SOL    HW224729   1.848   5.403   0.115
 7944SOL     OW24730   0.978   2.163   0.820
 7944SOL    HW124731   0.947   2.245   0.772
 7944SOL    HW224732   1.027   2.104   0.756
 7945SOL     OW24733   6.563   4.525   3.314
 7945SOL    HW124734   6.611   4.524   3.226
 7945SOL    HW224735   6.596   4.601   3.369
 7946SOL     OW24736   4.777   1.297   5.823
 7946SOL    HW124737   4.866   1.297   5.867
 7946SOL    HW224738   4.708   1.333   5.886
 7947SOL     OW24739   0.797   3.914   6.963
 7947SOL    HW124740   0.793   3.988   0.009
 7947SOL    HW224741   0.763   3.830   7.004
 7948SOL     OW24742   1.545   5.732   1.702
 7948SOL    HW124743   1.571   5.739   1.606
 7948SOL    HW224744   1.502   5.817   1.732
 7949SOL     OW24745   3.258   5.493   4.943
 7949SOL    HW124746   3.198   5.427   4.898
 7949SOL    HW224747   3.307   5.448   5.018
 7950SOL     OW24748   6.463   2.564   5.702
 7950SOL    HW124749   6.523   2.643   5.716
 7950SOL    HW224750   6.410   2.547   5.785
 7951SOL     OW24751   3.842   0.506   2.895
 7951SOL    HW124752   3.759   0.561   2.885
 7951SOL    HW224753   3.823   0.426   2.952
 7952SOL     OW24754   0.012   3.196   5.271
 7952SOL    HW124755   0.042   3.292   5.267
 7952SOL    HW224756   6.945   3.190   5.318
 7953SOL     OW24757   0.946   0.519   0.713
 7953SOL    HW124758   1.044   0.526   0.694
 7953SOL    HW224759   0.911   0.432   0.678
 7954SOL     OW24760   3.856   2.827   0.618
 7954SOL    HW124761   3.822   2.831   0.524
 7954SOL    HW224762   3.956   2.835   0.618
 7955SOL     OW24763   6.508   0.505   6.152
 7955SOL    HW124764   6.607   0.509   6.145
 7955SOL    HW224765   6.480   0.528   6.245
 7956SOL     OW24766   0.110   0.113   0.773
 7956SOL    HW124767   0.191   0.172   0.778
 7956SOL    HW224768   0.051   0.132   0.852
 7957SOL     OW24769   5.602   1.729   5.994
 7957SOL    HW124770   5.579   1.826   6.007
 7957SOL    HW224771   5.699   1.722   5.970
 7958SOL     OW24772   4.761   2.495   6.677
 7958SOL    HW124773   4.856   2.469   6.695
 7958SOL    HW224774   4.702   2.415   6.688
 7959SOL     OW24775   5.191   2.900   6.860
 7959SOL    HW124776   5.093   2.922   6.857
 7959SOL    HW224777   5.244   2.977   6.825
 7960SOL     OW24778   0.943   2.340   5.148
 7960SOL    HW124779   0.988   2.402   5.212
 7960SOL    HW224780   0.845   2.337   5.168
 7961SOL     OW24781   6.031   6.932   6.286
 7961SOL    HW124782   5.955   6.974   6.237
 7961SOL    HW224783   6.040   6.973   6.377
 7962SOL     OW24784   5.318   0.199   5.008
 7962SOL    HW124785   5.408   0.242   4.998
 7962SOL    HW224786   5.291   0.158   4.920
 7963SOL     OW24787   5.597   6.128   2.775
 7963SOL    HW124788   5.683   6.076   2.780
 7963SOL    HW224789   5.606   6.212   2.827
 7964SOL     OW24790   0.364   3.989   1.591
 7964SOL    HW124791   0.374   4.001   1.690
 7964SOL    HW224792   0.277   3.944   1.571
 7965SOL     OW24793   3.980   1.758   6.531
 7965SOL    HW124794   3.981   1.698   6.611
 7965SOL    HW224795   4.072   1.794   6.515
 7966SOL     OW24796   5.857   3.373   5.270
 7966SOL    HW124797   5.879   3.459   5.223
 7966SOL    HW224798   5.817   3.309   5.204
 7967SOL     OW24799   1.916   3.898   1.325
 7967SOL    HW124800   1.937   3.803   1.347
 7967SOL    HW224801   1.999   3.944   1.292
 7968SOL     OW24802   2.507   2.055   3.875
 7968SOL    HW124803   2.523   2.057   3.777
 7968SOL    HW224804   2.445   2.128   3.901
 7969SOL     OW24805   2.944   4.081   6.264
 7969SOL    HW124806   2.857   4.043   6.294
 7969SOL    HW224807   3.009   4.007   6.247
 7970SOL     OW24808   6.676   3.409   2.951
 7970SOL    HW124809   6.680   3.474   2.875
 7970SOL    HW224810   6.602   3.344   2.934
 7971SOL     OW24811   2.537   0.394   6.955
 7971SOL    HW124812   2.496   0.310   6.991
 7971SOL    HW224813   2.626   0.409   6.999
 7972SOL     OW24814   4.200   3.507   4.934
 7972SOL    HW124815   4.257   3.574   4.886
 7972SOL    HW224816   4.184   3.537   5.028
 7973SOL     OW24817   0.380   5.371   1.918
 7973SOL    HW124818   0.309   5.318   1.964
 7973SOL    HW224819   0.408   5.447   1.977
 7974SOL     OW24820   6.841   2.648   4.428
 7974SOL    HW124821   6.817   2.630   4.524
 7974SOL    HW224822   6.920   2.709   4.425
 7975SOL     OW24823   3.734   7.009   6.572
 7975SOL    HW124824   3.663   6.966   6.516
 7975SOL    HW224825   3.799   0.038   6.513
 7976SOL     OW24826   0.446   0.029   0.750
 7976SOL    HW124827   0.384   0.108   0.762
 7976SOL    HW224828   0.504   0.044   0.670
 7977SOL     OW24829   4.965   4.997   2.660
 7977SOL    HW124830   4.930   5.090   2.652
 7977SOL    HW224831   4.965   4.970   2.757
 7978SOL     OW24832   0.414   4.152   0.593
 7978SOL    HW124833   0.398   4.180   0.687
 7978SOL    HW224834   0.512   4.157   0.573
 7979SOL     OW24835   3.499   2.419   5.702
 7979SOL    HW124836   3.431   2.459   5.763
 7979SOL    HW224837   3.476   2.323   5.685
 7980SOL     OW24838   4.004   6.010   2.729
 7980SOL    HW124839   3.982   5.994   2.825
 7980SOL    HW224840   4.101   5.992   2.713
 7981SOL     OW24841   0.987   2.723   4.381
 7981SOL    HW124842   1.059   2.736   4.313
 7981SOL    HW224843   0.926   2.802   4.381
 7982SOL     OW24844   6.578   0.091   0.275
 7982SOL    HW124845   6.651   0.141   0.320
 7982SOL    HW224846   6.496   0.149   0.270
 7983SOL     OW24847   3.222   1.570   1.465
 7983SOL    HW124848   3.225   1.470   1.464
 7983SOL    HW224849   3.129   1.601   1.484
 7984SOL     OW24850   6.391   2.468   2.941
 7984SOL    HW124851   6.341   2.546   2.904
 7984SOL    HW224852   6.341   2.431   3.020
 7985SOL     OW24853   3.086   3.360   5.970
 7985SOL    HW124854   3.050   3.287   6.029
 7985SOL    HW224855   3.184   3.349   5.960
 7986SOL     OW24856   2.164   0.888   3.645
 7986SOL    HW124857   2.115   0.955   3.589
 7986SOL    HW224858   2.132   0.796   3.623
 7987SOL     OW24859   1.405   3.109   6.185
 7987SOL    HW124860   1.369   3.122   6.093
 7987SOL    HW224861   1.337   3.139   6.252
 7988SOL     OW24862   6.326   0.329   1.421
 7988SOL    HW124863   6.398   0.350   1.488
 7988SOL    HW224864   6.238   0.362   1.456
 7989SOL     OW24865   0.915   4.691   1.285
 7989SOL    HW124866   0.939   4.668   1.380
 7989SOL    HW224867   0.843   4.760   1.284
 7990SOL     OW24868   4.339   5.341   5.622
 7990SOL    HW124869   4.436   5.320   5.612
 7990SOL    HW224870   4.326   5.441   5.623
 7991SOL     OW24871   5.327   0.684   4.269
 7991SOL    HW124872   5.384   0.626   4.211
 7991SOL    HW224873   5.245   0.711   4.219
 7992SOL     OW24874   2.653   0.531   0.280
 7992SOL    HW124875   2.701   0.463   0.226
 7992SOL    HW224876   2.641   0.615   0.226
 7993SOL     OW24877   6.104   5.506   0.574
 7993SOL    HW124878   6.193   5.550   0.572
 7993SOL    HW224879   6.047   5.541   0.500
 7994SOL     OW24880   0.812   1.569   4.870
 7994SOL    HW124881   0.867   1.584   4.788
 7994SOL    HW224882   0.828   1.643   4.935
 7995SOL     OW24883   0.160   6.371   0.747
 7995SOL    HW124884   0.234   6.304   0.757
 7995SOL    HW224885   0.163   6.435   0.824
 7996SOL     OW24886   1.936   6.853   4.251
 7996SOL    HW124887   1.963   6.845   4.347
 7996SOL    HW224888   1.998   6.801   4.194
 7997SOL     OW24889   2.929   0.377   5.627
 7997SOL    HW124890   2.834   0.408   5.618
 7997SOL    HW224891   2.960   0.390   5.721
 7998SOL     OW24892   2.078   1.533   1.514
 7998SOL    HW124893   2.134   1.595   1.459
 7998SOL    HW224894   2.073   1.565   1.608
 7999SOL     OW24895   0.004   0.868   2.546
 7999SOL    HW124896   0.049   0.951   2.577
 7999SOL    HW224897   0.012   0.797   2.617
 8000SOL     OW24898   4.593   5.903   1.100
 8000SOL    HW124899   4.558   5.815   1.134
 8000SOL    HW224900   4.526   5.943   1.037
 8001SOL     OW24901   5.529   4.987   2.449
 8001SOL    HW124902   5.513   5.068   2.506
 8001SOL    HW224903   5.445   4.934   2.442
 8002SOL     OW24904   1.287   0.687   5.321
 8002SOL    HW124905   1.291   0.765   5.384
 8002SOL    HW224906   1.192   0.668   5.298
 8003SOL     OW24907   2.644   5.423   2.590
 8003SOL    HW124908   2.718   5.490   2.600
 8003SOL    HW224909   2.651   5.354   2.662
 8004SOL     OW24910   2.126   3.595   4.000
 8004SOL    HW124911   2.163   3.503   4.012
 8004SOL    HW224912   2.201   3.662   4.004
 8005SOL     OW24913   2.932   0.520   4.282
 8005SOL    HW124914   2.856   0.585   4.281
 8005SOL    HW224915   3.015   0.566   4.311
 8006SOL     OW24916   4.811   4.980   6.293
 8006SOL    HW124917   4.911   4.980   6.296
 8006SOL    HW224918   4.775   5.042   6.363
 8007SOL     OW24919   0.043   0.679   0.958
 8007SOL    HW124920   0.011   0.616   1.028
 8007SOL    HW224921   6.988   0.699   0.895
 8008SOL     OW24922   5.316   5.565   1.095
 8008SOL    HW124923   5.353   5.472   1.098
 8008SOL    HW224924   5.352   5.612   1.014
 8009SOL     OW24925   6.301   0.450   0.957
 8009SOL    HW124926   6.213   0.420   0.919
 8009SOL    HW224927   6.344   0.375   1.007
 8010SOL     OW24928   2.397   0.183   0.052
 8010SOL    HW124929   2.448   0.112   0.002
 8010SOL    HW224930   2.301   0.156   0.058
 8011SOL     OW24931   3.992   2.158   2.017
 8011SOL    HW124932   3.998   2.060   2.037
 8011SOL    HW224933   3.897   2.187   2.023
 8012SOL     OW24934   6.108   0.499   5.554
 8012SOL    HW124935   6.069   0.424   5.607
 8012SOL    HW224936   6.087   0.486   5.457
 8013SOL     OW24937   3.493   0.347   3.474
 8013SOL    HW124938   3.578   0.398   3.470
 8013SOL    HW224939   3.497   0.280   3.549
 8014SOL     OW24940   2.385   2.585   3.214
 8014SOL    HW124941   2.348   2.590   3.306
 8014SOL    HW224942   2.476   2.544   3.216
 8015SOL     OW24943   3.426   5.669   4.748
 8015SOL    HW124944   3.383   5.631   4.830
 8015SOL    HW224945   3.359   5.673   4.674
 8016SOL     OW24946   2.979   3.203   5.006
 8016SOL    HW124947   2.960   3.237   5.098
 8016SOL    HW224948   2.908   3.234   4.943
 8017SOL     OW24949   5.293   6.264   1.928
 8017SOL    HW124950   5.292   6.181   1.983
 8017SOL    HW224951   5.328   6.340   1.984
 8018SOL     OW24952   3.021   2.892   1.281
 8018SOL    HW124953   2.966   2.906   1.199
 8018SOL    HW224954   3.040   2.794   1.292
 8019SOL     OW24955   3.136   3.530   1.534
 8019SOL    HW124956   3.158   3.602   1.469
 8019SOL    HW224957   3.135   3.568   1.627
 8020SOL     OW24958   0.769   0.114   0.031
 8020SOL    HW124959   0.773   0.093   0.129
 8020SOL    HW224960   0.689   0.068   7.011
 8021SOL     OW24961   0.900   2.359   0.652
 8021SOL    HW124962   0.800   2.360   0.658
 8021SOL    HW224963   0.936   2.441   0.697
 8022SOL     OW24964   4.523   0.363   2.878
 8022SOL    HW124965   4.485   0.455   2.874
 8022SOL    HW224966   4.620   0.367   2.903
 8023SOL     OW24967   3.496   4.875   2.216
 8023SOL    HW124968   3.522   4.803   2.152
 8023SOL    HW224969   3.442   4.944   2.169
 8024SOL     OW24970   2.938   0.709   6.194
 8024SOL    HW124971   2.843   0.727   6.218
 8024SOL    HW224972   2.993   0.701   6.277
 8025SOL     OW24973   1.249   6.614   1.308
 8025SOL    HW124974   1.307   6.692   1.331
 8025SOL    HW224975   1.216   6.622   1.214
 8026SOL     OW24976   0.177   6.675   5.513
 8026SOL    HW124977   0.114   6.625   5.452
 8026SOL    HW224978   0.171   6.772   5.493
 8027SOL     OW24979   4.159   6.430   6.568
 8027SOL    HW124980   4.176   6.526   6.549
 8027SOL    HW224981   4.071   6.404   6.528
 8028SOL     OW24982   4.004   5.712   6.607
 8028SOL    HW124983   4.020   5.801   6.563
 8028SOL    HW224984   3.916   5.714   6.654
 8029SOL     OW24985   1.292   6.619   2.010
 8029SOL    HW124986   1.345   6.662   1.936
 8029SOL    HW224987   1.203   6.592   1.975
 8030SOL     OW24988   0.751   3.655   0.986
 8030SOL    HW124989   0.777   3.748   1.010
 8030SOL    HW224990   0.671   3.627   1.039
 8031SOL     OW24991   0.640   1.053   3.823
 8031SOL    HW124992   0.559   1.009   3.784
 8031SOL    HW224993   0.711   1.059   3.753
 8032SOL     OW24994   0.008   3.193   1.175
 8032SOL    HW124995   0.042   3.109   1.217
 8032SOL    HW224996   6.998   3.174   1.082
 8033SOL     OW24997   4.301   4.668   1.129
 8033SOL    HW124998   4.298   4.577   1.087
 8033SOL    HW224999   4.294   4.659   1.229
 8034SOL     OW25000   1.689   1.326   5.156
 8034SOL    HW125001   1.724   1.339   5.063
 8034SOL    HW225002   1.692   1.229   5.180
 8035SOL     OW25003   5.207   0.092   4.652
 8035SOL    HW125004   5.131   0.027   4.649
 8035SOL    HW225005   5.178   0.180   4.615
 8036SOL     OW25006   5.003   4.517   4.559
 8036SOL    HW125007   5.002   4.419   4.574
 8036SOL    HW225008   5.078   4.541   4.497
 8037SOL     OW25009   2.679   1.133   6.572
 8037SOL    HW125010   2.763   1.090   6.539
 8037SOL    HW225011   2.642   1.193   6.501
 8038SOL     OW25012   6.431   5.795   1.633
 8038SOL    HW125013   6.364   5.747   1.690
 8038SOL    HW225014   6.399   5.797   1.539
 8039SOL     OW25015   2.001   2.984   4.892
 8039SOL    HW125016   2.079   2.983   4.954
 8039SOL    HW225017   2.000   3.071   4.842
 8040SOL     OW25018   0.450   6.816   5.587
 8040SOL    HW125019   0.354   6.791   5.573
 8040SOL    HW225020   0.493   6.836   5.499
 8041SOL     OW25021   3.181   1.906   2.727
 8041SOL    HW125022   3.147   1.996   2.752
 8041SOL    HW225023   3.197   1.902   2.629
 8042SOL     OW25024   4.553   3.846   5.957
 8042SOL    HW125025   4.605   3.817   6.038
 8042SOL    HW225026   4.609   3.905   5.901
 8043SOL     OW25027   5.190   5.556   6.840
 8043SOL    HW125028   5.237   5.641   6.816
 8043SOL    HW225029   5.252   5.496   6.891
 8044SOL     OW25030   0.971   2.570   1.417
 8044SOL    HW125031   1.054   2.605   1.373
 8044SOL    HW225032   0.931   2.641   1.475
 8045SOL     OW25033   5.706   2.976   5.134
 8045SOL    HW125034   5.775   2.940   5.196
 8045SOL    HW225035   5.678   2.905   5.070
 8046SOL     OW25036   0.684   4.099   0.938
 8046SOL    HW125037   0.613   4.029   0.938
 8046SOL    HW225038   0.663   4.169   1.006
 8047SOL     OW25039   3.061   6.199   6.847
 8047SOL    HW125040   3.137   6.253   6.883
 8047SOL    HW225041   3.009   6.255   6.782
 8048SOL     OW25042   4.498   1.892   6.434
 8048SOL    HW125043   4.513   1.809   6.382
 8048SOL    HW225044   4.580   1.914   6.487
 8049SOL     OW25045   2.249   1.595   0.963
 8049SOL    HW125046   2.222   1.651   0.885
 8049SOL    HW225047   2.177   1.528   0.982
 8050SOL     OW25048   6.449   5.061   5.831
 8050SOL    HW125049   6.486   5.102   5.914
 8050SOL    HW225050   6.354   5.034   5.847
 8051SOL     OW25051   4.066   6.871   3.420
 8051SOL    HW125052   4.105   6.795   3.472
 8051SOL    HW225053   3.969   6.853   3.403
 8052SOL     OW25054   2.263   1.482   2.973
 8052SOL    HW125055   2.343   1.532   2.941
 8052SOL    HW225056   2.215   1.441   2.896
 8053SOL     OW25057   1.532   1.335   6.735
 8053SOL    HW125058   1.507   1.419   6.687
 8053SOL    HW225059   1.632   1.325   6.736
 8054SOL     OW25060   5.170   3.574   5.187
 8054SOL    HW125061   5.231   3.572   5.107
 8054SOL    HW225062   5.221   3.546   5.268
 8055SOL     OW25063   6.966   0.939   6.891
 8055SOL    HW125064   7.016   0.860   6.925
 8055SOL    HW225065   6.890   0.959   6.953
 8056SOL     OW25066   1.915   2.802   2.914
 8056SOL    HW125067   1.925   2.705   2.935
 8056SOL    HW225068   1.846   2.842   2.974
 8057SOL     OW25069   3.168   1.827   1.657
 8057SOL    HW125070   3.252   1.861   1.613
 8057SOL    HW225071   3.171   1.728   1.661
 8058SOL     OW25072   3.483   6.531   1.963
 8058SOL    HW125073   3.518   6.477   2.040
 8058SOL    HW225074   3.527   6.501   1.878
 8059SOL     OW25075   4.555   3.999   5.339
 8059SOL    HW125076   4.566   3.900   5.326
 8059SOL    HW225077   4.500   4.016   5.421
 8060SOL     OW25078   0.504   1.457   5.332
 8060SOL    HW125079   0.454   1.392   5.274
 8060SOL    HW225080   0.548   1.526   5.274
 8061SOL     OW25081   6.507   1.034   1.169
 8061SOL    HW125082   6.521   0.970   1.093
 8061SOL    HW225083   6.549   1.122   1.146
 8062SOL     OW25084   4.584   4.636   6.191
 8062SOL    HW125085   4.541   4.696   6.259
 8062SOL    HW225086   4.518   4.614   6.119
 8063SOL     OW25087   2.552   4.640   2.729
 8063SOL    HW125088   2.469   4.602   2.771
 8063SOL    HW225089   2.543   4.637   2.629
 8064SOL     OW25090   6.794   2.603   0.109
 8064SOL    HW125091   6.726   2.541   0.071
 8064SOL    HW225092   6.882   2.556   0.118
 8065SOL     OW25093   4.383   0.210   6.432
 8065SOL    HW125094   4.400   0.120   6.393
 8065SOL    HW225095   4.439   0.223   6.513
 8066SOL     OW25096   6.521   1.160   5.922
 8066SOL    HW125097   6.537   1.152   5.824
 8066SOL    HW225098   6.442   1.105   5.948
 8067SOL     OW25099   5.271   0.338   4.261
 8067SOL    HW125100   5.348   0.276   4.250
 8067SOL    HW225101   5.261   0.362   4.357
 8068SOL     OW25102   0.141   4.534   0.872
 8068SOL    HW125103   0.202   4.534   0.951
 8068SOL    HW225104   0.182   4.481   0.798
 8069SOL     OW25105   1.050   2.760   1.647
 8069SOL    HW125106   1.145   2.766   1.616
 8069SOL    HW225107   1.040   2.680   1.706
 8070SOL     OW25108   4.978   4.045   1.816
 8070SOL    HW125109   4.911   4.118   1.829
 8070SOL    HW225110   5.070   4.080   1.829
 8071SOL     OW25111   1.748   0.039   6.136
 8071SOL    HW125112   1.739   7.012   6.224
 8071SOL    HW225113   1.756   6.991   6.063
 8072SOL     OW25114   2.793   2.308   5.722
 8072SOL    HW125115   2.871   2.370   5.719
 8072SOL    HW225116   2.823   2.216   5.746
 8073SOL     OW25117   5.218   6.710   6.760
 8073SOL    HW125118   5.239   6.789   6.818
 8073SOL    HW225119   5.210   6.628   6.816
 8074SOL     OW25120   6.229   0.703   1.063
 8074SOL    HW125121   6.246   0.607   1.039
 8074SOL    HW225122   6.136   0.728   1.036
 8075SOL     OW25123   0.375   0.237   1.122
 8075SOL    HW125124   0.411   0.327   1.146
 8075SOL    HW225125   0.446   0.184   1.075
 8076SOL     OW25126   6.690   5.639   0.457
 8076SOL    HW125127   6.661   5.734   0.447
 8076SOL    HW225128   6.746   5.613   0.379
 8077SOL     OW25129   6.378   4.376   0.896
 8077SOL    HW125130   6.293   4.326   0.882
 8077SOL    HW225131   6.373   4.463   0.846
 8078SOL     OW25132   5.751   2.068   1.796
 8078SOL    HW125133   5.736   2.034   1.703
 8078SOL    HW225134   5.748   1.991   1.860
 8079SOL     OW25135   6.990   0.674   0.208
 8079SOL    HW125136   6.928   0.727   0.266
 8079SOL    HW225137   6.938   0.634   0.132
 8080SOL     OW25138   0.047   3.387   3.756
 8080SOL    HW125139   0.018   3.475   3.793
 8080SOL    HW225140   0.116   3.401   3.685
 8081SOL     OW25141   5.709   0.474   5.327
 8081SOL    HW125142   5.799   0.502   5.292
 8081SOL    HW225143   5.662   0.420   5.258
 8082SOL     OW25144   4.675   1.666   4.889
 8082SOL    HW125145   4.621   1.599   4.838
 8082SOL    HW225146   4.615   1.738   4.925
 8083SOL     OW25147   6.840   2.774   3.742
 8083SOL    HW125148   6.892   2.753   3.660
 8083SOL    HW225149   6.894   2.752   3.823
 8084SOL     OW25150   5.309   1.921   0.041
 8084SOL    HW125151   5.339   1.908   6.966
 8084SOL    HW225152   5.363   1.995   0.082
 8085SOL     OW25153   1.592   5.912   4.519
 8085SOL    HW125154   1.634   5.847   4.456
 8085SOL    HW225155   1.551   5.987   4.466
 8086SOL     OW25156   6.970   2.155   1.995
 8086SOL    HW125157   6.876   2.172   1.966
 8086SOL    HW225158   6.974   2.154   2.095
 8087SOL     OW25159   6.318   0.731   6.075
 8087SOL    HW125160   6.380   0.690   6.142
 8087SOL    HW225161   6.350   0.709   5.983
 8088SOL     OW25162   6.578   0.133   5.156
 8088SOL    HW125163   6.598   0.172   5.066
 8088SOL    HW225164   6.547   0.038   5.146
 8089SOL     OW25165   6.390   0.979   0.432
 8089SOL    HW125166   6.385   1.076   0.454
 8089SOL    HW225167   6.338   0.927   0.500
 8090SOL     OW25168   4.328   1.994   4.755
 8090SOL    HW125169   4.271   2.076   4.747
 8090SOL    HW225170   4.366   1.972   4.665
 8091SOL     OW25171   1.032   3.407   5.201
 8091SOL    HW125172   1.085   3.428   5.119
 8091SOL    HW225173   1.021   3.490   5.256
 8092SOL     OW25174   4.018   0.037   5.428
 8092SOL    HW125175   4.082   6.986   5.397
 8092SOL    HW225176   3.965   0.071   5.351
 8093SOL     OW25177   4.040   0.282   3.451
 8093SOL    HW125178   4.074   0.311   3.362
 8093SOL    HW225179   3.977   0.350   3.487
 8094SOL     OW25180   1.994   4.834   3.589
 8094SOL    HW125181   2.026   4.871   3.502
 8094SOL    HW225182   2.001   4.905   3.660
 8095SOL     OW25183   0.945   5.748   4.421
 8095SOL    HW125184   0.945   5.714   4.326
 8095SOL    HW225185   0.903   5.839   4.424
 8096SOL     OW25186   0.763   4.907   0.764
 8096SOL    HW125187   0.684   4.952   0.722
 8096SOL    HW225188   0.797   4.963   0.840
 8097SOL     OW25189   4.367   0.280   0.298
 8097SOL    HW125190   4.304   0.283   0.220
 8097SOL    HW225191   4.405   0.371   0.314
 8098SOL     OW25192   2.442   6.423   5.185
 8098SOL    HW125193   2.472   6.516   5.164
 8098SOL    HW225194   2.409   6.380   5.101
 8099SOL     OW25195   2.039   3.669   2.830
 8099SOL    HW125196   1.966   3.648   2.765
 8099SOL    HW225197   2.065   3.586   2.880
 8100SOL     OW25198   6.962   6.487   0.241
 8100SOL    HW125199   6.994   6.404   0.195
 8100SOL    HW225200   7.014   6.499   0.326
 8101SOL     OW25201   3.110   4.977   6.818
 8101SOL    HW125202   3.166   4.983   6.901
 8101SOL    HW225203   3.076   4.884   6.808
 8102SOL     OW25204   1.776   4.437   4.002
 8102SOL    HW125205   1.861   4.405   3.960
 8102SOL    HW225206   1.737   4.365   4.059
 8103SOL     OW25207   4.604   0.457   1.811
 8103SOL    HW125208   4.515   0.500   1.823
 8103SOL    HW225209   4.640   0.428   1.900
 8104SOL     OW25210   1.397   6.699   0.046
 8104SOL    HW125211   1.449   6.745   6.994
 8104SOL    HW225212   1.299   6.716   0.032
 8105SOL     OW25213   7.018   0.259   2.708
 8105SOL    HW125214   6.953   0.293   2.640
 8105SOL    HW225215   7.001   0.303   2.796
 8106SOL     OW25216   3.818   6.188   6.846
 8106SOL    HW125217   3.828   6.284   6.818
 8106SOL    HW225218   3.898   6.162   6.900
 8107SOL     OW25219   0.842   6.404   0.095
 8107SOL    HW125220   0.924   6.416   0.040
 8107SOL    HW225221   0.766   6.376   0.036
 8108SOL     OW25222   2.232   0.824   0.901
 8108SOL    HW125223   2.238   0.875   0.816
 8108SOL    HW225224   2.186   0.880   0.970
 8109SOL     OW25225   0.239   3.882   1.981
 8109SOL    HW125226   0.241   3.851   1.886
 8109SOL    HW225227   0.308   3.833   2.034
 8110SOL     OW25228   4.633   4.478   0.179
 8110SOL    HW125229   4.725   4.453   0.209
 8110SOL    HW225230   4.635   4.501   0.081
 8111SOL     OW25231   5.590   2.117   2.308
 8111SOL    HW125232   5.662   2.185   2.318
 8111SOL    HW225233   5.506   2.161   2.279
 8112SOL     OW25234   2.059   4.540   6.602
 8112SOL    HW125235   2.102   4.460   6.559
 8112SOL    HW225236   1.962   4.541   6.580
 8113SOL     OW25237   5.345   5.139   6.208
 8113SOL    HW125238   5.245   5.147   6.217
 8113SOL    HW225239   5.378   5.068   6.270
 8114SOL     OW25240   2.275   2.814   2.708
 8114SOL    HW125241   2.343   2.745   2.734
 8114SOL    HW225242   2.187   2.769   2.692
 8115SOL     OW25243   2.585   1.439   6.186
 8115SOL    HW125244   2.545   1.412   6.274
 8115SOL    HW225245   2.645   1.518   6.201
 8116SOL     OW25246   4.114   3.506   2.357
 8116SOL    HW125247   4.115   3.527   2.259
 8116SOL    HW225248   4.116   3.407   2.370
 8117SOL     OW25249   0.878   0.411   3.754
 8117SOL    HW125250   0.784   0.424   3.784
 8117SOL    HW225251   0.894   0.465   3.671
 8118SOL     OW25252   6.802   2.548   6.522
 8118SOL    HW125253   6.817   2.577   6.427
 8118SOL    HW225254   6.731   2.477   6.525
 8119SOL     OW25255   5.552   4.962   6.809
 8119SOL    HW125256   5.471   4.914   6.843
 8119SOL    HW225257   5.538   5.060   6.818
 8120SOL     OW25258   1.997   6.523   2.389
 8120SOL    HW125259   1.945   6.448   2.431
 8120SOL    HW225260   1.964   6.610   2.423
 8121SOL     OW25261   1.204   2.490   2.939
 8121SOL    HW125262   1.229   2.507   2.844
 8121SOL    HW225263   1.169   2.397   2.948
 8122SOL     OW25264   0.898   5.072   0.994
 8122SOL    HW125265   0.968   5.021   1.043
 8122SOL    HW225266   0.816   5.081   1.051
 8123SOL     OW25267   6.885   0.958   5.973
 8123SOL    HW125268   6.970   1.010   5.965
 8123SOL    HW225269   6.812   1.018   6.006
 8124SOL     OW25270   6.067   6.069   5.481
 8124SOL    HW125271   6.106   6.124   5.555
 8124SOL    HW225272   6.125   6.077   5.400
 8125SOL     OW25273   0.597   6.129   2.239
 8125SOL    HW125274   0.606   6.082   2.151
 8125SOL    HW225275   0.612   6.065   2.313
 8126SOL     OW25276   3.207   5.619   4.544
 8126SOL    HW125277   3.117   5.580   4.522
 8126SOL    HW225278   3.274   5.584   4.478
 8127SOL     OW25279   4.295   1.441   5.999
 8127SOL    HW125280   4.272   1.414   6.092
 8127SOL    HW225281   4.241   1.521   5.973
 8128SOL     OW25282   3.547   3.487   1.022
 8128SOL    HW125283   3.639   3.495   0.984
 8128SOL    HW225284   3.528   3.567   1.079
 8129SOL     OW25285   6.520   2.704   3.416
 8129SOL    HW125286   6.504   2.797   3.382
 8129SOL    HW225287   6.613   2.675   3.393
 8130SOL     OW25288   0.099   6.257   0.138
 8130SOL    HW125289   0.048   6.220   0.061
 8130SOL    HW225290   0.191   6.282   0.109
 8131SOL     OW25291   2.136   2.768   0.899
 8131SOL    HW125292   2.175   2.760   0.990
 8131SOL    HW225293   2.066   2.839   0.899
 8132SOL     OW25294   5.991   1.431   4.343
 8132SOL    HW125295   5.932   1.489   4.398
 8132SOL    HW225296   6.039   1.486   4.275
 8133SOL     OW25297   3.813   5.489   1.328
 8133SOL    HW125298   3.855   5.537   1.406
 8133SOL    HW225299   3.885   5.461   1.265
 8134SOL     OW25300   6.195   1.471   6.899
 8134SOL    HW125301   6.239   1.383   6.914
 8134SOL    HW225302   6.174   1.513   6.988
 8135SOL     OW25303   2.379   6.003   1.944
 8135SOL    HW125304   2.424   5.950   2.016
 8135SOL    HW225305   2.380   5.951   1.859
 8136SOL     OW25306   4.608   4.733   2.254
 8136SOL    HW125307   4.590   4.638   2.230
 8136SOL    HW225308   4.551   4.793   2.198
 8137SOL     OW25309   4.108   1.324   5.607
 8137SOL    HW125310   4.012   1.335   5.629
 8137SOL    HW225311   4.148   1.413   5.584
 8138SOL     OW25312   6.258   0.620   2.633
 8138SOL    HW125313   6.340   0.582   2.591
 8138SOL    HW225314   6.188   0.549   2.642
 8139SOL     OW25315   0.848   1.344   4.533
 8139SOL    HW125316   0.751   1.334   4.509
 8139SOL    HW225317   0.869   1.285   4.610
 8140SOL     OW25318   4.711   2.624   3.112
 8140SOL    HW125319   4.648   2.647   3.187
 8140SOL    HW225320   4.678   2.665   3.027
 8141SOL     OW25321   5.707   4.146   3.700
 8141SOL    HW125322   5.640   4.183   3.765
 8141SOL    HW225323   5.795   4.189   3.715
 8142SOL     OW25324   0.727   6.055   0.433
 8142SOL    HW125325   0.767   6.107   0.358
 8142SOL    HW225326   0.642   6.098   0.462
 8143SOL     OW25327   6.813   2.574   6.261
 8143SOL    HW125328   6.731   2.573   6.205
 8143SOL    HW225329   6.873   2.498   6.234
 8144SOL     OW25330   4.894   6.075   0.161
 8144SOL    HW125331   4.874   6.087   0.063
 8144SOL    HW225332   4.859   6.154   0.212
 8145SOL     OW25333   4.872   6.237   4.306
 8145SOL    HW125334   4.820   6.180   4.369
 8145SOL    HW225335   4.968   6.207   4.306
 8146SOL     OW25336   3.167   1.769   3.411
 8146SOL    HW125337   3.136   1.674   3.409
 8146SOL    HW225338   3.176   1.799   3.506
 8147SOL     OW25339   4.939   1.372   3.215
 8147SOL    HW125340   4.901   1.448   3.162
 8147SOL    HW225341   4.908   1.285   3.177
 8148SOL     OW25342   0.516   3.422   3.059
 8148SOL    HW125343   0.477   3.329   3.058
 8148SOL    HW225344   0.531   3.453   2.965
 8149SOL     OW25345   3.615   5.188   3.998
 8149SOL    HW125346   3.647   5.242   4.076
 8149SOL    HW225347   3.672   5.106   3.989
 8150SOL     OW25348   1.168   5.896   1.251
 8150SOL    HW125349   1.134   5.804   1.269
 8150SOL    HW225350   1.244   5.917   1.313
 8151SOL     OW25351   1.195   1.580   4.912
 8151SOL    HW125352   1.125   1.532   4.859
 8151SOL    HW225353   1.280   1.527   4.911
 8152SOL     OW25354   0.864   1.048   3.316
 8152SOL    HW125355   0.837   1.113   3.246
 8152SOL    HW225356   0.956   1.014   3.296
 8153SOL     OW25357   2.401   5.869   0.378
 8153SOL    HW125358   2.416   5.911   0.467
 8153SOL    HW225359   2.485   5.876   0.323
 8154SOL     OW25360   2.053   6.280   3.674
 8154SOL    HW125361   2.114   6.346   3.717
 8154SOL    HW225362   2.095   6.189   3.677
 8155SOL     OW25363   3.616   3.792   4.712
 8155SOL    HW125364   3.677   3.714   4.712
 8155SOL    HW225365   3.665   3.874   4.682
 8156SOL     OW25366   0.535   6.768   4.979
 8156SOL    HW125367   0.522   6.850   4.924
 8156SOL    HW225368   0.470   6.697   4.950
 8157SOL     OW25369   5.762   2.451   6.863
 8157SOL    HW125370   5.754   2.373   6.801
 8157SOL    HW225371   5.731   2.423   6.954
 8158SOL     OW25372   0.905   6.154   2.665
 8158SOL    HW125373   0.875   6.216   2.737
 8158SOL    HW225374   0.894   6.198   2.576
 8159SOL     OW25375   0.428   6.101   0.270
 8159SOL    HW125376   0.349   6.040   0.281
 8159SOL    HW225377   0.504   6.050   0.231
 8160SOL     OW25378   5.523   2.172   1.068
 8160SOL    HW125379   5.613   2.133   1.088
 8160SOL    HW225380   5.453   2.118   1.114
 8161SOL     OW25381   4.167   3.690   1.509
 8161SOL    HW125382   4.163   3.612   1.447
 8161SOL    HW225383   4.159   3.659   1.604
 8162SOL     OW25384   6.065   1.191   1.794
 8162SOL    HW125385   5.994   1.211   1.726
 8162SOL    HW225386   6.024   1.145   1.872
 8163SOL     OW25387   2.381   2.693   5.142
 8163SOL    HW125388   2.470   2.657   5.167
 8163SOL    HW225389   2.390   2.788   5.111
 8164SOL     OW25390   5.441   4.400   1.571
 8164SOL    HW125391   5.419   4.302   1.577
 8164SOL    HW225392   5.382   4.451   1.633
 8165SOL     OW25393   1.421   3.393   1.561
 8165SOL    HW125394   1.395   3.310   1.611
 8165SOL    HW225395   1.356   3.409   1.487
 8166SOL     OW25396   2.514   6.860   2.139
 8166SOL    HW125397   2.523   6.767   2.101
 8166SOL    HW225398   2.602   6.907   2.133
 8167SOL     OW25399   5.942   2.845   4.458
 8167SOL    HW125400   5.942   2.905   4.378
 8167SOL    HW225401   5.953   2.750   4.429
 8168SOL     OW25402   2.749   1.829   2.387
 8168SOL    HW125403   2.702   1.797   2.470
 8168SOL    HW225404   2.735   1.928   2.377
 8169SOL     OW25405   5.483   4.160   5.584
 8169SOL    HW125406   5.452   4.151   5.489
 8169SOL    HW225407   5.422   4.223   5.632
 8170SOL     OW25408   1.188   4.892   3.810
 8170SOL    HW125409   1.135   4.975   3.793
 8170SOL    HW225410   1.235   4.864   3.727
 8171SOL     OW25411   1.797   0.810   6.539
 8171SOL    HW125412   1.815   0.735   6.603
 8171SOL    HW225413   1.737   0.877   6.582
 8172SOL     OW25414   6.734   6.371   2.190
 8172SOL    HW125415   6.744   6.359   2.289
 8172SOL    HW225416   6.823   6.360   2.146
 8173SOL     OW25417   6.590   3.147   0.264
 8173SOL    HW125418   6.653   3.166   0.189
 8173SOL    HW225419   6.531   3.070   0.239
 8174SOL     OW25420   4.950   6.367   3.020
 8174SOL    HW125421   4.999   6.306   3.081
 8174SOL    HW225422   4.857   6.333   3.004
 8175SOL     OW25423   1.188   2.371   3.252
 8175SOL    HW125424   1.280   2.401   3.224
 8175SOL    HW225425   1.180   2.378   3.352
 8176SOL     OW25426   4.126   5.419   3.304
 8176SOL    HW125427   4.062   5.482   3.349
 8176SOL    HW225428   4.074   5.352   3.251
 8177SOL     OW25429   1.976   6.621   6.162
 8177SOL    HW125430   1.926   6.563   6.226
 8177SOL    HW225431   2.025   6.564   6.096
 8178SOL     OW25432   1.594   6.057   6.516
 8178SOL    HW125433   1.583   6.061   6.417
 8178SOL    HW225434   1.579   5.963   6.547
 8179SOL     OW25435   4.012   0.434   6.357
 8179SOL    HW125436   4.018   0.523   6.310
 8179SOL    HW225437   4.055   0.364   6.301
 8180SOL     OW25438   4.643   4.265   4.594
 8180SOL    HW125439   4.713   4.235   4.528
 8180SOL    HW225440   4.589   4.338   4.554
 8181SOL     OW25441   2.461   2.297   2.166
 8181SOL    HW125442   2.363   2.290   2.146
 8181SOL    HW225443   2.475   2.365   2.238
 8182SOL     OW25444   5.591   3.092   5.352
 8182SOL    HW125445   5.493   3.072   5.350
 8182SOL    HW225446   5.633   3.060   5.267
 8183SOL     OW25447   1.939   3.305   3.211
 8183SOL    HW125448   1.900   3.347   3.293
 8183SOL    HW225449   1.963   3.210   3.231
 8184SOL     OW25450   6.664   6.009   4.520
 8184SOL    HW125451   6.753   5.981   4.556
 8184SOL    HW225452   6.678   6.056   4.433
 8185SOL     OW25453   0.765   2.433   3.454
 8185SOL    HW125454   0.810   2.428   3.365
 8185SOL    HW225455   0.688   2.370   3.456
 8186SOL     OW25456   4.576   3.652   6.466
 8186SOL    HW125457   4.647   3.712   6.502
 8186SOL    HW225458   4.590   3.559   6.500
 8187SOL     OW25459   2.095   1.574   5.896
 8187SOL    HW125460   2.010   1.562   5.846
 8187SOL    HW225461   2.170   1.535   5.843
 8188SOL     OW25462   5.595   3.346   2.880
 8188SOL    HW125463   5.674   3.294   2.912
 8188SOL    HW225464   5.531   3.285   2.832
 8189SOL     OW25465   6.528   5.099   3.288
 8189SOL    HW125466   6.480   5.047   3.359
 8189SOL    HW225467   6.474   5.098   3.204
 8190SOL     OW25468   5.852   3.649   2.868
 8190SOL    HW125469   5.824   3.601   2.951
 8190SOL    HW225470   5.828   3.745   2.875
 8191SOL     OW25471   5.920   5.084   1.411
 8191SOL    HW125472   5.859   5.142   1.465
 8191SOL    HW225473   5.965   5.018   1.471
 8192SOL     OW25474   1.448   2.138   0.806
 8192SOL    HW125475   1.455   2.055   0.751
 8192SOL    HW225476   1.430   2.114   0.901
 8193SOL     OW25477   3.815   6.231   5.910
 8193SOL    HW125478   3.845   6.153   5.855
 8193SOL    HW225479   3.894   6.278   5.947
 8194SOL     OW25480   1.824   0.907   2.647
 8194SOL    HW125481   1.831   0.809   2.666
 8194SOL    HW225482   1.779   0.921   2.559
 8195SOL     OW25483   5.924   1.399   1.673
 8195SOL    HW125484   5.885   1.389   1.581
 8195SOL    HW225485   5.858   1.365   1.740
 8196SOL     OW25486   2.606   0.699   1.324
 8196SOL    HW125487   2.665   0.623   1.296
 8196SOL    HW225488   2.652   0.786   1.302
 8197SOL     OW25489   0.554   6.712   0.620
 8197SOL    HW125490   0.467   6.714   0.669
 8197SOL    HW225491   0.554   6.635   0.556
 8198SOL     OW25492   2.863   1.473   2.908
 8198SOL    HW125493   2.913   1.396   2.949
 8198SOL    HW225494   2.798   1.509   2.975
 8199SOL     OW25495   5.510   4.784   1.257
 8199SOL    HW125496   5.498   4.783   1.356
 8199SOL    HW225497   5.601   4.748   1.234
 8200SOL     OW25498   3.621   4.308   1.439
 8200SOL    HW125499   3.567   4.292   1.521
 8200SOL    HW225500   3.718   4.307   1.463
 8201SOL     OW25501   0.873   0.842   5.223
 8201SOL    HW125502   0.865   0.904   5.300
 8201SOL    HW225503   0.942   0.876   5.159
 8202SOL     OW25504   1.537   3.009   4.090
 8202SOL    HW125505   1.530   3.107   4.071
 8202SOL    HW225506   1.541   2.995   4.189
 8203SOL     OW25507   6.645   4.263   6.200
 8203SOL    HW125508   6.708   4.186   6.186
 8203SOL    HW225509   6.605   4.256   6.291
 8204SOL     OW25510   3.024   6.961   1.130
 8204SOL    HW125511   3.121   6.972   1.109
 8204SOL    HW225512   2.996   0.011   1.196
 8205SOL     OW25513   3.720   6.974   2.877
 8205SOL    HW125514   3.733   0.042   2.831
 8205SOL    HW225515   3.704   6.903   2.808
 8206SOL     OW25516   3.660   2.135   4.557
 8206SOL    HW125517   3.567   2.171   4.543
 8206SOL    HW225518   3.710   2.140   4.471
 8207SOL     OW25519   2.625   5.883   0.232
 8207SOL    HW125520   2.678   5.809   0.189
 8207SOL    HW225521   2.674   5.969   0.220
 8208SOL     OW25522   1.219   5.980   0.984
 8208SOL    HW125523   1.272   5.909   0.937
 8208SOL    HW225524   1.197   5.948   1.077
 8209SOL     OW25525   0.856   5.903   4.880
 8209SOL    HW125526   0.902   5.814   4.892
 8209SOL    HW225527   0.864   5.932   4.785
 8210SOL     OW25528   2.237   0.643   1.293
 8210SOL    HW125529   2.241   0.598   1.383
 8210SOL    HW225530   2.330   0.655   1.258
 8211SOL     OW25531   3.172   4.057   4.113
 8211SOL    HW125532   3.217   3.981   4.160
 8211SOL    HW225533   3.083   4.075   4.155
 8212SOL     OW25534   4.286   4.589   7.000
 8212SOL    HW125535   4.298   4.529   0.059
 8212SOL    HW225536   4.321   4.543   6.918
 8213SOL     OW25537   4.947   4.092   2.133
 8213SOL    HW125538   4.964   4.127   2.225
 8213SOL    HW225539   4.898   4.160   2.079
 8214SOL     OW25540   4.321   5.172   3.522
 8214SOL    HW125541   4.372   5.255   3.499
 8214SOL    HW225542   4.228   5.196   3.550
 8215SOL     OW25543   2.841   6.266   5.129
 8215SOL    HW125544   2.817   6.353   5.085
 8215SOL    HW225545   2.768   6.200   5.112
 8216SOL     OW25546   6.123   5.060   6.978
 8216SOL    HW125547   6.166   5.149   6.995
 8216SOL    HW225548   6.185   5.002   6.927
 8217SOL     OW25549   3.464   6.078   3.517
 8217SOL    HW125550   3.521   6.151   3.479
 8217SOL    HW225551   3.418   6.112   3.599
 8218SOL     OW25552   2.239   6.131   3.928
 8218SOL    HW125553   2.194   6.048   3.893
 8218SOL    HW225554   2.336   6.113   3.944
 8219SOL     OW25555   3.450   3.524   4.333
 8219SOL    HW125556   3.522   3.592   4.346
 8219SOL    HW225557   3.472   3.468   4.253
 8220SOL     OW25558   4.601   4.274   6.020
 8220SOL    HW125559   4.548   4.359   6.021
 8220SOL    HW225560   4.539   4.197   6.005
 8221SOL     OW25561   6.854   4.053   3.859
 8221SOL    HW125562   6.883   4.133   3.807
 8221SOL    HW225563   6.874   4.068   3.956
 8222SOL     OW25564   4.866   2.085   6.270
 8222SOL    HW125565   4.805   2.108   6.346
 8222SOL    HW225566   4.825   2.114   6.184
 8223SOL     OW25567   1.130   6.381   5.543
 8223SOL    HW125568   1.200   6.327   5.589
 8223SOL    HW225569   1.167   6.419   5.458
 8224SOL     OW25570   5.359   0.893   5.320
 8224SOL    HW125571   5.368   0.830   5.397
 8224SOL    HW225572   5.291   0.858   5.256
 8225SOL     OW25573   6.105   2.517   0.333
 8225SOL    HW125574   6.112   2.423   0.367
 8225SOL    HW225575   6.185   2.538   0.278
 8226SOL     OW25576   3.663   0.508   6.714
 8226SOL    HW125577   3.718   0.428   6.736
 8226SOL    HW225578   3.691   0.585   6.772
 8227SOL     OW25579   5.901   3.693   2.209
 8227SOL    HW125580   5.898   3.606   2.159
 8227SOL    HW225581   5.808   3.723   2.230
 8228SOL     OW25582   2.811   1.361   4.377
 8228SOL    HW125583   2.811   1.294   4.302
 8228SOL    HW225584   2.770   1.447   4.344
 8229SOL     OW25585   4.292   4.127   0.576
 8229SOL    HW125586   4.366   4.191   0.598
 8229SOL    HW225587   4.261   4.082   0.660
 8230SOL     OW25588   6.703   0.791   6.251
 8230SOL    HW125589   6.723   0.702   6.210
 8230SOL    HW225590   6.739   0.864   6.192
 8231SOL     OW25591   3.484   1.763   1.553
 8231SOL    HW125592   3.573   1.764   1.600
 8231SOL    HW225593   3.474   1.676   1.504
 8232SOL     OW25594   3.730   6.221   4.132
 8232SOL    HW125595   3.700   6.260   4.219
 8232SOL    HW225596   3.797   6.281   4.089
 8233SOL     OW25597   3.161   0.409   6.709
 8233SOL    HW125598   3.253   0.439   6.684
 8233SOL    HW225599   3.110   0.383   6.627
 8234SOL     OW25600   0.663   2.663   6.458
 8234SOL    HW125601   0.634   2.720   6.381
 8234SOL    HW225602   0.761   2.644   6.451
 8235SOL     OW25603   1.173   6.342   0.249
 8235SOL    HW125604   1.143   6.319   0.156
 8235SOL    HW225605   1.247   6.409   0.245
 8236SOL     OW25606   1.244   0.260   0.531
 8236SOL    HW125607   1.222   0.338   0.472
 8236SOL    HW225608   1.174   0.250   0.602
 8237SOL     OW25609   4.120   4.808   5.479
 8237SOL    HW125610   4.193   4.849   5.534
 8237SOL    HW225611   4.035   4.806   5.533
 8238SOL     OW25612   6.632   5.248   6.404
 8238SOL    HW125613   6.628   5.156   6.444
 8238SOL    HW225614   6.696   5.248   6.327
 8239SOL     OW25615   4.335   2.354   3.836
 8239SOL    HW125616   4.281   2.298   3.899
 8239SOL    HW225617   4.409   2.399   3.886
 8240SOL     OW25618   3.576   3.674   5.350
 8240SOL    HW125619   3.481   3.674   5.381
 8240SOL    HW225620   3.635   3.708   5.423
 8241SOL     OW25621   0.493   3.183   5.797
 8241SOL    HW125622   0.486   3.104   5.737
 8241SOL    HW225623   0.582   3.228   5.784
 8242SOL     OW25624   0.485   3.430   3.320
 8242SOL    HW125625   0.552   3.373   3.368
 8242SOL    HW225626   0.514   3.444   3.226
 8243SOL     OW25627   2.146   5.879   3.847
 8243SOL    HW125628   2.235   5.839   3.870
 8243SOL    HW225629   2.081   5.860   3.920
 8244SOL     OW25630   5.418   6.971   4.540
 8244SOL    HW125631   5.488   0.019   4.516
 8244SOL    HW225632   5.338   7.018   4.578
 8245SOL     OW25633   5.741   4.177   2.448
 8245SOL    HW125634   5.661   4.163   2.390
 8245SOL    HW225635   5.712   4.195   2.542
 8246SOL     OW25636   2.261   4.586   0.095
 8246SOL    HW125637   2.297   4.593   0.001
 8246SOL    HW225638   2.198   4.661   0.112
 8247SOL     OW25639   1.888   4.752   3.233
 8247SOL    HW125640   1.918   4.672   3.285
 8247SOL    HW225641   1.945   4.831   3.258
 8248SOL     OW25642   6.656   0.179   2.271
 8248SOL    HW125643   6.667   0.113   2.196
 8248SOL    HW225644   6.742   0.227   2.287
 8249SOL     OW25645   3.706   6.878   5.344
 8249SOL    HW125646   3.796   6.889   5.302
 8249SOL    HW225647   3.671   6.968   5.370
 8250SOL     OW25648   1.304   1.690   6.790
 8250SOL    HW125649   1.216   1.648   6.768
 8250SOL    HW225650   1.294   1.751   6.868
 8251SOL     OW25651   1.356   1.887   6.337
 8251SOL    HW125652   1.410   1.805   6.358
 8251SOL    HW225653   1.316   1.923   6.421
 8252SOL     OW25654   1.033   1.435   6.417
 8252SOL    HW125655   1.112   1.401   6.366
 8252SOL    HW225656   0.960   1.367   6.415
 8253SOL     OW25657   0.191   4.192   5.121
 8253SOL    HW125658   0.153   4.283   5.105
 8253SOL    HW225659   0.255   4.169   5.048
 8254SOL     OW25660   4.879   4.361   0.173
 8254SOL    HW125661   4.920   4.353   0.264
 8254SOL    HW225662   4.848   4.270   0.143
 8255SOL     OW25663   1.547   6.380   5.566
 8255SOL    HW125664   1.635   6.342   5.593
 8255SOL    HW225665   1.512   6.438   5.639
 8256SOL     OW25666   1.726   5.834   2.616
 8256SOL    HW125667   1.719   5.909   2.681
 8256SOL    HW225668   1.802   5.851   2.553
 8257SOL     OW25669   4.691   4.636   3.591
 8257SOL    HW125670   4.690   4.536   3.592
 8257SOL    HW225671   4.783   4.668   3.568
 8258SOL     OW25672   0.267   3.306   5.000
 8258SOL    HW125673   0.308   3.388   5.039
 8258SOL    HW225674   0.311   3.286   4.912
 8259SOL     OW25675   5.714   3.708   4.208
 8259SOL    HW125676   5.623   3.741   4.234
 8259SOL    HW225677   5.717   3.694   4.109
 8260SOL     OW25678   4.897   2.469   6.406
 8260SOL    HW125679   4.912   2.419   6.491
 8260SOL    HW225680   4.876   2.565   6.427
 8261SOL     OW25681   5.440   2.548   2.802
 8261SOL    HW125682   5.416   2.468   2.747
 8261SOL    HW225683   5.372   2.561   2.874
 8262SOL     OW25684   5.219   4.166   1.879
 8262SOL    HW125685   5.202   4.238   1.946
 8262SOL    HW225686   5.268   4.091   1.923
 8263SOL     OW25687   6.951   1.372   6.852
 8263SOL    HW125688   6.974   1.422   6.935
 8263SOL    HW225689   6.870   1.414   6.809
 8264SOL     OW25690   3.561   1.497   1.787
 8264SOL    HW125691   3.629   1.476   1.716
 8264SOL    HW225692   3.533   1.593   1.779
 8265SOL     OW25693   4.962   5.576   6.691
 8265SOL    HW125694   4.883   5.597   6.750
 8265SOL    HW225695   5.043   5.564   6.748
 8266SOL     OW25696   4.712   2.794   2.896
 8266SOL    HW125697   4.801   2.799   2.851
 8266SOL    HW225698   4.645   2.846   2.844
 8267SOL     OW25699   2.151   3.214   2.889
 8267SOL    HW125700   2.157   3.147   2.963
 8267SOL    HW225701   2.178   3.171   2.803
 8268SOL     OW25702   2.695   5.387   1.300
 8268SOL    HW125703   2.751   5.361   1.379
 8268SOL    HW225704   2.688   5.309   1.238
 8269SOL     OW25705   6.736   2.060   3.256
 8269SOL    HW125706   6.694   2.144   3.222
 8269SOL    HW225707   6.787   2.079   3.340
 8270SOL     OW25708   3.931   4.957   0.021
 8270SOL    HW125709   3.847   5.006   7.018
 8270SOL    HW225710   3.941   4.955   0.120
 8271SOL     OW25711   2.567   6.951   5.246
 8271SOL    HW125712   2.586   0.003   5.313
 8271SOL    HW225713   2.551   6.992   5.156
 8272SOL     OW25714   0.675   0.693   1.956
 8272SOL    HW125715   0.719   0.765   1.902
 8272SOL    HW225716   0.619   0.735   2.027
 8273SOL     OW25717   5.023   0.133   5.863
 8273SOL    HW125718   4.937   0.175   5.894
 8273SOL    HW225719   5.030   0.141   5.763
 8274SOL     OW25720   5.503   6.699   3.840
 8274SOL    HW125721   5.506   6.615   3.894
 8274SOL    HW225722   5.412   6.712   3.803
 8275SOL     OW25723   4.870   0.562   4.240
 8275SOL    HW125724   4.915   0.508   4.312
 8275SOL    HW225725   4.940   0.612   4.188
 8276SOL     OW25726   5.276   2.847   0.855
 8276SOL    HW125727   5.234   2.806   0.936
 8276SOL    HW225728   5.373   2.863   0.873
 8277SOL     OW25729   1.191   6.973   2.021
 8277SOL    HW125730   1.142   6.897   2.064
 8277SOL    HW225731   1.283   6.980   2.059
 8278SOL     OW25732   1.709   0.806   1.610
 8278SOL    HW125733   1.706   0.783   1.513
 8278SOL    HW225734   1.695   0.722   1.664
 8279SOL     OW25735   6.166   4.769   5.687
 8279SOL    HW125736   6.157   4.794   5.591
 8279SOL    HW225737   6.171   4.852   5.743
 8280SOL     OW25738   0.480   4.856   0.006
 8280SOL    HW125739   0.516   4.786   6.964
 8280SOL    HW225740   0.442   4.813   0.087
 8281SOL     OW25741   2.781   4.846   6.943
 8281SOL    HW125742   2.716   4.818   6.872
 8281SOL    HW225743   2.872   4.811   6.920
 8282SOL     OW25744   4.660   3.291   0.773
 8282SOL    HW125745   4.693   3.385   0.778
 8282SOL    HW225746   4.671   3.246   0.862
 8283SOL     OW25747   0.961   1.778   3.531
 8283SOL    HW125748   1.038   1.830   3.492
 8283SOL    HW225749   0.885   1.778   3.467
 8284SOL     OW25750   4.928   2.558   1.177
 8284SOL    HW125751   4.831   2.560   1.152
 8284SOL    HW225752   4.939   2.517   1.268
 8285SOL     OW25753   0.352   5.090   6.945
 8285SOL    HW125754   0.412   5.017   6.977
 8285SOL    HW225755   0.307   5.062   6.860
 8286SOL     OW25756   6.318   1.912   6.783
 8286SOL    HW125757   6.348   2.005   6.805
 8286SOL    HW225758   6.394   1.860   6.746
 8287SOL     OW25759   0.647   1.348   2.879
 8287SOL    HW125760   0.566   1.293   2.861
 8287SOL    HW225761   0.644   1.383   2.973
 8288SOL     OW25762   2.355   6.642   2.542
 8288SOL    HW125763   2.377   6.566   2.480
 8288SOL    HW225764   2.374   6.614   2.636
 8289SOL     OW25765   5.874   6.909   0.338
 8289SOL    HW125766   5.800   6.843   0.356
 8289SOL    HW225767   5.839   7.002   0.351
 8290SOL     OW25768   4.627   2.768   1.699
 8290SOL    HW125769   4.663   2.811   1.616
 8290SOL    HW225770   4.630   2.834   1.775
 8291SOL     OW25771   5.519   5.406   5.134
 8291SOL    HW125772   5.421   5.406   5.114
 8291SOL    HW225773   5.533   5.422   5.232
 8292SOL     OW25774   6.741   3.777   5.656
 8292SOL    HW125775   6.731   3.727   5.742
 8292SOL    HW225776   6.819   3.740   5.605
 8293SOL     OW25777   2.905   5.338   4.323
 8293SOL    HW125778   2.833   5.369   4.261
 8293SOL    HW225779   2.945   5.417   4.370
 8294SOL     OW25780   6.570   3.420   5.765
 8294SOL    HW125781   6.475   3.444   5.786
 8294SOL    HW225782   6.630   3.493   5.798
 8295SOL     OW25783   4.172   4.455   1.293
 8295SOL    HW125784   4.129   4.366   1.308
 8295SOL    HW225785   4.225   4.480   1.374
 8296SOL     OW25786   3.129   0.245   1.943
 8296SOL    HW125787   3.048   0.186   1.940
 8296SOL    HW225788   3.205   0.200   1.896
 8297SOL     OW25789   6.030   4.764   1.812
 8297SOL    HW125790   5.957   4.744   1.747
 8297SOL    HW225791   6.029   4.698   1.886
 8298SOL     OW25792   6.964   6.235   0.644
 8298SOL    HW125793   0.016   6.296   0.676
 8298SOL    HW225794   7.004   6.154   0.602
 8299SOL     OW25795   1.273   1.863   7.014
 8299SOL    HW125796   1.186   1.899   0.029
 8299SOL    HW225797   1.335   1.939   6.994
 8300SOL     OW25798   4.397   6.368   4.381
 8300SOL    HW125799   4.460   6.406   4.448
 8300SOL    HW225800   4.390   6.269   4.393
 8301SOL     OW25801   6.340   5.024   6.757
 8301SOL    HW125802   6.316   4.977   6.672
 8301SOL    HW225803   6.401   4.967   6.811
 8302SOL     OW25804   3.571   6.285   6.041
 8302SOL    HW125805   3.600   6.289   6.136
 8302SOL    HW225806   3.651   6.279   5.982
 8303SOL     OW25807   7.012   4.641   4.236
 8303SOL    HW125808   0.020   4.737   4.232
 8303SOL    HW225809   7.009   4.611   4.331
 8304SOL     OW25810   5.585   3.049   3.850
 8304SOL    HW125811   5.605   3.129   3.907
 8304SOL    HW225812   5.633   3.057   3.763
 8305SOL     OW25813   4.539   6.246   5.300
 8305SOL    HW125814   4.501   6.191   5.374
 8305SOL    HW225815   4.515   6.206   5.212
 8306SOL     OW25816   5.525   1.485   3.546
 8306SOL    HW125817   5.578   1.522   3.622
 8306SOL    HW225818   5.450   1.430   3.582
 8307SOL     OW25819   6.885   5.026   4.382
 8307SOL    HW125820   6.921   4.974   4.305
 8307SOL    HW225821   6.917   4.985   4.467
 8308SOL     OW25822   2.399   5.126   0.265
 8308SOL    HW125823   2.424   5.069   0.187
 8308SOL    HW225824   2.438   5.086   0.349
 8309SOL     OW25825   5.778   5.101   2.415
 8309SOL    HW125826   5.695   5.046   2.416
 8309SOL    HW225827   5.837   5.071   2.340
 8310SOL     OW25828   2.038   5.933   2.887
 8310SOL    HW125829   2.057   5.883   2.802
 8310SOL    HW225830   1.983   5.876   2.948
 8311SOL     OW25831   5.034   6.588   2.280
 8311SOL    HW125832   5.131   6.565   2.289
 8311SOL    HW225833   5.025   6.678   2.239
 8312SOL     OW25834   6.785   0.405   0.893
 8312SOL    HW125835   6.812   0.446   0.806
 8312SOL    HW225836   6.779   0.306   0.883
 8313SOL     OW25837   4.838   2.599   5.842
 8313SOL    HW125838   4.858   2.580   5.746
 8313SOL    HW225839   4.875   2.526   5.899
 8314SOL     OW25840   5.460   6.237   4.651
 8314SOL    HW125841   5.377   6.181   4.657
 8314SOL    HW225842   5.494   6.235   4.557
 8315SOL     OW25843   3.451   1.713   0.937
 8315SOL    HW125844   3.495   1.787   0.988
 8315SOL    HW225845   3.359   1.741   0.911
 8316SOL     OW25846   1.604   1.655   4.850
 8316SOL    HW125847   1.681   1.662   4.914
 8316SOL    HW225848   1.551   1.739   4.854
 8317SOL     OW25849   2.423   1.656   6.577
 8317SOL    HW125850   2.517   1.691   6.587
 8317SOL    HW225851   2.409   1.627   6.482
 8318SOL     OW25852   4.116   6.443   5.178
 8318SOL    HW125853   4.101   6.408   5.085
 8318SOL    HW225854   4.028   6.471   5.217
 8319SOL     OW25855   2.969   6.029   6.209
 8319SOL    HW125856   2.968   6.050   6.112
 8319SOL    HW225857   2.957   5.931   6.222
 8320SOL     OW25858   3.756   5.435   5.380
 8320SOL    HW125859   3.739   5.456   5.284
 8320SOL    HW225860   3.737   5.517   5.435
 8321SOL     OW25861   0.369   0.274   0.421
 8321SOL    HW125862   0.279   0.237   0.447
 8321SOL    HW225863   0.358   0.332   0.340
 8322SOL     OW25864   2.239   0.485   2.036
 8322SOL    HW125865   2.324   0.432   2.045
 8322SOL    HW225866   2.258   0.581   2.054
 8323SOL     OW25867   5.886   5.458   6.449
 8323SOL    HW125868   5.798   5.427   6.414
 8323SOL    HW225869   5.954   5.454   6.375
 8324SOL     OW25870   6.391   5.999   5.628
 8324SOL    HW125871   6.486   6.011   5.657
 8324SOL    HW225872   6.354   6.088   5.600
 8325SOL     OW25873   1.710   5.959   5.136
 8325SOL    HW125874   1.732   6.055   5.150
 8325SOL    HW225875   1.615   5.942   5.162
 8326SOL     OW25876   3.216   0.778   6.462
 8326SOL    HW125877   3.169   0.866   6.460
 8326SOL    HW225878   3.281   0.776   6.538
 8327SOL     OW25879   0.245   6.298   5.600
 8327SOL    HW125880   0.265   6.350   5.683
 8327SOL    HW225881   0.292   6.339   5.522
 8328SOL     OW25882   0.802   0.066   0.297
 8328SOL    HW125883   0.788   6.988   0.305
 8328SOL    HW225884   0.898   0.088   0.310
 8329SOL     OW25885   1.666   2.210   5.438
 8329SOL    HW125886   1.716   2.265   5.505
 8329SOL    HW225887   1.669   2.255   5.349
 8330SOL     OW25888   3.805   6.679   7.004
 8330SOL    HW125889   3.874   6.663   0.055
 8330SOL    HW225890   3.831   6.759   6.950
 8331SOL     OW25891   1.813   2.416   5.596
 8331SOL    HW125892   1.842   2.328   5.635
 8331SOL    HW225893   1.821   2.487   5.665
 8332SOL     OW25894   5.314   4.394   1.296
 8332SOL    HW125895   5.372   4.367   1.220
 8332SOL    HW225896   5.370   4.407   1.378
 8333SOL     OW25897   2.584   4.549   6.135
 8333SOL    HW125898   2.629   4.473   6.181
 8333SOL    HW225899   2.543   4.610   6.203
 8334SOL     OW25900   3.009   2.878   5.342
 8334SOL    HW125901   3.002   2.787   5.381
 8334SOL    HW225902   2.978   2.946   5.408
 8335SOL     OW25903   5.992   3.229   0.140
 8335SOL    HW125904   6.025   3.322   0.156
 8335SOL    HW225905   5.979   3.215   0.041
 8336SOL     OW25906   0.746   4.383   3.808
 8336SOL    HW125907   0.798   4.467   3.817
 8336SOL    HW225908   0.718   4.371   3.713
 8337SOL     OW25909   6.288   6.918   4.447
 8337SOL    HW125910   6.335   6.997   4.486
 8337SOL    HW225911   6.303   6.838   4.506
 8338SOL     OW25912   2.541   4.728   0.868
 8338SOL    HW125913   2.487   4.702   0.948
 8338SOL    HW225914   2.486   4.786   0.808
 8339SOL     OW25915   6.952   0.311   1.589
 8339SOL    HW125916   6.997   0.229   1.556
 8339SOL    HW225917   7.019   0.384   1.601
 8340SOL     OW25918   5.884   2.338   6.038
 8340SOL    HW125919   5.976   2.300   6.038
 8340SOL    HW225920   5.842   2.324   6.128
 8341SOL     OW25921   3.495   0.109   0.947
 8341SOL    HW125922   3.428   0.158   0.892
 8341SOL    HW225923   3.578   0.094   0.893
 8342SOL     OW25924   3.803   0.971   1.597
 8342SOL    HW125925   3.811   0.972   1.498
 8342SOL    HW225926   3.888   0.938   1.638
 8343SOL     OW25927   4.470   6.133   2.823
 8343SOL    HW125928   4.390   6.194   2.820
 8343SOL    HW225929   4.447   6.051   2.874
 8344SOL     OW25930   2.310   4.239   4.653
 8344SOL    HW125931   2.231   4.210   4.599
 8344SOL    HW225932   2.358   4.158   4.687
 8345SOL     OW25933   6.723   0.067   4.254
 8345SOL    HW125934   6.675   0.058   4.341
 8345SOL    HW225935   6.675   0.135   4.198
 8346SOL     OW25936   5.535   4.500   2.999
 8346SOL    HW125937   5.520   4.419   2.942
 8346SOL    HW225938   5.548   4.472   3.094
 8347SOL     OW25939   0.974   0.755   6.702
 8347SOL    HW125940   0.972   0.782   6.606
 8347SOL    HW225941   0.945   0.660   6.711
 8348SOL     OW25942   3.015   6.282   0.370
 8348SOL    HW125943   2.980   6.342   0.442
 8348SOL    HW225944   2.939   6.232   0.329
 8349SOL     OW25945   4.634   5.754   1.395
 8349SOL    HW125946   4.698   5.824   1.365
 8349SOL    HW225947   4.608   5.771   1.490
 8350SOL     OW25948   2.128   0.488   6.590
 8350SOL    HW125949   2.173   0.432   6.521
 8350SOL    HW225950   2.189   0.500   6.668
 8351SOL     OW25951   6.906   3.863   2.895
 8351SOL    HW125952   6.908   3.775   2.848
 8351SOL    HW225953   6.954   3.932   2.841
 8352SOL     OW25954   2.226   0.066   6.277
 8352SOL    HW125955   2.158   0.085   6.207
 8352SOL    HW225956   2.184   0.014   6.351
 8353SOL     OW25957   0.600   5.701   2.571
 8353SOL    HW125958   0.508   5.683   2.608
 8353SOL    HW225959   0.601   5.790   2.527
 8354SOL     OW25960   5.064   2.820   3.980
 8354SOL    HW125961   5.059   2.731   3.935
 8354SOL    HW225962   5.087   2.890   3.913
 8355SOL     OW25963   3.630   4.734   5.739
 8355SOL    HW125964   3.671   4.687   5.816
 8355SOL    HW225965   3.598   4.824   5.768
 8356SOL     OW25966   3.352   3.075   2.359
 8356SOL    HW125967   3.284   3.010   2.394
 8356SOL    HW225968   3.353   3.071   2.259
 8357SOL     OW25969   2.748   6.536   5.108
 8357SOL    HW125970   2.671   6.599   5.113
 8357SOL    HW225971   2.818   6.564   5.173
 8358SOL     OW25972   0.353   0.535   4.474
 8358SOL    HW125973   0.397   0.475   4.407
 8358SOL    HW225974   0.303   0.479   4.541
 8359SOL     OW25975   4.988   2.246   4.899
 8359SOL    HW125976   4.972   2.334   4.854
 8359SOL    HW225977   4.905   2.217   4.945
 8360SOL     OW25978   2.861   0.172   2.537
 8360SOL    HW125979   2.865   0.263   2.496
 8360SOL    HW225980   2.830   0.179   2.632
 8361SOL     OW25981   4.456   1.241   6.982
 8361SOL    HW125982   4.433   1.295   0.043
 8361SOL    HW225983   4.502   1.157   7.009
 8362SOL     OW25984   0.921   4.390   1.702
 8362SOL    HW125985   0.968   4.303   1.692
 8362SOL    HW225986   0.897   4.404   1.798
 8363SOL     OW25987   3.250   2.146   1.023
 8363SOL    HW125988   3.286   2.130   1.115
 8363SOL    HW225989   3.152   2.128   1.023
 8364SOL     OW25990   0.885   1.323   3.491
 8364SOL    HW125991   0.828   1.393   3.534
 8364SOL    HW225992   0.902   1.347   3.396
 8365SOL     OW25993   1.873   2.621   0.958
 8365SOL    HW125994   1.872   2.633   1.057
 8365SOL    HW225995   1.945   2.678   0.919
 8366SOL     OW25996   4.607   6.073   1.672
 8366SOL    HW125997   4.597   5.976   1.692
 8366SOL    HW225998   4.695   6.106   1.707
 8367SOL     OW25999   1.780   4.963   3.777
 8367SOL    HW126000   1.739   4.877   3.807
 8367SOL    HW226001   1.879   4.962   3.796
 8368SOL     OW26002   0.470   3.248   6.522
 8368SOL    HW126003   0.490   3.180   6.593
 8368SOL    HW226004   0.470   3.203   6.433
 8369SOL     OW26005   0.789   0.695   0.848
 8369SOL    HW126006   0.866   0.650   0.803
 8369SOL    HW226007   0.732   0.740   0.779
 8370SOL     OW26008   2.355   3.087   1.114
 8370SOL    HW126009   2.421   3.156   1.083
 8370SOL    HW226010   2.384   3.052   1.204
 8371SOL     OW26011   3.011   4.086   5.552
 8371SOL    HW126012   2.918   4.094   5.589
 8371SOL    HW226013   3.071   4.151   5.598
 8372SOL     OW26014   1.889   6.732   3.016
 8372SOL    HW126015   1.959   6.723   2.946
 8372SOL    HW226016   1.834   6.814   2.998
 8373SOL     OW26017   5.872   0.387   4.063
 8373SOL    HW126018   5.816   0.305   4.050
 8373SOL    HW226019   5.864   0.446   3.983
 8374SOL     OW26020   0.813   2.437   3.975
 8374SOL    HW126021   0.832   2.440   3.877
 8374SOL    HW226022   0.869   2.506   4.021
 8375SOL     OW26023   2.273   2.801   5.829
 8375SOL    HW126024   2.304   2.749   5.748
 8375SOL    HW226025   2.232   2.738   5.895
 8376SOL     OW26026   0.875   1.368   3.894
 8376SOL    HW126027   0.919   1.402   3.811
 8376SOL    HW226028   0.915   1.281   3.920
 8377SOL     OW26029   4.350   5.193   1.433
 8377SOL    HW126030   4.446   5.173   1.455
 8377SOL    HW226031   4.297   5.200   1.518
 8378SOL     OW26032   4.237   5.957   5.472
 8378SOL    HW126033   4.323   5.993   5.508
 8378SOL    HW226034   4.256   5.882   5.408
 8379SOL     OW26035   5.732   2.711   2.109
 8379SOL    HW126036   5.730   2.635   2.044
 8379SOL    HW226037   5.795   2.689   2.184
 8380SOL     OW26038   1.227   4.768   2.701
 8380SOL    HW126039   1.181   4.832   2.763
 8380SOL    HW226040   1.253   4.685   2.750
 8381SOL     OW26041   0.881   2.358   2.700
 8381SOL    HW126042   0.953   2.382   2.634
 8381SOL    HW226043   0.897   2.408   2.785
 8382SOL     OW26044   1.323   7.000   1.795
 8382SOL    HW126045   1.250   6.979   1.860
 8382SOL    HW226046   1.345   6.918   1.742
 8383SOL     OW26047   1.998   6.723   5.030
 8383SOL    HW126048   1.999   6.739   4.931
 8383SOL    HW226049   1.904   6.703   5.059
 8384SOL     OW26050   0.415   4.133   3.841
 8384SOL    HW126051   0.347   4.061   3.857
 8384SOL    HW226052   0.404   4.205   3.910
 8385SOL     OW26053   4.431   2.441   2.246
 8385SOL    HW126054   4.470   2.504   2.179
 8385SOL    HW226055   4.369   2.377   2.201
 8386SOL     OW26056   6.609   5.480   2.277
 8386SOL    HW126057   6.630   5.465   2.374
 8386SOL    HW226058   6.527   5.537   2.269
 8387SOL     OW26059   0.556   2.246   3.412
 8387SOL    HW126060   0.524   2.162   3.369
 8387SOL    HW226061   0.493   2.321   3.391
 8388SOL     OW26062   3.523   6.205   1.879
 8388SOL    HW126063   3.439   6.244   1.916
 8388SOL    HW226064   3.529   6.226   1.781
 8389SOL     OW26065   1.711   2.528   4.280
 8389SOL    HW126066   1.701   2.472   4.197
 8389SOL    HW226067   1.808   2.551   4.293
 8390SOL     OW26068   1.219   6.273   6.397
 8390SOL    HW126069   1.197   6.189   6.348
 8390SOL    HW226070   1.157   6.346   6.368
 8391SOL     OW26071   4.765   6.338   0.827
 8391SOL    HW126072   4.704   6.379   0.895
 8391SOL    HW226073   4.857   6.375   0.838
 8392SOL     OW26074   3.422   5.913   0.806
 8392SOL    HW126075   3.495   5.845   0.810
 8392SOL    HW226076   3.348   5.880   0.748
 8393SOL     OW26077   1.527   6.369   1.828
 8393SOL    HW126078   1.624   6.381   1.809
 8393SOL    HW226079   1.475   6.439   1.778
 8394SOL     OW26080   1.896   1.279   3.593
 8394SOL    HW126081   1.914   1.368   3.550
 8394SOL    HW226082   1.800   1.272   3.616
 8395SOL     OW26083   2.071   5.993   6.305
 8395SOL    HW126084   2.081   5.965   6.400
 8395SOL    HW226085   1.974   5.997   6.281
 8396SOL     OW26086   4.591   1.681   0.789
 8396SOL    HW126087   4.665   1.692   0.854
 8396SOL    HW226088   4.567   1.770   0.750
 8397SOL     OW26089   0.505   4.257   3.397
 8397SOL    HW126090   0.474   4.166   3.423
 8397SOL    HW226091   0.473   4.324   3.463
 8398SOL     OW26092   5.255   1.615   6.699
 8398SOL    HW126093   5.327   1.546   6.698
 8398SOL    HW226094   5.200   1.605   6.782
 8399SOL     OW26095   5.639   6.349   5.318
 8399SOL    HW126096   5.720   6.301   5.285
 8399SOL    HW226097   5.570   6.282   5.347
 8400SOL     OW26098   5.969   6.109   3.361
 8400SOL    HW126099   5.973   6.051   3.280
 8400SOL    HW226100   6.050   6.167   3.364
 8401SOL     OW26101   2.783   3.718   5.376
 8401SOL    HW126102   2.807   3.721   5.473
 8401SOL    HW226103   2.687   3.742   5.365
 8402SOL     OW26104   4.927   1.395   4.859
 8402SOL    HW126105   4.841   1.370   4.814
 8402SOL    HW226106   4.957   1.320   4.917
 8403SOL     OW26107   0.682   1.613   6.184
 8403SOL    HW126108   0.650   1.706   6.202
 8403SOL    HW226109   0.764   1.616   6.128
 8404SOL     OW26110   4.940   5.035   5.265
 8404SOL    HW126111   4.935   4.937   5.287
 8404SOL    HW226112   4.855   5.063   5.219
 8405SOL     OW26113   0.749   2.590   5.983
 8405SOL    HW126114   0.829   2.621   5.932
 8405SOL    HW226115   0.778   2.560   6.075
 8406SOL     OW26116   5.842   4.044   1.490
 8406SOL    HW126117   5.808   4.138   1.493
 8406SOL    HW226118   5.768   3.981   1.513
 8407SOL     OW26119   5.689   3.753   2.420
 8407SOL    HW126120   5.615   3.812   2.388
 8407SOL    HW226121   5.661   3.709   2.506
 8408SOL     OW26122   4.700   4.415   4.056
 8408SOL    HW126123   4.698   4.375   3.964
 8408SOL    HW226124   4.612   4.459   4.075
 8409SOL     OW26125   1.430   2.177   3.894
 8409SOL    HW126126   1.433   2.176   3.994
 8409SOL    HW226127   1.401   2.087   3.860
 8410SOL     OW26128   1.996   5.123   2.559
 8410SOL    HW126129   1.910   5.072   2.569
 8410SOL    HW226130   2.028   5.151   2.649
 8411SOL     OW26131   1.718   3.278   3.050
 8411SOL    HW126132   1.677   3.369   3.053
 8411SOL    HW226133   1.803   3.278   3.104
 8412SOL     OW26134   5.714   2.495   2.724
 8412SOL    HW126135   5.627   2.542   2.740
 8412SOL    HW226136   5.790   2.554   2.753
 8413SOL     OW26137   1.433   5.521   1.863
 8413SOL    HW126138   1.506   5.554   1.804
 8413SOL    HW226139   1.459   5.533   1.959
 8414SOL     OW26140   6.373   0.235   4.365
 8414SOL    HW126141   6.385   0.333   4.379
 8414SOL    HW226142   6.291   0.218   4.310
 8415SOL     OW26143   0.558   5.052   1.074
 8415SOL    HW126144   0.496   5.011   1.140
 8415SOL    HW226145   0.549   5.005   0.986
 8416SOL     OW26146   4.470   4.737   2.956
 8416SOL    HW126147   4.402   4.699   2.893
 8416SOL    HW226148   4.529   4.801   2.906
 8417SOL     OW26149   0.761   5.659   0.166
 8417SOL    HW126150   0.772   5.708   0.252
 8417SOL    HW226151   0.727   5.566   0.184
 8418SOL     OW26152   5.429   5.910   2.796
 8418SOL    HW126153   5.332   5.933   2.783
 8418SOL    HW226154   5.484   5.993   2.783
 8419SOL     OW26155   3.102   1.485   3.309
 8419SOL    HW126156   3.024   1.478   3.246
 8419SOL    HW226157   3.181   1.521   3.259
 8420SOL     OW26158   5.105   1.836   5.447
 8420SOL    HW126159   5.189   1.864   5.400
 8420SOL    HW226160   5.038   1.805   5.379
 8421SOL     OW26161   0.085   1.039   0.601
 8421SOL    HW126162   0.051   0.964   0.657
 8421SOL    HW226163   0.166   1.079   0.644
 8422SOL     OW26164   2.761   0.948   1.254
 8422SOL    HW126165   2.698   0.983   1.185
 8422SOL    HW226166   2.777   1.017   1.324
 8423SOL     OW26167   2.028   4.668   0.887
 8423SOL    HW126168   2.070   4.722   0.961
 8423SOL    HW226169   1.930   4.662   0.901
 8424SOL     OW26170   2.757   2.083   2.081
 8424SOL    HW126171   2.789   2.175   2.101
 8424SOL    HW226172   2.830   2.031   2.036
 8425SOL     OW26173   0.421   4.780   5.846
 8425SOL    HW126174   0.420   4.875   5.814
 8425SOL    HW226175   0.389   4.776   5.940
 8426SOL     OW26176   3.634   3.610   2.208
 8426SOL    HW126177   3.562   3.546   2.183
 8426SOL    HW226178   3.709   3.560   2.252
 8427SOL     OW26179   2.459   1.316   6.994
 8427SOL    HW126180   2.476   1.239   6.933
 8427SOL    HW226181   2.362   1.318   7.019
 8428SOL     OW26182   6.334   4.010   1.196
 8428SOL    HW126183   6.310   4.016   1.100
 8428SOL    HW226184   6.416   3.954   1.207
 8429SOL     OW26185   1.400   6.628   2.848
 8429SOL    HW126186   1.394   6.687   2.929
 8429SOL    HW226187   1.323   6.648   2.788
 8430SOL     OW26188   3.968   6.308   2.908
 8430SOL    HW126189   3.890   6.265   2.953
 8430SOL    HW226190   3.948   6.405   2.893
 8431SOL     OW26191   3.050   3.097   2.432
 8431SOL    HW126192   3.092   3.180   2.468
 8431SOL    HW226193   3.031   3.110   2.334
 8432SOL     OW26194   4.912   5.576   0.039
 8432SOL    HW126195   4.847   5.605   6.990
 8432SOL    HW226196   4.969   5.654   0.066
 8433SOL     OW26197   0.123   1.610   4.090
 8433SOL    HW126198   0.138   1.513   4.075
 8433SOL    HW226199   0.175   1.663   4.023
 8434SOL     OW26200   5.190   6.543   6.970
 8434SOL    HW126201   5.222   6.549   0.044
 8434SOL    HW226202   5.097   6.506   6.968
 8435SOL     OW26203   4.563   3.611   0.899
 8435SOL    HW126204   4.584   3.692   0.954
 8435SOL    HW226205   4.580   3.529   0.954
 8436SOL     OW26206   3.084   4.163   1.757
 8436SOL    HW126207   3.167   4.140   1.807
 8436SOL    HW226208   3.084   4.262   1.737
 8437SOL     OW26209   0.110   2.428   0.571
 8437SOL    HW126210   0.191   2.425   0.628
 8437SOL    HW226211   0.044   2.359   0.603
 8438SOL     OW26212   2.217   5.582   1.707
 8438SOL    HW126213   2.188   5.513   1.640
 8438SOL    HW226214   2.154   5.582   1.785
 8439SOL     OW26215   5.380   0.293   1.942
 8439SOL    HW126216   5.454   0.278   1.875
 8439SOL    HW226217   5.292   0.275   1.898
 8440SOL     OW26218   1.137   3.745   3.842
 8440SOL    HW126219   1.194   3.791   3.774
 8440SOL    HW226220   1.040   3.760   3.820
 8441SOL     OW26221   4.088   5.817   1.415
 8441SOL    HW126222   4.125   5.784   1.329
 8441SOL    HW226223   4.140   5.897   1.445
 8442SOL     OW26224   2.258   3.044   0.841
 8442SOL    HW126225   2.283   3.034   0.937
 8442SOL    HW226226   2.288   2.963   0.790
 8443SOL     OW26227   0.144   2.451   1.254
 8443SOL    HW126228   0.134   2.546   1.224
 8443SOL    HW226229   0.203   2.401   1.190
 8444SOL     OW26230   4.822   2.497   3.420
 8444SOL    HW126231   4.817   2.412   3.472
 8444SOL    HW226232   4.729   2.534   3.407
 8445SOL     OW26233   3.867   5.922   2.283
 8445SOL    HW126234   3.930   5.987   2.324
 8445SOL    HW226235   3.825   5.866   2.355
 8446SOL     OW26236   6.104   3.878   2.953
 8446SOL    HW126237   6.049   3.888   2.869
 8446SOL    HW226238   6.075   3.947   3.019
 8447SOL     OW26239   5.064   4.504   1.376
 8447SOL    HW126240   5.151   4.479   1.335
 8447SOL    HW226241   4.999   4.530   1.305
 8448SOL     OW26242   1.703   4.599   5.821
 8448SOL    HW126243   1.621   4.583   5.876
 8448SOL    HW226244   1.744   4.687   5.846
 8449SOL     OW26245   1.341   0.531   5.635
 8449SOL    HW126246   1.437   0.508   5.620
 8449SOL    HW226247   1.324   0.625   5.606
 8450SOL     OW26248   1.828   5.738   0.815
 8450SOL    HW126249   1.785   5.663   0.765
 8450SOL    HW226250   1.904   5.702   0.869
 8451SOL     OW26251   2.589   4.164   1.488
 8451SOL    HW126252   2.567   4.072   1.520
 8451SOL    HW226253   2.548   4.179   1.398
 8452SOL     OW26254   6.696   5.956   2.587
 8452SOL    HW126255   6.640   5.905   2.521
 8452SOL    HW226256   6.636   6.016   2.641
 8453SOL     OW26257   0.357   4.599   5.120
 8453SOL    HW126258   0.323   4.679   5.170
 8453SOL    HW226259   0.449   4.618   5.085
 8454SOL     OW26260   1.960   6.472   5.557
 8454SOL    HW126261   1.922   6.442   5.469
 8454SOL    HW226262   1.887   6.513   5.612
 8455SOL     OW26263   6.081   2.291   0.506
 8455SOL    HW126264   6.092   2.337   0.595
 8455SOL    HW226265   6.109   2.195   0.515
 8456SOL     OW26266   6.259   4.559   3.568
 8456SOL    HW126267   6.237   4.606   3.483
 8456SOL    HW226268   6.343   4.599   3.606
 8457SOL     OW26269   5.741   6.138   6.101
 8457SOL    HW126270   5.829   6.151   6.148
 8457SOL    HW226271   5.704   6.049   6.124
 8458SOL     OW26272   0.978   1.917   1.289
 8458SOL    HW126273   1.023   1.938   1.202
 8458SOL    HW226274   0.924   1.833   1.278
 8459SOL     OW26275   2.719   5.137   3.054
 8459SOL    HW126276   2.786   5.070   3.085
 8459SOL    HW226277   2.722   5.144   2.954
 8460SOL     OW26278   3.550   1.190   1.039
 8460SOL    HW126279   3.597   1.130   0.974
 8460SOL    HW226280   3.615   1.221   1.108
 8461SOL     OW26281   5.732   4.638   2.851
 8461SOL    HW126282   5.707   4.658   2.757
 8461SOL    HW226283   5.659   4.586   2.895
 8462SOL     OW26284   1.986   3.921   0.677
 8462SOL    HW126285   2.060   3.989   0.678
 8462SOL    HW226286   2.020   3.835   0.640
 8463SOL     OW26287   0.095   6.412   1.209
 8463SOL    HW126288   0.102   6.485   1.141
 8463SOL    HW226289   0.005   6.413   1.251
 8464SOL     OW26290   0.353   3.482   6.507
 8464SOL    HW126291   0.378   3.536   6.427
 8464SOL    HW226292   0.410   3.400   6.511
 8465SOL     OW26293   5.971   4.495   0.370
 8465SOL    HW126294   6.046   4.547   0.410
 8465SOL    HW226295   5.941   4.425   0.435
 8466SOL     OW26296   0.456   1.567   4.975
 8466SOL    HW126297   0.459   1.662   4.942
 8466SOL    HW226298   0.474   1.505   4.899
 8467SOL     OW26299   3.102   1.494   0.930
 8467SOL    HW126300   3.046   1.574   0.954
 8467SOL    HW226301   3.113   1.436   1.011
 8468SOL     OW26302   6.637   3.691   0.876
 8468SOL    HW126303   6.649   3.663   0.971
 8468SOL    HW226304   6.631   3.610   0.818
 8469SOL     OW26305   3.615   2.947   5.407
 8469SOL    HW126306   3.610   2.960   5.506
 8469SOL    HW226307   3.523   2.929   5.372
 8470SOL     OW26308   2.173   5.411   1.502
 8470SOL    HW126309   2.193   5.314   1.488
 8470SOL    HW226310   2.159   5.456   1.414
 8471SOL     OW26311   4.146   2.111   3.921
 8471SOL    HW126312   4.090   2.057   3.859
 8471SOL    HW226313   4.239   2.073   3.924
 8472SOL     OW26314   5.940   1.405   6.758
 8472SOL    HW126315   5.873   1.476   6.779
 8472SOL    HW226316   6.027   1.427   6.801
 8473SOL     OW26317   4.832   5.034   5.748
 8473SOL    HW126318   4.901   4.962   5.739
 8473SOL    HW226319   4.877   5.123   5.745
 8474SOL     OW26320   3.416   3.453   6.140
 8474SOL    HW126321   3.374   3.396   6.069
 8474SOL    HW226322   3.376   3.545   6.136
 8475SOL     OW26323   0.360   2.076   2.793
 8475SOL    HW126324   0.394   2.161   2.832
 8475SOL    HW226325   0.260   2.074   2.800
 8476SOL     OW26326   6.659   1.031   2.308
 8476SOL    HW126327   6.739   0.971   2.309
 8476SOL    HW226328   6.595   1.000   2.238
 8477SOL     OW26329   5.295   6.635   1.132
 8477SOL    HW126330   5.382   6.665   1.170
 8477SOL    HW226331   5.276   6.541   1.160
 8478SOL     OW26332   1.699   6.594   6.611
 8478SOL    HW126333   1.646   6.626   6.532
 8478SOL    HW226334   1.702   6.494   6.610
 8479SOL     OW26335   0.946   2.215   6.908
 8479SOL    HW126336   1.041   2.196   6.932
 8479SOL    HW226337   0.910   2.140   6.854
 8480SOL     OW26338   3.180   4.429   1.630
 8480SOL    HW126339   3.267   4.477   1.642
 8480SOL    HW226340   3.108   4.496   1.613
 8481SOL     OW26341   5.050   3.597   2.303
 8481SOL    HW126342   4.987   3.553   2.368
 8481SOL    HW226343   5.010   3.593   2.211
 8482SOL     OW26344   4.724   0.368   5.715
 8482SOL    HW126345   4.792   0.333   5.651
 8482SOL    HW226346   4.634   0.330   5.693
 8483SOL     OW26347   4.813   5.299   3.740
 8483SOL    HW126348   4.894   5.280   3.795
 8483SOL    HW226349   4.732   5.301   3.799
 8484SOL     OW26350   5.968   6.980   5.366
 8484SOL    HW126351   5.930   6.922   5.438
 8484SOL    HW226352   5.894   7.016   5.310
 8485SOL     OW26353   3.818   0.327   5.712
 8485SOL    HW126354   3.844   0.415   5.752
 8485SOL    HW226355   3.863   0.253   5.762
 8486SOL     OW26356   4.799   2.855   4.918
 8486SOL    HW126357   4.732   2.784   4.899
 8486SOL    HW226358   4.824   2.902   4.833
 8487SOL     OW26359   0.043   1.525   5.421
 8487SOL    HW126360   0.062   1.473   5.504
 8487SOL    HW226361   0.110   1.599   5.412
 8488SOL     OW26362   4.690   5.368   2.975
 8488SOL    HW126363   4.672   5.405   2.883
 8488SOL    HW226364   4.778   5.401   3.007
 8489SOL     OW26365   6.435   2.316   2.073
 8489SOL    HW126366   6.460   2.332   2.169
 8489SOL    HW226367   6.386   2.396   2.038
 8490SOL     OW26368   3.883   6.844   0.271
 8490SOL    HW126369   3.954   6.840   0.201
 8490SOL    HW226370   3.911   6.909   0.342
 8491SOL     OW26371   3.211   6.172   1.987
 8491SOL    HW126372   3.195   6.242   1.917
 8491SOL    HW226373   3.213   6.214   2.077
 8492SOL     OW26374   5.987   7.001   4.194
 8492SOL    HW126375   6.015   6.910   4.227
 8492SOL    HW226376   5.913   6.990   4.127
 8493SOL     OW26377   4.985   0.102   5.588
 8493SOL    HW126378   4.920   0.102   5.512
 8493SOL    HW226379   5.030   0.013   5.593
 8494SOL     OW26380   0.165   3.631   2.142
 8494SOL    HW126381   0.088   3.594   2.090
 8494SOL    HW226382   0.249   3.620   2.088
 8495SOL     OW26383   4.933   5.986   4.817
 8495SOL    HW126384   4.949   5.914   4.885
 8495SOL    HW226385   4.982   6.069   4.844
 8496SOL     OW26386   3.884   2.048   2.385
 8496SOL    HW126387   3.933   1.961   2.386
 8496SOL    HW226388   3.800   2.038   2.332
 8497SOL     OW26389   6.761   0.843   3.152
 8497SOL    HW126390   6.679   0.900   3.150
 8497SOL    HW226391   6.740   0.756   3.197
 8498SOL     OW26392   5.453   6.575   5.234
 8498SOL    HW126393   5.536   6.545   5.280
 8498SOL    HW226394   5.375   6.522   5.268
 8499SOL     OW26395   6.197   0.018   6.094
 8499SOL    HW126396   6.152   6.992   6.171
 8499SOL    HW226397   6.290   0.042   6.120
 8500SOL     OW26398   0.975   0.816   6.130
 8500SOL    HW126399   0.894   0.767   6.098
 8500SOL    HW226400   1.049   0.751   6.147
 8501SOL     OW26401   3.542   0.426   5.005
 8501SOL    HW126402   3.614   0.474   5.055
 8501SOL    HW226403   3.494   0.490   4.946
 8502SOL     OW26404   6.274   2.874   0.569
 8502SOL    HW126405   6.193   2.818   0.556
 8502SOL    HW226406   6.345   2.848   0.503
 8503SOL     OW26407   4.730   2.196   6.031
 8503SOL    HW126408   4.644   2.166   6.071
 8503SOL    HW226409   4.718   2.213   5.933
 8504SOL     OW26410   1.578   0.660   3.092
 8504SOL    HW126411   1.672   0.670   3.058
 8504SOL    HW226412   1.521   0.734   3.056
 8505SOL     OW26413   5.889   2.032   2.973
 8505SOL    HW126414   5.829   2.020   3.052
 8505SOL    HW226415   5.978   1.992   2.992
 8506SOL     OW26416   1.559   1.039   4.415
 8506SOL    HW126417   1.599   1.130   4.421
 8506SOL    HW226418   1.613   0.983   4.353
 8507SOL     OW26419   4.642   4.982   6.904
 8507SOL    HW126420   4.597   4.894   6.891
 8507SOL    HW226421   4.579   5.055   6.878
 8508SOL     OW26422   4.042   0.826   6.529
 8508SOL    HW126423   4.017   0.782   6.443
 8508SOL    HW226424   3.969   0.889   6.556
 8509SOL     OW26425   4.375   1.920   2.302
 8509SOL    HW126426   4.279   1.892   2.300
 8509SOL    HW226427   4.409   1.934   2.209
 8510SOL     OW26428   0.604   2.083   4.996
 8510SOL    HW126429   0.603   2.141   4.914
 8510SOL    HW226430   0.655   2.130   5.069
 8511SOL     OW26431   5.632   2.190   4.049
 8511SOL    HW126432   5.544   2.147   4.073
 8511SOL    HW226433   5.615   2.285   4.021
 8512SOL     OW26434   2.276   6.663   6.450
 8512SOL    HW126435   2.315   6.736   6.507
 8512SOL    HW226436   2.336   6.646   6.372
 8513SOL     OW26437   3.991   5.828   6.958
 8513SOL    HW126438   4.059   5.775   7.009
 8513SOL    HW226439   3.940   5.767   6.898
 8514SOL     OW26440   4.422   5.618   4.570
 8514SOL    HW126441   4.416   5.524   4.604
 8514SOL    HW226442   4.330   5.652   4.550
 8515SOL     OW26443   5.405   3.099   1.925
 8515SOL    HW126444   5.313   3.066   1.945
 8515SOL    HW226445   5.415   3.115   1.827
 8516SOL     OW26446   6.661   2.488   1.679
 8516SOL    HW126447   6.694   2.528   1.594
 8516SOL    HW226448   6.609   2.405   1.660
 8517SOL     OW26449   0.990   3.716   4.573
 8517SOL    HW126450   0.910   3.721   4.632
 8517SOL    HW226451   1.072   3.732   4.627
 8518SOL     OW26452   3.908   5.745   0.923
 8518SOL    HW126453   3.858   5.661   0.944
 8518SOL    HW226454   3.846   5.823   0.925
 8519SOL     OW26455   2.883   5.536   3.434
 8519SOL    HW126456   2.903   5.550   3.337
 8519SOL    HW226457   2.821   5.459   3.445
 8520SOL     OW26458   3.803   5.363   0.177
 8520SOL    HW126459   3.851   5.450   0.192
 8520SOL    HW226460   3.757   5.336   0.262
 8521SOL     OW26461   1.159   0.991   2.942
 8521SOL    HW126462   1.155   1.089   2.961
 8521SOL    HW226463   1.105   0.942   3.010
 8522SOL     OW26464   2.386   5.794   3.938
 8522SOL    HW126465   2.475   5.808   3.896
 8522SOL    HW226466   2.395   5.730   4.014
 8523SOL     OW26467   1.805   5.563   6.586
 8523SOL    HW126468   1.813   5.584   6.489
 8523SOL    HW226469   1.888   5.593   6.633
 8524SOL     OW26470   1.770   1.696   6.713
 8524SOL    HW126471   1.842   1.712   6.780
 8524SOL    HW226472   1.808   1.651   6.632
 8525SOL     OW26473   5.448   4.260   4.172
 8525SOL    HW126474   5.439   4.182   4.234
 8525SOL    HW226475   5.512   4.238   4.099
 8526SOL     OW26476   0.069   2.977   1.860
 8526SOL    HW126477   6.999   2.975   1.817
 8526SOL    HW226478   0.059   2.984   1.959
 8527SOL     OW26479   5.123   0.748   5.210
 8527SOL    HW126480   5.061   0.787   5.279
 8527SOL    HW226481   5.094   0.778   5.119
 8528SOL     OW26482   5.208   0.341   0.249
 8528SOL    HW126483   5.130   0.401   0.266
 8528SOL    HW226484   5.210   0.269   0.318
 8529SOL     OW26485   6.876   0.564   4.398
 8529SOL    HW126486   6.786   0.527   4.419
 8529SOL    HW226487   6.944   0.490   4.402
 8530SOL     OW26488   1.906   5.228   5.975
 8530SOL    HW126489   1.957   5.171   5.911
 8530SOL    HW226490   1.951   5.317   5.984
 8531SOL     OW26491   3.639   5.781   3.116
 8531SOL    HW126492   3.724   5.796   3.067
 8531SOL    HW226493   3.600   5.693   3.089
 8532SOL     OW26494   1.353   3.940   6.808
 8532SOL    HW126495   1.299   3.889   6.741
 8532SOL    HW226496   1.301   3.949   6.893
 8533SOL     OW26497   3.381   0.093   6.090
 8533SOL    HW126498   3.351   0.174   6.141
 8533SOL    HW226499   3.343   0.096   5.998
 8534SOL     OW26500   2.735   2.607   0.762
 8534SOL    HW126501   2.672   2.683   0.776
 8534SOL    HW226502   2.683   2.523   0.744
 8535SOL     OW26503   0.301   2.382   6.015
 8535SOL    HW126504   0.332   2.291   6.040
 8535SOL    HW226505   0.378   2.446   6.018
 8536SOL     OW26506   6.480   0.653   6.385
 8536SOL    HW126507   6.513   0.619   6.473
 8536SOL    HW226508   6.542   0.724   6.351
 8537SOL     OW26509   3.893   5.726   3.017
 8537SOL    HW126510   3.912   5.696   2.923
 8537SOL    HW226511   3.911   5.824   3.025
 8538SOL     OW26512   4.126   1.380   5.020
 8538SOL    HW126513   4.133   1.339   5.110
 8538SOL    HW226514   4.031   1.409   5.004
 8539SOL     OW26515   0.342   3.111   2.743
 8539SOL    HW126516   0.262   3.172   2.741
 8539SOL    HW226517   0.382   3.113   2.834
 8540SOL     OW26518   4.768   6.030   5.928
 8540SOL    HW126519   4.698   5.970   5.967
 8540SOL    HW226520   4.782   6.007   5.831
 8541SOL     OW26521   3.242   5.761   5.589
 8541SOL    HW126522   3.294   5.845   5.576
 8541SOL    HW226523   3.302   5.682   5.575
 8542SOL     OW26524   1.633   4.981   5.579
 8542SOL    HW126525   1.556   5.038   5.606
 8542SOL    HW226526   1.700   4.979   5.654
 8543SOL     OW26527   3.608   1.812   5.404
 8543SOL    HW126528   3.648   1.744   5.466
 8543SOL    HW226529   3.581   1.768   5.319
 8544SOL     OW26530   5.122   3.852   5.455
 8544SOL    HW126531   5.110   3.761   5.416
 8544SOL    HW226532   5.199   3.852   5.519
 8545SOL     OW26533   2.103   0.387   6.060
 8545SOL    HW126534   2.051   0.311   6.101
 8545SOL    HW226535   2.055   0.420   5.979
 8546SOL     OW26536   2.844   1.212   4.154
 8546SOL    HW126537   2.832   1.146   4.080
 8546SOL    HW226538   2.928   1.191   4.204
 8547SOL     OW26539   5.751   5.117   5.487
 8547SOL    HW126540   5.830   5.169   5.455
 8547SOL    HW226541   5.770   5.019   5.482
 8548SOL     OW26542   1.662   4.192   4.082
 8548SOL    HW126543   1.688   4.218   4.175
 8548SOL    HW226544   1.649   4.093   4.077
 8549SOL     OW26545   3.216   0.391   3.792
 8549SOL    HW126546   3.202   0.392   3.693
 8549SOL    HW226547   3.200   0.299   3.827
 8550SOL     OW26548   0.609   3.546   4.939
 8550SOL    HW126549   0.519   3.564   4.899
 8550SOL    HW226550   0.600   3.474   5.008
 8551SOL     OW26551   3.661   2.077   3.697
 8551SOL    HW126552   3.715   2.140   3.753
 8551SOL    HW226553   3.648   2.117   3.606
 8552SOL     OW26554   4.027   1.170   2.080
 8552SOL    HW126555   4.037   1.265   2.107
 8552SOL    HW226556   3.929   1.146   2.077
 8553SOL     OW26557   5.403   3.355   0.827
 8553SOL    HW126558   5.498   3.325   0.831
 8553SOL    HW226559   5.360   3.341   0.916
 8554SOL     OW26560   0.714   1.021   6.770
 8554SOL    HW126561   0.626   1.065   6.789
 8554SOL    HW226562   0.754   0.990   6.856
 8555SOL     OW26563   3.510   1.813   3.780
 8555SOL    HW126564   3.467   1.901   3.798
 8555SOL    HW226565   3.607   1.826   3.764
 8556SOL     OW26566   0.733   3.802   5.596
 8556SOL    HW126567   0.800   3.728   5.592
 8556SOL    HW226568   0.687   3.801   5.684
 8557SOL     OW26569   5.959   0.666   0.687
 8557SOL    HW126570   5.997   0.694   0.775
 8557SOL    HW226571   5.946   0.747   0.629
 8558SOL     OW26572   2.755   5.840   3.108
 8558SOL    HW126573   2.743   5.755   3.158
 8558SOL    HW226574   2.724   5.917   3.165
 8559SOL     OW26575   1.554   3.023   3.518
 8559SOL    HW126576   1.469   3.057   3.480
 8559SOL    HW226577   1.630   3.046   3.458
 8560SOL     OW26578   3.266   4.236   1.472
 8560SOL    HW126579   3.351   4.223   1.523
 8560SOL    HW226580   3.217   4.315   1.507
 8561SOL     OW26581   3.561   0.581   2.154
 8561SOL    HW126582   3.491   0.652   2.141
 8561SOL    HW226583   3.587   0.544   2.064
 8562SOL     OW26584   5.430   3.690   5.962
 8562SOL    HW126585   5.350   3.683   6.022
 8562SOL    HW226586   5.478   3.602   5.960
 8563SOL     OW26587   0.528   4.269   3.143
 8563SOL    HW126588   0.499   4.257   3.237
 8563SOL    HW226589   0.560   4.363   3.129
 8564SOL     OW26590   4.389   6.259   6.873
 8564SOL    HW126591   4.413   6.183   6.934
 8564SOL    HW226592   4.345   6.331   6.926
 8565SOL     OW26593   0.889   5.194   0.732
 8565SOL    HW126594   0.963   5.135   0.702
 8565SOL    HW226595   0.865   5.173   0.827
 8566SOL     OW26596   2.445   0.836   3.224
 8566SOL    HW126597   2.398   0.922   3.245
 8566SOL    HW226598   2.403   0.795   3.142
 8567SOL     OW26599   1.546   3.415   0.384
 8567SOL    HW126600   1.585   3.501   0.418
 8567SOL    HW226601   1.469   3.389   0.443
 8568SOL     OW26602   5.790   6.582   6.485
 8568SOL    HW126603   5.752   6.657   6.541
 8568SOL    HW226604   5.849   6.621   6.414
 8569SOL     OW26605   4.194   1.706   5.940
 8569SOL    HW126606   4.228   1.685   5.849
 8569SOL    HW226607   4.167   1.803   5.944
 8570SOL     OW26608   2.014   2.344   4.289
 8570SOL    HW126609   1.969   2.431   4.309
 8570SOL    HW226610   1.944   2.273   4.276
 8571SOL     OW26611   1.477   0.910   3.740
 8571SOL    HW126612   1.541   0.835   3.755
 8571SOL    HW226613   1.449   0.912   3.644
 8572SOL     OW26614   2.615   2.933   6.195
 8572SOL    HW126615   2.557   2.886   6.262
 8572SOL    HW226616   2.584   3.028   6.185
 8573SOL     OW26617   1.845   5.847   6.144
 8573SOL    HW126618   1.889   5.926   6.102
 8573SOL    HW226619   1.842   5.771   6.079
 8574SOL     OW26620   6.074   2.288   5.602
 8574SOL    HW126621   5.995   2.284   5.662
 8574SOL    HW226622   6.111   2.381   5.602
 8575SOL     OW26623   2.535   6.609   4.029
 8575SOL    HW126624   2.439   6.587   4.047
 8575SOL    HW226625   2.583   6.621   4.116
 8576SOL     OW26626   1.270   3.666   4.680
 8576SOL    HW126627   1.301   3.571   4.685
 8576SOL    HW226628   1.349   3.727   4.693
 8577SOL     OW26629   1.928   1.132   0.643
 8577SOL    HW126630   1.829   1.127   0.627
 8577SOL    HW226631   1.945   1.142   0.741
 8578SOL     OW26632   1.555   0.643   6.011
 8578SOL    HW126633   1.586   0.704   5.939
 8578SOL    HW226634   1.620   0.644   6.087
 8579SOL     OW26635   2.749   6.957   2.343
 8579SOL    HW126636   2.706   6.903   2.416
 8579SOL    HW226637   2.759   0.031   2.373
 8580SOL     OW26638   1.263   0.265   1.956
 8580SOL    HW126639   1.298   0.176   1.930
 8580SOL    HW226640   1.339   0.325   1.982
 8581SOL     OW26641   4.163   3.469   3.948
 8581SOL    HW126642   4.141   3.389   3.893
 8581SOL    HW226643   4.189   3.440   4.041
 8582SOL     OW26644   4.950   5.657   5.672
 8582SOL    HW126645   4.994   5.640   5.584
 8582SOL    HW226646   5.018   5.689   5.738
 8583SOL     OW26647   3.450   0.434   2.400
 8583SOL    HW126648   3.503   0.478   2.328
 8583SOL    HW226649   3.389   0.366   2.360
 8584SOL     OW26650   5.295   2.718   5.769
 8584SOL    HW126651   5.282   2.661   5.850
 8584SOL    HW226652   5.369   2.680   5.714
 8585SOL     OW26653   4.543   2.555   3.341
 8585SOL    HW126654   4.486   2.498   3.282
 8585SOL    HW226655   4.527   2.530   3.437
 8586SOL     OW26656   6.060   0.085   5.855
 8586SOL    HW126657   6.096   0.028   5.781
 8586SOL    HW226658   6.118   0.075   5.936
 8587SOL     OW26659   6.538   0.022   0.884
 8587SOL    HW126660   6.484   6.983   0.825
 8587SOL    HW226661   6.488   0.040   0.969
 8588SOL     OW26662   1.953   2.177   5.658
 8588SOL    HW126663   1.968   2.079   5.644
 8588SOL    HW226664   2.037   2.227   5.639
 8589SOL     OW26665   6.179   3.264   6.694
 8589SOL    HW126666   6.127   3.278   6.778
 8589SOL    HW226667   6.126   3.206   6.632
 8590SOL     OW26668   0.929   1.369   2.830
 8590SOL    HW126669   0.944   1.450   2.886
 8590SOL    HW226670   0.833   1.342   2.837
 8591SOL     OW26671   0.569   4.097   5.795
 8591SOL    HW126672   0.534   4.004   5.782
 8591SOL    HW226673   0.496   4.156   5.829
 8592SOL     OW26674   0.261   2.440   4.560
 8592SOL    HW126675   0.235   2.535   4.579
 8592SOL    HW226676   0.189   2.396   4.506
 8593SOL     OW26677   6.690   1.205   0.255
 8593SOL    HW126678   6.652   1.121   0.292
 8593SOL    HW226679   6.751   1.247   0.322
 8594SOL     OW26680   6.039   2.829   6.348
 8594SOL    HW126681   6.062   2.809   6.443
 8594SOL    HW226682   6.031   2.744   6.297
 8595SOL     OW26683   5.915   6.382   2.417
 8595SOL    HW126684   5.817   6.403   2.414
 8595SOL    HW226685   5.935   6.328   2.498
 8596SOL     OW26686   0.634   2.931   5.515
 8596SOL    HW126687   0.548   2.944   5.564
 8596SOL    HW226688   0.673   3.020   5.492
 8597SOL     OW26689   6.489   2.146   5.513
 8597SOL    HW126690   6.588   2.135   5.519
 8597SOL    HW226691   6.454   2.175   5.602
 8598SOL     OW26692   6.377   0.583   5.874
 8598SOL    HW126693   6.445   0.510   5.878
 8598SOL    HW226694   6.341   0.590   5.781
 8599SOL     OW26695   5.323   4.451   4.781
 8599SOL    HW126696   5.332   4.453   4.881
 8599SOL    HW226697   5.346   4.360   4.747
 8600SOL     OW26698   3.845   3.005   1.923
 8600SOL    HW126699   3.762   2.979   1.974
 8600SOL    HW226700   3.877   2.927   1.871
 8601SOL     OW26701   4.882   5.171   1.738
 8601SOL    HW126702   4.824   5.091   1.750
 8601SOL    HW226703   4.843   5.249   1.788
 8602SOL     OW26704   1.747   6.222   5.221
 8602SOL    HW126705   1.682   6.222   5.297
 8602SOL    HW226706   1.818   6.290   5.237
 8603SOL     OW26707   0.863   1.094   0.032
 8603SOL    HW126708   0.807   1.093   0.114
 8603SOL    HW226709   0.899   1.002   0.015
 8604SOL     OW26710   2.098   5.547   5.791
 8604SOL    HW126711   2.167   5.613   5.762
 8604SOL    HW226712   2.023   5.546   5.724
 8605SOL     OW26713   6.501   4.674   3.901
 8605SOL    HW126714   6.539   4.755   3.856
 8605SOL    HW226715   6.409   4.658   3.868
 8606SOL     OW26716   0.799   0.265   6.177
 8606SOL    HW126717   0.860   0.250   6.254
 8606SOL    HW226718   0.838   0.223   6.095
 8607SOL     OW26719   3.029   2.771   1.717
 8607SOL    HW126720   3.009   2.677   1.688
 8607SOL    HW226721   2.962   2.833   1.678
 8608SOL     OW26722   1.719   5.263   2.413
 8608SOL    HW126723   1.761   5.176   2.443
 8608SOL    HW226724   1.656   5.295   2.484
 8609SOL     OW26725   4.884   2.275   4.004
 8609SOL    HW126726   4.906   2.352   4.065
 8609SOL    HW226727   4.947   2.200   4.022
 8610SOL     OW26728   0.157   5.478   2.718
 8610SOL    HW126729   0.071   5.518   2.749
 8610SOL    HW226730   0.153   5.465   2.619
 8611SOL     OW26731   2.169   1.726   5.444
 8611SOL    HW126732   2.188   1.786   5.366
 8611SOL    HW226733   2.232   1.747   5.518
 8612SOL     OW26734   3.262   2.930   5.731
 8612SOL    HW126735   3.297   2.982   5.809
 8612SOL    HW226736   3.199   2.859   5.763
 8613SOL     OW26737   3.205   3.214   3.425
 8613SOL    HW126738   3.115   3.242   3.458
 8613SOL    HW226739   3.195   3.149   3.349
 8614SOL     OW26740   0.184   3.391   4.049
 8614SOL    HW126741   0.139   3.478   4.067
 8614SOL    HW226742   0.127   3.336   3.989
 8615SOL     OW26743   3.946   0.874   5.238
 8615SOL    HW126744   3.870   0.814   5.264
 8615SOL    HW226745   3.924   0.968   5.263
 8616SOL     OW26746   5.789   3.815   4.997
 8616SOL    HW126747   5.831   3.788   4.910
 8616SOL    HW226748   5.803   3.913   5.011
 8617SOL     OW26749   0.752   0.141   4.056
 8617SOL    HW126750   0.667   0.192   4.066
 8617SOL    HW226751   0.798   0.134   4.144
 8618SOL     OW26752   6.771   5.277   0.181
 8618SOL    HW126753   6.746   5.374   0.173
 8618SOL    HW226754   6.716   5.223   0.117
 8619SOL     OW26755   5.852   4.993   6.608
 8619SOL    HW126756   5.942   5.034   6.594
 8619SOL    HW226757   5.797   5.005   6.526
 8620SOL     OW26758   1.360   6.163   4.121
 8620SOL    HW126759   1.385   6.168   4.024
 8620SOL    HW226760   1.414   6.229   4.173
 8621SOL     OW26761   6.426   3.738   1.542
 8621SOL    HW126762   6.355   3.703   1.481
 8621SOL    HW226763   6.470   3.817   1.499
 8622SOL     OW26764   0.782   6.470   1.607
 8622SOL    HW126765   0.821   6.387   1.646
 8622SOL    HW226766   0.697   6.448   1.560
 8623SOL     OW26767   1.917   2.018   3.251
 8623SOL    HW126768   1.912   2.091   3.182
 8623SOL    HW226769   1.993   2.036   3.313
 8624SOL     OW26770   2.903   3.636   5.912
 8624SOL    HW126771   2.968   3.704   5.876
 8624SOL    HW226772   2.900   3.557   5.851
 8625SOL     OW26773   4.561   3.554   6.139
 8625SOL    HW126774   4.633   3.497   6.102
 8625SOL    HW226775   4.582   3.577   6.234
 8626SOL     OW26776   4.933   1.374   0.179
 8626SOL    HW126777   4.917   1.463   0.137
 8626SOL    HW226778   4.907   1.301   0.115
 8627SOL     OW26779   6.939   0.255   2.274
 8627SOL    HW126780   6.959   0.167   2.315
 8627SOL    HW226781   6.985   0.261   2.185
 8628SOL     OW26782   1.327   6.656   0.511
 8628SOL    HW126783   1.333   6.578   0.448
 8628SOL    HW226784   1.231   6.672   0.534
 8629SOL     OW26785   6.924   1.136   4.513
 8629SOL    HW126786   6.990   1.209   4.534
 8629SOL    HW226787   6.965   1.073   4.447
 8630SOL     OW26788   4.999   2.911   1.658
 8630SOL    HW126789   4.917   2.965   1.638
 8630SOL    HW226790   4.982   2.852   1.738
 8631SOL     OW26791   1.541   5.962   0.123
 8631SOL    HW126792   1.476   5.914   0.182
 8631SOL    HW226793   1.518   6.059   0.119
 8632SOL     OW26794   6.212   6.018   3.617
 8632SOL    HW126795   6.294   6.058   3.575
 8632SOL    HW226796   6.174   5.949   3.555
 8633SOL     OW26797   6.515   3.888   5.728
 8633SOL    HW126798   6.612   3.873   5.707
 8633SOL    HW226799   6.474   3.945   5.657
 8634SOL     OW26800   4.698   4.520   6.934
 8634SOL    HW126801   4.779   4.578   6.945
 8634SOL    HW226802   4.651   4.543   6.849
 8635SOL     OW26803   5.533   2.112   6.601
 8635SOL    HW126804   5.464   2.184   6.591
 8635SOL    HW226805   5.537   2.058   6.517
 8636SOL     OW26806   4.604   6.080   0.102
 8636SOL    HW126807   4.674   6.070   0.031
 8636SOL    HW226808   4.638   6.040   0.188
 8637SOL     OW26809   3.195   2.640   0.757
 8637SOL    HW126810   3.114   2.619   0.810
 8637SOL    HW226811   3.261   2.689   0.814
 8638SOL     OW26812   4.686   1.921   4.398
 8638SOL    HW126813   4.719   1.945   4.490
 8638SOL    HW226814   4.752   1.861   4.354
 8639SOL     OW26815   3.885   4.111   0.374
 8639SOL    HW126816   3.971   4.162   0.361
 8639SOL    HW226817   3.848   4.085   0.285
 8640SOL     OW26818   3.061   2.466   6.435
 8640SOL    HW126819   3.102   2.387   6.390
 8640SOL    HW226820   3.066   2.454   6.534
 8641SOL     OW26821   3.284   5.195   3.124
 8641SOL    HW126822   3.220   5.256   3.076
 8641SOL    HW226823   3.233   5.131   3.181
 8642SOL     OW26824   2.481   6.430   3.045
 8642SOL    HW126825   2.407   6.365   3.029
 8642SOL    HW226826   2.461   6.484   3.127
 8643SOL     OW26827   3.587   6.059   1.196
 8643SOL    HW126828   3.676   6.087   1.233
 8643SOL    HW226829   3.559   6.124   1.125
 8644SOL     OW26830   5.275   2.498   6.817
 8644SOL    HW126831   5.291   2.556   6.897
 8644SOL    HW226832   5.246   2.407   6.846
 8645SOL     OW26833   5.052   5.486   2.563
 8645SOL    HW126834   5.137   5.499   2.613
 8645SOL    HW226835   5.071   5.465   2.468
 8646SOL     OW26836   6.531   1.937   3.934
 8646SOL    HW126837   6.448   1.994   3.932
 8646SOL    HW226838   6.596   1.971   3.866
 8647SOL     OW26839   1.877   4.541   1.998
 8647SOL    HW126840   1.884   4.593   2.083
 8647SOL    HW226841   1.927   4.590   1.926
 8648SOL     OW26842   5.950   5.849   6.195
 8648SOL    HW126843   5.917   5.808   6.280
 8648SOL    HW226844   5.878   5.843   6.125
 8649SOL     OW26845   5.487   2.764   2.196
 8649SOL    HW126846   5.580   2.757   2.159
 8649SOL    HW226847   5.422   2.728   2.129
 8650SOL     OW26848   1.006   0.923   4.995
 8650SOL    HW126849   1.037   1.017   4.986
 8650SOL    HW226850   1.084   0.861   4.987
 8651SOL     OW26851   4.823   1.279   1.544
 8651SOL    HW126852   4.866   1.359   1.585
 8651SOL    HW226853   4.888   1.203   1.543
 8652SOL     OW26854   6.388   2.982   4.875
 8652SOL    HW126855   6.487   2.989   4.865
 8652SOL    HW226856   6.344   3.011   4.790
 8653SOL     OW26857   4.386   0.834   6.855
 8653SOL    HW126858   4.431   0.856   6.769
 8653SOL    HW226859   4.297   0.792   6.837
 8654SOL     OW26860   0.020   4.216   3.099
 8654SOL    HW126861   0.095   4.229   3.034
 8654SOL    HW226862   0.058   4.216   3.192
 8655SOL     OW26863   1.355   6.882   5.078
 8655SOL    HW126864   1.393   6.824   5.150
 8655SOL    HW226865   1.366   6.835   4.990
 8656SOL     OW26866   3.547   6.044   0.391
 8656SOL    HW126867   3.513   5.970   0.332
 8656SOL    HW226868   3.469   6.088   0.436
 8657SOL     OW26869   3.253   1.942   2.377
 8657SOL    HW126870   3.257   1.842   2.371
 8657SOL    HW226871   3.276   1.982   2.288
 8658SOL     OW26872   6.008   4.159   1.009
 8658SOL    HW126873   6.056   4.162   1.097
 8658SOL    HW226874   5.981   4.065   0.990
 8659SOL     OW26875   3.407   0.141   3.665
 8659SOL    HW126876   3.318   0.099   3.681
 8659SOL    HW226877   3.422   0.214   3.732
 8660SOL     OW26878   6.978   4.634   1.050
 8660SOL    HW126879   0.017   4.604   0.975
 8660SOL    HW226880   6.927   4.556   1.086
 8661SOL     OW26881   5.676   3.225   1.432
 8661SOL    HW126882   5.724   3.233   1.344
 8661SOL    HW226883   5.662   3.128   1.453
 8662SOL     OW26884   1.626   2.769   2.393
 8662SOL    HW126885   1.574   2.736   2.314
 8662SOL    HW226886   1.567   2.824   2.451
 8663SOL     OW26887   3.130   5.280   2.072
 8663SOL    HW126888   3.088   5.316   2.156
 8663SOL    HW226889   3.188   5.350   2.032
 8664SOL     OW26890   3.265   5.955   4.266
 8664SOL    HW126891   3.197   5.931   4.196
 8664SOL    HW226892   3.349   5.985   4.221
 8665SOL     OW26893   0.787   3.404   6.557
 8665SOL    HW126894   0.701   3.353   6.553
 8665SOL    HW226895   0.769   3.497   6.588
 8666SOL     OW26896   5.011   6.990   2.786
 8666SOL    HW126897   5.003   0.036   2.861
 8666SOL    HW226898   5.029   0.019   2.701
 8667SOL     OW26899   4.123   2.231   2.393
 8667SOL    HW126900   4.159   2.283   2.316
 8667SOL    HW226901   4.049   2.171   2.361
 8668SOL     OW26902   3.632   2.069   3.400
 8668SOL    HW126903   3.582   1.984   3.414
 8668SOL    HW226904   3.616   2.103   3.307
 8669SOL     OW26905   0.393   6.039   5.797
 8669SOL    HW126906   0.485   6.021   5.763
 8669SOL    HW226907   0.344   6.099   5.733
 8670SOL     OW26908   6.873   5.114   4.809
 8670SOL    HW126909   6.848   5.093   4.715
 8670SOL    HW226910   6.852   5.036   4.868
 8671SOL     OW26911   0.105   3.783   3.410
 8671SOL    HW126912   0.198   3.749   3.429
 8671SOL    HW226913   0.096   3.875   3.449
 8672SOL     OW26914   6.348   1.395   2.377
 8672SOL    HW126915   6.376   1.488   2.353
 8672SOL    HW226916   6.271   1.399   2.441
 8673SOL     OW26917   0.076   1.419   1.776
 8673SOL    HW126918   0.147   1.476   1.817
 8673SOL    HW226919   7.013   1.426   1.831
 8674SOL     OW26920   0.270   3.098   4.154
 8674SOL    HW126921   0.211   3.180   4.151
 8674SOL    HW226922   0.213   3.017   4.162
 8675SOL     OW26923   5.550   2.093   4.885
 8675SOL    HW126924   5.509   2.029   4.949
 8675SOL    HW226925   5.575   2.177   4.933
 8676SOL     OW26926   5.004   2.933   0.886
 8676SOL    HW126927   5.020   2.977   0.797
 8676SOL    HW226928   5.071   2.860   0.900
 8677SOL     OW26929   3.134   1.106   0.033
 8677SOL    HW126930   3.111   1.106   6.955
 8677SOL    HW226931   3.099   1.022   0.075
 8678SOL     OW26932   2.944   1.554   6.927
 8678SOL    HW126933   2.903   1.488   6.864
 8678SOL    HW226934   2.931   1.647   6.891
 8679SOL     OW26935   1.811   2.043   6.844
 8679SOL    HW126936   1.886   1.984   6.814
 8679SOL    HW226937   1.727   2.019   6.796
 8680SOL     OW26938   0.422   0.237   1.480
 8680SOL    HW126939   0.508   0.185   1.486
 8680SOL    HW226940   0.427   0.316   1.542
 8681SOL     OW26941   5.371   5.526   0.680
 8681SOL    HW126942   5.291   5.487   0.725
 8681SOL    HW226943   5.425   5.577   0.747
 8682SOL     OW26944   1.634   1.767   1.947
 8682SOL    HW126945   1.715   1.715   1.920
 8682SOL    HW226946   1.579   1.712   2.010
 8683SOL     OW26947   2.598   4.626   4.419
 8683SOL    HW126948   2.566   4.551   4.360
 8683SOL    HW226949   2.561   4.614   4.511
 8684SOL     OW26950   2.257   4.098   3.642
 8684SOL    HW126951   2.238   4.182   3.591
 8684SOL    HW226952   2.278   4.024   3.578
 8685SOL     OW26953   4.888   3.184   5.801
 8685SOL    HW126954   4.922   3.132   5.878
 8685SOL    HW226955   4.956   3.252   5.773
 8686SOL     OW26956   1.037   4.632   2.268
 8686SOL    HW126957   1.009   4.662   2.177
 8686SOL    HW226958   1.081   4.708   2.316
 8687SOL     OW26959   6.109   3.614   5.426
 8687SOL    HW126960   6.047   3.544   5.390
 8687SOL    HW226961   6.069   3.704   5.413
 8688SOL     OW26962   1.439   3.137   4.509
 8688SOL    HW126963   1.385   3.065   4.552
 8688SOL    HW226964   1.498   3.097   4.439
 8689SOL     OW26965   5.303   3.475   1.248
 8689SOL    HW126966   5.229   3.543   1.247
 8689SOL    HW226967   5.367   3.494   1.174
 8690SOL     OW26968   1.495   2.337   2.272
 8690SOL    HW126969   1.448   2.341   2.184
 8690SOL    HW226970   1.571   2.402   2.273
 8691SOL     OW26971   3.105   1.123   6.773
 8691SOL    HW126972   3.027   1.081   6.819
 8691SOL    HW226973   3.086   1.220   6.757
 8692SOL     OW26974   5.696   2.190   4.321
 8692SOL    HW126975   5.670   2.197   4.225
 8692SOL    HW226976   5.719   2.281   4.356
 8693SOL     OW26977   0.552   0.061   5.083
 8693SOL    HW126978   0.557   0.160   5.097
 8693SOL    HW226979   0.611   0.035   5.007
 8694SOL     OW26980   3.905   3.498   5.832
 8694SOL    HW126981   3.932   3.415   5.783
 8694SOL    HW226982   3.983   3.559   5.840
 8695SOL     OW26983   4.162   4.231   1.479
 8695SOL    HW126984   4.071   4.264   1.506
 8695SOL    HW226985   4.162   4.131   1.478
 8696SOL     OW26986   2.776   4.859   6.391
 8696SOL    HW126987   2.719   4.877   6.470
 8696SOL    HW226988   2.805   4.763   6.392
 8697SOL     OW26989   0.830   2.930   4.380
 8697SOL    HW126990   0.798   2.920   4.286
 8697SOL    HW226991   0.752   2.928   4.442
 8698SOL     OW26992   5.743   4.289   6.568
 8698SOL    HW126993   5.701   4.377   6.589
 8698SOL    HW226994   5.778   4.247   6.652
 8699SOL     OW26995   2.168   2.008   1.345
 8699SOL    HW126996   2.122   2.085   1.391
 8699SOL    HW226997   2.168   1.928   1.405
 8700SOL     OW26998   0.523   2.325   4.868
 8700SOL    HW126999   0.463   2.255   4.829
 8700SOL    HW227000   0.468   2.391   4.919
 8701SOL     OW27001   2.578   2.887   7.020
 8701SOL    HW127002   2.677   2.889   0.010
 8701SOL    HW227003   2.545   2.978   6.995
 8702SOL     OW27004   5.633   4.467   0.872
 8702SOL    HW127005   5.539   4.496   0.851
 8702SOL    HW227006   5.631   4.380   0.921
 8703SOL     OW27007   2.472   5.150   0.798
 8703SOL    HW127008   2.562   5.192   0.807
 8703SOL    HW227009   2.408   5.216   0.759
 8704SOL     OW27010   6.838   1.248   3.258
 8704SOL    HW127011   6.866   1.342   3.280
 8704SOL    HW227012   6.920   1.193   3.241
 8705SOL     OW27013   3.642   2.071   0.130
 8705SOL    HW127014   3.667   1.993   0.188
 8705SOL    HW227015   3.550   2.101   0.153
 8706SOL     OW27016   4.739   2.915   5.198
 8706SOL    HW127017   4.741   2.912   5.098
 8706SOL    HW227018   4.648   2.945   5.228
 8707SOL     OW27019   1.692   0.916   4.090
 8707SOL    HW127020   1.765   0.929   4.023
 8707SOL    HW227021   1.728   0.867   4.169
 8708SOL     OW27022   5.512   2.476   1.076
 8708SOL    HW127023   5.471   2.387   1.058
 8708SOL    HW227024   5.611   2.465   1.089
 8709SOL     OW27025   6.340   6.347   4.312
 8709SOL    HW127026   6.348   6.323   4.409
 8709SOL    HW227027   6.430   6.339   4.268
 8710SOL     OW27028   2.313   2.550   3.469
 8710SOL    HW127029   2.355   2.609   3.538
 8710SOL    HW227030   2.294   2.460   3.510
 8711SOL     OW27031   0.749   2.056   2.449
 8711SOL    HW127032   0.671   2.117   2.433
 8711SOL    HW227033   0.727   1.964   2.416
 8712SOL     OW27034   1.554   3.571   4.486
 8712SOL    HW127035   1.522   3.663   4.463
 8712SOL    HW227036   1.582   3.569   4.582
 8713SOL     OW27037   0.139   4.653   3.777
 8713SOL    HW127038   0.093   4.643   3.865
 8713SOL    HW227039   0.232   4.685   3.791
 8714SOL     OW27040   1.011   4.402   6.200
 8714SOL    HW127041   1.005   4.302   6.198
 8714SOL    HW227042   0.922   4.441   6.178
 8715SOL     OW27043   1.990   4.899   1.483
 8715SOL    HW127044   2.068   4.946   1.525
 8715SOL    HW227045   1.967   4.818   1.536
 8716SOL     OW27046   5.094   6.759   2.949
 8716SOL    HW127047   5.189   6.768   2.978
 8716SOL    HW227048   5.063   6.845   2.908
 8717SOL     OW27049   4.170   2.122   6.783
 8717SOL    HW127050   4.138   2.174   6.703
 8717SOL    HW227051   4.097   2.063   6.816
 8718SOL     OW27052   3.088   5.330   6.009
 8718SOL    HW127053   3.005   5.348   5.956
 8718SOL    HW227054   3.133   5.417   6.029
 8719SOL     OW27055   3.036   2.167   4.474
 8719SOL    HW127056   3.036   2.171   4.574
 8719SOL    HW227057   3.004   2.078   4.444
 8720SOL     OW27058   0.009   6.810   5.209
 8720SOL    HW127059   0.083   6.857   5.257
 8720SOL    HW227060   6.945   6.865   5.215
 8721SOL     OW27061   0.385   0.434   1.897
 8721SOL    HW127062   0.440   0.445   1.980
 8721SOL    HW227063   0.371   0.524   1.855
 8722SOL     OW27064   3.797   0.968   0.290
 8722SOL    HW127065   3.850   1.053   0.299
 8722SOL    HW227066   3.715   0.974   0.348
 8723SOL     OW27067   3.444   6.971   2.648
 8723SOL    HW127068   3.410   0.045   2.658
 8723SOL    HW227069   3.368   6.909   2.631
 8724SOL     OW27070   4.805   0.258   5.431
 8724SOL    HW127071   4.744   0.337   5.423
 8724SOL    HW227072   4.845   0.238   5.341
 8725SOL     OW27073   6.630   1.293   2.327
 8725SOL    HW127074   6.543   1.315   2.371
 8725SOL    HW227075   6.639   1.194   2.318
 8726SOL     OW27076   6.936   1.105   0.395
 8726SOL    HW127077   6.984   1.074   0.477
 8726SOL    HW227078   6.869   1.036   0.368
 8727SOL     OW27079   4.843   5.515   5.905
 8727SOL    HW127080   4.745   5.510   5.882
 8727SOL    HW227081   4.893   5.553   5.828
 8728SOL     OW27082   5.631   6.648   4.439
 8728SOL    HW127083   5.597   6.663   4.532
 8728SOL    HW227084   5.614   6.729   4.383
 8729SOL     OW27085   5.759   6.227   6.389
 8729SOL    HW127086   5.731   6.148   6.444
 8729SOL    HW227087   5.838   6.271   6.432
 8730SOL     OW27088   4.253   5.162   1.693
 8730SOL    HW127089   4.242   5.153   1.792
 8730SOL    HW227090   4.179   5.114   1.647
 8731SOL     OW27091   6.874   2.552   4.161
 8731SOL    HW127092   6.901   2.593   4.248
 8731SOL    HW227093   6.868   2.453   4.172
 8732SOL     OW27094   5.651   6.598   5.427
 8732SOL    HW127095   5.678   6.509   5.390
 8732SOL    HW227096   5.719   6.666   5.402
 8733SOL     OW27097   5.971   4.312   2.373
 8733SOL    HW127098   5.883   4.275   2.402
 8733SOL    HW227099   6.000   4.385   2.436
 8734SOL     OW27100   0.053   6.230   1.658
 8734SOL    HW127101   0.016   6.144   1.622
 8734SOL    HW227102   0.101   6.279   1.585
 8735SOL     OW27103   1.471   2.369   0.035
 8735SOL    HW127104   1.511   2.445   7.004
 8735SOL    HW227105   1.466   2.393   0.132
 8736SOL     OW27106   0.987   5.748   3.865
 8736SOL    HW127107   0.997   5.806   3.784
 8736SOL    HW227108   0.911   5.685   3.852
 8737SOL     OW27109   0.554   5.566   6.867
 8737SOL    HW127110   0.529   5.655   6.829
 8737SOL    HW227111   0.536   5.566   6.966
 8738SOL     OW27112   1.841   2.339   2.622
 8738SOL    HW127113   1.784   2.309   2.546
 8738SOL    HW227114   1.914   2.273   2.638
 8739SOL     OW27115   4.528   4.715   3.387
 8739SOL    HW127116   4.582   4.679   3.463
 8739SOL    HW227117   4.562   4.677   3.301
 8740SOL     OW27118   1.844   0.886   3.682
 8740SOL    HW127119   1.903   0.929   3.614
 8740SOL    HW227120   1.849   0.937   3.767
 8741SOL     OW27121   1.857   2.117   2.875
 8741SOL    HW127122   1.940   2.136   2.823
 8741SOL    HW227123   1.854   2.176   2.956
 8742SOL     OW27124   1.438   3.217   0.871
 8742SOL    HW127125   1.355   3.226   0.814
 8742SOL    HW227126   1.449   3.122   0.898
 8743SOL     OW27127   1.815   2.856   0.346
 8743SOL    HW127128   1.718   2.836   0.360
 8743SOL    HW227129   1.848   2.912   0.422
 8744SOL     OW27130   2.397   3.782   5.606
 8744SOL    HW127131   2.401   3.878   5.634
 8744SOL    HW227132   2.484   3.738   5.629
 8745SOL     OW27133   5.507   1.205   6.873
 8745SOL    HW127134   5.525   1.123   6.818
 8745SOL    HW227135   5.593   1.239   6.911
 8746SOL     OW27136   4.530   5.116   4.089
 8746SOL    HW127137   4.520   5.017   4.080
 8746SOL    HW227138   4.460   5.152   4.152
 8747SOL     OW27139   0.051   6.648   1.416
 8747SOL    HW127140   6.997   6.714   1.421
 8747SOL    HW227141   0.113   6.661   1.494
 8748SOL     OW27142   6.172   1.709   4.890
 8748SOL    HW127143   6.172   1.744   4.983
 8748SOL    HW227144   6.257   1.735   4.845
 8749SOL     OW27145   2.341   1.254   4.265
 8749SOL    HW127146   2.380   1.299   4.345
 8749SOL    HW227147   2.400   1.269   4.186
 8750SOL     OW27148   4.081   3.779   2.357
 8750SOL    HW127149   4.081   3.680   2.369
 8750SOL    HW227150   4.174   3.814   2.364
 8751SOL     OW27151   1.871   6.143   6.966
 8751SOL    HW127152   1.838   6.089   6.888
 8751SOL    HW227153   1.863   6.088   0.029
 8752SOL     OW27154   1.286   2.934   6.936
 8752SOL    HW127155   1.280   2.970   0.009
 8752SOL    HW227156   1.308   3.008   6.873
 8753SOL     OW27157   2.007   2.131   0.972
 8753SOL    HW127158   1.960   2.175   1.049
 8753SOL    HW227159   1.955   2.146   0.889
 8754SOL     OW27160   1.807   5.985   6.755
 8754SOL    HW127161   1.776   5.904   6.805
 8754SOL    HW227162   1.761   5.988   6.666
 8755SOL     OW27163   0.141   1.752   1.691
 8755SOL    HW127164   0.054   1.794   1.715
 8755SOL    HW227165   0.127   1.689   1.615
 8756SOL     OW27166   1.772   1.438   2.155
 8756SOL    HW127167   1.796   1.387   2.238
 8756SOL    HW227168   1.853   1.484   2.120
 8757SOL     OW27169   5.294   5.858   4.838
 8757SOL    HW127170   5.388   5.886   4.852
 8757SOL    HW227171   5.258   5.901   4.755
 8758SOL     OW27172   3.614   5.062   6.590
 8758SOL    HW127173   3.610   4.993   6.662
 8758SOL    HW227174   3.521   5.091   6.567
 8759SOL     OW27175   6.800   1.042   1.485
 8759SOL    HW127176   6.706   1.073   1.499
 8759SOL    HW227177   6.801   0.951   1.445
 8760SOL     OW27178   1.556   2.699   4.619
 8760SOL    HW127179   1.534   2.789   4.656
 8760SOL    HW227180   1.544   2.700   4.519
 8761SOL     OW27181   5.146   3.022   3.829
 8761SOL    HW127182   5.128   3.115   3.862
 8761SOL    HW227183   5.094   3.005   3.746
 8762SOL     OW27184   3.921   6.254   2.173
 8762SOL    HW127185   3.861   6.329   2.201
 8762SOL    HW227186   3.867   6.182   2.131
 8763SOL     OW27187   0.055   1.955   5.419
 8763SOL    HW127188   0.108   1.953   5.504
 8763SOL    HW227189   0.102   1.903   5.349
 8764SOL     OW27190   2.394   5.495   6.000
 8764SOL    HW127191   2.322   5.443   5.955
 8764SOL    HW227192   2.477   5.440   6.005
 8765SOL     OW27193   4.494   0.123   3.520
 8765SOL    HW127194   4.404   0.093   3.488
 8765SOL    HW227195   4.483   0.188   3.595
 8766SOL     OW27196   6.287   6.985   4.959
 8766SOL    HW127197   6.282   6.956   5.055
 8766SOL    HW227198   6.279   0.065   4.955
 8767SOL     OW27199   2.087   1.190   4.906
 8767SOL    HW127200   2.074   1.168   4.809
 8767SOL    HW227201   2.085   1.289   4.917
 8768SOL     OW27202   6.448   2.158   0.947
 8768SOL    HW127203   6.479   2.253   0.955
 8768SOL    HW227204   6.518   2.104   0.900
 8769SOL     OW27205   6.825   0.205   0.605
 8769SOL    HW127206   6.730   0.237   0.595
 8769SOL    HW227207   6.825   0.113   0.642
 8770SOL     OW27208   4.565   2.078   0.825
 8770SOL    HW127209   4.539   1.995   0.777
 8770SOL    HW227210   4.547   2.157   0.767
 8771SOL     OW27211   0.934   2.622   6.473
 8771SOL    HW127212   0.965   2.547   6.531
 8771SOL    HW227213   0.986   2.705   6.495
 8772SOL     OW27214   0.549   6.798   3.750
 8772SOL    HW127215   0.500   6.874   3.792
 8772SOL    HW227216   0.539   6.802   3.651
 8773SOL     OW27217   6.352   1.523   4.173
 8773SOL    HW127218   6.359   1.464   4.254
 8773SOL    HW227219   6.438   1.522   4.123
 8774SOL     OW27220   0.928   2.204   6.591
 8774SOL    HW127221   0.984   2.286   6.600
 8774SOL    HW227222   0.962   2.134   6.654
 8775SOL     OW27223   4.480   1.704   2.395
 8775SOL    HW127224   4.440   1.794   2.379
 8775SOL    HW227225   4.562   1.713   2.451
 8776SOL     OW27226   5.638   2.959   1.579
 8776SOL    HW127227   5.543   2.929   1.588
 8776SOL    HW227228   5.649   3.049   1.622
 8777SOL     OW27229   6.356   2.150   3.904
 8777SOL    HW127230   6.436   2.206   3.926
 8777SOL    HW227231   6.278   2.209   3.884
 8778SOL     OW27232   1.966   4.146   6.054
 8778SOL    HW127233   1.900   4.166   6.127
 8778SOL    HW227234   2.048   4.201   6.067
 8779SOL     OW27235   3.735   6.611   3.562
 8779SOL    HW127236   3.644   6.607   3.521
 8779SOL    HW227237   3.755   6.705   3.589
 8780SOL     OW27238   1.075   3.064   4.419
 8780SOL    HW127239   0.978   3.049   4.435
 8780SOL    HW227240   1.087   3.134   4.348
 8781SOL     OW27241   3.910   1.202   2.335
 8781SOL    HW127242   3.839   1.160   2.278
 8781SOL    HW227243   3.992   1.145   2.334
 8782SOL     OW27244   6.624   2.415   0.006
 8782SOL    HW127245   6.656   2.369   6.944
 8782SOL    HW227246   6.525   2.420   0.005
 8783SOL     OW27247   3.618   3.845   6.335
 8783SOL    HW127248   3.618   3.843   6.435
 8783SOL    HW227249   3.707   3.814   6.301
 8784SOL     OW27250   4.196   1.610   5.663
 8784SOL    HW127251   4.291   1.632   5.643
 8784SOL    HW227252   4.137   1.643   5.589
 8785SOL     OW27253   6.793   0.267   5.872
 8785SOL    HW127254   6.826   0.287   5.780
 8785SOL    HW227255   6.791   0.168   5.886
 8786SOL     OW27256   5.286   2.559   3.113
 8786SOL    HW127257   5.253   2.636   3.059
 8786SOL    HW227258   5.211   2.495   3.130
 8787SOL     OW27259   3.234   5.400   2.511
 8787SOL    HW127260   3.316   5.425   2.562
 8787SOL    HW227261   3.249   5.313   2.463
 8788SOL     OW27262   0.292   6.944   3.946
 8788SOL    HW127263   0.230   6.953   3.868
 8788SOL    HW227264   0.263   7.005   4.020
 8789SOL     OW27265   2.579   3.654   0.054
 8789SOL    HW127266   2.563   3.689   0.147
 8789SOL    HW227267   2.493   3.650   0.004
 8790SOL     OW27268   4.837   3.143   5.330
 8790SOL    HW127269   4.828   3.240   5.310
 8790SOL    HW227270   4.793   3.089   5.258
 8791SOL     OW27271   3.957   6.569   5.513
 8791SOL    HW127272   3.908   6.654   5.530
 8791SOL    HW227273   3.936   6.536   5.420
 8792SOL     OW27274   4.860   4.531   0.939
 8792SOL    HW127275   4.873   4.470   1.018
 8792SOL    HW227276   4.780   4.500   0.887
 8793SOL     OW27277   6.359   0.574   5.583
 8793SOL    HW127278   6.407   0.562   5.496
 8793SOL    HW227279   6.262   0.556   5.571
 8794SOL     OW27280   0.776   2.763   2.984
 8794SOL    HW127281   0.710   2.795   3.053
 8794SOL    HW227282   0.730   2.755   2.896
 8795SOL     OW27283   1.781   0.173   6.551
 8795SOL    HW127284   1.876   0.205   6.558
 8795SOL    HW227285   1.719   0.245   6.583
 8796SOL     OW27286   5.902   5.134   4.175
 8796SOL    HW127287   5.959   5.184   4.110
 8796SOL    HW227288   5.890   5.040   4.143
 8797SOL     OW27289   5.753   5.693   5.406
 8797SOL    HW127290   5.827   5.743   5.452
 8797SOL    HW227291   5.695   5.648   5.474
 8798SOL     OW27292   1.625   5.105   0.197
 8798SOL    HW127293   1.623   5.029   0.132
 8798SOL    HW227294   1.702   5.165   0.176
 8799SOL     OW27295   1.524   6.129   2.071
 8799SOL    HW127296   1.504   6.224   2.047
 8799SOL    HW227297   1.555   6.080   1.990
 8800SOL     OW27298   6.858   6.198   4.939
 8800SOL    HW127299   6.861   6.112   4.989
 8800SOL    HW227300   6.863   6.181   4.841
 8801SOL     OW27301   5.549   3.217   6.639
 8801SOL    HW127302   5.547   3.200   6.540
 8801SOL    HW227303   5.560   3.315   6.655
 8802SOL     OW27304   1.183   6.967   6.684
 8802SOL    HW127305   1.164   0.020   6.750
 8802SOL    HW227306   1.102   6.950   6.629
 8803SOL     OW27307   4.575   5.043   5.306
 8803SOL    HW127308   4.631   5.048   5.223
 8803SOL    HW227309   4.511   5.120   5.307
 8804SOL     OW27310   2.107   6.267   1.559
 8804SOL    HW127311   2.175   6.329   1.521
 8804SOL    HW227312   2.015   6.303   1.544
 8805SOL     OW27313   5.106   5.190   0.719
 8805SOL    HW127314   5.130   5.286   0.704
 8805SOL    HW227315   5.185   5.142   0.758
 8806SOL     OW27316   1.648   1.371   1.878
 8806SOL    HW127317   1.650   1.412   1.969
 8806SOL    HW227318   1.556   1.382   1.838
 8807SOL     OW27319   5.278   2.047   1.915
 8807SOL    HW127320   5.291   2.035   2.014
 8807SOL    HW227321   5.197   1.997   1.886
 8808SOL     OW27322   1.866   1.277   0.937
 8808SOL    HW127323   1.849   1.350   0.870
 8808SOL    HW227324   1.784   1.265   0.993
 8809SOL     OW27325   0.827   3.193   3.186
 8809SOL    HW127326   0.876   3.107   3.191
 8809SOL    HW227327   0.788   3.204   3.094
 8810SOL     OW27328   6.011   2.829   3.927
 8810SOL    HW127329   6.032   2.896   3.856
 8810SOL    HW227330   5.912   2.812   3.929
 8811SOL     OW27331   3.587   5.715   2.781
 8811SOL    HW127332   3.564   5.672   2.868
 8811SOL    HW227333   3.682   5.694   2.757
 8812SOL     OW27334   5.207   0.800   0.359
 8812SOL    HW127335   5.217   0.761   0.268
 8812SOL    HW227336   5.212   0.900   0.354
 8813SOL     OW27337   1.520   2.822   1.236
 8813SOL    HW127338   1.492   2.728   1.213
 8813SOL    HW227339   1.608   2.820   1.282
 8814SOL     OW27340   5.829   0.043   5.163
 8814SOL    HW127341   5.810   6.987   5.100
 8814SOL    HW227342   5.787   0.127   5.127
 8815SOL     OW27343   4.547   0.130   1.197
 8815SOL    HW127344   4.603   0.198   1.150
 8815SOL    HW227345   4.473   0.175   1.247
 8816SOL     OW27346   0.568   0.722   2.579
 8816SOL    HW127347   0.575   0.674   2.667
 8816SOL    HW227348   0.556   0.820   2.595
 8817SOL     OW27349   0.984   2.459   4.499
 8817SOL    HW127350   0.943   2.535   4.448
 8817SOL    HW227351   1.066   2.428   4.451
 8818SOL     OW27352   1.347   5.774   5.976
 8818SOL    HW127353   1.371   5.792   5.881
 8818SOL    HW227354   1.294   5.689   5.982
 8819SOL     OW27355   5.615   6.424   6.683
 8819SOL    HW127356   5.658   6.458   6.599
 8819SOL    HW227357   5.518   6.449   6.683
 8820SOL     OW27358   3.186   6.634   5.781
 8820SOL    HW127359   3.106   6.579   5.807
 8820SOL    HW227360   3.253   6.576   5.736
 8821SOL     OW27361   1.642   5.130   5.350
 8821SOL    HW127362   1.643   5.069   5.430
 8821SOL    HW227363   1.690   5.086   5.274
 8822SOL     OW27364   0.462   0.794   5.276
 8822SOL    HW127365   0.469   0.718   5.341
 8822SOL    HW227366   0.456   0.880   5.326
 8823SOL     OW27367   4.372   2.409   3.137
 8823SOL    HW127368   4.411   2.466   3.064
 8823SOL    HW227369   4.339   2.324   3.097
 8824SOL     OW27370   1.515   6.851   3.936
 8824SOL    HW127371   1.457   6.931   3.923
 8824SOL    HW227372   1.485   6.777   3.876
 8825SOL     OW27373   1.500   6.930   0.261
 8825SOL    HW127374   1.588   6.912   0.217
 8825SOL    HW227375   1.460   6.843   0.291
 8826SOL     OW27376   0.460   3.348   6.934
 8826SOL    HW127377   0.545   3.371   6.886
 8826SOL    HW227378   0.397   3.425   6.929
 8827SOL     OW27379   5.586   5.836   3.979
 8827SOL    HW127380   5.551   5.761   4.034
 8827SOL    HW227381   5.583   5.811   3.882
 8828SOL     OW27382   4.858   2.892   5.745
 8828SOL    HW127383   4.838   2.795   5.737
 8828SOL    HW227384   4.776   2.941   5.775
 8829SOL     OW27385   6.482   0.796   2.819
 8829SOL    HW127386   6.465   0.844   2.905
 8829SOL    HW227387   6.397   0.789   2.767
 8830SOL     OW27388   2.678   1.513   2.521
 8830SOL    HW127389   2.694   1.578   2.595
 8830SOL    HW227390   2.763   1.465   2.500
 8831SOL     OW27391   0.866   2.329   2.345
 8831SOL    HW127392   0.924   2.316   2.426
 8831SOL    HW227393   0.825   2.420   2.347
 8832SOL     OW27394   6.003   6.971   4.873
 8832SOL    HW127395   5.996   0.017   4.799
 8832SOL    HW227396   6.092   6.980   4.917
 8833SOL     OW27397   4.820   2.741   0.906
 8833SOL    HW127398   4.793   2.717   0.813
 8833SOL    HW227399   4.889   2.813   0.903
 8834SOL     OW27400   6.233   4.283   5.687
 8834SOL    HW127401   6.224   4.243   5.778
 8834SOL    HW227402   6.277   4.373   5.694
 8835SOL     OW27403   6.209   1.025   5.260
 8835SOL    HW127404   6.145   1.037   5.336
 8835SOL    HW227405   6.177   1.078   5.181
 8836SOL     OW27406   4.481   1.908   0.629
 8836SOL    HW127407   4.422   1.983   0.601
 8836SOL    HW227408   4.469   1.831   0.567
 8837SOL     OW27409   5.863   5.037   0.343
 8837SOL    HW127410   5.814   4.996   0.266
 8837SOL    HW227411   5.958   5.050   0.318
 8838SOL     OW27412   1.351   3.168   1.699
 8838SOL    HW127413   1.395   3.091   1.745
 8838SOL    HW227414   1.251   3.157   1.703
 8839SOL     OW27415   4.616   4.473   1.802
 8839SOL    HW127416   4.587   4.416   1.878
 8839SOL    HW227417   4.550   4.546   1.787
 8840SOL     OW27418   0.244   6.836   1.575
 8840SOL    HW127419   0.248   6.914   1.512
 8840SOL    HW227420   0.333   6.824   1.618
 8841SOL     OW27421   4.459   1.842   0.247
 8841SOL    HW127422   4.482   1.779   0.320
 8841SOL    HW227423   4.495   1.933   0.269
 8842SOL     OW27424   3.912   3.114   3.984
 8842SOL    HW127425   3.942   3.041   4.045
 8842SOL    HW227426   3.813   3.126   3.993
 8843SOL     OW27427   2.380   6.248   4.977
 8843SOL    HW127428   2.343   6.174   4.921
 8843SOL    HW227429   2.473   6.269   4.948
 8844SOL     OW27430   3.973   2.819   5.241
 8844SOL    HW127431   4.038   2.748   5.213
 8844SOL    HW227432   3.948   2.874   5.161
 8845SOL     OW27433   0.770   3.593   2.474
 8845SOL    HW127434   0.822   3.675   2.495
 8845SOL    HW227435   0.831   3.523   2.436
 8846SOL     OW27436   5.982   5.132   4.445
 8846SOL    HW127437   5.943   5.055   4.495
 8846SOL    HW227438   5.967   5.120   4.347
 8847SOL     OW27439   0.810   2.647   3.716
 8847SOL    HW127440   0.812   2.700   3.801
 8847SOL    HW227441   0.826   2.709   3.639
 8848SOL     OW27442   5.655   2.613   1.360
 8848SOL    HW127443   5.618   2.547   1.295
 8848SOL    HW227444   5.587   2.684   1.378
 8849SOL     OW27445   3.336   5.211   4.860
 8849SOL    HW127446   3.433   5.223   4.838
 8849SOL    HW227447   3.327   5.183   4.956
 8850SOL     OW27448   4.497   1.895   1.126
 8850SOL    HW127449   4.519   1.988   1.097
 8850SOL    HW227450   4.582   1.842   1.132
 8851SOL     OW27451   6.869   5.407   3.330
 8851SOL    HW127452   6.967   5.391   3.323
 8851SOL    HW227453   6.832   5.355   3.408
 8852SOL     OW27454   5.760   4.206   4.704
 8852SOL    HW127455   5.738   4.155   4.621
 8852SOL    HW227456   5.753   4.304   4.686
 8853SOL     OW27457   4.649   1.643   4.098
 8853SOL    HW127458   4.702   1.590   4.032
 8853SOL    HW227459   4.566   1.679   4.054
 8854SOL     OW27460   3.017   0.324   6.506
 8854SOL    HW127461   2.918   0.334   6.518
 8854SOL    HW227462   3.035   0.269   6.425
 8855SOL     OW27463   6.552   4.757   6.082
 8855SOL    HW127464   6.574   4.660   6.070
 8855SOL    HW227465   6.533   4.798   5.992
 8856SOL     OW27466   5.341   1.892   5.745
 8856SOL    HW127467   5.375   1.909   5.838
 8856SOL    HW227468   5.241   1.881   5.749
 8857SOL     OW27469   1.504   2.703   4.310
 8857SOL    HW127470   1.424   2.674   4.257
 8857SOL    HW227471   1.584   2.651   4.281
 8858SOL     OW27472   0.922   3.612   5.581
 8858SOL    HW127473   0.963   3.620   5.490
 8858SOL    HW227474   0.990   3.576   5.645
 8859SOL     OW27475   2.688   5.741   4.910
 8859SOL    HW127476   2.599   5.757   4.869
 8859SOL    HW227477   2.684   5.757   5.009
 8860SOL     OW27478   2.221   1.003   1.669
 8860SOL    HW127479   2.146   0.965   1.614
 8860SOL    HW227480   2.200   1.099   1.691
 8861SOL     OW27481   2.078   1.454   6.915
 8861SOL    HW127482   2.122   1.373   6.954
 8861SOL    HW227483   2.147   1.508   6.866
 8862SOL     OW27484   0.528   3.239   3.725
 8862SOL    HW127485   0.611   3.211   3.773
 8862SOL    HW227486   0.449   3.191   3.763
 8863SOL     OW27487   1.563   5.736   5.012
 8863SOL    HW127488   1.470   5.771   4.997
 8863SOL    HW227489   1.621   5.810   5.043
 8864SOL     OW27490   1.941   4.329   5.374
 8864SOL    HW127491   1.847   4.346   5.405
 8864SOL    HW227492   1.972   4.241   5.411
 8865SOL     OW27493   2.706   1.920   5.755
 8865SOL    HW127494   2.717   1.849   5.825
 8865SOL    HW227495   2.729   1.883   5.665
 8866SOL     OW27496   5.390   0.268   5.692
 8866SOL    HW127497   5.477   0.311   5.668
 8866SOL    HW227498   5.398   0.169   5.682
 8867SOL     OW27499   5.560   0.762   2.829
 8867SOL    HW127500   5.494   0.793   2.897
 8867SOL    HW227501   5.650   0.753   2.872
 8868SOL     OW27502   5.812   2.957   0.628
 8868SOL    HW127503   5.817   2.958   0.528
 8868SOL    HW227504   5.723   2.921   0.656
 8869SOL     OW27505   1.911   1.944   3.954
 8869SOL    HW127506   1.835   1.889   3.991
 8869SOL    HW227507   1.973   1.884   3.903
 8870SOL     OW27508   3.645   6.535   1.733
 8870SOL    HW127509   3.643   6.611   1.669
 8870SOL    HW227510   3.675   6.452   1.686
 8871SOL     OW27511   1.146   2.332   4.313
 8871SOL    HW127512   1.109   2.255   4.366
 8871SOL    HW227513   1.123   2.320   4.216
 8872SOL     OW27514   1.201   1.250   2.570
 8872SOL    HW127515   1.164   1.164   2.605
 8872SOL    HW227516   1.245   1.234   2.482
 8873SOL     OW27517   0.323   5.693   4.848
 8873SOL    HW127518   0.269   5.679   4.764
 8873SOL    HW227519   0.297   5.625   4.916
 8874SOL     OW27520   1.359   1.446   5.931
 8874SOL    HW127521   1.320   1.536   5.949
 8874SOL    HW227522   1.409   1.448   5.844
 8875SOL     OW27523   1.404   1.254   4.343
 8875SOL    HW127524   1.445   1.163   4.346
 8875SOL    HW227525   1.377   1.275   4.249
 8876SOL     OW27526   2.700   1.345   4.625
 8876SOL    HW127527   2.729   1.345   4.530
 8876SOL    HW227528   2.730   1.260   4.670
 8877SOL     OW27529   2.841   6.494   4.629
 8877SOL    HW127530   2.824   6.541   4.715
 8877SOL    HW227531   2.938   6.504   4.604
 8878SOL     OW27532   5.158   4.399   5.844
 8878SOL    HW127533   5.062   4.427   5.836
 8878SOL    HW227534   5.169   4.309   5.803
 8879SOL     OW27535   6.238   5.831   4.532
 8879SOL    HW127536   6.188   5.770   4.471
 8879SOL    HW227537   6.184   5.845   4.616
 8880SOL     OW27538   1.124   6.957   4.833
 8880SOL    HW127539   1.142   0.034   4.847
 8880SOL    HW227540   1.033   6.935   4.869
 8881SOL     OW27541   0.004   2.066   2.459
 8881SOL    HW127542   0.097   2.084   2.428
 8881SOL    HW227543   0.006   2.005   2.538
 8882SOL     OW27544   5.427   2.200   0.816
 8882SOL    HW127545   5.459   2.145   0.739
 8882SOL    HW227546   5.471   2.168   0.900
 8883SOL     OW27547   6.265   1.279   5.623
 8883SOL    HW127548   6.218   1.331   5.695
 8883SOL    HW227549   6.223   1.188   5.615
 8884SOL     OW27550   0.410   1.286   6.480
 8884SOL    HW127551   0.422   1.314   6.385
 8884SOL    HW227552   0.483   1.325   6.536
 8885SOL     OW27553   6.068   4.002   1.265
 8885SOL    HW127554   6.035   4.089   1.301
 8885SOL    HW227555   6.168   4.006   1.253
 8886SOL     OW27556   3.241   6.032   6.265
 8886SOL    HW127557   3.141   6.023   6.259
 8886SOL    HW227558   3.278   6.055   6.175
 8887SOL     OW27559   1.445   0.782   0.445
 8887SOL    HW127560   1.520   0.730   0.403
 8887SOL    HW227561   1.456   0.782   0.544
 8888SOL     OW27562   2.157   2.216   3.241
 8888SOL    HW127563   2.177   2.198   3.145
 8888SOL    HW227564   2.235   2.264   3.283
 8889SOL     OW27565   3.448   1.116   5.208
 8889SOL    HW127566   3.522   1.051   5.222
 8889SOL    HW227567   3.471   1.177   5.132
 8890SOL     OW27568   0.074   5.320   3.829
 8890SOL    HW127569   0.064   5.266   3.912
 8890SOL    HW227570   0.040   5.413   3.846
 8891SOL     OW27571   3.581   1.744   6.009
 8891SOL    HW127572   3.609   1.826   6.058
 8891SOL    HW227573   3.637   1.666   6.040
 8892SOL     OW27574   0.895   6.950   2.908
 8892SOL    HW127575   0.840   7.005   2.971
 8892SOL    HW227576   0.979   6.999   2.884
 8893SOL     OW27577   6.783   0.629   0.532
 8893SOL    HW127578   6.764   0.562   0.461
 8893SOL    HW227579   6.699   0.679   0.555
 8894SOL     OW27580   4.856   2.560   5.581
 8894SOL    HW127581   4.838   2.636   5.519
 8894SOL    HW227582   4.828   2.474   5.536
 8895SOL     OW27583   1.425   1.261   3.462
 8895SOL    HW127584   1.393   1.299   3.376
 8895SOL    HW227585   1.378   1.305   3.538
 8896SOL     OW27586   1.396   4.027   4.884
 8896SOL    HW127587   1.366   3.969   4.959
 8896SOL    HW227588   1.382   4.123   4.908
 8897SOL     OW27589   0.697   2.111   1.472
 8897SOL    HW127590   0.772   2.063   1.518
 8897SOL    HW227591   0.711   2.210   1.481
 8898SOL     OW27592   0.008   2.632   5.263
 8898SOL    HW127593   6.979   2.600   5.344
 8898SOL    HW227594   6.970   2.695   5.212
 8899SOL     OW27595   3.888   6.297   2.528
 8899SOL    HW127596   3.822   6.225   2.506
 8899SOL    HW227597   3.923   6.284   2.620
 8900SOL     OW27598   6.844   2.150   3.492
 8900SOL    HW127599   6.839   2.210   3.572
 8900SOL    HW227600   6.914   2.184   3.429
 8901SOL     OW27601   1.714   0.202   2.374
 8901SOL    HW127602   1.652   0.271   2.338
 8901SOL    HW227603   1.669   0.114   2.376
 8902SOL     OW27604   3.887   6.685   6.041
 8902SOL    HW127605   3.895   6.630   6.124
 8902SOL    HW227606   3.802   6.661   5.994
 8903SOL     OW27607   6.954   1.436   3.047
 8903SOL    HW127608   7.004   1.402   3.127
 8903SOL    HW227609   6.856   1.441   3.068
 8904SOL     OW27610   2.153   3.723   3.755
 8904SOL    HW127611   2.132   3.626   3.764
 8904SOL    HW227612   2.194   3.740   3.665
 8905SOL     OW27613   2.181   4.628   4.841
 8905SOL    HW127614   2.269   4.657   4.802
 8905SOL    HW227615   2.196   4.550   4.902
 8906SOL     OW27616   2.030   5.105   4.463
 8906SOL    HW127617   2.003   5.175   4.529
 8906SOL    HW227618   2.113   5.059   4.494
 8907SOL     OW27619   3.816   2.796   6.500
 8907SOL    HW127620   3.802   2.708   6.547
 8907SOL    HW227621   3.849   2.864   6.565
 8908SOL     OW27622   0.581   3.274   2.660
 8908SOL    HW127623   0.558   3.370   2.648
 8908SOL    HW227624   0.499   3.223   2.687
 8909SOL     OW27625   3.240   6.817   5.370
 8909SOL    HW127626   3.172   6.867   5.424
 8909SOL    HW227627   3.197   6.782   5.287
 8910SOL     OW27628   4.196   2.702   0.258
 8910SOL    HW127629   4.145   2.786   0.272
 8910SOL    HW227630   4.230   2.698   0.164
 8911SOL     OW27631   5.146   2.832   4.660
 8911SOL    HW127632   5.200   2.815   4.578
 8911SOL    HW227633   5.171   2.765   4.731
 8912SOL     OW27634   3.775   0.709   0.301
 8912SOL    HW127635   3.816   0.661   0.378
 8912SOL    HW227636   3.803   0.805   0.303
 8913SOL     OW27637   4.039   4.156   1.247
 8913SOL    HW127638   4.093   4.080   1.283
 8913SOL    HW227639   3.946   4.126   1.228
 8914SOL     OW27640   5.541   3.523   3.511
 8914SOL    HW127641   5.445   3.536   3.534
 8914SOL    HW227642   5.572   3.599   3.453
 8915SOL     OW27643   0.778   5.715   2.185
 8915SOL    HW127644   0.685   5.750   2.184
 8915SOL    HW227645   0.787   5.645   2.256
 8916SOL     OW27646   5.679   3.160   1.767
 8916SOL    HW127647   5.686   3.077   1.823
 8916SOL    HW227648   5.771   3.197   1.751
 8917SOL     OW27649   5.772   4.191   5.561
 8917SOL    HW127650   5.818   4.103   5.546
 8917SOL    HW227651   5.691   4.177   5.617
 8918SOL     OW27652   4.659   4.303   5.747
 8918SOL    HW127653   4.568   4.340   5.728
 8918SOL    HW227654   4.660   4.262   5.839
 8919SOL     OW27655   1.946   3.296   1.397
 8919SOL    HW127656   1.996   3.339   1.321
 8919SOL    HW227657   1.852   3.279   1.370
 8920SOL     OW27658   6.243   5.730   5.803
 8920SOL    HW127659   6.277   5.812   5.848
 8920SOL    HW227660   6.312   5.696   5.739
 8921SOL     OW27661   1.058   5.496   3.257
 8921SOL    HW127662   1.049   5.595   3.257
 8921SOL    HW227663   1.110   5.467   3.337
 8922SOL     OW27664   0.447   2.412   6.766
 8922SOL    HW127665   0.510   2.356   6.711
 8922SOL    HW227666   0.489   2.431   6.855
 8923SOL     OW27667   2.365   4.675   4.196
 8923SOL    HW127668   2.381   4.774   4.193
 8923SOL    HW227669   2.344   4.648   4.290
 8924SOL     OW27670   2.425   6.526   4.435
 8924SOL    HW127671   2.479   6.609   4.443
 8924SOL    HW227672   2.423   6.478   4.523
 8925SOL     OW27673   4.788   5.786   0.862
 8925SOL    HW127674   4.694   5.797   0.895
 8925SOL    HW227675   4.845   5.747   0.935
 8926SOL     OW27676   5.608   6.528   6.929
 8926SOL    HW127677   5.632   6.473   6.850
 8926SOL    HW227678   5.657   6.615   6.926
 8927SOL     OW27679   3.005   1.974   5.043
 8927SOL    HW127680   2.990   1.981   4.944
 8927SOL    HW227681   3.074   2.040   5.071
 8928SOL     OW27682   1.717   0.702   5.369
 8928SOL    HW127683   1.645   0.766   5.395
 8928SOL    HW227684   1.770   0.677   5.450
 8929SOL     OW27685   4.699   4.891   2.888
 8929SOL    HW127686   4.711   4.791   2.884
 8929SOL    HW227687   4.789   4.935   2.888
 8930SOL     OW27688   0.019   5.418   5.415
 8930SOL    HW127689   0.033   5.337   5.357
 8930SOL    HW227690   0.108   5.454   5.443
 8931SOL     OW27691   5.205   1.124   1.633
 8931SOL    HW127692   5.291   1.089   1.670
 8931SOL    HW227693   5.207   1.224   1.632
 8932SOL     OW27694   4.052   0.742   7.003
 8932SOL    HW127695   3.973   0.797   0.010
 8932SOL    HW227696   4.044   0.717   6.907
 8933SOL     OW27697   1.806   6.753   5.611
 8933SOL    HW127698   1.883   6.793   5.661
 8933SOL    HW227699   1.823   6.762   5.513
 8934SOL     OW27700   3.423   6.704   3.824
 8934SOL    HW127701   3.350   6.770   3.805
 8934SOL    HW227702   3.434   6.644   3.745
 8935SOL     OW27703   5.840   2.214   2.385
 8935SOL    HW127704   5.919   2.193   2.443
 8935SOL    HW227705   5.842   2.311   2.360
 8936SOL     OW27706   0.840   3.901   2.006
 8936SOL    HW127707   0.853   3.831   1.936
 8936SOL    HW227708   0.886   3.873   2.090
 8937SOL     OW27709   3.233   6.470   4.680
 8937SOL    HW127710   3.194   6.379   4.698
 8937SOL    HW227711   3.162   6.530   4.643
 8938SOL     OW27712   4.924   6.847   2.218
 8938SOL    HW127713   4.985   6.913   2.174
 8938SOL    HW227714   4.831   6.858   2.182
 8939SOL     OW27715   6.647   2.963   4.894
 8939SOL    HW127716   6.719   2.990   4.831
 8939SOL    HW227717   6.676   2.982   4.988
 8940SOL     OW27718   6.350   3.810   2.592
 8940SOL    HW127719   6.340   3.736   2.659
 8940SOL    HW227720   6.273   3.806   2.528
 8941SOL     OW27721   5.463   2.186   3.653
 8941SOL    HW127722   5.430   2.154   3.742
 8941SOL    HW227723   5.404   2.259   3.620
 8942SOL     OW27724   5.209   6.101   4.593
 8942SOL    HW127725   5.181   6.130   4.685
 8942SOL    HW227726   5.152   6.146   4.525
 8943SOL     OW27727   4.522   3.533   0.198
 8943SOL    HW127728   4.575   3.595   0.141
 8943SOL    HW227729   4.575   3.507   0.279
 8944SOL     OW27730   4.560   5.938   5.523
 8944SOL    HW127731   4.616   5.918   5.443
 8944SOL    HW227732   4.531   5.853   5.567
 8945SOL     OW27733   6.583   4.721   2.197
 8945SOL    HW127734   6.552   4.640   2.146
 8945SOL    HW227735   6.620   4.692   2.286
 8946SOL     OW27736   3.843   2.207   3.846
 8946SOL    HW127737   3.935   2.175   3.824
 8946SOL    HW227738   3.833   2.215   3.945
 8947SOL     OW27739   3.029   5.289   0.470
 8947SOL    HW127740   2.972   5.277   0.389
 8947SOL    HW227741   2.983   5.248   0.549
 8948SOL     OW27742   6.098   0.396   2.633
 8948SOL    HW127743   6.152   0.332   2.688
 8948SOL    HW227744   6.003   0.366   2.630
 8949SOL     OW27745   3.797   6.250   1.195
 8949SOL    HW127746   3.893   6.238   1.222
 8949SOL    HW227747   3.793   6.296   1.107
 8950SOL     OW27748   3.350   3.618   3.801
 8950SOL    HW127749   3.410   3.693   3.776
 8950SOL    HW227750   3.404   3.543   3.838
 8951SOL     OW27751   1.116   0.871   3.476
 8951SOL    HW127752   1.126   0.969   3.493
 8951SOL    HW227753   1.066   0.829   3.552
 8952SOL     OW27754   1.664   3.818   4.882
 8952SOL    HW127755   1.725   3.896   4.891
 8952SOL    HW227756   1.589   3.841   4.820
 8953SOL     OW27757   1.344   5.815   0.821
 8953SOL    HW127758   1.302   5.728   0.848
 8953SOL    HW227759   1.429   5.797   0.771
 8954SOL     OW27760   2.381   4.249   5.545
 8954SOL    HW127761   2.363   4.176   5.480
 8954SOL    HW227762   2.389   4.336   5.496
 8955SOL     OW27763   6.303   2.448   5.905
 8955SOL    HW127764   6.233   2.518   5.891
 8955SOL    HW227765   6.367   2.478   5.976
 8956SOL     OW27766   0.942   6.663   1.130
 8956SOL    HW127767   0.887   6.626   1.055
 8956SOL    HW227768   1.039   6.647   1.111
 8957SOL     OW27769   0.590   0.320   3.846
 8957SOL    HW127770   0.582   0.418   3.866
 8957SOL    HW227771   0.666   0.281   3.899
 8958SOL     OW27772   6.748   2.925   4.554
 8958SOL    HW127773   6.680   2.871   4.603
 8958SOL    HW227774   6.837   2.913   4.598
 8959SOL     OW27775   5.262   1.405   3.657
 8959SOL    HW127776   5.250   1.360   3.746
 8959SOL    HW227777   5.221   1.349   3.585
 8960SOL     OW27778   3.854   6.482   1.913
 8960SOL    HW127779   3.776   6.480   1.850
 8960SOL    HW227780   3.899   6.392   1.912
 8961SOL     OW27781   2.530   2.380   5.676
 8961SOL    HW127782   2.618   2.336   5.692
 8961SOL    HW227783   2.525   2.411   5.581
 8962SOL     OW27784   6.484   6.111   1.116
 8962SOL    HW127785   6.561   6.048   1.122
 8962SOL    HW227786   6.511   6.193   1.066
 8963SOL     OW27787   2.407   5.109   5.779
 8963SOL    HW127788   2.402   5.011   5.795
 8963SOL    HW227789   2.502   5.139   5.780
 8964SOL     OW27790   1.092   3.286   4.262
 8964SOL    HW127791   1.183   3.284   4.220
 8964SOL    HW227792   1.065   3.381   4.277
 8965SOL     OW27793   3.306   6.029   6.823
 8965SOL    HW127794   3.210   6.052   6.805
 8965SOL    HW227795   3.317   6.008   6.920
 8966SOL     OW27796   5.100   6.640   5.255
 8966SOL    HW127797   5.183   6.605   5.299
 8966SOL    HW227798   5.084   6.590   5.170
 8967SOL     OW27799   2.127   0.421   3.229
 8967SOL    HW127800   2.088   0.509   3.253
 8967SOL    HW227801   2.169   0.381   3.310
 8968SOL     OW27802   2.952   5.960   2.367
 8968SOL    HW127803   3.019   6.004   2.426
 8968SOL    HW227804   2.860   5.989   2.395
 8969SOL     OW27805   6.672   1.289   1.628
 8969SOL    HW127806   6.754   1.340   1.603
 8969SOL    HW227807   6.686   1.245   1.717
 8970SOL     OW27808   2.716   1.907   4.397
 8970SOL    HW127809   2.666   1.925   4.482
 8970SOL    HW227810   2.663   1.941   4.320
 8971SOL     OW27811   3.269   5.316   1.469
 8971SOL    HW127812   3.229   5.319   1.377
 8971SOL    HW227813   3.260   5.406   1.512
 8972SOL     OW27814   6.450   3.408   6.096
 8972SOL    HW127815   6.406   3.420   6.006
 8972SOL    HW227816   6.454   3.311   6.118
 8973SOL     OW27817   2.376   1.593   3.420
 8973SOL    HW127818   2.446   1.665   3.420
 8973SOL    HW227819   2.306   1.615   3.488
 8974SOL     OW27820   1.045   4.705   5.595
 8974SOL    HW127821   1.127   4.740   5.551
 8974SOL    HW227822   0.964   4.749   5.556
 8975SOL     OW27823   0.709   3.998   6.175
 8975SOL    HW127824   0.617   4.008   6.213
 8975SOL    HW227825   0.702   3.982   6.076
 8976SOL     OW27826   5.516   0.174   1.478
 8976SOL    HW127827   5.452   0.118   1.425
 8976SOL    HW227828   5.607   0.166   1.438
 8977SOL     OW27829   0.662   5.202   5.723
 8977SOL    HW127830   0.649   5.296   5.691
 8977SOL    HW227831   0.753   5.192   5.762
 8978SOL     OW27832   6.537   4.879   4.965
 8978SOL    HW127833   6.462   4.911   5.022
 8978SOL    HW227834   6.608   4.838   5.024
 8979SOL     OW27835   1.970   4.362   3.117
 8979SOL    HW127836   1.999   4.319   3.031
 8979SOL    HW227837   1.901   4.304   3.161
 8980SOL     OW27838   4.947   0.921   0.564
 8980SOL    HW127839   4.912   1.009   0.532
 8980SOL    HW227840   4.943   0.854   0.490
 8981SOL     OW27841   3.844   2.410   6.981
 8981SOL    HW127842   3.843   2.338   0.031
 8981SOL    HW227843   3.907   2.384   6.908
 8982SOL     OW27844   0.719   0.553   3.243
 8982SOL    HW127845   0.787   0.508   3.186
 8982SOL    HW227846   0.641   0.492   3.257
 8983SOL     OW27847   1.596   6.398   2.491
 8983SOL    HW127848   1.654   6.340   2.433
 8983SOL    HW227849   1.637   6.489   2.499
 8984SOL     OW27850   6.065   1.146   3.641
 8984SOL    HW127851   6.099   1.115   3.730
 8984SOL    HW227852   6.053   1.066   3.581
 8985SOL     OW27853   4.681   1.086   0.918
 8985SOL    HW127854   4.609   1.019   0.937
 8985SOL    HW227855   4.757   1.040   0.872
 8986SOL     OW27856   0.977   6.972   6.245
 8986SOL    HW127857   1.002   6.968   6.341
 8986SOL    HW227858   0.888   6.927   6.232
 8987SOL     OW27859   3.148   6.718   2.824
 8987SOL    HW127860   3.054   6.689   2.839
 8987SOL    HW227861   3.155   6.767   2.737
 8988SOL     OW27862   2.226   6.745   0.684
 8988SOL    HW127863   2.230   6.735   0.784
 8988SOL    HW227864   2.183   6.833   0.661
 8989SOL     OW27865   6.554   1.869   2.390
 8989SOL    HW127866   6.633   1.826   2.347
 8989SOL    HW227867   6.543   1.962   2.355
 8990SOL     OW27868   3.685   1.428   3.310
 8990SOL    HW127869   3.619   1.368   3.357
 8990SOL    HW227870   3.749   1.465   3.377
 8991SOL     OW27871   1.487   1.676   0.859
 8991SOL    HW127872   1.474   1.772   0.881
 8991SOL    HW227873   1.550   1.667   0.781
 8992SOL     OW27874   1.314   5.698   5.304
 8992SOL    HW127875   1.306   5.613   5.252
 8992SOL    HW227876   1.409   5.708   5.336
 8993SOL     OW27877   5.263   4.439   3.382
 8993SOL    HW127878   5.316   4.521   3.406
 8993SOL    HW227879   5.166   4.460   3.388
 8994SOL     OW27880   1.385   6.251   2.365
 8994SOL    HW127881   1.347   6.306   2.291
 8994SOL    HW227882   1.435   6.310   2.429
 8995SOL     OW27883   1.941   4.476   3.728
 8995SOL    HW127884   1.947   4.401   3.793
 8995SOL    HW227885   2.017   4.540   3.743
 8996SOL     OW27886   2.694   3.584   1.728
 8996SOL    HW127887   2.708   3.681   1.707
 8996SOL    HW227888   2.758   3.556   1.800
 8997SOL     OW27889   4.036   1.839   4.461
 8997SOL    HW127890   4.060   1.902   4.388
 8997SOL    HW227891   3.937   1.825   4.463
 8998SOL     OW27892   1.455   1.561   6.572
 8998SOL    HW127893   1.406   1.629   6.626
 8998SOL    HW227894   1.419   1.561   6.478
 8999SOL     OW27895   6.321   2.864   5.379
 8999SOL    HW127896   6.363   2.803   5.312
 8999SOL    HW227897   6.365   2.850   5.468
 9000SOL     OW27898   4.696   5.066   1.259
 9000SOL    HW127899   4.782   5.025   1.289
 9000SOL    HW227900   4.642   5.093   1.339
 9001SOL     OW27901   0.257   3.145   4.413
 9001SOL    HW127902   0.273   3.114   4.319
 9001SOL    HW227903   0.199   3.226   4.412
 9002SOL     OW27904   4.582   3.125   6.106
 9002SOL    HW127905   4.489   3.140   6.139
 9002SOL    HW227906   4.637   3.085   6.179
 9003SOL     OW27907   0.666   3.688   0.045
 9003SOL    HW127908   0.606   3.621   0.001
 9003SOL    HW227909   0.630   3.709   0.136
 9004SOL     OW27910   5.087   5.758   0.176
 9004SOL    HW127911   5.184   5.764   0.197
 9004SOL    HW227912   5.035   5.801   0.250
 9005SOL     OW27913   4.914   3.873   4.056
 9005SOL    HW127914   4.855   3.953   4.062
 9005SOL    HW227915   5.009   3.900   4.077
 9006SOL     OW27916   3.339   6.280   2.429
 9006SOL    HW127917   3.431   6.253   2.400
 9006SOL    HW227918   3.343   6.373   2.466
 9007SOL     OW27919   2.185   6.582   5.618
 9007SOL    HW127920   2.189   6.565   5.717
 9007SOL    HW227921   2.095   6.559   5.584
 9008SOL     OW27922   0.607   4.583   1.370
 9008SOL    HW127923   0.598   4.586   1.270
 9008SOL    HW227924   0.594   4.674   1.408
 9009SOL     OW27925   3.584   6.911   6.992
 9009SOL    HW127926   3.600   6.839   6.925
 9009SOL    HW227927   3.670   6.956   7.014
 9010SOL     OW27928   0.090   6.329   4.996
 9010SOL    HW127929   0.016   6.263   4.983
 9010SOL    HW227930   0.101   6.348   5.094
 9011SOL     OW27931   4.705   2.731   2.396
 9011SOL    HW127932   4.626   2.747   2.337
 9011SOL    HW227933   4.781   2.789   2.368
 9012SOL     OW27934   4.317   5.358   2.570
 9012SOL    HW127935   4.243   5.298   2.599
 9012SOL    HW227936   4.327   5.354   2.471
 9013SOL     OW27937   3.351   6.290   1.328
 9013SOL    HW127938   3.398   6.211   1.368
 9013SOL    HW227939   3.385   6.305   1.235
 9014SOL     OW27940   2.075   1.402   1.924
 9014SOL    HW127941   2.063   1.336   1.998
 9014SOL    HW227942   2.063   1.495   1.959
 9015SOL     OW27943   6.193   2.252   4.492
 9015SOL    HW127944   6.144   2.192   4.555
 9015SOL    HW227945   6.197   2.345   4.530
 9016SOL     OW27946   0.303   4.733   6.497
 9016SOL    HW127947   0.383   4.739   6.557
 9016SOL    HW227948   0.333   4.713   6.404
 9017SOL     OW27949   6.145   2.637   2.952
 9017SOL    HW127950   6.083   2.634   3.030
 9017SOL    HW227951   6.095   2.662   2.869
 9018SOL     OW27952   5.213   1.861   6.613
 9018SOL    HW127953   5.120   1.882   6.643
 9018SOL    HW227954   5.230   1.763   6.625
 9019SOL     OW27955   1.661   5.893   0.617
 9019SOL    HW127956   1.623   5.804   0.644
 9019SOL    HW227957   1.744   5.910   0.669
 9020SOL     OW27958   0.541   5.062   4.379
 9020SOL    HW127959   0.536   5.130   4.452
 9020SOL    HW227960   0.622   5.079   4.323
 9021SOL     OW27961   6.522   5.225   5.020
 9021SOL    HW127962   6.451   5.190   4.959
 9021SOL    HW227963   6.585   5.282   4.968
 9022SOL     OW27964   0.914   6.671   5.965
 9022SOL    HW127965   0.936   6.591   6.020
 9022SOL    HW227966   0.940   6.654   5.870
 9023SOL     OW27967   3.654   3.703   4.365
 9023SOL    HW127968   3.624   3.772   4.431
 9023SOL    HW227969   3.746   3.671   4.388
 9024SOL     OW27970   1.413   0.182   0.045
 9024SOL    HW127971   1.457   0.266   0.078
 9024SOL    HW227972   1.479   0.130   7.011
 9025SOL     OW27973   0.397   2.777   0.561
 9025SOL    HW127974   0.311   2.752   0.517
 9025SOL    HW227975   0.383   2.857   0.619
 9026SOL     OW27976   2.691   4.017   5.594
 9026SOL    HW127977   2.611   4.022   5.654
 9026SOL    HW227978   2.661   4.018   5.498
 9027SOL     OW27979   1.073   3.139   1.774
 9027SOL    HW127980   1.029   3.085   1.703
 9027SOL    HW227981   1.021   3.130   1.859
 9028SOL     OW27982   1.673   4.475   4.953
 9028SOL    HW127983   1.649   4.431   5.040
 9028SOL    HW227984   1.763   4.518   4.962
 9029SOL     OW27985   5.509   5.150   2.668
 9029SOL    HW127986   5.417   5.153   2.706
 9029SOL    HW227987   5.559   5.072   2.705
 9030SOL     OW27988   4.718   2.318   3.167
 9030SOL    HW127989   4.675   2.283   3.084
 9030SOL    HW227990   4.762   2.406   3.148
 9031SOL     OW27991   3.053   1.111   2.480
 9031SOL    HW127992   3.063   1.022   2.437
 9031SOL    HW227993   3.050   1.100   2.580
 9032SOL     OW27994   0.389   3.768   2.457
 9032SOL    HW127995   0.402   3.673   2.426
 9032SOL    HW227996   0.378   3.768   2.556
 9033SOL     OW27997   1.006   3.292   2.064
 9033SOL    HW127998   0.958   3.351   1.998
 9033SOL    HW227999   0.950   3.212   2.084
 9034SOL     OW28000   1.121   6.624   0.048
 9034SOL    HW128001   1.138   6.635   0.146
 9034SOL    HW228002   1.135   6.528   0.023
 9035SOL     OW28003   6.161   1.257   4.503
 9035SOL    HW128004   6.152   1.158   4.488
 9035SOL    HW228005   6.098   1.306   4.443
 9036SOL     OW28006   0.411   1.482   4.619
 9036SOL    HW128007   0.464   1.444   4.695
 9036SOL    HW228008   0.314   1.469   4.636
 9037SOL     OW28009   2.381   4.669   6.578
 9037SOL    HW128010   2.403   4.587   6.631
 9037SOL    HW228011   2.303   4.716   6.620
 9038SOL     OW28012   3.816   5.782   5.416
 9038SOL    HW128013   3.829   5.779   5.516
 9038SOL    HW228014   3.718   5.776   5.396
 9039SOL     OW28015   2.781   4.873   0.202
 9039SOL    HW128016   2.736   4.794   0.244
 9039SOL    HW228017   2.793   4.857   0.104
 9040SOL     OW28018   3.691   1.649   2.411
 9040SOL    HW128019   3.667   1.679   2.503
 9040SOL    HW228020   3.769   1.586   2.415
 9041SOL     OW28021   2.355   2.485   4.853
 9041SOL    HW128022   2.334   2.582   4.870
 9041SOL    HW228023   2.310   2.429   4.922
 9042SOL     OW28024   1.798   4.939   2.386
 9042SOL    HW128025   1.865   4.915   2.456
 9042SOL    HW228026   1.839   4.928   2.296
 9043SOL     OW28027   0.557   1.237   0.108
 9043SOL    HW128028   0.547   1.169   0.036
 9043SOL    HW228029   0.468   1.277   0.129
 9044SOL     OW28030   0.700   3.877   0.522
 9044SOL    HW128031   0.694   3.848   0.618
 9044SOL    HW228032   0.797   3.884   0.496
 9045SOL     OW28033   2.125   4.535   5.105
 9045SOL    HW128034   2.142   4.591   5.186
 9045SOL    HW228035   2.178   4.451   5.112
 9046SOL     OW28036   3.542   4.293   5.666
 9046SOL    HW128037   3.469   4.256   5.608
 9046SOL    HW228038   3.504   4.323   5.753
 9047SOL     OW28039   1.077   4.477   4.376
 9047SOL    HW128040   1.163   4.516   4.409
 9047SOL    HW228041   1.093   4.385   4.341
 9048SOL     OW28042   1.317   2.524   5.392
 9048SOL    HW128043   1.398   2.561   5.347
 9048SOL    HW228044   1.336   2.511   5.490
 9049SOL     OW28045   4.437   6.043   5.877
 9049SOL    HW128046   4.436   6.114   5.947
 9049SOL    HW228047   4.459   6.084   5.788
 9050SOL     OW28048   0.297   3.920   6.871
 9050SOL    HW128049   0.275   3.951   6.963
 9050SOL    HW228050   0.299   3.999   6.809
 9051SOL     OW28051   0.108   6.261   6.171
 9051SOL    HW128052   0.153   6.175   6.149
 9051SOL    HW228053   0.019   6.265   6.126
 9052SOL     OW28054   2.379   4.760   4.704
 9052SOL    HW128055   2.352   4.826   4.634
 9052SOL    HW228056   2.478   4.763   4.717
 9053SOL     OW28057   1.710   6.963   2.505
 9053SOL    HW128058   1.758   6.895   2.450
 9053SOL    HW228059   1.752   6.969   2.596
 9054SOL     OW28060   1.456   6.922   2.068
 9054SOL    HW128061   1.548   6.904   2.104
 9054SOL    HW228062   1.456   6.906   1.969
 9055SOL     OW28063   1.740   2.608   5.116
 9055SOL    HW128064   1.697   2.678   5.059
 9055SOL    HW228065   1.766   2.648   5.204
 9056SOL     OW28066   5.103   2.072   1.410
 9056SOL    HW128067   5.058   2.142   1.355
 9056SOL    HW228068   5.200   2.096   1.422
 9057SOL     OW28069   3.257   6.765   6.059
 9057SOL    HW128070   3.282   6.681   6.010
 9057SOL    HW228071   3.336   6.798   6.111
 9058SOL     OW28072   2.220   3.114   3.877
 9058SOL    HW128073   2.234   3.116   3.778
 9058SOL    HW228074   2.199   3.021   3.906
 9059SOL     OW28075   0.072   0.574   2.347
 9059SOL    HW128076   0.121   0.487   2.340
 9059SOL    HW228077   0.062   0.598   2.444
 9060SOL     OW28078   0.589   5.160   6.656
 9060SOL    HW128079   0.545   5.172   6.567
 9060SOL    HW228080   0.524   5.183   6.728
 9061SOL     OW28081   3.820   4.914   2.289
 9061SOL    HW128082   3.726   4.948   2.293
 9061SOL    HW228083   3.850   4.910   2.193
 9062SOL     OW28084   0.269   5.871   2.965
 9062SOL    HW128085   0.337   5.823   3.022
 9062SOL    HW228086   0.280   5.970   2.975
 9063SOL     OW28087   6.216   6.780   1.016
 9063SOL    HW128088   6.139   6.805   1.074
 9063SOL    HW228089   6.232   6.682   1.022
 9064SOL     OW28090   1.270   5.781   2.846
 9064SOL    HW128091   1.226   5.811   2.761
 9064SOL    HW228092   1.345   5.719   2.825
 9065SOL     OW28093   3.248   3.973   6.797
 9065SOL    HW128094   3.328   3.963   6.738
 9065SOL    HW228095   3.262   4.053   6.857
 9066SOL     OW28096   5.362   4.910   2.897
 9066SOL    HW128097   5.453   4.903   2.856
 9066SOL    HW228098   5.319   4.820   2.898
 9067SOL     OW28099   1.978   0.270   4.386
 9067SOL    HW128100   1.940   0.225   4.468
 9067SOL    HW228101   1.959   0.214   4.306
 9068SOL     OW28102   5.160   0.320   5.534
 9068SOL    HW128103   5.102   0.239   5.527
 9068SOL    HW228104   5.242   0.298   5.589
 9069SOL     OW28105   4.709   2.280   2.086
 9069SOL    HW128106   4.679   2.245   2.175
 9069SOL    HW228107   4.665   2.368   2.068
 9070SOL     OW28108   0.783   0.506   6.868
 9070SOL    HW128109   0.831   0.429   6.911
 9070SOL    HW228110   0.727   0.472   6.793
 9071SOL     OW28111   5.439   2.725   0.295
 9071SOL    HW128112   5.379   2.673   0.235
 9071SOL    HW228113   5.392   2.742   0.382
 9072SOL     OW28114   6.365   1.140   1.889
 9072SOL    HW128115   6.434   1.122   1.819
 9072SOL    HW228116   6.284   1.181   1.848
 9073SOL     OW28117   4.948   2.693   6.203
 9073SOL    HW128118   4.884   2.714   6.129
 9073SOL    HW228119   4.968   2.595   6.203
 9074SOL     OW28120   2.118   0.630   3.545
 9074SOL    HW128121   2.054   0.632   3.469
 9074SOL    HW228122   2.211   0.622   3.509
 9075SOL     OW28123   5.189   5.772   1.224
 9075SOL    HW128124   5.219   5.689   1.176
 9075SOL    HW228125   5.269   5.824   1.252
 9076SOL     OW28126   1.359   6.678   2.544
 9076SOL    HW128127   1.290   6.724   2.600
 9076SOL    HW228128   1.318   6.596   2.503
 9077SOL     OW28129   6.698   1.165   6.606
 9077SOL    HW128130   6.654   1.075   6.617
 9077SOL    HW228131   6.791   1.161   6.640
 9078SOL     OW28132   5.122   6.723   6.462
 9078SOL    HW128133   5.180   6.780   6.403
 9078SOL    HW228134   5.166   6.715   6.552
 9079SOL     OW28135   2.190   1.815   6.527
 9079SOL    HW128136   2.169   1.840   6.432
 9079SOL    HW228137   2.268   1.754   6.529
 9080SOL     OW28138   6.347   4.640   0.806
 9080SOL    HW128139   6.259   4.654   0.852
 9080SOL    HW228140   6.331   4.625   0.709
 9081SOL     OW28141   4.508   1.246   6.583
 9081SOL    HW128142   4.422   1.285   6.616
 9081SOL    HW228143   4.517   1.266   6.485
 9082SOL     OW28144   3.073   4.722   6.237
 9082SOL    HW128145   3.122   4.758   6.316
 9082SOL    HW228146   3.139   4.689   6.169
 9083SOL     OW28147   4.028   0.256   1.150
 9083SOL    HW128148   3.983   0.279   1.236
 9083SOL    HW228149   4.089   0.178   1.163
 9084SOL     OW28150   6.687   4.827   4.569
 9084SOL    HW128151   6.787   4.834   4.577
 9084SOL    HW228152   6.664   4.778   4.484
 9085SOL     OW28153   3.282   4.793   1.611
 9085SOL    HW128154   3.288   4.763   1.516
 9085SOL    HW228155   3.186   4.815   1.632
 9086SOL     OW28156   6.916   1.701   0.327
 9086SOL    HW128157   6.939   1.692   0.424
 9086SOL    HW228158   6.845   1.634   0.304
 9087SOL     OW28159   4.681   1.336   0.598
 9087SOL    HW128160   4.674   1.348   0.697
 9087SOL    HW228161   4.607   1.276   0.567
 9088SOL     OW28162   5.094   6.791   0.378
 9088SOL    HW128163   5.180   6.839   0.396
 9088SOL    HW228164   5.071   6.733   0.456
 9089SOL     OW28165   5.329   5.660   2.942
 9089SOL    HW128166   5.345   5.755   2.914
 9089SOL    HW228167   5.325   5.655   3.042
 9090SOL     OW28168   5.947   5.234   5.234
 9090SOL    HW128169   6.038   5.266   5.209
 9090SOL    HW228170   5.907   5.297   5.301
 9091SOL     OW28171   1.921   1.869   1.989
 9091SOL    HW128172   1.843   1.887   1.929
 9091SOL    HW228173   1.984   1.946   1.986
 9092SOL     OW28174   3.184   1.674   5.485
 9092SOL    HW128175   3.166   1.739   5.412
 9092SOL    HW228176   3.098   1.633   5.515
 9093SOL     OW28177   1.918   3.525   0.506
 9093SOL    HW128178   1.894   3.448   0.448
 9093SOL    HW228179   1.837   3.558   0.554
 9094SOL     OW28180   6.751   2.370   6.764
 9094SOL    HW128181   6.847   2.370   6.793
 9094SOL    HW228182   6.713   2.462   6.777
 9095SOL     OW28183   2.251   2.646   0.478
 9095SOL    HW128184   2.279   2.552   0.496
 9095SOL    HW228185   2.289   2.676   0.391
 9096SOL     OW28186   6.931   4.181   2.704
 9096SOL    HW128187   6.946   4.242   2.781
 9096SOL    HW228188   6.986   4.098   2.716
 9097SOL     OW28189   6.866   6.039   6.093
 9097SOL    HW128190   6.811   6.121   6.105
 9097SOL    HW228191   6.816   5.959   6.127
 9098SOL     OW28192   3.717   3.323   5.522
 9098SOL    HW128193   3.802   3.359   5.485
 9098SOL    HW228194   3.737   3.261   5.598
 9099SOL     OW28195   1.953   2.693   6.866
 9099SOL    HW128196   1.904   2.780   6.856
 9099SOL    HW228197   2.042   2.709   6.907
 9100SOL     OW28198   1.438   2.662   0.632
 9100SOL    HW128199   1.458   2.760   0.630
 9100SOL    HW228200   1.477   2.618   0.552
 9101SOL     OW28201   2.346   2.207   0.182
 9101SOL    HW128202   2.301   2.124   0.148
 9101SOL    HW228203   2.442   2.207   0.154
 9102SOL     OW28204   4.513   6.357   2.598
 9102SOL    HW128205   4.453   6.430   2.628
 9102SOL    HW228206   4.589   6.347   2.663
 9103SOL     OW28207   1.332   4.322   6.305
 9103SOL    HW128208   1.294   4.257   6.371
 9103SOL    HW228209   1.257   4.363   6.252
 9104SOL     OW28210   4.512   6.679   2.817
 9104SOL    HW128211   4.547   6.771   2.831
 9104SOL    HW228212   4.429   6.665   2.872
 9105SOL     OW28213   3.574   2.480   6.196
 9105SOL    HW128214   3.633   2.560   6.205
 9105SOL    HW228215   3.574   2.449   6.101
 9106SOL     OW28216   6.425   5.674   1.096
 9106SOL    HW128217   6.515   5.687   1.056
 9106SOL    HW228218   6.374   5.760   1.094
 9107SOL     OW28219   4.960   6.515   6.370
 9107SOL    HW128220   5.024   6.586   6.399
 9107SOL    HW228221   5.009   6.428   6.361
 9108SOL     OW28222   3.739   5.533   0.934
 9108SOL    HW128223   3.734   5.453   0.874
 9108SOL    HW228224   3.724   5.505   1.029
 9109SOL     OW28225   3.545   2.049   4.127
 9109SOL    HW128226   3.517   2.071   4.034
 9109SOL    HW228227   3.537   2.130   4.185
 9110SOL     OW28228   0.655   3.830   4.225
 9110SOL    HW128229   0.747   3.831   4.263
 9110SOL    HW228230   0.598   3.765   4.275
 9111SOL     OW28231   3.474   4.261   1.651
 9111SOL    HW128232   3.461   4.216   1.739
 9111SOL    HW228233   3.491   4.358   1.665
 9112SOL     OW28234   1.178   6.520   2.380
 9112SOL    HW128235   1.188   6.614   2.345
 9112SOL    HW228236   1.195   6.455   2.306
 9113SOL     OW28237   2.406   5.685   6.924
 9113SOL    HW128238   2.411   5.599   6.976
 9113SOL    HW228239   2.423   5.762   6.985
 9114SOL     OW28240   2.457   3.480   1.615
 9114SOL    HW128241   2.547   3.510   1.646
 9114SOL    HW228242   2.406   3.445   1.694
 9115SOL     OW28243   1.643   4.382   4.543
 9115SOL    HW128244   1.645   4.400   4.445
 9115SOL    HW228245   1.551   4.400   4.578
 9116SOL     OW28246   3.400   2.448   6.833
 9116SOL    HW128247   3.480   2.508   6.841
 9116SOL    HW228248   3.414   2.365   6.887
 9117SOL     OW28249   0.738   2.570   6.725
 9117SOL    HW128250   0.710   2.474   6.719
 9117SOL    HW228251   0.721   2.615   6.637
 9118SOL     OW28252   0.465   6.725   1.696
 9118SOL    HW128253   0.534   6.734   1.625
 9118SOL    HW228254   0.479   6.639   1.745
 9119SOL     OW28255   5.648   6.925   1.198
 9119SOL    HW128256   5.693   6.930   1.109
 9119SOL    HW228257   5.581   6.851   1.198
 9120SOL     OW28258   6.022   0.287   0.413
 9120SOL    HW128259   5.990   0.280   0.319
 9120SOL    HW228260   5.957   0.342   0.466
 9121SOL     OW28261   1.465   1.134   6.558
 9121SOL    HW128262   1.495   1.210   6.616
 9121SOL    HW228263   1.500   1.048   6.595
 9122SOL     OW28264   0.427   3.304   0.991
 9122SOL    HW128265   0.378   3.225   0.953
 9122SOL    HW228266   0.511   3.273   1.035
 9123SOL     OW28267   0.988   6.413   6.048
 9123SOL    HW128268   0.917   6.344   6.060
 9123SOL    HW228269   1.073   6.370   6.018
 9124SOL     OW28270   0.268   4.194   4.642
 9124SOL    HW128271   0.213   4.142   4.577
 9124SOL    HW228272   0.348   4.231   4.595
 9125SOL     OW28273   4.957   5.900   1.282
 9125SOL    HW128274   4.906   5.957   1.218
 9125SOL    HW228275   5.035   5.859   1.235
 9126SOL     OW28276   5.797   0.682   3.061
 9126SOL    HW128277   5.739   0.617   3.110
 9126SOL    HW228278   5.864   0.632   3.006
 9127SOL     OW28279   5.985   5.325   5.696
 9127SOL    HW128280   5.920   5.358   5.765
 9127SOL    HW228281   6.078   5.345   5.726
 9128SOL     OW28282   4.821   2.806   5.439
 9128SOL    HW128283   4.809   2.837   5.345
 9128SOL    HW228284   4.751   2.849   5.497
 9129SOL     OW28285   2.884   1.276   0.502
 9129SOL    HW128286   2.827   1.254   0.581
 9129SOL    HW228287   2.846   1.233   0.420
 9130SOL     OW28288   5.600   5.374   0.687
 9130SOL    HW128289   5.514   5.426   0.685
 9130SOL    HW228290   5.669   5.423   0.633
 9131SOL     OW28291   1.147   4.557   4.010
 9131SOL    HW128292   1.145   4.656   4.028
 9131SOL    HW228293   1.240   4.523   4.026
 9132SOL     OW28294   1.317   2.697   4.070
 9132SOL    HW128295   1.274   2.767   4.127
 9132SOL    HW228296   1.323   2.729   3.976
 9133SOL     OW28297   1.463   5.377   0.632
 9133SOL    HW128298   1.439   5.368   0.729
 9133SOL    HW228299   1.382   5.363   0.576
 9134SOL     OW28300   3.029   5.143   6.220
 9134SOL    HW128301   3.066   5.215   6.161
 9134SOL    HW228302   2.977   5.078   6.165
 9135SOL     OW28303   1.115   6.505   3.262
 9135SOL    HW128304   1.147   6.496   3.168
 9135SOL    HW228305   1.183   6.555   3.316
 9136SOL     OW28306   3.436   5.164   5.358
 9136SOL    HW128307   3.467   5.078   5.318
 9136SOL    HW228308   3.470   5.171   5.452
 9137SOL     OW28309   3.978   0.689   2.432
 9137SOL    HW128310   3.902   0.640   2.474
 9137SOL    HW228311   4.057   0.628   2.425
 9138SOL     OW28312   3.265   4.982   1.206
 9138SOL    HW128313   3.309   5.040   1.274
 9138SOL    HW228314   3.271   4.887   1.235
 9139SOL     OW28315   3.751   0.690   5.616
 9139SOL    HW128316   3.654   0.670   5.629
 9139SOL    HW228317   3.804   0.652   5.692
 9140SOL     OW28318   6.291   2.587   3.401
 9140SOL    HW128319   6.222   2.658   3.393
 9140SOL    HW228320   6.382   2.628   3.405
 9141SOL     OW28321   5.373   0.709   5.523
 9141SOL    HW128322   5.436   0.637   5.494
 9141SOL    HW228323   5.383   0.726   5.621
 9142SOL     OW28324   1.821   3.772   6.559
 9142SOL    HW128325   1.731   3.775   6.602
 9142SOL    HW228326   1.839   3.680   6.525
 9143SOL     OW28327   6.166   4.450   6.927
 9143SOL    HW128328   6.237   4.475   6.861
 9143SOL    HW228329   6.077   4.448   6.882
 9144SOL     OW28330   1.063   5.248   4.250
 9144SOL    HW128331   1.072   5.234   4.151
 9144SOL    HW228332   1.109   5.333   4.275
 9145SOL     OW28333   1.233   3.525   6.616
 9145SOL    HW128334   1.267   3.431   6.606
 9145SOL    HW228335   1.286   3.572   6.687
 9146SOL     OW28336   0.976   1.572   1.067
 9146SOL    HW128337   0.988   1.644   0.999
 9146SOL    HW228338   1.058   1.565   1.124
 9147SOL     OW28339   3.858   5.775   6.334
 9147SOL    HW128340   3.931   5.824   6.286
 9147SOL    HW228341   3.881   5.678   6.339
 9148SOL     OW28342   3.359   4.866   2.811
 9148SOL    HW128343   3.387   4.954   2.774
 9148SOL    HW228344   3.270   4.840   2.773
 9149SOL     OW28345   6.168   3.090   5.285
 9149SOL    HW128346   6.210   3.022   5.346
 9149SOL    HW228347   6.133   3.044   5.203
 9150SOL     OW28348   3.952   1.484   2.905
 9150SOL    HW128349   3.980   1.401   2.953
 9150SOL    HW228350   4.005   1.562   2.940
 9151SOL     OW28351   6.128   3.058   2.530
 9151SOL    HW128352   6.054   3.001   2.565
 9151SOL    HW228353   6.216   3.025   2.565
 9152SOL     OW28354   2.160   4.937   3.061
 9152SOL    HW128355   2.246   4.987   3.063
 9152SOL    HW228356   2.101   4.975   2.989
 9153SOL     OW28357   2.298   3.010   0.283
 9153SOL    HW128358   2.325   3.104   0.262
 9153SOL    HW228359   2.201   2.998   0.261
 9154SOL     OW28360   0.972   5.520   0.648
 9154SOL    HW128361   0.891   5.480   0.690
 9154SOL    HW228362   0.969   5.507   0.549
 9155SOL     OW28363   1.690   4.754   0.204
 9155SOL    HW128364   1.732   4.789   0.288
 9155SOL    HW228365   1.699   4.655   0.202
 9156SOL     OW28366   5.030   2.732   1.468
 9156SOL    HW128367   5.038   2.816   1.522
 9156SOL    HW228368   4.985   2.753   1.381
 9157SOL     OW28369   5.673   3.606   5.393
 9157SOL    HW128370   5.750   3.553   5.358
 9157SOL    HW228371   5.684   3.621   5.491
 9158SOL     OW28372   1.061   4.260   3.959
 9158SOL    HW128373   1.153   4.225   3.978
 9158SOL    HW228374   1.033   4.321   4.033
 9159SOL     OW28375   7.015   5.109   1.787
 9159SOL    HW128376   0.010   5.105   1.688
 9159SOL    HW228377   0.077   5.146   1.831
 9160SOL     OW28378   0.579   0.076   1.036
 9160SOL    HW128379   0.598   0.039   0.945
 9160SOL    HW228380   0.662   0.068   1.093
 9161SOL     OW28381   5.300   3.588   2.357
 9161SOL    HW128382   5.346   3.578   2.268
 9161SOL    HW228383   5.201   3.586   2.344
 9162SOL     OW28384   5.042   2.602   3.570
 9162SOL    HW128385   5.108   2.599   3.495
 9162SOL    HW228386   4.949   2.593   3.534
 9163SOL     OW28387   3.599   0.911   5.042
 9163SOL    HW128388   3.664   0.953   4.978
 9163SOL    HW228389   3.647   0.845   5.099
 9164SOL     OW28390   2.657   0.553   0.960
 9164SOL    HW128391   2.600   0.636   0.968
 9164SOL    HW228392   2.636   0.507   0.874
 9165SOL     OW28393   5.056   6.045   0.895
 9165SOL    HW128394   5.068   5.946   0.881
 9165SOL    HW228395   4.974   6.060   0.950
 9166SOL     OW28396   2.905   5.477   0.770
 9166SOL    HW128397   2.946   5.491   0.681
 9166SOL    HW228398   2.809   5.506   0.768
 9167SOL     OW28399   0.452   3.505   4.583
 9167SOL    HW128400   0.381   3.537   4.520
 9167SOL    HW228401   0.513   3.442   4.535
 9168SOL     OW28402   3.435   0.493   0.793
 9168SOL    HW128403   3.391   0.523   0.708
 9168SOL    HW228404   3.419   0.396   0.806
 9169SOL     OW28405   0.325   6.590   3.908
 9169SOL    HW128406   0.373   6.663   3.859
 9169SOL    HW228407   0.252   6.629   3.963
 9170SOL     OW28408   6.420   5.833   7.005
 9170SOL    HW128409   6.418   5.833   6.905
 9170SOL    HW228410   6.409   5.926   0.019
 9171SOL     OW28411   3.533   5.809   5.092
 9171SOL    HW128412   3.576   5.861   5.018
 9171SOL    HW228413   3.466   5.868   5.139
 9172SOL     OW28414   2.336   2.220   3.979
 9172SOL    HW128415   2.317   2.176   4.066
 9172SOL    HW228416   2.308   2.316   3.983
 9173SOL     OW28417   0.087   4.939   5.413
 9173SOL    HW128418   0.061   5.018   5.358
 9173SOL    HW228419   0.118   4.970   5.503
 9174SOL     OW28420   0.212   5.619   6.245
 9174SOL    HW128421   0.174   5.558   6.315
 9174SOL    HW228422   0.312   5.622   6.254
 9175SOL     OW28423   2.559   6.297   5.863
 9175SOL    HW128424   2.500   6.234   5.914
 9175SOL    HW228425   2.505   6.344   5.793
 9176SOL     OW28426   1.422   2.489   5.652
 9176SOL    HW128427   1.422   2.396   5.689
 9176SOL    HW228428   1.501   2.539   5.686
 9177SOL     OW28429   1.474   4.318   3.030
 9177SOL    HW128430   1.381   4.302   2.997
 9177SOL    HW228431   1.522   4.230   3.039
 9178SOL     OW28432   2.090   4.090   0.279
 9178SOL    HW128433   2.065   4.186   0.285
 9178SOL    HW228434   2.187   4.079   0.303
 9179SOL     OW28435   2.776   4.662   5.556
 9179SOL    HW128436   2.865   4.621   5.575
 9179SOL    HW228437   2.784   4.727   5.480
 9180SOL     OW28438   4.923   2.102   2.168
 9180SOL    HW128439   4.860   2.170   2.130
 9180SOL    HW228440   4.879   2.012   2.170
 9181SOL     OW28441   4.129   1.132   2.620
 9181SOL    HW128442   4.148   1.058   2.685
 9181SOL    HW228443   4.128   1.095   2.527
 9182SOL     OW28444   2.252   6.701   1.747
 9182SOL    HW128445   2.206   6.731   1.663
 9182SOL    HW228446   2.277   6.604   1.738
 9183SOL     OW28447   5.225   5.464   5.596
 9183SOL    HW128448   5.282   5.397   5.548
 9183SOL    HW228449   5.211   5.434   5.691
 9184SOL     OW28450   4.533   0.021   0.124
 9184SOL    HW128451   4.462   0.032   0.193
 9184SOL    HW228452   4.613   0.075   0.150
 9185SOL     OW28453   5.112   1.087   4.587
 9185SOL    HW128454   5.117   1.022   4.663
 9185SOL    HW228455   5.199   1.086   4.537
 9186SOL     OW28456   5.174   0.649   5.970
 9186SOL    HW128457   5.116   0.613   5.897
 9186SOL    HW228458   5.224   0.729   5.937
 9187SOL     OW28459   2.690   5.997   3.319
 9187SOL    HW128460   2.591   5.985   3.325
 9187SOL    HW228461   2.715   6.086   3.359
 9188SOL     OW28462   2.810   5.178   0.645
 9188SOL    HW128463   2.805   5.090   0.598
 9188SOL    HW228464   2.753   5.244   0.597
 9189SOL     OW28465   5.359   4.794   1.829
 9189SOL    HW128466   5.339   4.891   1.811
 9189SOL    HW228467   5.303   4.737   1.768
 9190SOL     OW28468   1.400   6.233   6.621
 9190SOL    HW128469   1.358   6.235   6.531
 9190SOL    HW228470   1.494   6.200   6.614
 9191SOL     OW28471   0.127   1.007   5.798
 9191SOL    HW128472   0.181   0.923   5.804
 9191SOL    HW228473   0.151   1.067   5.875
 9192SOL     OW28474   1.133   3.291   5.441
 9192SOL    HW128475   1.229   3.310   5.422
 9192SOL    HW228476   1.079   3.305   5.358
 9193SOL     OW28477   3.374   3.891   0.602
 9193SOL    HW128478   3.341   3.852   0.516
 9193SOL    HW228479   3.393   3.818   0.667
 9194SOL     OW28480   3.179   0.746   4.226
 9194SOL    HW128481   3.213   0.667   4.175
 9194SOL    HW228482   3.220   0.830   4.189
 9195SOL     OW28483   1.868   1.225   4.007
 9195SOL    HW128484   1.864   1.315   3.964
 9195SOL    HW228485   1.779   1.201   4.046
 9196SOL     OW28486   5.023   1.230   6.138
 9196SOL    HW128487   5.117   1.199   6.152
 9196SOL    HW228488   4.963   1.186   6.204
 9197SOL     OW28489   2.635   3.693   0.567
 9197SOL    HW128490   2.712   3.733   0.517
 9197SOL    HW228491   2.617   3.745   0.650
 9198SOL     OW28492   0.976   4.764   4.718
 9198SOL    HW128493   0.952   4.761   4.816
 9198SOL    HW228494   0.917   4.700   4.668
 9199SOL     OW28495   5.686   4.692   4.825
 9199SOL    HW128496   5.602   4.727   4.866
 9199SOL    HW228497   5.691   4.721   4.729
 9200SOL     OW28498   2.846   6.677   0.316
 9200SOL    HW128499   2.905   6.747   0.358
 9200SOL    HW228500   2.757   6.717   0.295
 9201SOL     OW28501   2.370   4.381   0.895
 9201SOL    HW128502   2.402   4.456   0.953
 9201SOL    HW228503   2.275   4.398   0.869
 9202SOL     OW28504   2.618   1.012   3.644
 9202SOL    HW128505   2.706   1.055   3.667
 9202SOL    HW228506   2.634   0.926   3.595
 9203SOL     OW28507   6.857   6.599   1.171
 9203SOL    HW128508   6.796   6.649   1.109
 9203SOL    HW228509   6.914   6.665   1.221
 9204SOL     OW28510   5.901   0.895   5.508
 9204SOL    HW128511   5.877   0.836   5.431
 9204SOL    HW228512   5.927   0.839   5.587
 9205SOL     OW28513   0.317   5.522   2.340
 9205SOL    HW128514   0.232   5.574   2.338
 9205SOL    HW228515   0.302   5.437   2.390
 9206SOL     OW28516   3.708   0.325   0.317
 9206SOL    HW128517   3.740   0.284   0.231
 9206SOL    HW228518   3.739   0.270   0.394
 9207SOL     OW28519   5.507   5.809   5.860
 9207SOL    HW128520   5.450   5.889   5.880
 9207SOL    HW228521   5.448   5.728   5.851
 9208SOL     OW28522   1.130   3.483   2.787
 9208SOL    HW128523   1.035   3.452   2.800
 9208SOL    HW228524   1.134   3.583   2.797
 9209SOL     OW28525   2.418   5.991   6.796
 9209SOL    HW128526   2.334   5.942   6.769
 9209SOL    HW228527   2.433   6.068   6.734
 9210SOL     OW28528   6.346   0.879   3.929
 9210SOL    HW128529   6.402   0.798   3.910
 9210SOL    HW228530   6.348   0.939   3.848
 9211SOL     OW28531   0.985   1.547   3.103
 9211SOL    HW128532   1.029   1.508   3.184
 9211SOL    HW228533   0.891   1.575   3.126
 9212SOL     OW28534   3.863   5.175   4.651
 9212SOL    HW128535   3.857   5.199   4.554
 9212SOL    HW228536   3.891   5.254   4.704
 9213SOL     OW28537   6.132   3.815   0.018
 9213SOL    HW128538   6.209   3.783   0.073
 9213SOL    HW228539   6.073   3.874   0.073
 9214SOL     OW28540   0.354   5.280   0.304
 9214SOL    HW128541   0.258   5.257   0.289
 9214SOL    HW228542   0.411   5.204   0.274
 9215SOL     OW28543   0.957   1.131   0.750
 9215SOL    HW128544   0.926   1.159   0.659
 9215SOL    HW228545   0.884   1.082   0.797
 9216SOL     OW28546   1.981   0.090   3.903
 9216SOL    HW128547   1.944   0.183   3.905
 9216SOL    HW228548   2.042   0.080   3.824
 9217SOL     OW28549   0.546   2.158   0.378
 9217SOL    HW128550   0.617   2.185   0.313
 9217SOL    HW228551   0.480   2.098   0.332
 9218SOL     OW28552   2.459   1.209   0.832
 9218SOL    HW128553   2.432   1.255   0.747
 9218SOL    HW228554   2.514   1.129   0.810
 9219SOL     OW28555   6.014   1.487   0.485
 9219SOL    HW128556   6.048   1.414   0.543
 9219SOL    HW228557   5.938   1.534   0.531
 9220SOL     OW28558   2.885   6.464   0.533
 9220SOL    HW128559   2.885   6.527   0.611
 9220SOL    HW228560   2.879   6.516   0.448
 9221SOL     OW28561   2.906   4.823   4.776
 9221SOL    HW128562   2.885   4.786   4.866
 9221SOL    HW228563   2.861   4.911   4.765
 9222SOL     OW28564   3.164   2.153   0.052
 9222SOL    HW128565   3.104   2.227   0.023
 9222SOL    HW228566   3.129   2.066   0.017
 9223SOL     OW28567   2.665   3.177   5.372
 9223SOL    HW128568   2.597   3.141   5.307
 9223SOL    HW228569   2.642   3.148   5.464
 9224SOL     OW28570   2.445   4.505   5.090
 9224SOL    HW128571   2.471   4.588   5.040
 9224SOL    HW228572   2.407   4.438   5.026
 9225SOL     OW28573   1.645   5.753   6.873
 9225SOL    HW128574   1.632   5.754   6.972
 9225SOL    HW228575   1.560   5.781   6.828
 9226SOL     OW28576   4.846   6.047   1.078
 9226SOL    HW128577   4.765   5.989   1.072
 9226SOL    HW228578   4.819   6.143   1.076
 9227SOL     OW28579   1.330   6.344   1.232
 9227SOL    HW128580   1.311   6.435   1.268
 9227SOL    HW228581   1.374   6.289   1.304
 9228SOL     OW28582   0.517   6.396   6.260
 9228SOL    HW128583   0.547   6.434   6.172
 9228SOL    HW228584   0.420   6.416   6.274
 9229SOL     OW28585   1.026   6.079   5.076
 9229SOL    HW128586   1.006   6.027   4.993
 9229SOL    HW228587   1.099   6.034   5.128
 9230SOL     OW28588   4.794   1.669   3.334
 9230SOL    HW128589   4.707   1.705   3.302
 9230SOL    HW228590   4.780   1.577   3.371
 9231SOL     OW28591   2.126   3.375   3.495
 9231SOL    HW128592   2.088   3.410   3.580
 9231SOL    HW228593   2.055   3.327   3.443
 9232SOL     OW28594   4.583   5.355   1.027
 9232SOL    HW128595   4.515   5.367   0.954
 9232SOL    HW228596   4.643   5.279   1.005
 9233SOL     OW28597   5.623   4.555   0.008
 9233SOL    HW128598   5.645   4.626   6.962
 9233SOL    HW228599   5.663   4.578   0.097
 9234SOL     OW28600   1.653   5.947   3.985
 9234SOL    HW128601   1.580   5.967   3.919
 9234SOL    HW228602   1.684   6.032   4.027
 9235SOL     OW28603   0.920   2.472   3.237
 9235SOL    HW128604   0.911   2.499   3.141
 9235SOL    HW228605   1.006   2.423   3.250
 9236SOL     OW28606   3.472   2.628   6.492
 9236SOL    HW128607   3.486   2.727   6.487
 9236SOL    HW228608   3.406   2.601   6.422
 9237SOL     OW28609   1.576   3.727   3.155
 9237SOL    HW128610   1.509   3.800   3.139
 9237SOL    HW228611   1.547   3.644   3.106
 9238SOL     OW28612   4.309   3.556   6.698
 9238SOL    HW128613   4.289   3.631   6.634
 9238SOL    HW228614   4.396   3.573   6.743
 9239SOL     OW28615   2.224   3.035   6.456
 9239SOL    HW128616   2.246   3.123   6.414
 9239SOL    HW228617   2.153   3.048   6.525
 9240SOL     OW28618   4.633   0.997   2.292
 9240SOL    HW128619   4.719   1.024   2.335
 9240SOL    HW228620   4.651   0.945   2.208
 9241SOL     OW28621   0.228   5.849   5.652
 9241SOL    HW128622   0.260   5.874   5.744
 9241SOL    HW228623   0.285   5.894   5.583
 9242SOL     OW28624   5.385   6.486   2.076
 9242SOL    HW128625   5.436   6.568   2.053
 9242SOL    HW228626   5.366   6.484   2.174
 9243SOL     OW28627   5.563   0.155   4.356
 9243SOL    HW128628   5.652   0.163   4.400
 9243SOL    HW228629   5.574   0.126   4.261
 9244SOL     OW28630   3.788   5.995   0.557
 9244SOL    HW128631   3.729   6.000   0.477
 9244SOL    HW228632   3.819   6.087   0.581
 9245SOL     OW28633   0.373   6.803   1.938
 9245SOL    HW128634   0.295   6.745   1.960
 9245SOL    HW228635   0.411   6.776   1.850
 9246SOL     OW28636   0.082   5.040   3.760
 9246SOL    HW128637   0.096   5.138   3.768
 9246SOL    HW228638   0.043   5.005   3.844
 9247SOL     OW28639   1.252   0.545   3.063
 9247SOL    HW128640   1.266   0.621   2.998
 9247SOL    HW228641   1.223   0.582   3.151
 9248SOL     OW28642   4.202   1.770   6.303
 9248SOL    HW128643   4.235   1.789   6.395
 9248SOL    HW228644   4.245   1.687   6.269
 9249SOL     OW28645   4.314   6.508   3.766
 9249SOL    HW128646   4.265   6.498   3.853
 9249SOL    HW228647   4.325   6.418   3.723
 9250SOL     OW28648   4.837   3.828   3.069
 9250SOL    HW128649   4.920   3.802   3.117
 9250SOL    HW228650   4.817   3.925   3.085
 9251SOL     OW28651   3.773   1.690   2.116
 9251SOL    HW128652   3.744   1.600   2.082
 9251SOL    HW228653   3.762   1.694   2.215
 9252SOL     OW28654   1.709   6.731   4.413
 9252SOL    HW128655   1.691   6.816   4.364
 9252SOL    HW228656   1.804   6.702   4.396
 9253SOL     OW28657   1.307   6.683   6.366
 9253SOL    HW128658   1.265   6.773   6.359
 9253SOL    HW228659   1.235   6.613   6.377
 9254SOL     OW28660   4.789   2.059   1.119
 9254SOL    HW128661   4.712   2.113   1.083
 9254SOL    HW228662   4.873   2.113   1.115
 9255SOL     OW28663   0.007   5.134   0.268
 9255SOL    HW128664   0.080   5.113   0.334
 9255SOL    HW228665   6.938   5.115   0.309
 9256SOL     OW28666   4.083   5.136   2.912
 9256SOL    HW128667   4.147   5.206   2.944
 9256SOL    HW228668   4.084   5.059   2.975
 9257SOL     OW28669   0.363   3.416   0.728
 9257SOL    HW128670   0.269   3.446   0.716
 9257SOL    HW228671   0.374   3.371   0.817
 9258SOL     OW28672   3.470   2.899   4.714
 9258SOL    HW128673   3.391   2.911   4.775
 9258SOL    HW228674   3.438   2.872   4.623
 9259SOL     OW28675   1.535   2.526   0.410
 9259SOL    HW128676   1.485   2.461   0.353
 9259SOL    HW228677   1.633   2.515   0.395
 9260SOL     OW28678   6.885   3.903   0.069
 9260SOL    HW128679   6.813   3.911   0.138
 9260SOL    HW228680   6.940   3.822   0.088
 9261SOL     OW28681   2.618   6.766   5.563
 9261SOL    HW128682   2.527   6.799   5.589
 9261SOL    HW228683   2.612   6.672   5.531
 9262SOL     OW28684   5.917   0.187   6.375
 9262SOL    HW128685   5.943   0.146   6.462
 9262SOL    HW228686   5.998   0.193   6.316
 9263SOL     OW28687   6.139   4.149   2.236
 9263SOL    HW128688   6.093   4.062   2.217
 9263SOL    HW228689   6.078   4.209   2.287
 9264SOL     OW28690   5.542   2.317   0.343
 9264SOL    HW128691   5.640   2.338   0.350
 9264SOL    HW228692   5.488   2.395   0.374
 9265SOL     OW28693   1.703   2.326   5.187
 9265SOL    HW128694   1.752   2.391   5.130
 9265SOL    HW228695   1.663   2.255   5.129
 9266SOL     OW28696   2.936   6.413   2.579
 9266SOL    HW128697   3.025   6.378   2.608
 9266SOL    HW228698   2.913   6.374   2.490
 9267SOL     OW28699   3.159   5.059   5.914
 9267SOL    HW128700   3.144   5.151   5.949
 9267SOL    HW228701   3.076   5.027   5.868
 9268SOL     OW28702   1.470   0.939   3.066
 9268SOL    HW128703   1.530   0.966   2.991
 9268SOL    HW228704   1.392   1.001   3.070
 9269SOL     OW28705   4.249   1.344   5.311
 9269SOL    HW128706   4.292   1.280   5.246
 9269SOL    HW228707   4.317   1.373   5.378
 9270SOL     OW28708   1.843   0.630   5.616
 9270SOL    HW128709   1.920   0.693   5.620
 9270SOL    HW228710   1.870   0.543   5.658
 9271SOL     OW28711   0.432   5.070   5.642
 9271SOL    HW128712   0.481   5.093   5.726
 9271SOL    HW228713   0.460   5.134   5.569
 9272SOL     OW28714   2.200   5.241   6.550
 9272SOL    HW128715   2.125   5.277   6.494
 9272SOL    HW228716   2.214   5.300   6.629
 9273SOL     OW28717   3.721   6.075   6.220
 9273SOL    HW128718   3.678   5.994   6.180
 9273SOL    HW228719   3.813   6.086   6.183
 9274SOL     OW28720   5.128   2.275   2.250
 9274SOL    HW128721   5.079   2.341   2.307
 9274SOL    HW228722   5.065   2.205   2.217
 9275SOL     OW28723   0.027   0.560   5.797
 9275SOL    HW128724   6.964   0.600   5.836
 9275SOL    HW228725   0.105   0.582   5.855
 9276SOL     OW28726   4.614   6.793   4.299
 9276SOL    HW128727   4.674   6.748   4.365
 9276SOL    HW228728   4.541   6.731   4.272
 9277SOL     OW28729   4.765   2.667   6.942
 9277SOL    HW128730   4.828   2.596   6.909
 9277SOL    HW228731   4.674   2.651   6.903
 9278SOL     OW28732   1.470   2.553   1.193
 9278SOL    HW128733   1.455   2.497   1.112
 9278SOL    HW228734   1.441   2.503   1.274
 9279SOL     OW28735   2.196   6.083   0.387
 9279SOL    HW128736   2.245   6.171   0.390
 9279SOL    HW228737   2.263   6.008   0.387
 9280SOL     OW28738   1.582   0.381   2.809
 9280SOL    HW128739   1.485   0.397   2.790
 9280SOL    HW228740   1.597   0.377   2.908
 9281SOL     OW28741   1.993   2.534   0.125
 9281SOL    HW128742   2.031   2.469   0.059
 9281SOL    HW228743   2.029   2.625   0.107
 9282SOL     OW28744   3.855   1.356   6.735
 9282SOL    HW128745   3.909   1.280   6.698
 9282SOL    HW228746   3.793   1.390   6.664
 9283SOL     OW28747   5.221   2.387   2.844
 9283SOL    HW128748   5.286   2.329   2.795
 9283SOL    HW228749   5.130   2.345   2.840
 9284SOL     OW28750   3.696   4.063   2.007
 9284SOL    HW128751   3.644   3.987   2.046
 9284SOL    HW228752   3.782   4.074   2.057
 9285SOL     OW28753   6.306   2.874   6.229
 9285SOL    HW128754   6.352   2.833   6.307
 9285SOL    HW228755   6.208   2.855   6.235
 9286SOL     OW28756   5.576   5.492   3.884
 9286SOL    HW128757   5.486   5.494   3.929
 9286SOL    HW228758   5.647   5.485   3.953
 9287SOL     OW28759   3.110   0.020   2.637
 9287SOL    HW128760   3.052   0.088   2.591
 9287SOL    HW228761   3.090   0.021   2.735
 9288SOL     OW28762   4.567   2.208   6.662
 9288SOL    HW128763   4.525   2.150   6.731
 9288SOL    HW228764   4.501   2.276   6.629
 9289SOL     OW28765   5.587   3.983   2.744
 9289SOL    HW128766   5.538   3.943   2.666
 9289SOL    HW228767   5.639   4.062   2.713
 9290SOL     OW28768   4.275   2.178   4.373
 9290SOL    HW128769   4.229   2.191   4.461
 9290SOL    HW228770   4.319   2.263   4.345
 9291SOL     OW28771   1.111   2.541   5.243
 9291SOL    HW128772   1.201   2.533   5.286
 9291SOL    HW228773   1.123   2.573   5.149
 9292SOL     OW28774   0.606   3.865   0.249
 9292SOL    HW128775   0.615   3.858   0.348
 9292SOL    HW228776   0.649   3.949   0.217
 9293SOL     OW28777   5.814   4.179   6.138
 9293SOL    HW128778   5.869   4.204   6.058
 9293SOL    HW228779   5.874   4.167   6.217
 9294SOL     OW28780   5.443   5.942   6.369
 9294SOL    HW128781   5.452   5.843   6.369
 9294SOL    HW228782   5.401   5.972   6.283
 9295SOL     OW28783   4.757   2.808   3.504
 9295SOL    HW128784   4.782   2.802   3.407
 9295SOL    HW228785   4.720   2.898   3.523
 9296SOL     OW28786   6.043   0.580   5.040
 9296SOL    HW128787   6.110   0.637   5.088
 9296SOL    HW228788   5.977   0.639   4.992
 9297SOL     OW28789   0.608   0.275   1.951
 9297SOL    HW128790   0.662   0.221   2.015
 9297SOL    HW228791   0.525   0.225   1.927
 9298SOL     OW28792   0.881   6.676   4.740
 9298SOL    HW128793   0.898   6.736   4.818
 9298SOL    HW228794   0.870   6.582   4.772
 9299SOL     OW28795   1.893   2.844   4.320
 9299SOL    HW128796   1.904   2.750   4.353
 9299SOL    HW228797   1.880   2.906   4.397
 9300SOL     OW28798   6.039   4.774   3.673
 9300SOL    HW128799   5.952   4.732   3.647
 9300SOL    HW228800   6.099   4.781   3.593
 9301SOL     OW28801   6.690   4.835   1.360
 9301SOL    HW128802   6.686   4.741   1.391
 9301SOL    HW228803   6.604   4.859   1.314
 9302SOL     OW28804   1.525   1.969   2.336
 9302SOL    HW128805   1.474   2.014   2.409
 9302SOL    HW228806   1.462   1.924   2.272
 9303SOL     OW28807   4.739   3.942   0.590
 9303SOL    HW128808   4.707   3.992   0.670
 9303SOL    HW228809   4.751   4.005   0.514
 9304SOL     OW28810   4.636   3.843   1.034
 9304SOL    HW128811   4.602   3.915   0.974
 9304SOL    HW228812   4.571   3.829   1.109
 9305SOL     OW28813   4.906   3.774   1.829
 9305SOL    HW128814   4.923   3.861   1.784
 9305SOL    HW228815   4.854   3.714   1.768
 9306SOL     OW28816   6.769   5.775   3.488
 9306SOL    HW128817   6.754   5.790   3.391
 9306SOL    HW228818   6.821   5.691   3.502
 9307SOL     OW28819   2.072   0.826   5.951
 9307SOL    HW128820   2.024   0.894   6.006
 9307SOL    HW228821   2.015   0.744   5.943
 9308SOL     OW28822   6.998   2.524   0.367
 9308SOL    HW128823   0.038   2.480   0.434
 9308SOL    HW228824   6.951   2.601   0.411
 9309SOL     OW28825   5.211   3.114   6.422
 9309SOL    HW128826   5.238   3.091   6.516
 9309SOL    HW228827   5.159   3.038   6.383
 9310SOL     OW28828   3.682   6.767   1.581
 9310SOL    HW128829   3.667   6.760   1.482
 9310SOL    HW228830   3.768   6.816   1.597
 9311SOL     OW28831   6.882   3.782   1.593
 9311SOL    HW128832   6.845   3.716   1.527
 9311SOL    HW228833   6.815   3.796   1.667
 9312SOL     OW28834   1.849   4.016   4.897
 9312SOL    HW128835   1.944   4.019   4.867
 9312SOL    HW228836   1.804   4.103   4.876
 9313SOL     OW28837   6.345   6.903   2.583
 9313SOL    HW128838   6.260   6.881   2.536
 9313SOL    HW228839   6.417   6.840   2.553
 9314SOL     OW28840   6.745   4.165   0.141
 9314SOL    HW128841   6.745   4.134   0.046
 9314SOL    HW228842   6.712   4.091   0.200
 9315SOL     OW28843   0.308   6.014   6.285
 9315SOL    HW128844   0.221   5.975   6.316
 9315SOL    HW228845   0.339   6.081   6.352
 9316SOL     OW28846   3.051   5.199   4.512
 9316SOL    HW128847   3.003   5.241   4.435
 9316SOL    HW228848   3.020   5.105   4.524
 9317SOL     OW28849   4.492   3.929   5.637
 9317SOL    HW128850   4.467   3.832   5.647
 9317SOL    HW228851   4.587   3.941   5.666
 9318SOL     OW28852   6.765   6.801   6.054
 9318SOL    HW128853   6.701   6.751   6.112
 9318SOL    HW228854   6.858   6.768   6.071
 9319SOL     OW28855   6.098   3.851   4.570
 9319SOL    HW128856   6.028   3.860   4.501
 9319SOL    HW228857   6.137   3.759   4.566
 9320SOL     OW28858   3.911   2.942   5.872
 9320SOL    HW128859   3.953   2.870   5.817
 9320SOL    HW228860   3.837   2.903   5.927
 9321SOL     OW28861   5.875   6.339   4.561
 9321SOL    HW128862   5.888   6.310   4.656
 9321SOL    HW228863   5.903   6.435   4.552
 9322SOL     OW28864   1.263   6.099   0.724
 9322SOL    HW128865   1.341   6.151   0.759
 9322SOL    HW228866   1.240   6.026   0.789
 9323SOL     OW28867   0.849   1.247   6.368
 9323SOL    HW128868   0.832   1.160   6.414
 9323SOL    HW228869   0.781   1.261   6.296
 9324SOL     OW28870   1.331   5.228   6.691
 9324SOL    HW128871   1.283   5.284   6.758
 9324SOL    HW228872   1.387   5.160   6.739
 9325SOL     OW28873   0.359   2.696   6.512
 9325SOL    HW128874   0.293   2.621   6.524
 9325SOL    HW228875   0.446   2.670   6.552
 9326SOL     OW28876   2.344   5.819   1.722
 9326SOL    HW128877   2.289   5.740   1.695
 9326SOL    HW228878   2.422   5.789   1.777
 9327SOL     OW28879   2.254   1.887   3.888
 9327SOL    HW128880   2.338   1.940   3.886
 9327SOL    HW228881   2.275   1.790   3.894
 9328SOL     OW28882   2.663   1.079   2.610
 9328SOL    HW128883   2.690   1.161   2.660
 9328SOL    HW228884   2.574   1.094   2.566
 9329SOL     OW28885   0.603   4.080   2.045
 9329SOL    HW128886   0.688   4.035   2.018
 9329SOL    HW228887   0.554   4.022   2.111
 9330SOL     OW28888   5.219   6.341   6.779
 9330SOL    HW128889   5.245   6.382   6.866
 9330SOL    HW228890   5.233   6.406   6.705
 9331SOL     OW28891   0.900   1.476   0.282
 9331SOL    HW128892   0.818   1.467   0.338
 9331SOL    HW228893   0.948   1.388   0.279
 9332SOL     OW28894   3.573   4.041   5.326
 9332SOL    HW128895   3.617   3.968   5.273
 9332SOL    HW228896   3.626   4.058   5.408
 9333SOL     OW28897   5.204   6.134   1.146
 9333SOL    HW128898   5.174   6.165   1.056
 9333SOL    HW228899   5.124   6.130   1.207
 9334SOL     OW28900   2.308   6.952   4.290
 9334SOL    HW128901   2.406   6.929   4.292
 9334SOL    HW228902   2.294   0.023   4.327
 9335SOL     OW28903   0.313   1.554   1.852
 9335SOL    HW128904   0.331   1.594   1.762
 9335SOL    HW228905   0.355   1.464   1.857
 9336SOL     OW28906   2.854   0.095   5.307
 9336SOL    HW128907   2.885   0.092   5.211
 9336SOL    HW228908   2.925   0.137   5.363
 9337SOL     OW28909   4.552   6.776   3.202
 9337SOL    HW128910   4.453   6.778   3.190
 9337SOL    HW228911   4.592   6.857   3.157
 9338SOL     OW28912   2.334   6.856   2.350
 9338SOL    HW128913   2.353   6.800   2.430
 9338SOL    HW228914   2.414   6.858   2.291
 9339SOL     OW28915   3.773   5.514   1.681
 9339SOL    HW128916   3.689   5.528   1.732
 9339SOL    HW228917   3.814   5.603   1.659
 9340SOL     OW28918   6.517   2.785   0.444
 9340SOL    HW128919   6.586   2.713   0.447
 9340SOL    HW228920   6.529   2.839   0.361
 9341SOL     OW28921   0.728   4.096   5.550
 9341SOL    HW128922   0.731   3.996   5.549
 9341SOL    HW228923   0.697   4.127   5.640
 9342SOL     OW28924   1.548   0.693   0.044
 9342SOL    HW128925   1.545   0.777   0.098
 9342SOL    HW228926   1.578   0.714   6.972
 9343SOL     OW28927   5.906   6.367   3.709
 9343SOL    HW128928   6.004   6.369   3.689
 9343SOL    HW228929   5.889   6.414   3.795
 9344SOL     OW28930   5.121   6.403   0.584
 9344SOL    HW128931   5.116   6.392   0.485
 9344SOL    HW228932   5.191   6.471   0.607
 9345SOL     OW28933   0.518   2.201   0.634
 9345SOL    HW128934   0.532   2.175   0.538
 9345SOL    HW228935   0.578   2.279   0.656
 9346SOL     OW28936   5.697   0.995   0.690
 9346SOL    HW128937   5.601   0.976   0.672
 9346SOL    HW228938   5.705   1.054   0.771
 9347SOL     OW28939   1.769   6.286   2.178
 9347SOL    HW128940   1.816   6.317   2.261
 9347SOL    HW228941   1.704   6.215   2.201
 9348SOL     OW28942   3.078   4.802   0.215
 9348SOL    HW128943   2.979   4.815   0.222
 9348SOL    HW228944   3.097   4.707   0.190
 9349SOL     OW28945   1.210   6.236   2.648
 9349SOL    HW128946   1.148   6.312   2.663
 9349SOL    HW228947   1.244   6.238   2.553
 9350SOL     OW28948   0.225   3.145   5.441
 9350SOL    HW128949   0.205   3.049   5.458
 9350SOL    HW228950   0.160   3.183   5.376
 9351SOL     OW28951   3.089   6.579   6.717
 9351SOL    HW128952   3.118   6.538   6.804
 9351SOL    HW228953   3.100   6.678   6.722
 9352SOL     OW28954   2.711   5.050   6.023
 9352SOL    HW128955   2.706   5.016   5.929
 9352SOL    HW228956   2.788   5.006   6.070
 9353SOL     OW28957   5.935   1.061   1.299
 9353SOL    HW128958   5.878   1.031   1.222
 9353SOL    HW228959   5.941   0.987   1.367
 9354SOL     OW28960   1.153   1.254   5.957
 9354SOL    HW128961   1.172   1.158   5.978
 9354SOL    HW228962   1.239   1.304   5.946
 9355SOL     OW28963   1.151   1.725   5.149
 9355SOL    HW128964   1.152   1.672   5.064
 9355SOL    HW228965   1.191   1.815   5.132
 9356SOL     OW28966   3.721   7.011   4.028
 9356SOL    HW128967   3.703   6.990   4.124
 9356SOL    HW228968   3.761   0.082   4.021
 9357SOL     OW28969   1.951   2.399   0.465
 9357SOL    HW128970   1.888   2.463   0.422
 9357SOL    HW228971   2.031   2.385   0.407
 9358SOL     OW28972   1.018   1.944   1.011
 9358SOL    HW128973   1.023   2.030   0.961
 9358SOL    HW228974   0.980   1.873   0.952
 9359SOL     OW28975   1.028   0.606   5.233
 9359SOL    HW128976   0.976   0.692   5.226
 9359SOL    HW228977   0.986   0.538   5.173
 9360SOL     OW28978   0.007   0.679   5.532
 9360SOL    HW128979   0.066   0.624   5.473
 9360SOL    HW228980   0.017   0.649   5.627
 9361SOL     OW28981   2.016   5.793   4.129
 9361SOL    HW128982   2.108   5.819   4.161
 9361SOL    HW228983   1.963   5.759   4.206
 9362SOL     OW28984   1.773   0.412   2.615
 9362SOL    HW128985   1.734   0.396   2.524
 9362SOL    HW228986   1.701   0.404   2.683
 9363SOL     OW28987   1.957   2.563   2.552
 9363SOL    HW128988   2.005   2.512   2.480
 9363SOL    HW228989   1.878   2.511   2.582
 9364SOL     OW28990   0.383   2.065   6.468
 9364SOL    HW128991   0.358   1.969   6.459
 9364SOL    HW228992   0.482   2.074   6.459
 9365SOL     OW28993   2.537   1.185   5.497
 9365SOL    HW128994   2.577   1.162   5.409
 9365SOL    HW228995   2.461   1.249   5.484
 9366SOL     OW28996   3.256   6.797   2.221
 9366SOL    HW128997   3.224   6.891   2.213
 9366SOL    HW228998   3.269   6.758   2.130
 9367SOL     OW28999   6.794   0.095   1.354
 9367SOL    HW129000   6.771   0.190   1.333
 9367SOL    HW229001   6.878   0.092   1.409
 9368SOL     OW29002   2.342   0.480   3.043
 9368SOL    HW129003   2.266   0.473   3.107
 9368SOL    HW229004   2.394   0.564   3.062
 9369SOL     OW29005   4.131   5.125   1.032
 9369SOL    HW129006   4.208   5.170   1.078
 9369SOL    HW229007   4.138   5.140   0.933
 9370SOL     OW29008   4.567   2.522   5.421
 9370SOL    HW129009   4.512   2.584   5.365
 9370SOL    HW229010   4.613   2.456   5.362
 9371SOL     OW29011   4.217   4.768   0.882
 9371SOL    HW129012   4.258   4.858   0.870
 9371SOL    HW229013   4.259   4.721   0.960
 9372SOL     OW29014   4.811   6.865   0.926
 9372SOL    HW129015   4.725   6.843   0.971
 9372SOL    HW229016   4.863   6.928   0.983
 9373SOL     OW29017   0.293   2.128   1.513
 9373SOL    HW129018   0.219   2.061   1.511
 9373SOL    HW229019   0.375   2.086   1.553
 9374SOL     OW29020   6.810   5.183   6.170
 9374SOL    HW129021   6.886   5.123   6.194
 9374SOL    HW229022   6.845   5.264   6.122
 9375SOL     OW29023   1.836   1.343   6.720
 9375SOL    HW129024   1.880   1.432   6.714
 9375SOL    HW229025   1.848   1.307   6.813
 9376SOL     OW29026   3.279   3.799   0.363
 9376SOL    HW129027   3.290   3.860   0.284
 9376SOL    HW229028   3.248   3.709   0.331
 9377SOL     OW29029   1.197   0.661   3.322
 9377SOL    HW129030   1.166   0.739   3.376
 9377SOL    HW229031   1.292   0.639   3.345
 9378SOL     OW29032   3.998   1.466   5.312
 9378SOL    HW129033   3.932   1.391   5.317
 9378SOL    HW229034   4.088   1.432   5.341
 9379SOL     OW29035   4.045   0.374   4.699
 9379SOL    HW129036   4.032   0.277   4.681
 9379SOL    HW229037   4.070   0.420   4.615
 9380SOL     OW29038   5.306   6.386   1.224
 9380SOL    HW129039   5.314   6.290   1.198
 9380SOL    HW229040   5.234   6.396   1.293
 9381SOL     OW29041   5.007   0.824   4.949
 9381SOL    HW129042   4.953   0.759   4.895
 9381SOL    HW229043   5.079   0.863   4.891
 9382SOL     OW29044   2.970   5.612   6.479
 9382SOL    HW129045   3.047   5.597   6.542
 9382SOL    HW229046   2.941   5.525   6.440
 9383SOL     OW29047   6.050   3.971   1.633
 9383SOL    HW129048   5.976   4.008   1.577
 9383SOL    HW229049   6.081   3.884   1.594
 9384SOL     OW29050   4.140   0.238   0.640
 9384SOL    HW129051   4.090   0.222   0.725
 9384SOL    HW229052   4.154   0.336   0.627
 9385SOL     OW29053   3.952   2.217   4.122
 9385SOL    HW129054   3.958   2.127   4.165
 9385SOL    HW229055   4.020   2.223   4.048
 9386SOL     OW29056   5.547   0.164   1.070
 9386SOL    HW129057   5.589   0.104   1.138
 9386SOL    HW229058   5.595   0.252   1.069
 9387SOL     OW29059   2.546   2.042   6.644
 9387SOL    HW129060   2.545   1.959   6.700
 9387SOL    HW229061   2.567   2.121   6.702
 9388SOL     OW29062   2.486   6.951   4.717
 9388SOL    HW129063   2.508   6.865   4.671
 9388SOL    HW229064   2.401   6.939   4.769
 9389SOL     OW29065   2.122   3.777   1.800
 9389SOL    HW129066   2.103   3.693   1.852
 9389SOL    HW229067   2.038   3.832   1.795
 9390SOL     OW29068   6.104   5.256   3.970
 9390SOL    HW129069   6.038   5.267   3.896
 9390SOL    HW229070   6.138   5.346   3.997
 9391SOL     OW29071   0.624   4.688   3.931
 9391SOL    HW129072   0.687   4.752   3.887
 9391SOL    HW229073   0.617   4.709   4.028
 9392SOL     OW29074   3.677   5.235   2.562
 9392SOL    HW129075   3.766   5.274   2.541
 9392SOL    HW229076   3.689   5.144   2.602
 9393SOL     OW29077   2.084   5.119   6.899
 9393SOL    HW129078   2.075   5.119   6.999
 9393SOL    HW229079   2.146   5.046   6.871
 9394SOL     OW29080   4.602   0.466   6.800
 9394SOL    HW129081   4.550   0.516   6.870
 9394SOL    HW229082   4.578   0.500   6.710
 9395SOL     OW29083   0.619   1.023   1.513
 9395SOL    HW129084   0.561   1.037   1.433
 9395SOL    HW229085   0.710   0.995   1.484
 9396SOL     OW29086   1.175   1.162   6.543
 9396SOL    HW129087   1.259   1.122   6.506
 9396SOL    HW229088   1.141   1.233   6.480
 9397SOL     OW29089   3.352   1.499   5.605
 9397SOL    HW129090   3.288   1.460   5.671
 9397SOL    HW229091   3.309   1.577   5.559
 9398SOL     OW29092   6.559   2.353   6.536
 9398SOL    HW129093   6.550   2.274   6.476
 9398SOL    HW229094   6.571   2.323   6.630
 9399SOL     OW29095   1.091   2.156   4.698
 9399SOL    HW129096   1.022   2.175   4.768
 9399SOL    HW229097   1.174   2.208   4.719
 9400SOL     OW29098   6.177   1.124   1.158
 9400SOL    HW129099   6.189   1.220   1.183
 9400SOL    HW229100   6.093   1.089   1.199
 9401SOL     OW29101   0.070   1.824   3.423
 9401SOL    HW129102   0.006   1.841   3.498
 9401SOL    HW229103   0.022   1.780   3.347
 9402SOL     OW29104   3.637   6.157   5.452
 9402SOL    HW129105   3.624   6.209   5.367
 9402SOL    HW229106   3.734   6.139   5.466
 9403SOL     OW29107   5.565   1.967   1.343
 9403SOL    HW129108   5.650   1.983   1.393
 9403SOL    HW229109   5.585   1.916   1.259
 9404SOL     OW29110   2.552   2.793   0.802
 9404SOL    HW129111   2.551   2.891   0.822
 9404SOL    HW229112   2.465   2.767   0.761
 9405SOL     OW29113   6.007   5.620   4.910
 9405SOL    HW129114   5.974   5.607   5.004
 9405SOL    HW229115   5.994   5.535   4.858
 9406SOL     OW29116   1.488   0.745   0.821
 9406SOL    HW129117   1.522   0.830   0.779
 9406SOL    HW229118   1.541   0.726   0.904
 9407SOL     OW29119   1.980   4.768   4.731
 9407SOL    HW129120   2.066   4.724   4.759
 9407SOL    HW229121   1.994   4.817   4.645
 9408SOL     OW29122   6.025   5.057   3.648
 9408SOL    HW129123   6.049   4.979   3.707
 9408SOL    HW229124   5.980   5.023   3.565
 9409SOL     OW29125   5.907   5.668   1.473
 9409SOL    HW129126   6.005   5.687   1.473
 9409SOL    HW229127   5.884   5.613   1.392
 9410SOL     OW29128   4.312   0.019   0.527
 9410SOL    HW129129   4.254   0.099   0.519
 9410SOL    HW229130   4.369   0.010   0.446
 9411SOL     OW29131   3.331   3.734   4.445
 9411SOL    HW129132   3.371   3.664   4.385
 9411SOL    HW229133   3.287   3.689   4.523
 9412SOL     OW29134   3.964   6.858   1.524
 9412SOL    HW129135   4.001   6.923   1.590
 9412SOL    HW229136   4.013   6.771   1.532
 9413SOL     OW29137   4.137   4.946   3.122
 9413SOL    HW129138   4.215   4.901   3.165
 9413SOL    HW229139   4.075   4.979   3.193
 9414SOL     OW29140   2.113   0.938   2.414
 9414SOL    HW129141   2.098   0.935   2.315
 9414SOL    HW229142   2.154   1.025   2.440
 9415SOL     OW29143   4.760   0.765   0.947
 9415SOL    HW129144   4.820   0.833   0.904
 9415SOL    HW229145   4.776   0.764   1.046
 9416SOL     OW29146   6.455   4.590   5.490
 9416SOL    HW129147   6.452   4.502   5.442
 9416SOL    HW229148   6.362   4.625   5.501
 9417SOL     OW29149   3.794   6.192   3.086
 9417SOL    HW129150   3.695   6.188   3.072
 9417SOL    HW229151   3.814   6.206   3.183
 9418SOL     OW29152   2.791   2.176   4.752
 9418SOL    HW129153   2.725   2.167   4.827
 9418SOL    HW229154   2.748   2.223   4.675
 9419SOL     OW29155   2.540   2.395   6.120
 9419SOL    HW129156   2.602   2.316   6.121
 9419SOL    HW229157   2.566   2.459   6.192
 9420SOL     OW29158   5.318   3.270   5.815
 9420SOL    HW129159   5.384   3.210   5.769
 9420SOL    HW229160   5.249   3.300   5.749
 9421SOL     OW29161   3.603   6.874   0.283
 9421SOL    HW129162   3.567   6.962   0.253
 9421SOL    HW229163   3.693   6.859   0.242
 9422SOL     OW29164   1.931   6.081   5.995
 9422SOL    HW129165   2.021   6.119   6.016
 9422SOL    HW229166   1.920   6.070   5.897
 9423SOL     OW29167   4.767   4.871   0.618
 9423SOL    HW129168   4.738   4.778   0.598
 9423SOL    HW229169   4.701   4.914   0.680
 9424SOL     OW29170   6.072   6.974   3.831
 9424SOL    HW129171   6.111   6.943   3.744
 9424SOL    HW229172   6.134   0.022   3.872
 9425SOL     OW29173   6.730   5.605   1.406
 9425SOL    HW129174   6.822   5.644   1.414
 9425SOL    HW229175   6.734   5.522   1.350
 9426SOL     OW29176   4.255   2.004   6.192
 9426SOL    HW129177   4.180   2.063   6.223
 9426SOL    HW229178   4.241   1.911   6.225
 9427SOL     OW29179   3.729   5.479   2.392
 9427SOL    HW129180   3.637   5.442   2.403
 9427SOL    HW229181   3.752   5.481   2.294
 9428SOL     OW29182   0.218   6.302   4.741
 9428SOL    HW129183   0.175   6.301   4.832
 9428SOL    HW229184   0.317   6.293   4.751
 9429SOL     OW29185   2.927   2.225   4.119
 9429SOL    HW129186   2.903   2.129   4.107
 9429SOL    HW229187   2.890   2.257   4.207
 9430SOL     OW29188   1.444   6.648   3.737
 9430SOL    HW129189   1.497   6.585   3.793
 9430SOL    HW229190   1.497   6.676   3.658
 9431SOL     OW29191   1.499   4.819   5.057
 9431SOL    HW129192   1.592   4.786   5.038
 9431SOL    HW229193   1.436   4.784   4.988
 9432SOL     OW29194   6.825   1.556   2.808
 9432SOL    HW129195   6.769   1.575   2.888
 9432SOL    HW229196   6.915   1.524   2.837
 9433SOL     OW29197   3.940   5.513   1.897
 9433SOL    HW129198   3.884   5.503   1.815
 9433SOL    HW229199   3.997   5.595   1.889
 9434SOL     OW29200   4.846   5.841   5.088
 9434SOL    HW129201   4.770   5.806   5.142
 9434SOL    HW229202   4.899   5.905   5.143
 9435SOL     OW29203   6.565   3.780   6.360
 9435SOL    HW129204   6.504   3.707   6.391
 9435SOL    HW229205   6.513   3.845   6.304
 9436SOL     OW29206   2.701   2.054   2.721
 9436SOL    HW129207   2.709   2.107   2.637
 9436SOL    HW229208   2.656   1.967   2.702
 9437SOL     OW29209   4.772   1.076   3.709
 9437SOL    HW129210   4.778   1.167   3.669
 9437SOL    HW229211   4.824   1.073   3.794
 9438SOL     OW29212   5.108   0.233   2.964
 9438SOL    HW129213   5.104   0.333   2.956
 9438SOL    HW229214   5.169   0.208   3.039
 9439SOL     OW29215   1.835   4.643   1.327
 9439SOL    HW129216   1.896   4.604   1.396
 9439SOL    HW229217   1.871   4.732   1.298
 9440SOL     OW29218   1.954   5.312   4.620
 9440SOL    HW129219   1.954   5.406   4.588
 9440SOL    HW229220   1.900   5.305   4.704
 9441SOL     OW29221   6.733   6.096   4.222
 9441SOL    HW129222   6.776   6.117   4.133
 9441SOL    HW229223   6.636   6.078   4.209
 9442SOL     OW29224   6.589   2.689   1.000
 9442SOL    HW129225   6.564   2.689   0.903
 9442SOL    HW229226   6.668   2.630   1.014
 9443SOL     OW29227   1.949   4.601   1.564
 9443SOL    HW129228   2.016   4.530   1.538
 9443SOL    HW229229   1.951   4.614   1.663
 9444SOL     OW29230   2.299   5.694   5.733
 9444SOL    HW129231   2.354   5.708   5.816
 9444SOL    HW229232   2.284   5.782   5.688
 9445SOL     OW29233   0.979   1.175   4.046
 9445SOL    HW129234   0.909   1.105   4.042
 9445SOL    HW229235   1.040   1.158   4.124
 9446SOL     OW29236   5.614   5.248   3.744
 9446SOL    HW129237   5.560   5.168   3.720
 9446SOL    HW229238   5.553   5.326   3.758
 9447SOL     OW29239   5.793   5.337   2.087
 9447SOL    HW129240   5.815   5.288   2.003
 9447SOL    HW229241   5.711   5.393   2.072
 9448SOL     OW29242   4.700   2.747   6.555
 9448SOL    HW129243   4.707   2.677   6.625
 9448SOL    HW229244   4.768   2.818   6.572
 9449SOL     OW29245   4.600   6.601   3.408
 9449SOL    HW129246   4.700   6.591   3.410
 9449SOL    HW229247   4.574   6.658   3.330
 9450SOL     OW29248   0.442   0.091   2.553
 9450SOL    HW129249   0.483   0.105   2.463
 9450SOL    HW229250   0.398   0.175   2.583
 9451SOL     OW29251   4.248   5.720   0.427
 9451SOL    HW129252   4.239   5.738   0.525
 9451SOL    HW229253   4.281   5.627   0.414
 9452SOL     OW29254   6.391   2.780   5.981
 9452SOL    HW129255   6.317   2.773   5.914
 9452SOL    HW229256   6.354   2.819   6.066
 9453SOL     OW29257   6.777   4.694   2.599
 9453SOL    HW129258   6.833   4.684   2.681
 9453SOL    HW229259   6.801   4.623   2.533
 9454SOL     OW29260   5.526   5.419   0.190
 9454SOL    HW129261   5.439   5.442   0.233
 9454SOL    HW229262   5.578   5.356   0.249
 9455SOL     OW29263   4.365   0.785   1.552
 9455SOL    HW129264   4.406   0.743   1.633
 9455SOL    HW229265   4.335   0.714   1.488
 9456SOL     OW29266   6.148   2.825   2.257
 9456SOL    HW129267   6.222   2.780   2.207
 9456SOL    HW229268   6.172   2.921   2.271
 9457SOL     OW29269   6.628   6.341   4.311
 9457SOL    HW129270   6.674   6.376   4.393
 9457SOL    HW229271   6.676   6.261   4.278
 9458SOL     OW29272   6.896   4.521   0.078
 9458SOL    HW129273   6.976   4.569   0.114
 9458SOL    HW229274   6.843   4.483   0.154
 9459SOL     OW29275   5.055   4.360   4.995
 9459SOL    HW129276   4.965   4.316   4.997
 9459SOL    HW229277   5.045   4.457   5.016
 9460SOL     OW29278   2.013   3.052   3.296
 9460SOL    HW129279   2.072   3.001   3.233
 9460SOL    HW229280   1.994   2.996   3.377
 9461SOL     OW29281   1.666   2.091   1.128
 9461SOL    HW129282   1.691   1.996   1.142
 9461SOL    HW229283   1.746   2.150   1.141
 9462SOL     OW29284   0.059   1.266   5.332
 9462SOL    HW129285   0.051   1.363   5.353
 9462SOL    HW229286   0.098   1.218   5.411
 9463SOL     OW29287   6.992   5.260   0.683
 9463SOL    HW129288   6.922   5.270   0.612
 9463SOL    HW229289   6.949   5.255   0.773
 9464SOL     OW29290   0.928   0.335   2.147
 9464SOL    HW129291   0.916   0.434   2.156
 9464SOL    HW229292   1.024   0.311   2.158
 9465SOL     OW29293   0.645   5.984   0.133
 9465SOL    HW129294   0.710   6.053   0.166
 9465SOL    HW229295   0.661   5.967   0.035
 9466SOL     OW29296   3.909   4.136   5.695
 9466SOL    HW129297   3.945   4.227   5.716
 9466SOL    HW229298   3.890   4.087   5.779
 9467SOL     OW29299   1.203   3.757   1.444
 9467SOL    HW129300   1.289   3.789   1.484
 9467SOL    HW229301   1.127   3.809   1.485
 9468SOL     OW29302   6.311   1.880   1.356
 9468SOL    HW129303   6.342   1.823   1.280
 9468SOL    HW229304   6.235   1.834   1.403
 9469SOL     OW29305   6.332   6.695   2.107
 9469SOL    HW129306   6.364   6.697   2.012
 9469SOL    HW229307   6.232   6.704   2.108
 9470SOL     OW29308   3.762   3.574   0.868
 9470SOL    HW129309   3.757   3.667   0.832
 9470SOL    HW229310   3.847   3.531   0.838
 9471SOL     OW29311   6.537   2.759   4.669
 9471SOL    HW129312   6.563   2.810   4.751
 9471SOL    HW229313   6.564   2.663   4.679
 9472SOL     OW29314   2.115   4.232   5.694
 9472SOL    HW129315   2.196   4.217   5.636
 9472SOL    HW229316   2.106   4.156   5.758
 9473SOL     OW29317   2.694   3.280   1.667
 9473SOL    HW129318   2.715   3.349   1.736
 9473SOL    HW229319   2.771   3.271   1.604
 9474SOL     OW29320   6.155   4.393   0.712
 9474SOL    HW129321   6.076   4.357   0.761
 9474SOL    HW229322   6.129   4.475   0.661
 9475SOL     OW29323   6.146   3.444   6.937
 9475SOL    HW129324   6.142   3.470   0.013
 9475SOL    HW229325   6.132   3.525   6.880
 9476SOL     OW29326   3.892   4.235   0.901
 9476SOL    HW129327   3.927   4.142   0.890
 9476SOL    HW229328   3.956   4.289   0.955
 9477SOL     OW29329   1.429   5.412   0.899
 9477SOL    HW129330   1.334   5.387   0.919
 9477SOL    HW229331   1.464   5.471   0.971
 9478SOL     OW29332   6.800   3.186   5.441
 9478SOL    HW129333   6.817   3.215   5.535
 9478SOL    HW229334   6.759   3.262   5.390
 9479SOL     OW29335   4.275   1.089   2.007
 9479SOL    HW129336   4.327   1.128   2.083
 9479SOL    HW229337   4.179   1.117   2.015
 9480SOL     OW29338   5.271   0.735   0.635
 9480SOL    HW129339   5.370   0.732   0.620
 9480SOL    HW229340   5.226   0.772   0.554
 9481SOL     OW29341   4.498   0.373   3.727
 9481SOL    HW129342   4.597   0.362   3.721
 9481SOL    HW229343   4.461   0.315   3.799
 9482SOL     OW29344   6.035   4.089   5.667
 9482SOL    HW129345   6.106   4.159   5.666
 9482SOL    HW229346   5.955   4.124   5.717
 9483SOL     OW29347   5.776   5.338   6.844
 9483SOL    HW129348   5.871   5.361   6.863
 9483SOL    HW229349   5.770   5.246   6.806
 9484SOL     OW29350   1.722   5.329   4.085
 9484SOL    HW129351   1.794   5.289   4.142
 9484SOL    HW229352   1.764   5.387   4.015
 9485SOL     OW29353   0.185   1.342   5.651
 9485SOL    HW129354   0.152   1.262   5.601
 9485SOL    HW229355   0.284   1.337   5.662
 9486SOL     OW29356   6.757   5.734   6.228
 9486SOL    HW129357   6.785   5.669   6.299
 9486SOL    HW229358   6.718   5.815   6.270
 9487SOL     OW29359   3.245   3.357   4.113
 9487SOL    HW129360   3.284   3.397   4.031
 9487SOL    HW229361   3.148   3.381   4.119
 9488SOL     OW29362   1.341   0.847   2.452
 9488SOL    HW129363   1.295   0.877   2.536
 9488SOL    HW229364   1.273   0.830   2.381
 9489SOL     OW29365   6.825   4.085   6.899
 9489SOL    HW129366   6.844   4.019   6.972
 9489SOL    HW229367   6.907   4.142   6.885
 9490SOL     OW29368   5.612   3.645   5.106
 9490SOL    HW129369   5.639   3.618   5.198
 9490SOL    HW229370   5.682   3.703   5.066
 9491SOL     OW29371   4.625   0.063   2.233
 9491SOL    HW129372   4.637   0.030   2.139
 9491SOL    HW229373   4.531   0.048   2.262
 9492SOL     OW29374   4.862   3.232   3.766
 9492SOL    HW129375   4.893   3.220   3.860
 9492SOL    HW229376   4.794   3.161   3.744
 9493SOL     OW29377   2.902   6.618   2.899
 9493SOL    HW129378   2.838   6.610   2.975
 9493SOL    HW229379   2.944   6.529   2.881
 9494SOL     OW29380   5.026   2.743   2.924
 9494SOL    HW129381   5.044   2.779   2.832
 9494SOL    HW229382   4.962   2.667   2.918
 9495SOL     OW29383   5.311   2.588   1.231
 9495SOL    HW129384   5.278   2.522   1.299
 9495SOL    HW229385   5.384   2.547   1.177
 9496SOL     OW29386   6.543   3.163   1.029
 9496SOL    HW129387   6.510   3.163   0.935
 9496SOL    HW229388   6.487   3.225   1.084
 9497SOL     OW29389   5.084   4.228   4.655
 9497SOL    HW129390   4.988   4.204   4.671
 9497SOL    HW229391   5.121   4.273   4.736
 9498SOL     OW29392   0.648   6.046   5.682
 9498SOL    HW129393   0.718   6.073   5.616
 9498SOL    HW229394   0.693   6.014   5.766
 9499SOL     OW29395   5.849   6.752   3.721
 9499SOL    HW129396   5.768   6.704   3.686
 9499SOL    HW229397   5.848   6.847   3.688
 9500SOL     OW29398   2.934   1.802   0.800
 9500SOL    HW129399   2.928   1.788   0.701
 9500SOL    HW229400   2.905   1.894   0.823
 9501SOL     OW29401   1.597   3.418   5.479
 9501SOL    HW129402   1.634   3.484   5.413
 9501SOL    HW229403   1.504   3.395   5.454
 9502SOL     OW29404   5.838   4.575   3.835
 9502SOL    HW129405   5.929   4.535   3.848
 9502SOL    HW229406   5.802   4.604   3.923
 9503SOL     OW29407   6.232   0.603   0.182
 9503SOL    HW129408   6.198   0.652   0.262
 9503SOL    HW229409   6.196   0.646   0.099
 9504SOL     OW29410   6.562   5.091   2.791
 9504SOL    HW129411   6.611   5.112   2.707
 9504SOL    HW229412   6.627   5.072   2.864
 9505SOL     OW29413   5.078   3.049   0.355
 9505SOL    HW129414   5.140   3.032   0.279
 9505SOL    HW229415   4.992   3.087   0.320
 9506SOL     OW29416   3.784   1.335   1.548
 9506SOL    HW129417   3.871   1.287   1.541
 9506SOL    HW229418   3.797   1.431   1.526
 9507SOL     OW29419   6.989   6.023   1.934
 9507SOL    HW129420   6.948   6.114   1.938
 9507SOL    HW229421   6.950   5.971   1.859
 9508SOL     OW29422   5.291   1.406   2.198
 9508SOL    HW129423   5.234   1.474   2.151
 9508SOL    HW229424   5.380   1.400   2.153
 9509SOL     OW29425   6.025   1.402   3.962
 9509SOL    HW129426   5.951   1.338   3.982
 9509SOL    HW229427   6.014   1.485   4.017
 9510SOL     OW29428   1.495   3.592   2.252
 9510SOL    HW129429   1.456   3.520   2.194
 9510SOL    HW229430   1.470   3.681   2.215
 9511SOL     OW29431   0.825   1.643   0.619
 9511SOL    HW129432   0.726   1.653   0.633
 9511SOL    HW229433   0.842   1.561   0.563
 9512SOL     OW29434   6.170   2.691   1.577
 9512SOL    HW129435   6.074   2.702   1.602
 9512SOL    HW229436   6.210   2.781   1.556
 9513SOL     OW29437   4.933   3.880   4.697
 9513SOL    HW129438   4.910   3.974   4.722
 9513SOL    HW229439   4.912   3.864   4.601
 9514SOL     OW29440   3.544   3.323   1.337
 9514SOL    HW129441   3.543   3.267   1.420
 9514SOL    HW229442   3.462   3.306   1.283
 9515SOL     OW29443   6.900   6.092   3.224
 9515SOL    HW129444   6.813   6.043   3.223
 9515SOL    HW229445   6.963   6.044   3.285
 9516SOL     OW29446   0.909   3.008   6.693
 9516SOL    HW129447   0.952   3.076   6.753
 9516SOL    HW229448   0.814   2.995   6.721
 9517SOL     OW29449   1.007   6.964   2.271
 9517SOL    HW129450   0.952   6.945   2.190
 9517SOL    HW229451   1.089   6.908   2.270
 9518SOL     OW29452   6.971   0.570   1.334
 9518SOL    HW129453   6.939   0.538   1.245
 9518SOL    HW229454   7.000   0.491   1.389
 9519SOL     OW29455   1.435   2.847   5.716
 9519SOL    HW129456   1.484   2.783   5.776
 9519SOL    HW229457   1.501   2.893   5.657
 9520SOL     OW29458   4.359   6.851   2.131
 9520SOL    HW129459   4.289   6.846   2.202
 9520SOL    HW229460   4.370   6.945   2.101
 9521SOL     OW29461   5.750   4.826   3.038
 9521SOL    HW129462   5.804   4.901   3.000
 9521SOL    HW229463   5.722   4.765   2.964
 9522SOL     OW29464   3.278   5.104   5.640
 9522SOL    HW129465   3.239   5.162   5.568
 9522SOL    HW229466   3.221   5.109   5.722
 9523SOL     OW29467   1.611   0.013   5.090
 9523SOL    HW129468   1.648   6.998   5.004
 9523SOL    HW229469   1.513   7.013   5.095
 9524SOL     OW29470   6.295   3.678   0.280
 9524SOL    HW129471   6.211   3.646   0.325
 9524SOL    HW229472   6.336   3.603   0.229
 9525SOL     OW29473   4.266   6.757   4.535
 9525SOL    HW129474   4.175   6.722   4.512
 9525SOL    HW229475   4.298   6.816   4.461
 9526SOL     OW29476   4.664   5.219   0.306
 9526SOL    HW129477   4.615   5.292   0.259
 9526SOL    HW229478   4.748   5.197   0.255
 9527SOL     OW29479   6.775   1.323   0.483
 9527SOL    HW129480   6.740   1.369   0.564
 9527SOL    HW229481   6.814   1.234   0.508
 9528SOL     OW29482   5.532   1.309   1.568
 9528SOL    HW129483   5.479   1.329   1.486
 9528SOL    HW229484   5.523   1.213   1.592
 9529SOL     OW29485   1.933   2.612   5.742
 9529SOL    HW129486   1.900   2.705   5.724
 9529SOL    HW229487   1.999   2.586   5.672
 9530SOL     OW29488   2.199   1.394   4.028
 9530SOL    HW129489   2.161   1.371   3.939
 9530SOL    HW229490   2.293   1.360   4.035
 9531SOL     OW29491   2.528   6.121   3.962
 9531SOL    HW129492   2.546   6.168   4.048
 9531SOL    HW229493   2.574   6.032   3.963
 9532SOL     OW29494   3.489   1.076   1.284
 9532SOL    HW129495   3.479   1.044   1.190
 9532SOL    HW229496   3.433   1.020   1.345
 9533SOL     OW29497   0.302   1.737   4.239
 9533SOL    HW129498   0.232   1.669   4.221
 9533SOL    HW229499   0.339   1.724   4.331
 9534SOL     OW29500   5.034   0.706   4.106
 9534SOL    HW129501   5.060   0.712   4.009
 9534SOL    HW229502   5.076   0.782   4.156
 9535SOL     OW29503   2.953   1.515   4.709
 9535SOL    HW129504   3.041   1.503   4.664
 9535SOL    HW229505   2.889   1.445   4.677
 9536SOL     OW29506   1.773   5.181   6.900
 9536SOL    HW129507   1.768   5.234   6.816
 9536SOL    HW229508   1.869   5.159   6.921
 9537SOL     OW29509   2.151   0.625   0.025
 9537SOL    HW129510   2.241   0.603   7.008
 9537SOL    HW229511   2.153   0.617   0.125
 9538SOL     OW29512   5.923   4.271   3.350
 9538SOL    HW129513   5.955   4.292   3.443
 9538SOL    HW229514   5.976   4.323   3.284
 9539SOL     OW29515   0.778   3.410   6.893
 9539SOL    HW129516   0.819   3.386   6.981
 9539SOL    HW229517   0.847   3.455   6.835
 9540SOL     OW29518   5.908   2.891   5.312
 9540SOL    HW129519   5.904   2.817   5.380
 9540SOL    HW229520   5.923   2.978   5.359
 9541SOL     OW29521   6.485   1.643   3.176
 9541SOL    HW129522   6.477   1.743   3.174
 9541SOL    HW229523   6.394   1.603   3.169
 9542SOL     OW29524   5.005   3.464   4.574
 9542SOL    HW129525   5.047   3.379   4.602
 9542SOL    HW229526   4.997   3.525   4.653
 9543SOL     OW29527   4.146   1.993   0.487
 9543SOL    HW129528   4.083   2.066   0.461
 9543SOL    HW229529   4.202   2.023   0.564
 9544SOL     OW29530   5.191   0.237   1.695
 9544SOL    HW129531   5.199   0.140   1.672
 9544SOL    HW229532   5.094   0.261   1.705
 9545SOL     OW29533   1.483   6.899   4.228
 9545SOL    HW129534   1.500   6.883   4.131
 9545SOL    HW229535   1.396   6.858   4.254
 9546SOL     OW29536   3.075   3.832   1.996
 9546SOL    HW129537   3.004   3.860   1.931
 9546SOL    HW229538   3.037   3.767   2.061
 9547SOL     OW29539   5.685   6.451   2.603
 9547SOL    HW129540   5.742   6.378   2.641
 9547SOL    HW229541   5.713   6.538   2.642
 9548SOL     OW29542   6.093   6.570   2.002
 9548SOL    HW129543   6.139   6.573   1.913
 9548SOL    HW229544   6.099   6.477   2.039
 9549SOL     OW29545   2.077   5.877   0.019
 9549SOL    HW129546   1.992   5.913   0.058
 9549SOL    HW229547   2.128   5.827   0.089
 9550SOL     OW29548   1.800   0.501   0.276
 9550SOL    HW129549   1.710   0.469   0.303
 9550SOL    HW229550   1.796   0.537   0.183
 9551SOL     OW29551   1.109   5.700   4.633
 9551SOL    HW129552   1.168   5.620   4.628
 9551SOL    HW229553   1.071   5.719   4.542
 9552SOL     OW29554   0.099   5.376   3.292
 9552SOL    HW129555   0.111   5.294   3.347
 9552SOL    HW229556   0.153   5.368   3.207
 9553SOL     OW29557   5.531   4.448   6.674
 9553SOL    HW129558   5.540   4.517   6.746
 9553SOL    HW229559   5.519   4.357   6.715
 9554SOL     OW29560   1.539   2.508   1.663
 9554SOL    HW129561   1.626   2.480   1.703
 9554SOL    HW229562   1.540   2.606   1.646
 9555SOL     OW29563   0.146   2.362   6.742
 9555SOL    HW129564   0.114   2.438   6.685
 9555SOL    HW229565   0.237   2.384   6.778
 9556SOL     OW29566   5.977   0.088   1.476
 9556SOL    HW129567   5.933   0.111   1.563
 9556SOL    HW229568   6.004   7.012   1.477
 9557SOL     OW29569   5.071   1.871   1.851
 9557SOL    HW129570   5.115   1.794   1.805
 9557SOL    HW229571   5.051   1.943   1.784
 9558SOL     OW29572   0.044   3.973   1.582
 9558SOL    HW129573   0.021   4.014   1.494
 9558SOL    HW229574   7.010   3.890   1.596
 9559SOL     OW29575   0.662   4.895   3.563
 9559SOL    HW129576   0.727   4.838   3.513
 9559SOL    HW229577   0.643   4.978   3.512
 9560SOL     OW29578   3.342   2.086   5.982
 9560SOL    HW129579   3.372   2.131   6.065
 9560SOL    HW229580   3.408   2.102   5.909
 9561SOL     OW29581   3.711   5.332   6.596
 9561SOL    HW129582   3.627   5.385   6.594
 9561SOL    HW229583   3.691   5.237   6.574
 9562SOL     OW29584   6.594   5.343   3.717
 9562SOL    HW129585   6.675   5.306   3.672
 9562SOL    HW229586   6.598   5.442   3.717
 9563SOL     OW29587   0.725   0.728   6.043
 9563SOL    HW129588   0.654   0.661   6.022
 9563SOL    HW229589   0.696   0.782   6.122
 9564SOL     OW29590   0.471   0.539   5.918
 9564SOL    HW129591   0.495   0.578   5.829
 9564SOL    HW229592   0.387   0.486   5.909
 9565SOL     OW29593   2.752   5.178   5.130
 9565SOL    HW129594   2.683   5.185   5.202
 9565SOL    HW229595   2.823   5.113   5.158
 9566SOL     OW29596   2.179   5.590   4.981
 9566SOL    HW129597   2.178   5.509   4.923
 9566SOL    HW229598   2.213   5.566   5.072
 9567SOL     OW29599   6.164   5.518   4.036
 9567SOL    HW129600   6.258   5.547   4.051
 9567SOL    HW229601   6.102   5.594   4.054
 9568SOL     OW29602   6.218   3.356   5.304
 9568SOL    HW129603   6.205   3.412   5.222
 9568SOL    HW229604   6.187   3.262   5.286
 9569SOL     OW29605   5.220   0.217   1.101
 9569SOL    HW129606   5.313   0.220   1.138
 9569SOL    HW229607   5.155   0.207   1.175
 9570SOL     OW29608   0.187   3.208   6.386
 9570SOL    HW129609   0.232   3.122   6.411
 9570SOL    HW229610   0.135   3.242   6.465
 9571SOL     OW29611   3.294   1.779   0.609
 9571SOL    HW129612   3.317   1.814   0.700
 9571SOL    HW229613   3.225   1.838   0.567
 9572SOL     OW29614   0.638   3.104   0.769
 9572SOL    HW129615   0.539   3.086   0.769
 9572SOL    HW229616   0.660   3.164   0.691
 9573SOL     OW29617   4.749   1.702   2.137
 9573SOL    HW129618   4.697   1.781   2.169
 9573SOL    HW229619   4.711   1.618   2.174
 9574SOL     OW29620   1.641   1.444   4.185
 9574SOL    HW129621   1.557   1.499   4.178
 9574SOL    HW229622   1.626   1.355   4.142
 9575SOL     OW29623   3.169   1.550   2.697
 9575SOL    HW129624   3.225   1.582   2.621
 9575SOL    HW229625   3.076   1.584   2.687
 9576SOL     OW29626   4.318   3.136   6.182
 9576SOL    HW129627   4.307   3.074   6.260
 9576SOL    HW229628   4.238   3.196   6.176
 9577SOL     OW29629   0.491   5.494   3.403
 9577SOL    HW129630   0.511   5.591   3.389
 9577SOL    HW229631   0.480   5.449   3.314
 9578SOL     OW29632   6.847   4.447   1.177
 9578SOL    HW129633   6.753   4.424   1.152
 9578SOL    HW229634   6.877   4.389   1.252
 9579SOL     OW29635   1.415   4.668   2.435
 9579SOL    HW129636   1.331   4.715   2.405
 9579SOL    HW229637   1.390   4.594   2.498
 9580SOL     OW29638   3.841   4.297   5.239
 9580SOL    HW129639   3.746   4.283   5.212
 9580SOL    HW229640   3.901   4.274   5.163
 9581SOL     OW29641   0.536   0.022   6.503
 9581SOL    HW129642   0.502   0.056   6.416
 9581SOL    HW229643   0.501   6.949   6.518
 9582SOL     OW29644   4.058   5.861   3.285
 9582SOL    HW129645   4.119   5.887   3.360
 9582SOL    HW229646   4.036   5.764   3.292
 9583SOL     OW29647   1.406   4.593   2.878
 9583SOL    HW129648   1.482   4.533   2.851
 9583SOL    HW229649   1.443   4.682   2.903
 9584SOL     OW29650   5.299   4.529   6.979
 9584SOL    HW129651   5.236   4.488   6.913
 9584SOL    HW229652   5.273   4.501   0.052
 9585SOL     OW29653   6.275   1.028   2.679
 9585SOL    HW129654   6.185   0.985   2.672
 9585SOL    HW229655   6.322   1.021   2.591
 9586SOL     OW29656   4.282   4.752   2.524
 9586SOL    HW129657   4.329   4.666   2.508
 9586SOL    HW229658   4.205   4.760   2.460
 9587SOL     OW29659   4.469   6.528   1.575
 9587SOL    HW129660   4.527   6.514   1.496
 9587SOL    HW229661   4.494   6.463   1.647
 9588SOL     OW29662   6.453   1.227   3.556
 9588SOL    HW129663   6.363   1.267   3.572
 9588SOL    HW229664   6.487   1.257   3.466
 9589SOL     OW29665   3.950   1.916   5.108
 9589SOL    HW129666   3.981   1.839   5.164
 9589SOL    HW229667   4.024   1.946   5.047
 9590SOL     OW29668   0.209   4.959   4.839
 9590SOL    HW129669   0.279   4.889   4.824
 9590SOL    HW229670   0.199   5.014   4.755
 9591SOL     OW29671   0.075   4.929   2.130
 9591SOL    HW129672   0.105   4.908   2.223
 9591SOL    HW229673   0.105   4.856   2.069
 9592SOL     OW29674   4.356   5.365   0.832
 9592SOL    HW129675   4.408   5.326   0.757
 9592SOL    HW229676   4.267   5.320   0.839
 9593SOL     OW29677   2.315   2.322   3.615
 9593SOL    HW129678   2.358   2.335   3.705
 9593SOL    HW229679   2.217   2.305   3.628
 9594SOL     OW29680   5.538   0.011   0.535
 9594SOL    HW129681   5.532   0.008   0.435
 9594SOL    HW229682   5.609   0.075   0.562
 9595SOL     OW29683   2.308   4.796   5.515
 9595SOL    HW129684   2.321   4.816   5.612
 9595SOL    HW229685   2.279   4.702   5.504
 9596SOL     OW29686   5.653   4.760   2.352
 9596SOL    HW129687   5.642   4.696   2.428
 9596SOL    HW229688   5.616   4.849   2.377
 9597SOL     OW29689   1.209   4.109   1.576
 9597SOL    HW129690   1.267   4.120   1.657
 9597SOL    HW229691   1.164   4.020   1.579
 9598SOL     OW29692   0.204   6.076   5.053
 9598SOL    HW129693   0.228   6.061   4.957
 9598SOL    HW229694   0.173   6.170   5.065
 9599SOL     OW29695   3.539   2.128   5.335
 9599SOL    HW129696   3.485   2.064   5.389
 9599SOL    HW229697   3.606   2.173   5.394
 9600SOL     OW29698   1.501   5.486   6.797
 9600SOL    HW129699   1.598   5.505   6.814
 9600SOL    HW229700   1.490   5.458   6.701
 9601SOL     OW29701   1.281   0.235   4.520
 9601SOL    HW129702   1.217   0.298   4.476
 9601SOL    HW229703   1.317   0.277   4.603
 9602SOL     OW29704   0.823   5.528   5.953
 9602SOL    HW129705   0.860   5.610   5.998
 9602SOL    HW229706   0.844   5.531   5.855
 9603SOL     OW29707   1.557   5.112   2.171
 9603SOL    HW129708   1.532   5.052   2.246
 9603SOL    HW229709   1.614   5.187   2.205
 9604SOL     OW29710   6.536   0.361   5.914
 9604SOL    HW129711   6.634   0.352   5.893
 9604SOL    HW229712   6.525   0.406   6.002
 9605SOL     OW29713   3.434   4.488   0.653
 9605SOL    HW129714   3.451   4.390   0.654
 9605SOL    HW229715   3.380   4.513   0.734
 9606SOL     OW29716   6.911   1.651   4.501
 9606SOL    HW129717   6.968   1.733   4.496
 9606SOL    HW229718   6.900   1.612   4.410
 9607SOL     OW29719   6.763   3.191   3.097
 9607SOL    HW129720   6.736   3.282   3.065
 9607SOL    HW229721   6.807   3.141   3.022
 9608SOL     OW29722   5.539   1.002   1.558
 9608SOL    HW129723   5.619   0.982   1.503
 9608SOL    HW229724   5.458   1.004   1.500
 9609SOL     OW29725   0.707   1.971   4.088
 9609SOL    HW129726   0.662   2.058   4.068
 9609SOL    HW229727   0.738   1.971   4.183
 9610SOL     OW29728   4.763   1.410   6.281
 9610SOL    HW129729   4.841   1.390   6.341
 9610SOL    HW229730   4.780   1.495   6.232
 9611SOL     OW29731   4.998   5.744   1.505
 9611SOL    HW129732   4.995   5.791   1.417
 9611SOL    HW229733   5.092   5.741   1.538
 9612SOL     OW29734   4.821   3.904   3.457
 9612SOL    HW129735   4.839   3.867   3.548
 9612SOL    HW229736   4.787   3.998   3.465
 9613SOL     OW29737   5.214   0.957   4.818
 9613SOL    HW129738   5.234   1.045   4.862
 9613SOL    HW229739   5.297   0.901   4.817
 9614SOL     OW29740   3.499   2.822   0.169
 9614SOL    HW129741   3.445   2.835   0.252
 9614SOL    HW229742   3.509   2.911   0.123
 9615SOL     OW29743   6.621   6.442   3.710
 9615SOL    HW129744   6.616   6.516   3.777
 9615SOL    HW229745   6.649   6.357   3.756
 9616SOL     OW29746   0.049   2.014   1.033
 9616SOL    HW129747   7.000   2.038   0.965
 9616SOL    HW229748   0.040   2.076   1.112
 9617SOL     OW29749   0.896   3.759   3.702
 9617SOL    HW129750   0.842   3.804   3.632
 9617SOL    HW229751   0.854   3.671   3.725
 9618SOL     OW29752   5.594   3.992   2.214
 9618SOL    HW129753   5.560   3.913   2.163
 9618SOL    HW229754   5.654   4.046   2.156
 9619SOL     OW29755   1.373   1.040   1.148
 9619SOL    HW129756   1.359   1.090   1.233
 9619SOL    HW229757   1.292   1.049   1.090
 9620SOL     OW29758   3.517   1.391   6.093
 9620SOL    HW129759   3.519   1.405   6.192
 9620SOL    HW229760   3.605   1.417   6.054
 9621SOL     OW29761   6.557   0.746   0.598
 9621SOL    HW129762   6.562   0.707   0.690
 9621SOL    HW229763   6.471   0.797   0.589
 9622SOL     OW29764   6.594   0.249   4.884
 9622SOL    HW129765   6.637   0.304   4.812
 9622SOL    HW229766   6.501   0.283   4.900
 9623SOL     OW29767   2.309   5.897   6.145
 9623SOL    HW129768   2.217   5.918   6.177
 9623SOL    HW229769   2.363   5.861   6.221
 9624SOL     OW29770   3.923   4.774   6.602
 9624SOL    HW129771   3.958   4.700   6.659
 9624SOL    HW229772   3.960   4.861   6.635
 9625SOL     OW29773   5.214   4.613   6.098
 9625SOL    HW129774   5.151   4.539   6.072
 9625SOL    HW229775   5.251   4.656   6.016
 9626SOL     OW29776   2.856   2.598   6.745
 9626SOL    HW129777   2.909   2.515   6.729
 9626SOL    HW229778   2.840   2.644   6.658
 9627SOL     OW29779   6.702   5.969   6.937
 9627SOL    HW129780   6.778   6.005   6.882
 9627SOL    HW229781   6.718   5.872   6.956
 9628SOL     OW29782   6.136   1.511   5.503
 9628SOL    HW129783   6.108   1.430   5.556
 9628SOL    HW229784   6.199   1.566   5.557
 9629SOL     OW29785   0.807   5.539   3.850
 9629SOL    HW129786   0.804   5.459   3.910
 9629SOL    HW229787   0.713   5.564   3.823
 9630SOL     OW29788   6.354   0.240   5.744
 9630SOL    HW129789   6.405   0.272   5.823
 9630SOL    HW229790   6.308   0.317   5.700
 9631SOL     OW29791   4.473   6.081   0.479
 9631SOL    HW129792   4.380   6.046   0.487
 9631SOL    HW229793   4.529   6.016   0.427
 9632SOL     OW29794   2.784   6.101   2.682
 9632SOL    HW129795   2.884   6.094   2.679
 9632SOL    HW229796   2.747   6.094   2.589
 9633SOL     OW29797   2.918   2.964   5.654
 9633SOL    HW129798   2.841   2.968   5.718
 9633SOL    HW229799   3.003   2.984   5.703
 9634SOL     OW29800   6.206   4.643   3.273
 9634SOL    HW129801   6.131   4.708   3.280
 9634SOL    HW229802   6.171   4.554   3.242
 9635SOL     OW29803   0.808   5.253   4.231
 9635SOL    HW129804   0.771   5.286   4.317
 9635SOL    HW229805   0.908   5.246   4.238
 9636SOL     OW29806   4.905   3.823   3.711
 9636SOL    HW129807   4.911   3.737   3.761
 9636SOL    HW229808   4.937   3.898   3.769
 9637SOL     OW29809   3.258   2.650   6.691
 9637SOL    HW129810   3.273   2.580   6.761
 9637SOL    HW229811   3.335   2.652   6.628
 9638SOL     OW29812   0.734   4.552   6.231
 9638SOL    HW129813   0.767   4.617   6.299
 9638SOL    HW229814   0.692   4.474   6.277
 9639SOL     OW29815   5.681   2.927   1.948
 9639SOL    HW129816   5.714   2.852   2.006
 9639SOL    HW229817   5.589   2.907   1.916
 9640SOL     OW29818   3.559   0.005   3.467
 9640SOL    HW129819   3.529   0.074   3.532
 9640SOL    HW229820   3.578   6.939   3.515
 9641SOL     OW29821   0.836   2.352   4.727
 9641SOL    HW129822   0.811   2.430   4.784
 9641SOL    HW229823   0.889   2.383   4.649
 9642SOL     OW29824   0.564   2.709   4.750
 9642SOL    HW129825   0.472   2.731   4.783
 9642SOL    HW229826   0.577   2.610   4.751
 9643SOL     OW29827   6.434   5.449   4.549
 9643SOL    HW129828   6.398   5.398   4.471
 9643SOL    HW229829   6.473   5.535   4.517
 9644SOL     OW29830   0.786   4.651   3.406
 9644SOL    HW129831   0.785   4.551   3.405
 9644SOL    HW229832   0.720   4.686   3.341
 9645SOL     OW29833   0.554   5.080   0.204
 9645SOL    HW129834   0.533   5.013   0.133
 9645SOL    HW229835   0.646   5.116   0.189
 9646SOL     OW29836   2.737   4.708   0.690
 9646SOL    HW129837   2.675   4.715   0.769
 9646SOL    HW229838   2.691   4.742   0.609
 9647SOL     OW29839   5.451   6.745   2.637
 9647SOL    HW129840   5.426   6.791   2.552
 9647SOL    HW229841   5.550   6.732   2.640
 9648SOL     OW29842   3.805   2.264   1.030
 9648SOL    HW129843   3.862   2.342   1.004
 9648SOL    HW229844   3.861   2.181   1.032
 9649SOL     OW29845   0.247   5.885   0.496
 9649SOL    HW129846   0.296   5.800   0.514
 9649SOL    HW229847   0.238   5.898   0.397
 9650SOL     OW29848   0.050   5.168   5.272
 9650SOL    HW129849   6.982   5.162   5.226
 9650SOL    HW229850   0.118   5.114   5.221
 9651SOL     OW29851   3.334   1.099   0.284
 9651SOL    HW129852   3.389   1.180   0.264
 9651SOL    HW229853   3.252   1.125   0.334
 9652SOL     OW29854   0.209   4.021   0.066
 9652SOL    HW129855   0.170   3.937   0.105
 9652SOL    HW229856   0.149   4.098   0.088
 9653SOL     OW29857   5.910   3.757   4.759
 9653SOL    HW129858   5.995   3.741   4.808
 9653SOL    HW229859   5.925   3.825   4.687
 9654SOL     OW29860   3.986   3.341   4.978
 9654SOL    HW129861   4.062   3.393   4.939
 9654SOL    HW229862   3.954   3.274   4.911
 9655SOL     OW29863   4.481   0.537   0.676
 9655SOL    HW129864   4.566   0.503   0.716
 9655SOL    HW229865   4.493   0.551   0.578
 9656SOL     OW29866   5.100   4.510   5.541
 9656SOL    HW129867   5.050   4.425   5.559
 9656SOL    HW229868   5.180   4.490   5.485
 9657SOL     OW29869   5.171   5.411   2.321
 9657SOL    HW129870   5.193   5.336   2.383
 9657SOL    HW229871   5.256   5.449   2.284
 9658SOL     OW29872   5.363   1.352   2.834
 9658SOL    HW129873   5.432   1.409   2.789
 9658SOL    HW229874   5.306   1.409   2.893
 9659SOL     OW29875   3.992   3.215   0.440
 9659SOL    HW129876   3.919   3.209   0.507
 9659SOL    HW229877   4.057   3.286   0.467
 9660SOL     OW29878   2.587   6.766   1.561
 9660SOL    HW129879   2.521   6.794   1.631
 9660SOL    HW229880   2.645   6.693   1.597
 9661SOL     OW29881   3.694   4.117   2.405
 9661SOL    HW129882   3.778   4.068   2.427
 9661SOL    HW229883   3.621   4.088   2.466
 9662SOL     OW29884   4.217   0.615   4.895
 9662SOL    HW129885   4.124   0.606   4.860
 9662SOL    HW229886   4.215   0.672   4.978
 9663SOL     OW29887   1.148   5.800   2.282
 9663SOL    HW129888   1.140   5.899   2.295
 9663SOL    HW229889   1.243   5.776   2.264
 9664SOL     OW29890   1.847   4.582   2.980
 9664SOL    HW129891   1.904   4.503   2.958
 9664SOL    HW229892   1.876   4.620   3.068
 9665SOL     OW29893   6.006   3.795   6.614
 9665SOL    HW129894   5.908   3.773   6.617
 9665SOL    HW229895   6.032   3.822   6.521
 9666SOL     OW29896   5.376   4.021   0.970
 9666SOL    HW129897   5.295   4.044   0.916
 9666SOL    HW229898   5.457   4.034   0.913
 9667SOL     OW29899   6.156   6.294   0.277
 9667SOL    HW129900   6.098   6.342   0.212
 9667SOL    HW229901   6.099   6.244   0.342
 9668SOL     OW29902   2.095   6.979   0.665
 9668SOL    HW129903   2.133   7.008   0.577
 9668SOL    HW229904   2.013   0.013   0.686
 9669SOL     OW29905   3.144   0.425   0.855
 9669SOL    HW129906   3.057   0.433   0.904
 9669SOL    HW229907   3.159   0.508   0.802
 9670SOL     OW29908   0.663   0.191   2.745
 9670SOL    HW129909   0.600   0.203   2.822
 9670SOL    HW229910   0.626   0.122   2.683
 9671SOL     OW29911   0.892   5.799   6.382
 9671SOL    HW129912   0.928   5.857   6.456
 9671SOL    HW229913   0.832   5.729   6.421
 9672SOL     OW29914   0.116   4.446   5.049
 9672SOL    HW129915   0.206   4.490   5.048
 9672SOL    HW229916   0.051   4.500   4.996
 9673SOL     OW29917   2.097   3.006   5.741
 9673SOL    HW129918   2.166   2.933   5.746
 9673SOL    HW229919   2.121   3.079   5.804
 9674SOL     OW29920   1.797   6.895   3.862
 9674SOL    HW129921   1.833   6.986   3.880
 9674SOL    HW229922   1.697   6.896   3.869
 9675SOL     OW29923   6.479   3.981   6.209
 9675SOL    HW129924   6.517   3.990   6.116
 9675SOL    HW229925   6.418   4.058   6.227
 9676SOL     OW29926   0.713   3.127   6.294
 9676SOL    HW129927   0.791   3.137   6.357
 9676SOL    HW229928   0.746   3.123   6.200
 9677SOL     OW29929   0.770   4.798   2.762
 9677SOL    HW129930   0.689   4.739   2.767
 9677SOL    HW229931   0.841   4.762   2.822
 9678SOL     OW29932   4.940   3.411   6.682
 9678SOL    HW129933   4.855   3.399   6.734
 9678SOL    HW229934   4.929   3.370   6.591
 9679SOL     OW29935   1.729   1.064   4.684
 9679SOL    HW129936   1.689   1.155   4.691
 9679SOL    HW229937   1.657   0.998   4.663
 9680SOL     OW29938   4.564   6.794   2.417
 9680SOL    HW129939   4.567   6.802   2.317
 9680SOL    HW229940   4.652   6.758   2.449
 9681SOL     OW29941   0.522   2.514   0.881
 9681SOL    HW129942   0.536   2.415   0.886
 9681SOL    HW229943   0.533   2.554   0.972
 9682SOL     OW29944   3.820   6.506   5.245
 9682SOL    HW129945   3.734   6.556   5.251
 9682SOL    HW229946   3.801   6.410   5.224
 9683SOL     OW29947   3.376   5.765   3.707
 9683SOL    HW129948   3.332   5.841   3.659
 9683SOL    HW229949   3.417   5.703   3.640
 9684SOL     OW29950   1.299   2.387   6.289
 9684SOL    HW129951   1.376   2.323   6.289
 9684SOL    HW229952   1.314   2.457   6.359
 9685SOL     OW29953   3.763   4.543   1.627
 9685SOL    HW129954   3.694   4.578   1.691
 9685SOL    HW229955   3.792   4.617   1.566
 9686SOL     OW29956   0.864   1.716   5.622
 9686SOL    HW129957   0.937   1.729   5.689
 9686SOL    HW229958   0.893   1.649   5.554
 9687SOL     OW29959   5.629   0.620   3.891
 9687SOL    HW129960   5.582   0.635   3.805
 9687SOL    HW229961   5.711   0.565   3.875
 9688SOL     OW29962   0.436   5.277   2.215
 9688SOL    HW129963   0.428   5.375   2.198
 9688SOL    HW229964   0.530   5.248   2.196
 9689SOL     OW29965   1.728   5.342   1.243
 9689SOL    HW129966   1.798   5.323   1.311
 9689SOL    HW229967   1.646   5.289   1.264
 9690SOL     OW29968   5.926   4.846   4.136
 9690SOL    HW129969   5.978   4.792   4.070
 9690SOL    HW229970   5.923   4.798   4.224
 9691SOL     OW29971   3.905   3.958   2.199
 9691SOL    HW129972   3.953   3.880   2.238
 9691SOL    HW229973   3.860   4.010   2.272
 9692SOL     OW29974   6.397   5.472   0.363
 9692SOL    HW129975   6.381   5.545   0.297
 9692SOL    HW229976   6.334   5.396   0.345
 9693SOL     OW29977   4.341   3.208   6.651
 9693SOL    HW129978   4.342   3.202   6.751
 9693SOL    HW229979   4.363   3.301   6.623
 9694SOL     OW29980   2.687   6.299   0.888
 9694SOL    HW129981   2.783   6.320   0.905
 9694SOL    HW229982   2.680   6.229   0.817
 9695SOL     OW29983   1.896   2.625   3.393
 9695SOL    HW129984   1.967   2.638   3.462
 9695SOL    HW229985   1.808   2.657   3.429
 9696SOL     OW29986   5.156   4.121   3.271
 9696SOL    HW129987   5.230   4.061   3.301
 9696SOL    HW229988   5.128   4.180   3.347
 9697SOL     OW29989   6.510   0.196   2.559
 9697SOL    HW129990   6.534   0.187   2.655
 9697SOL    HW229991   6.593   0.196   2.503
 9698SOL     OW29992   0.118   2.750   0.698
 9698SOL    HW129993   0.180   2.691   0.749
 9698SOL    HW229994   0.036   2.698   0.673
 9699SOL     OW29995   1.599   6.626   2.283
 9699SOL    HW129996   1.584   6.564   2.206
 9699SOL    HW229997   1.521   6.622   2.345
 9700SOL     OW29998   6.017   0.726   5.685
 9700SOL    HW129999   6.090   0.775   5.733
 9700SOL    HW230000   6.055   0.649   5.635
 9701SOL     OW30001   6.155   4.048   6.513
 9701SOL    HW130002   6.216   3.984   6.560
 9701SOL    HW230003   6.082   3.997   6.468
 9702SOL     OW30004   2.794   3.386   1.917
 9702SOL    HW130005   2.715   3.385   1.978
 9702SOL    HW230006   2.863   3.321   1.950
 9703SOL     OW30007   6.936   4.686   2.819
 9703SOL    HW130008   6.881   4.636   2.886
 9703SOL    HW230009   6.942   4.782   2.845
 9704SOL     OW30010   0.692   5.191   2.241
 9704SOL    HW130011   0.785   5.220   2.220
 9704SOL    HW230012   0.684   5.172   2.339
 9705SOL     OW30013   0.014   4.101   5.504
 9705SOL    HW130014   6.982   4.065   5.581
 9705SOL    HW230015   0.112   4.098   5.526
 9706SOL     OW30016   0.397   6.926   2.984
 9706SOL    HW130017   0.318   6.892   3.034
 9706SOL    HW230018   0.390   6.899   2.888
 9707SOL     OW30019   1.046   4.856   1.523
 9707SOL    HW130020   0.958   4.889   1.557
 9707SOL    HW230021   1.056   4.759   1.544
 9708SOL     OW30022   2.842   1.162   1.919
 9708SOL    HW130023   2.938   1.189   1.928
 9708SOL    HW230024   2.791   1.192   1.999
 9709SOL     OW30025   4.237   1.366   2.553
 9709SOL    HW130026   4.181   1.292   2.589
 9709SOL    HW230027   4.322   1.329   2.515
 9710SOL     OW30028   4.931   4.378   4.233
 9710SOL    HW130029   4.875   4.377   4.150
 9710SOL    HW230030   4.942   4.472   4.265
 9711SOL     OW30031   3.169   0.184   6.928
 9711SOL    HW130032   3.265   0.176   6.955
 9711SOL    HW230033   3.163   0.222   6.836
 9712SOL     OW30034   4.511   6.952   5.552
 9712SOL    HW130035   4.567   6.894   5.492
 9712SOL    HW230036   4.435   6.899   5.588
 9713SOL     OW30037   1.070   0.840   3.137
 9713SOL    HW130038   1.126   0.779   3.192
 9713SOL    HW230039   0.976   0.804   3.132
 9714SOL     OW30040   2.232   2.645   3.861
 9714SOL    HW130041   2.202   2.729   3.907
 9714SOL    HW230042   2.211   2.566   3.918
 9715SOL     OW30043   0.134   1.414   6.415
 9715SOL    HW130044   0.141   1.472   6.334
 9715SOL    HW230045   0.220   1.364   6.427
 9716SOL     OW30046   1.612   6.299   0.462
 9716SOL    HW130047   1.681   6.293   0.390
 9716SOL    HW230048   1.576   6.207   0.480
 9717SOL     OW30049   4.429   1.956   5.962
 9717SOL    HW130050   4.449   2.047   5.927
 9717SOL    HW230051   4.372   1.963   6.044
 9718SOL     OW30052   2.649   2.171   6.258
 9718SOL    HW130053   2.693   2.130   6.179
 9718SOL    HW230054   2.577   2.111   6.292
 9719SOL     OW30055   4.107   6.513   5.727
 9719SOL    HW130056   4.198   6.541   5.695
 9719SOL    HW230057   4.038   6.537   5.659
 9720SOL     OW30058   2.146   2.256   1.825
 9720SOL    HW130059   2.065   2.306   1.856
 9720SOL    HW230060   2.222   2.320   1.812
 9721SOL     OW30061   0.390   1.822   1.574
 9721SOL    HW130062   0.291   1.826   1.585
 9721SOL    HW230063   0.412   1.775   1.488
 9722SOL     OW30064   3.533   2.955   5.662
 9722SOL    HW130065   3.562   2.859   5.663
 9722SOL    HW230066   3.445   2.963   5.709
 9723SOL     OW30067   5.816   1.236   4.889
 9723SOL    HW130068   5.743   1.251   4.957
 9723SOL    HW230069   5.900   1.279   4.921
 9724SOL     OW30070   1.602   4.724   1.421
 9724SOL    HW130071   1.699   4.709   1.399
 9724SOL    HW230072   1.594   4.751   1.517
 9725SOL     OW30073   5.418   5.432   4.108
 9725SOL    HW130074   5.441   5.525   4.139
 9725SOL    HW230075   5.493   5.370   4.131
 9726SOL     OW30076   6.928   6.822   3.614
 9726SOL    HW130077   6.877   6.806   3.699
 9726SOL    HW230078   6.966   6.735   3.582
 9727SOL     OW30079   6.678   3.090   1.264
 9727SOL    HW130080   6.714   3.174   1.303
 9727SOL    HW230081   6.648   3.107   1.170
 9728SOL     OW30082   5.380   1.880   5.355
 9728SOL    HW130083   5.417   1.791   5.382
 9728SOL    HW230084   5.413   1.950   5.419
 9729SOL     OW30085   0.174   3.829   2.333
 9729SOL    HW130086   0.181   3.755   2.266
 9729SOL    HW230087   0.253   3.826   2.395
 9730SOL     OW30088   0.982   5.894   3.625
 9730SOL    HW130089   1.033   5.866   3.545
 9730SOL    HW230090   1.002   5.990   3.646
 9731SOL     OW30091   6.172   1.688   1.461
 9731SOL    HW130092   6.165   1.589   1.470
 9731SOL    HW230093   6.120   1.732   1.534
 9732SOL     OW30094   0.218   2.627   3.160
 9732SOL    HW130095   0.193   2.554   3.096
 9732SOL    HW230096   0.213   2.593   3.253
 9733SOL     OW30097   5.320   5.809   6.804
 9733SOL    HW130098   5.325   5.894   6.752
 9733SOL    HW230099   5.396   5.806   6.869
 9734SOL     OW30100   3.913   3.627   0.053
 9734SOL    HW130101   3.860   3.548   0.021
 9734SOL    HW230102   3.984   3.648   7.006
 9735SOL     OW30103   1.271   1.584   0.162
 9735SOL    HW130104   1.201   1.613   0.227
 9735SOL    HW230105   1.283   1.654   0.092
 9736SOL     OW30106   5.307   2.737   6.461
 9736SOL    HW130107   5.383   2.747   6.524
 9736SOL    HW230108   5.226   2.707   6.511
 9737SOL     OW30109   5.262   3.374   5.461
 9737SOL    HW130110   5.327   3.428   5.409
 9737SOL    HW230111   5.220   3.306   5.401
 9738SOL     OW30112   2.510   6.164   1.435
 9738SOL    HW130113   2.584   6.222   1.401
 9738SOL    HW230114   2.542   6.110   1.513
 9739SOL     OW30115   5.656   6.267   0.734
 9739SOL    HW130116   5.723   6.322   0.784
 9739SOL    HW230117   5.567   6.273   0.780
 9740SOL     OW30118   6.531   0.838   0.955
 9740SOL    HW130119   6.630   0.835   0.969
 9740SOL    HW230120   6.502   0.756   0.904
 9741SOL     OW30121   2.429   2.597   2.797
 9741SOL    HW130122   2.521   2.560   2.812
 9741SOL    HW230123   2.365   2.556   2.862
 9742SOL     OW30124   4.369   0.253   6.819
 9742SOL    HW130125   4.288   0.214   6.776
 9742SOL    HW230126   4.401   0.332   6.765
 9743SOL     OW30127   6.059   3.796   4.174
 9743SOL    HW130128   6.093   3.708   4.142
 9743SOL    HW230129   6.113   3.869   4.132
 9744SOL     OW30130   1.712   2.849   1.918
 9744SOL    HW130131   1.734   2.917   1.848
 9744SOL    HW230132   1.633   2.879   1.971
 9745SOL     OW30133   1.216   6.724   5.924
 9745SOL    HW130134   1.297   6.703   5.979
 9745SOL    HW230135   1.186   6.817   5.943
 9746SOL     OW30136   3.350   6.144   6.049
 9746SOL    HW130137   3.436   6.193   6.050
 9746SOL    HW230138   3.286   6.188   5.986
 9747SOL     OW30139   4.430   1.583   3.233
 9747SOL    HW130140   4.518   1.586   3.188
 9747SOL    HW230141   4.431   1.512   3.303
 9748SOL     OW30142   0.510   2.167   2.109
 9748SOL    HW130143   0.495   2.232   2.035
 9748SOL    HW230144   0.441   2.095   2.106
 9749SOL     OW30145   6.750   0.386   1.409
 9749SOL    HW130146   6.690   0.430   1.477
 9749SOL    HW230147   6.819   0.332   1.456
 9750SOL     OW30148   6.021   2.108   4.655
 9750SOL    HW130149   5.967   2.038   4.608
 9750SOL    HW230150   5.995   2.111   4.751
 9751SOL     OW30151   2.807   5.238   0.902
 9751SOL    HW130152   2.782   5.212   0.809
 9751SOL    HW230153   2.890   5.294   0.900
 9752SOL     OW30154   4.253   3.982   0.803
 9752SOL    HW130155   4.181   3.919   0.776
 9752SOL    HW230156   4.232   4.021   0.893
 9753SOL     OW30157   6.442   6.689   3.119
 9753SOL    HW130158   6.451   6.591   3.099
 9753SOL    HW230159   6.524   6.721   3.166
 9754SOL     OW30160   3.430   0.273   1.581
 9754SOL    HW130161   3.374   0.355   1.589
 9754SOL    HW230162   3.496   0.285   1.508
 9755SOL     OW30163   2.964   4.252   1.271
 9755SOL    HW130164   2.879   4.240   1.219
 9755SOL    HW230165   2.968   4.182   1.343
 9756SOL     OW30166   4.566   6.781   0.046
 9756SOL    HW130167   4.538   6.736   0.131
 9756SOL    HW230168   4.562   6.881   0.058
 9757SOL     OW30169   5.168   3.947   4.114
 9757SOL    HW130170   5.179   4.045   4.099
 9757SOL    HW230171   5.216   3.898   4.041
 9758SOL     OW30172   3.345   0.930   1.453
 9758SOL    HW130173   3.409   0.905   1.526
 9758SOL    HW230174   3.257   0.957   1.494
 9759SOL     OW30175   6.367   1.618   0.896
 9759SOL    HW130176   6.366   1.531   0.946
 9759SOL    HW230177   6.284   1.626   0.841
 9760SOL     OW30178   4.845   1.130   6.487
 9760SOL    HW130179   4.756   1.088   6.467
 9760SOL    HW230180   4.916   1.086   6.434
 9761SOL     OW30181   0.887   2.352   1.896
 9761SOL    HW130182   0.861   2.281   1.962
 9761SOL    HW230183   0.975   2.330   1.856
 9762SOL     OW30184   3.581   1.157   5.627
 9762SOL    HW130185   3.487   1.153   5.594
 9762SOL    HW230186   3.620   1.065   5.627
 9763SOL     OW30187   5.794   2.078   1.147
 9763SOL    HW130188   5.792   2.020   1.066
 9763SOL    HW230189   5.877   2.134   1.147
 9764SOL     OW30190   0.533   2.549   3.729
 9764SOL    HW130191   0.484   2.550   3.641
 9764SOL    HW230192   0.631   2.553   3.713
 9765SOL     OW30193   6.229   2.342   0.993
 9765SOL    HW130194   6.237   2.270   0.924
 9765SOL    HW230195   6.320   2.368   1.025
 9766SOL     OW30196   0.423   2.714   2.944
 9766SOL    HW130197   0.455   2.754   3.031
 9766SOL    HW230198   0.328   2.741   2.928
 9767SOL     OW30199   3.989   1.677   4.699
 9767SOL    HW130200   3.898   1.716   4.708
 9767SOL    HW230201   4.029   1.704   4.611
 9768SOL     OW30202   4.905   2.926   6.543
 9768SOL    HW130203   4.847   3.004   6.521
 9768SOL    HW230204   4.979   2.919   6.476
 9769SOL     OW30205   3.332   1.084   5.469
 9769SOL    HW130206   3.335   0.987   5.495
 9769SOL    HW230207   3.341   1.093   5.370
 9770SOL     OW30208   1.917   3.286   5.438
 9770SOL    HW130209   2.003   3.236   5.450
 9770SOL    HW230210   1.855   3.232   5.380
 9771SOL     OW30211   3.173   0.673   1.764
 9771SOL    HW130212   3.085   0.712   1.737
 9771SOL    HW230213   3.161   0.618   1.847
 9772SOL     OW30214   0.324   0.675   1.774
 9772SOL    HW130215   0.262   0.693   1.850
 9772SOL    HW230216   0.381   0.755   1.757
 9773SOL     OW30217   4.672   6.536   1.990
 9773SOL    HW130218   4.694   6.450   1.945
 9773SOL    HW230219   4.573   6.545   1.997
 9774SOL     OW30220   1.466   5.282   5.145
 9774SOL    HW130221   1.508   5.209   5.199
 9774SOL    HW230222   1.472   5.259   5.048
 9775SOL     OW30223   1.598   0.964   3.308
 9775SOL    HW130224   1.532   0.944   3.235
 9775SOL    HW230225   1.557   0.943   3.397
 9776SOL     OW30226   1.334   5.919   1.770
 9776SOL    HW130227   1.307   6.015   1.772
 9776SOL    HW230228   1.272   5.866   1.828
 9777SOL     OW30229   4.659   2.033   5.294
 9777SOL    HW130230   4.647   2.103   5.365
 9777SOL    HW230231   4.669   1.944   5.337
 9778SOL     OW30232   1.531   3.182   2.823
 9778SOL    HW130233   1.603   3.119   2.797
 9778SOL    HW230234   1.553   3.224   2.911
 9779SOL     OW30235   2.270   1.253   2.645
 9779SOL    HW130236   2.222   1.339   2.661
 9779SOL    HW230237   2.205   1.177   2.651
 9780SOL     OW30238   1.422   2.006   1.037
 9780SOL    HW130239   1.363   1.942   1.085
 9780SOL    HW230240   1.512   2.007   1.080
 9781SOL     OW30241   1.635   1.083   1.913
 9781SOL    HW130242   1.723   1.060   1.955
 9781SOL    HW230243   1.626   1.183   1.909
 9782SOL     OW30244   6.976   2.312   6.931
 9782SOL    HW130245   0.032   2.316   6.867
 9782SOL    HW230246   6.998   2.368   7.012
 9783SOL     OW30247   4.883   1.436   2.196
 9783SOL    HW130248   4.787   1.461   2.183
 9783SOL    HW230249   4.893   1.337   2.189
 9784SOL     OW30250   2.100   1.609   0.237
 9784SOL    HW130251   2.067   1.584   0.328
 9784SOL    HW230252   2.027   1.595   0.170
 9785SOL     OW30253   1.635   3.560   4.746
 9785SOL    HW130254   1.658   3.638   4.803
 9785SOL    HW230255   1.549   3.520   4.778
 9786SOL     OW30256   3.290   4.191   6.949
 9786SOL    HW130257   3.335   4.260   6.892
 9786SOL    HW230258   3.193   4.212   6.955
 9787SOL     OW30259   2.607   3.247   1.033
 9787SOL    HW130260   2.633   3.280   1.124
 9787SOL    HW230261   2.583   3.324   0.975
 9788SOL     OW30262   2.483   7.014   3.232
 9788SOL    HW130263   2.570   6.983   3.194
 9788SOL    HW230264   2.408   6.962   3.190
 9789SOL     OW30265   4.296   1.651   0.083
 9789SOL    HW130266   4.242   1.673   0.164
 9789SOL    HW230267   4.368   1.720   0.071
 9790SOL     OW30268   4.456   6.016   5.073
 9790SOL    HW130269   4.413   5.959   5.003
 9790SOL    HW230270   4.494   5.958   5.145
 9791SOL     OW30271   0.061   0.940   1.057
 9791SOL    HW130272   0.090   0.847   1.033
 9791SOL    HW230273   6.990   0.938   1.097
 9792SOL     OW30274   3.355   3.393   0.478
 9792SOL    HW130275   3.292   3.456   0.524
 9792SOL    HW230276   3.358   3.306   0.528
 9793SOL     OW30277   5.745   0.976   1.756
 9793SOL    HW130278   5.758   1.022   1.844
 9793SOL    HW230279   5.655   1.002   1.719
 9794SOL     OW30280   4.246   5.797   5.018
 9794SOL    HW130281   4.167   5.825   4.964
 9794SOL    HW230282   4.215   5.743   5.097
 9795SOL     OW30283   1.760   4.012   3.026
 9795SOL    HW130284   1.737   3.933   3.082
 9795SOL    HW230285   1.758   4.095   3.082
 9796SOL     OW30286   3.836   3.498   5.190
 9796SOL    HW130287   3.901   3.512   5.263
 9796SOL    HW230288   3.874   3.434   5.122
 9797SOL     OW30289   3.519   5.207   0.244
 9797SOL    HW130290   3.443   5.216   0.180
 9797SOL    HW230291   3.489   5.231   0.336
 9798SOL     OW30292   0.178   4.217   6.279
 9798SOL    HW130293   0.142   4.151   6.346
 9798SOL    HW230294   0.275   4.233   6.298
 9799SOL     OW30295   3.436   6.659   6.647
 9799SOL    HW130296   3.380   6.718   6.706
 9799SOL    HW230297   3.378   6.608   6.584
 9800SOL     OW30298   6.985   4.249   4.547
 9800SOL    HW130299   6.922   4.173   4.562
 9800SOL    HW230300   6.968   4.321   4.614
 9801SOL     OW30301   3.795   6.641   0.927
 9801SOL    HW130302   3.736   6.608   0.854
 9801SOL    HW230303   3.883   6.668   0.889
 9802SOL     OW30304   4.074   2.431   0.541
 9802SOL    HW130305   4.151   2.486   0.575
 9802SOL    HW230306   4.023   2.484   0.473
 9803SOL     OW30307   2.864   3.771   0.432
 9803SOL    HW130308   2.844   3.751   0.336
 9803SOL    HW230309   2.920   3.854   0.437
 9804SOL     OW30310   1.066   4.071   2.597
 9804SOL    HW130311   1.063   4.089   2.695
 9804SOL    HW230312   1.150   4.109   2.558
 9805SOL     OW30313   6.759   4.828   5.131
 9805SOL    HW130314   6.773   4.924   5.106
 9805SOL    HW230315   6.814   4.807   5.212
 9806SOL     OW30316   3.262   0.809   6.926
 9806SOL    HW130317   3.208   0.878   6.974
 9806SOL    HW230318   3.356   0.811   6.960
 9807SOL     OW30319   3.621   3.184   4.760
 9807SOL    HW130320   3.644   3.106   4.702
 9807SOL    HW230321   3.543   3.161   4.818
 9808SOL     OW30322   2.436   5.820   2.576
 9808SOL    HW130323   2.529   5.790   2.596
 9808SOL    HW230324   2.432   5.920   2.575
 9809SOL     OW30325   6.463   3.442   1.274
 9809SOL    HW130326   6.501   3.410   1.361
 9809SOL    HW230327   6.377   3.394   1.257
 9810SOL     OW30328   4.105   3.078   1.130
 9810SOL    HW130329   4.080   2.988   1.095
 9810SOL    HW230330   4.204   3.092   1.117
 9811SOL     OW30331   5.195   3.427   4.081
 9811SOL    HW130332   5.287   3.426   4.040
 9811SOL    HW230333   5.146   3.509   4.052
 9812SOL     OW30334   3.182   5.268   6.814
 9812SOL    HW130335   3.262   5.294   6.761
 9812SOL    HW230336   3.135   5.192   6.768
 9813SOL     OW30337   4.312   0.817   1.977
 9813SOL    HW130338   4.378   0.777   2.041
 9813SOL    HW230339   4.313   0.917   1.988
 9814SOL     OW30340   6.738   1.311   6.276
 9814SOL    HW130341   6.662   1.335   6.215
 9814SOL    HW230342   6.711   1.328   6.371
 9815SOL     OW30343   5.706   2.372   4.705
 9815SOL    HW130344   5.637   2.323   4.652
 9815SOL    HW230345   5.774   2.412   4.643
 9816SOL     OW30346   3.292   0.802   0.365
 9816SOL    HW130347   3.274   0.795   0.266
 9816SOL    HW230348   3.219   0.855   0.408
 9817SOL     OW30349   6.382   0.269   1.152
 9817SOL    HW130350   6.357   0.279   1.248
 9817SOL    HW230351   6.481   0.282   1.142
 9818SOL     OW30352   3.842   2.421   5.325
 9818SOL    HW130353   3.812   2.516   5.318
 9818SOL    HW230354   3.778   2.370   5.382
 9819SOL     OW30355   2.524   0.697   2.006
 9819SOL    HW130356   2.620   0.718   1.987
 9819SOL    HW230357   2.471   0.705   1.922
 9820SOL     OW30358   3.881   2.732   0.062
 9820SOL    HW130359   3.819   2.666   0.105
 9820SOL    HW230360   3.840   2.823   0.069
 9821SOL     OW30361   0.552   6.242   6.640
 9821SOL    HW130362   0.466   6.215   6.598
 9821SOL    HW230363   0.578   6.334   6.609
 9822SOL     OW30364   0.223   0.980   2.239
 9822SOL    HW130365   0.238   0.882   2.224
 9822SOL    HW230366   0.307   1.022   2.273
 9823SOL     OW30367   3.261   6.680   1.939
 9823SOL    HW130368   3.345   6.627   1.929
 9823SOL    HW230369   3.188   6.637   1.887
 9824SOL     OW30370   2.318   4.052   5.402
 9824SOL    HW130371   2.221   4.061   5.380
 9824SOL    HW230372   2.368   4.024   5.320
 9825SOL     OW30373   4.102   4.749   5.211
 9825SOL    HW130374   4.030   4.685   5.237
 9825SOL    HW230375   4.140   4.792   5.293
 9826SOL     OW30376   5.592   0.217   5.435
 9826SOL    HW130377   5.617   0.313   5.427
 9826SOL    HW230378   5.505   0.201   5.389
 9827SOL     OW30379   0.839   5.591   4.625
 9827SOL    HW130380   0.746   5.556   4.628
 9827SOL    HW230381   0.859   5.625   4.533
 9828SOL     OW30382   2.570   1.471   0.298
 9828SOL    HW130383   2.663   1.498   0.272
 9828SOL    HW230384   2.521   1.438   0.217
 9829SOL     OW30385   2.914   3.934   1.795
 9829SOL    HW130386   2.953   4.024   1.779
 9829SOL    HW230387   2.875   3.899   1.710
 9830SOL     OW30388   6.054   1.664   1.154
 9830SOL    HW130389   6.109   1.583   1.172
 9830SOL    HW230390   5.957   1.641   1.159
 9831SOL     OW30391   6.307   6.499   1.583
 9831SOL    HW130392   6.245   6.422   1.599
 9831SOL    HW230393   6.289   6.538   1.492
 9832SOL     OW30394   3.205   3.557   0.629
 9832SOL    HW130395   3.110   3.589   0.627
 9832SOL    HW230396   3.258   3.616   0.690
 9833SOL     OW30397   4.952   4.640   0.024
 9833SOL    HW130398   5.033   4.623   6.988
 9833SOL    HW230399   4.935   4.562   0.083
 9834SOL     OW30400   1.997   2.680   3.633
 9834SOL    HW130401   1.913   2.638   3.666
 9834SOL    HW230402   2.076   2.635   3.677
 9835SOL     OW30403   5.094   1.831   4.142
 9835SOL    HW130404   5.168   1.805   4.204
 9835SOL    HW230405   5.019   1.873   4.195
 9836SOL     OW30406   5.542   5.379   1.533
 9836SOL    HW130407   5.518   5.447   1.464
 9836SOL    HW230408   5.591   5.423   1.608
 9837SOL     OW30409   2.770   5.756   5.921
 9837SOL    HW130410   2.699   5.742   5.853
 9837SOL    HW230411   2.859   5.731   5.883
 9838SOL     OW30412   6.613   6.466   5.126
 9838SOL    HW130413   6.684   6.416   5.176
 9838SOL    HW230414   6.584   6.545   5.180
 9839SOL     OW30415   5.820   3.222   2.991
 9839SOL    HW130416   5.818   3.320   3.009
 9839SOL    HW230417   5.906   3.198   2.946
 9840SOL     OW30418   5.727   0.142   0.259
 9840SOL    HW130419   5.669   0.192   0.324
 9840SOL    HW230420   5.804   0.200   0.233
 9841SOL     OW30421   2.230   2.991   4.657
 9841SOL    HW130422   2.250   3.031   4.568
 9841SOL    HW230423   2.150   3.036   4.696
 9842SOL     OW30424   3.278   3.165   4.304
 9842SOL    HW130425   3.339   3.188   4.380
 9842SOL    HW230426   3.274   3.242   4.240
 9843SOL     OW30427   6.085   4.435   3.187
 9843SOL    HW130428   6.073   4.496   3.109
 9843SOL    HW230429   6.153   4.365   3.163
 9844SOL     OW30430   4.896   0.313   1.766
 9844SOL    HW130431   4.960   0.365   1.823
 9844SOL    HW230432   4.841   0.375   1.711
 9845SOL     OW30433   1.489   1.692   4.285
 9845SOL    HW130434   1.484   1.683   4.384
 9845SOL    HW230435   1.401   1.725   4.250
 9846SOL     OW30436   2.927   3.392   4.140
 9846SOL    HW130437   2.907   3.369   4.235
 9846SOL    HW230438   2.912   3.489   4.125
 9847SOL     OW30439   2.388   4.303   4.372
 9847SOL    HW130440   2.419   4.315   4.466
 9847SOL    HW230441   2.365   4.207   4.356
 9848SOL     OW30442   6.544   4.377   6.961
 9848SOL    HW130443   6.606   4.302   6.983
 9848SOL    HW230444   6.456   4.340   6.932
 9849SOL     OW30445   6.789   6.377   5.346
 9849SOL    HW130446   6.780   6.422   5.435
 9849SOL    HW230447   6.762   6.282   5.353
 9850SOL     OW30448   5.302   0.434   3.463
 9850SOL    HW130449   5.382   0.390   3.422
 9850SOL    HW230450   5.316   0.533   3.467
 9851SOL     OW30451   5.136   2.454   5.551
 9851SOL    HW130452   5.060   2.517   5.569
 9851SOL    HW230453   5.159   2.405   5.635
 9852SOL     OW30454   5.353   1.557   4.125
 9852SOL    HW130455   5.391   1.635   4.176
 9852SOL    HW230456   5.398   1.551   4.036
 9853SOL     OW30457   0.599   5.343   1.040
 9853SOL    HW130458   0.593   5.246   1.066
 9853SOL    HW230459   0.558   5.399   1.110
 9854SOL     OW30460   3.616   6.998   3.772
 9854SOL    HW130461   3.563   0.057   3.744
 9854SOL    HW230462   3.628   6.999   3.871
 9855SOL     OW30463   2.150   4.415   0.557
 9855SOL    HW130464   2.119   4.403   0.651
 9855SOL    HW230465   2.071   4.436   0.499
 9856SOL     OW30466   3.958   3.762   1.164
 9856SOL    HW130467   4.026   3.692   1.140
 9856SOL    HW230468   3.915   3.738   1.251
 9857SOL     OW30469   6.252   4.245   3.064
 9857SOL    HW130470   6.265   4.249   2.965
 9857SOL    HW230471   6.339   4.221   3.108
 9858SOL     OW30472   2.990   1.317   1.618
 9858SOL    HW130473   3.047   1.295   1.698
 9858SOL    HW230474   2.959   1.412   1.625
 9859SOL     OW30475   0.484   6.657   1.288
 9859SOL    HW130476   0.450   6.723   1.220
 9859SOL    HW230477   0.540   6.588   1.243
 9860SOL     OW30478   1.089   1.005   2.652
 9860SOL    HW130479   1.090   0.997   2.752
 9860SOL    HW230480   0.995   0.996   2.619
 9861SOL     OW30481   3.034   6.647   3.938
 9861SOL    HW130482   2.958   6.646   4.003
 9861SOL    HW230483   3.110   6.593   3.975
 9862SOL     OW30484   0.262   1.824   0.993
 9862SOL    HW130485   0.188   1.891   0.997
 9862SOL    HW230486   0.348   1.870   0.972
 9863SOL     OW30487   3.876   0.380   0.678
 9863SOL    HW130488   3.946   0.342   0.739
 9863SOL    HW230489   3.846   0.309   0.614
 9864SOL     OW30490   4.206   5.932   3.622
 9864SOL    HW130491   4.217   5.979   3.710
 9864SOL    HW230492   4.223   5.997   3.548
 9865SOL     OW30493   1.850   3.300   4.138
 9865SOL    HW130494   1.942   3.281   4.104
 9865SOL    HW230495   1.784   3.242   4.090
 9866SOL     OW30496   3.023   4.820   3.491
 9866SOL    HW130497   3.100   4.857   3.438
 9866SOL    HW230498   2.959   4.775   3.429
 9867SOL     OW30499   3.596   6.600   6.364
 9867SOL    HW130500   3.556   6.596   6.455
 9867SOL    HW230501   3.633   6.511   6.340
 9868SOL     OW30502   1.141   5.070   5.681
 9868SOL    HW130503   1.084   5.089   5.761
 9868SOL    HW230504   1.236   5.058   5.711
 9869SOL     OW30505   1.599   4.446   2.744
 9869SOL    HW130506   1.603   4.347   2.758
 9869SOL    HW230507   1.690   4.479   2.720
 9870SOL     OW30508   4.417   5.475   1.589
 9870SOL    HW130509   4.389   5.384   1.559
 9870SOL    HW230510   4.517   5.479   1.594
 9871SOL     OW30511   2.132   2.566   5.956
 9871SOL    HW130512   2.069   2.602   6.025
 9871SOL    HW230513   2.095   2.583   5.865
 9872SOL     OW30514   1.392   3.905   3.151
 9872SOL    HW130515   1.375   3.942   3.059
 9872SOL    HW230516   1.305   3.879   3.193
 9873SOL     OW30517   1.651   1.771   0.660
 9873SOL    HW130518   1.669   1.800   0.566
 9873SOL    HW230519   1.737   1.749   0.705
 9874SOL     OW30520   1.419   3.432   4.853
 9874SOL    HW130521   1.381   3.342   4.832
 9874SOL    HW230522   1.489   3.422   4.923
 9875SOL     OW30523   1.324   1.343   3.199
 9875SOL    HW130524   1.418   1.363   3.173
 9875SOL    HW230525   1.273   1.313   3.119
 9876SOL     OW30526   6.956   5.809   2.541
 9876SOL    HW130527   7.003   5.831   2.626
 9876SOL    HW230528   6.857   5.807   2.557
 9877SOL     OW30529   4.399   0.322   1.396
 9877SOL    HW130530   4.302   0.314   1.421
 9877SOL    HW230531   4.454   0.265   1.457
 9878SOL     OW30532   6.996   1.043   5.177
 9878SOL    HW130533   0.028   1.122   5.210
 9878SOL    HW230534   6.975   0.982   5.253
 9879SOL     OW30535   5.001   5.240   4.907
 9879SOL    HW130536   4.957   5.323   4.943
 9879SOL    HW230537   5.064   5.266   4.833
 9880SOL     OW30538   1.148   2.330   4.045
 9880SOL    HW130539   1.092   2.412   4.035
 9880SOL    HW230540   1.159   2.287   3.955
 9881SOL     OW30541   0.831   1.428   5.813
 9881SOL    HW130542   0.759   1.464   5.755
 9881SOL    HW230543   0.861   1.499   5.877
 9882SOL     OW30544   2.411   2.270   3.364
 9882SOL    HW130545   2.461   2.343   3.318
 9882SOL    HW230546   2.391   2.297   3.459
 9883SOL     OW30547   2.917   1.369   2.478
 9883SOL    HW130548   2.989   1.300   2.470
 9883SOL    HW230549   2.959   1.460   2.481
 9884SOL     OW30550   3.564   0.593   4.045
 9884SOL    HW130551   3.570   0.685   4.007
 9884SOL    HW230552   3.652   0.546   4.033
 9885SOL     OW30553   6.465   3.463   4.477
 9885SOL    HW130554   6.560   3.432   4.479
 9885SOL    HW230555   6.443   3.509   4.563
 9886SOL     OW30556   0.141   2.980   1.357
 9886SOL    HW130557   0.207   2.907   1.339
 9886SOL    HW230558   0.165   3.026   1.443
 9887SOL     OW30559   4.735   6.360   5.815
 9887SOL    HW130560   4.654   6.409   5.844
 9887SOL    HW230561   4.787   6.415   5.750
 9888SOL     OW30562   6.386   4.693   5.841
 9888SOL    HW130563   6.480   4.725   5.825
 9888SOL    HW230564   6.322   4.755   5.796
 9889SOL     OW30565   0.483   5.989   0.828
 9889SOL    HW130566   0.560   5.964   0.769
 9889SOL    HW230567   0.429   5.908   0.849
 9890SOL     OW30568   0.597   2.668   0.444
 9890SOL    HW130569   0.688   2.708   0.454
 9890SOL    HW230570   0.534   2.712   0.508
 9891SOL     OW30571   5.434   1.119   1.862
 9891SOL    HW130572   5.484   1.127   1.949
 9891SOL    HW230573   5.404   1.024   1.850
 9892SOL     OW30574   0.787   0.148   6.505
 9892SOL    HW130575   0.709   0.086   6.500
 9892SOL    HW230576   0.800   0.177   6.600
 9893SOL     OW30577   2.138   0.987   0.115
 9893SOL    HW130578   2.045   1.023   0.126
 9893SOL    HW230579   2.152   0.958   0.020
 9894SOL     OW30580   2.013   0.884   1.513
 9894SOL    HW130581   1.997   0.906   1.417
 9894SOL    HW230582   1.997   0.786   1.528
 9895SOL     OW30583   4.466   2.991   5.309
 9895SOL    HW130584   4.511   2.993   5.398
 9895SOL    HW230585   4.400   3.066   5.303
 9896SOL     OW30586   6.509   6.726   5.733
 9896SOL    HW130587   6.423   6.708   5.780
 9896SOL    HW230588   6.506   6.817   5.691
 9897SOL     OW30589   4.921   4.625   4.819
 9897SOL    HW130590   4.984   4.601   4.745
 9897SOL    HW230591   4.944   4.716   4.854
 9898SOL     OW30592   2.535   0.247   6.478
 9898SOL    HW130593   2.577   0.271   6.390
 9898SOL    HW230594   2.588   0.175   6.522
 9899SOL     OW30595   0.083   4.691   0.157
 9899SOL    HW130596   0.092   4.717   0.254
 9899SOL    HW230597   0.095   4.771   0.100
 9900SOL     OW30598   2.286   4.167   3.311
 9900SOL    HW130599   2.229   4.195   3.388
 9900SOL    HW230600   2.231   4.114   3.246
 9901SOL     OW30601   2.122   3.118   5.486
 9901SOL    HW130602   2.206   3.166   5.462
 9901SOL    HW230603   2.133   3.072   5.574
 9902SOL     OW30604   2.780   4.293   0.615
 9902SOL    HW130605   2.690   4.319   0.650
 9902SOL    HW230606   2.839   4.267   0.691
 9903SOL     OW30607   5.334   1.121   4.986
 9903SOL    HW130608   5.431   1.143   4.976
 9903SOL    HW230609   5.321   1.058   5.062
 9904SOL     OW30610   6.071   1.840   0.428
 9904SOL    HW130611   6.145   1.780   0.397
 9904SOL    HW230612   6.079   1.929   0.383
 9905SOL     OW30613   4.781   0.349   0.175
 9905SOL    HW130614   4.724   0.431   0.182
 9905SOL    HW230615   4.870   0.368   0.217
 9906SOL     OW30616   2.889   3.335   4.692
 9906SOL    HW130617   2.802   3.304   4.732
 9906SOL    HW230618   2.941   3.386   4.760
 9907SOL     OW30619   1.399   6.527   1.609
 9907SOL    HW130620   1.308   6.500   1.578
 9907SOL    HW230621   1.466   6.507   1.537
 9908SOL     OW30622   5.276   3.819   1.896
 9908SOL    HW130623   5.203   3.827   1.965
 9908SOL    HW230624   5.242   3.769   1.817
 9909SOL     OW30625   2.033   0.339   4.871
 9909SOL    HW130626   2.014   0.243   4.847
 9909SOL    HW230627   2.126   0.362   4.844
 9910SOL     OW30628   6.717   4.605   3.575
 9910SOL    HW130629   6.644   4.667   3.546
 9910SOL    HW230630   6.794   4.613   3.513
 9911SOL     OW30631   2.451   6.389   2.362
 9911SOL    HW130632   2.379   6.324   2.340
 9911SOL    HW230633   2.539   6.354   2.330
 9912SOL     OW30634   4.437   0.643   6.294
 9912SOL    HW130635   4.458   0.648   6.197
 9912SOL    HW230636   4.482   0.563   6.334
 9913SOL     OW30637   5.315   3.308   0.567
 9913SOL    HW130638   5.223   3.338   0.543
 9913SOL    HW230639   5.333   3.331   0.663
 9914SOL     OW30640   6.749   3.543   4.713
 9914SOL    HW130641   6.815   3.552   4.638
 9914SOL    HW230642   6.733   3.632   4.754
 9915SOL     OW30643   4.495   1.358   3.471
 9915SOL    HW130644   4.587   1.390   3.496
 9915SOL    HW230645   4.461   1.298   3.543
 9916SOL     OW30646   1.307   2.925   1.351
 9916SOL    HW130647   1.392   2.892   1.311
 9916SOL    HW230648   1.303   2.898   1.448
 9917SOL     OW30649   6.044   4.265   5.009
 9917SOL    HW130650   6.140   4.240   4.994
 9917SOL    HW230651   6.038   4.360   5.040
 9918SOL     OW30652   4.863   3.274   2.332
 9918SOL    HW130653   4.953   3.241   2.305
 9918SOL    HW230654   4.792   3.223   2.283
 9919SOL     OW30655   5.345   5.781   0.301
 9919SOL    HW130656   5.299   5.832   0.373
 9919SOL    HW230657   5.370   5.691   0.335
 9920SOL     OW30658   4.996   1.486   2.441
 9920SOL    HW130659   5.001   1.490   2.341
 9920SOL    HW230660   5.078   1.443   2.478
 9921SOL     OW30661   4.084   5.095   6.235
 9921SOL    HW130662   4.085   5.016   6.173
 9921SOL    HW230663   3.991   5.111   6.268
 9922SOL     OW30664   6.909   6.101   1.269
 9922SOL    HW130665   6.902   6.200   1.286
 9922SOL    HW230666   6.964   6.086   1.187
 9923SOL     OW30667   5.824   4.639   0.779
 9923SOL    HW130668   5.876   4.674   0.857
 9923SOL    HW230669   5.743   4.591   0.812
 9924SOL     OW30670   1.537   4.099   4.484
 9924SOL    HW130671   1.482   4.096   4.401
 9924SOL    HW230672   1.551   4.194   4.511
 9925SOL     OW30673   4.939   2.426   4.273
 9925SOL    HW130674   4.974   2.406   4.365
 9925SOL    HW230675   4.841   2.407   4.270
 9926SOL     OW30676   3.441   5.119   1.367
 9926SOL    HW130677   3.527   5.170   1.375
 9926SOL    HW230678   3.364   5.179   1.392
 9927SOL     OW30679   5.083   0.201   4.080
 9927SOL    HW130680   4.986   0.185   4.095
 9927SOL    HW230681   5.113   0.277   4.137
 9928SOL     OW30682   4.973   4.245   2.363
 9928SOL    HW130683   4.997   4.195   2.446
 9928SOL    HW230684   5.048   4.306   2.337
 9929SOL     OW30685   0.933   3.990   3.352
 9929SOL    HW130686   0.952   4.082   3.388
 9929SOL    HW230687   1.017   3.951   3.315
 9930SOL     OW30688   5.769   1.169   2.993
 9930SOL    HW130689   5.846   1.192   3.053
 9930SOL    HW230690   5.737   1.251   2.946
 9931SOL     OW30691   1.146   5.340   5.558
 9931SOL    HW130692   1.113   5.263   5.611
 9931SOL    HW230693   1.212   5.308   5.490
 9932SOL     OW30694   0.746   6.130   4.551
 9932SOL    HW130695   0.705   6.039   4.540
 9932SOL    HW230696   0.743   6.179   4.463
 9933SOL     OW30697   6.715   6.725   2.926
 9933SOL    HW130698   6.701   6.704   3.023
 9933SOL    HW230699   6.781   6.660   2.888
 9934SOL     OW30700   0.173   2.198   5.050
 9934SOL    HW130701   0.111   2.240   5.117
 9934SOL    HW230702   0.238   2.139   5.098
 9935SOL     OW30703   2.334   0.497   6.175
 9935SOL    HW130704   2.418   0.450   6.202
 9935SOL    HW230705   2.264   0.430   6.153
 9936SOL     OW30706   1.662   3.946   3.738
 9936SOL    HW130707   1.620   3.926   3.650
 9936SOL    HW230708   1.753   3.906   3.741
 9937SOL     OW30709   6.395   2.085   6.093
 9937SOL    HW130710   6.429   2.045   6.177
 9937SOL    HW230711   6.404   2.185   6.098
 9938SOL     OW30712   6.645   6.455   2.834
 9938SOL    HW130713   6.589   6.469   2.752
 9938SOL    HW230714   6.587   6.461   2.915
 9939SOL     OW30715   3.362   3.311   3.805
 9939SOL    HW130716   3.272   3.344   3.776
 9939SOL    HW230717   3.369   3.213   3.788
 9940SOL     OW30718   0.529   1.470   1.132
 9940SOL    HW130719   0.585   1.520   1.066
 9940SOL    HW230720   0.432   1.485   1.110
 9941SOL     OW30721   3.181   5.896   4.517
 9941SOL    HW130722   3.228   5.900   4.428
 9941SOL    HW230723   3.181   5.802   4.551
 9942SOL     OW30724   2.662   5.565   4.205
 9942SOL    HW130725   2.734   5.634   4.204
 9942SOL    HW230726   2.677   5.500   4.131
 9943SOL     OW30727   0.539   6.982   4.784
 9943SOL    HW130728   0.562   0.059   4.783
 9943SOL    HW230729   0.597   6.933   4.718
 9944SOL     OW30730   1.992   4.780   6.377
 9944SOL    HW130731   1.938   4.778   6.461
 9944SOL    HW230732   1.938   4.816   6.302
 9945SOL     OW30733   0.167   5.983   6.693
 9945SOL    HW130734   0.074   6.009   6.719
 9945SOL    HW230735   0.216   5.949   6.773
 9946SOL     OW30736   5.482   0.538   4.077
 9946SOL    HW130737   5.544   0.565   4.003
 9946SOL    HW230738   5.399   0.499   4.038
 9947SOL     OW30739   5.972   4.379   4.025
 9947SOL    HW130740   6.039   4.392   3.951
 9947SOL    HW230741   6.007   4.423   4.108
 9948SOL     OW30742   5.250   3.984   3.673
 9948SOL    HW130743   5.310   4.064   3.662
 9948SOL    HW230744   5.211   3.959   3.584
 9949SOL     OW30745   6.470   5.192   2.027
 9949SOL    HW130746   6.491   5.176   1.930
 9949SOL    HW230747   6.480   5.107   2.077
 9950SOL     OW30748   3.781   6.145   0.242
 9950SOL    HW130749   3.809   6.238   0.267
 9950SOL    HW230750   3.695   6.123   0.289
 9951SOL     OW30751   6.457   2.953   3.277
 9951SOL    HW130752   6.447   2.965   3.178
 9951SOL    HW230753   6.394   3.014   3.324
 9952SOL     OW30754   0.442   4.235   6.378
 9952SOL    HW130755   0.460   4.137   6.362
 9952SOL    HW230756   0.522   4.288   6.350
 9953SOL     OW30757   5.565   3.291   3.950
 9953SOL    HW130758   5.480   3.284   3.898
 9953SOL    HW230759   5.549   3.343   4.034
 9954SOL     OW30760   4.595   0.528   5.029
 9954SOL    HW130761   4.602   0.428   5.034
 9954SOL    HW230762   4.505   0.557   5.061
 9955SOL     OW30763   0.331   4.668   4.185
 9955SOL    HW130764   0.321   4.600   4.258
 9955SOL    HW230765   0.421   4.712   4.193
 9956SOL     OW30766   1.088   6.209   0.465
 9956SOL    HW130767   1.149   6.227   0.542
 9956SOL    HW230768   1.116   6.263   0.386
 9957SOL     OW30769   5.733   5.369   2.351
 9957SOL    HW130770   5.735   5.316   2.436
 9957SOL    HW230771   5.729   5.306   2.273
 9958SOL     OW30772   3.082   4.451   1.118
 9958SOL    HW130773   3.056   4.367   1.167
 9958SOL    HW230774   3.008   4.477   1.056
 9959SOL     OW30775   3.243   4.020   1.305
 9959SOL    HW130776   3.242   4.091   1.376
 9959SOL    HW230777   3.183   3.945   1.333
 9960SOL     OW30778   0.717   1.060   2.316
 9960SOL    HW130779   0.781   1.076   2.392
 9960SOL    HW230780   0.747   1.112   2.236
 9961SOL     OW30781   2.143   3.839   4.633
 9961SOL    HW130782   2.049   3.805   4.636
 9961SOL    HW230783   2.164   3.888   4.717
 9962SOL     OW30784   5.726   6.094   4.509
 9962SOL    HW130785   5.802   6.160   4.506
 9962SOL    HW230786   5.677   6.096   4.422
 9963SOL     OW30787   3.152   1.943   0.384
 9963SOL    HW130788   3.195   1.858   0.352
 9963SOL    HW230789   3.222   2.013   0.396
 9964SOL     OW30790   5.985   6.525   4.850
 9964SOL    HW130791   6.002   6.611   4.802
 9964SOL    HW230792   5.896   6.528   4.894
 9965SOL     OW30793   5.328   6.782   0.883
 9965SOL    HW130794   5.274   6.770   0.801
 9965SOL    HW230795   5.310   6.707   0.947
 9966SOL     OW30796   6.514   1.219   2.567
 9966SOL    HW130797   6.568   1.303   2.572
 9966SOL    HW230798   6.543   1.157   2.640
 9967SOL     OW30799   0.978   5.526   0.369
 9967SOL    HW130800   0.887   5.523   0.328
 9967SOL    HW230801   1.031   5.600   0.326
 9968SOL     OW30802   3.957   3.493   3.407
 9968SOL    HW130803   3.934   3.469   3.501
 9968SOL    HW230804   3.943   3.591   3.392
 9969SOL     OW30805   1.430   3.455   1.012
 9969SOL    HW130806   1.344   3.449   1.062
 9969SOL    HW230807   1.445   3.369   0.961
 9970SOL     OW30808   6.636   4.488   2.384
 9970SOL    HW130809   6.547   4.512   2.422
 9970SOL    HW230810   6.650   4.389   2.391
 9971SOL     OW30811   2.824   6.572   6.878
 9971SOL    HW130812   2.834   6.496   6.814
 9971SOL    HW230813   2.882   6.557   6.958
 9972SOL     OW30814   0.016   5.167   1.498
 9972SOL    HW130815   6.967   5.114   1.449
 9972SOL    HW230816   6.991   5.233   1.558
 9973SOL     OW30817   5.387   6.459   3.589
 9973SOL    HW130818   5.339   6.495   3.509
 9973SOL    HW230819   5.466   6.406   3.559
 9974SOL     OW30820   2.432   0.717   4.237
 9974SOL    HW130821   2.374   0.791   4.203
 9974SOL    HW230822   2.380   0.632   4.239
 9975SOL     OW30823   6.826   4.153   0.683
 9975SOL    HW130824   6.814   4.055   0.697
 9975SOL    HW230825   6.743   4.201   0.711
 9976SOL     OW30826   3.490   6.806   4.077
 9976SOL    HW130827   3.493   6.707   4.088
 9976SOL    HW230828   3.453   6.828   3.986
 9977SOL     OW30829   6.918   4.911   3.974
 9977SOL    HW130830   6.900   4.840   3.907
 9977SOL    HW230831   6.837   4.968   3.986
 9978SOL     OW30832   6.784   3.000   4.051
 9978SOL    HW130833   6.826   2.990   4.142
 9978SOL    HW230834   6.833   3.071   4.000
 9979SOL     OW30835   1.127   3.767   4.932
 9979SOL    HW130836   1.165   3.726   4.849
 9979SOL    HW230837   1.060   3.704   4.972
 9980SOL     OW30838   2.845   6.615   4.852
 9980SOL    HW130839   2.796   6.585   4.934
 9980SOL    HW230840   2.911   6.686   4.877
 9981SOL     OW30841   3.931   2.092   3.181
 9981SOL    HW130842   3.989   2.173   3.171
 9981SOL    HW230843   3.899   2.086   3.276
 9982SOL     OW30844   6.286   6.979   2.829
 9982SOL    HW130845   6.368   6.980   2.886
 9982SOL    HW230846   6.307   6.937   2.741
 9983SOL     OW30847   6.801   0.793   1.388
 9983SOL    HW130848   6.866   0.717   1.384
 9983SOL    HW230849   6.709   0.757   1.400
 9984SOL     OW30850   3.343   0.620   6.276
 9984SOL    HW130851   3.418   0.582   6.330
 9984SOL    HW230852   3.291   0.684   6.333
 9985SOL     OW30853   1.449   1.591   1.153
 9985SOL    HW130854   1.489   1.638   1.074
 9985SOL    HW230855   1.519   1.537   1.199
 9986SOL     OW30856   4.818   4.229   4.413
 9986SOL    HW130857   4.884   4.159   4.439
 9986SOL    HW230858   4.846   4.270   4.326
 9987SOL     OW30859   6.920   4.205   5.256
 9987SOL    HW130860   6.949   4.117   5.219
 9987SOL    HW230861   6.928   4.204   5.356
 9988SOL     OW30862   6.687   1.030   3.846
 9988SOL    HW130863   6.761   1.097   3.842
 9988SOL    HW230864   6.604   1.075   3.879
 9989SOL     OW30865   1.840   2.415   4.919
 9989SOL    HW130866   1.808   2.498   4.966
 9989SOL    HW230867   1.888   2.441   4.835
 9990SOL     OW30868   1.320   4.973   1.510
 9990SOL    HW130869   1.360   4.923   1.433
 9990SOL    HW230870   1.223   4.949   1.518
 9991SOL     OW30871   3.899   1.940   3.486
 9991SOL    HW130872   3.833   2.016   3.483
 9991SOL    HW230873   3.877   1.875   3.413
 9992SOL     OW30874   6.136   5.402   6.280
 9992SOL    HW130875   6.197   5.443   6.212
 9992SOL    HW230876   6.191   5.362   6.353
 9993SOL     OW30877   1.286   0.545   2.237
 9993SOL    HW130878   1.255   0.640   2.248
 9993SOL    HW230879   1.295   0.524   2.140
 9994SOL     OW30880   6.200   4.138   3.473
 9994SOL    HW130881   6.258   4.072   3.520
 9994SOL    HW230882   6.256   4.210   3.432
 9995SOL     OW30883   5.835   1.597   4.502
 9995SOL    HW130884   5.749   1.591   4.552
 9995SOL    HW230885   5.851   1.692   4.475
 9996SOL     OW30886   3.110   3.148   0.565
 9996SOL    HW130887   3.057   3.069   0.597
 9996SOL    HW230888   3.190   3.159   0.623
 9997SOL     OW30889   2.463   0.853   4.484
 9997SOL    HW130890   2.378   0.905   4.488
 9997SOL    HW230891   2.464   0.797   4.401
 9998SOL     OW30892   6.288   6.205   4.981
 9998SOL    HW130893   6.268   6.142   4.906
 9998SOL    HW230894   6.386   6.215   4.992
 9999SOL     OW30895   0.263   1.027   5.019
 9999SOL    HW130896   0.352   1.045   4.977
 9999SOL    HW230897   0.255   0.930   5.040
10000SOL     OW30898   6.557   4.771   0.939
10000SOL    HW130899   6.561   4.725   1.028
10000SOL    HW230900   6.478   4.737   0.888
10001SOL     OW30901   3.517   0.370   3.780
10001SOL    HW130902   3.579   0.434   3.735
10001SOL    HW230903   3.424   0.408   3.777
10002SOL     OW30904   0.918   2.002   1.583
10002SOL    HW130905   0.928   1.971   1.489
10002SOL    HW230906   0.976   2.082   1.598
10003SOL     OW30907   5.583   4.145   1.808
10003SOL    HW130908   5.620   4.173   1.896
10003SOL    HW230909   5.647   4.081   1.764
10004SOL     OW30910   6.566   3.967   3.965
10004SOL    HW130911   6.640   3.988   4.029
10004SOL    HW230912   6.594   3.990   3.872
10005SOL     OW30913   4.544   0.509   3.464
10005SOL    HW130914   4.503   0.472   3.547
10005SOL    HW230915   4.620   0.450   3.435
10006SOL     OW30916   4.901   2.698   4.186
10006SOL    HW130917   4.986   2.748   4.203
10006SOL    HW230918   4.912   2.603   4.215
10007SOL     OW30919   5.178   5.321   3.918
10007SOL    HW130920   5.101   5.272   3.960
10007SOL    HW230921   5.264   5.280   3.950
10008SOL     OW30922   2.656   0.097   4.097
10008SOL    HW130923   2.586   0.165   4.074
10008SOL    HW230924   2.742   0.121   4.054
10009SOL     OW30925   2.047   4.236   1.543
10009SOL    HW130926   1.964   4.188   1.571
10009SOL    HW230927   2.026   4.301   1.471
10010SOL     OW30928   5.518   0.876   6.327
10010SOL    HW130929   5.551   0.965   6.295
10010SOL    HW230930   5.595   0.821   6.360
10011SOL     OW30931   0.034   6.515   3.754
10011SOL    HW130932   0.059   6.557   3.667
10011SOL    HW230933   6.967   6.465   3.743
10012SOL     OW30934   4.831   1.138   5.348
10012SOL    HW130935   4.827   1.195   5.430
10012SOL    HW230936   4.836   1.042   5.374
10013SOL     OW30937   1.341   0.576   1.179
10013SOL    HW130938   1.441   0.573   1.172
10013SOL    HW230939   1.304   0.486   1.158
10014SOL     OW30940   1.264   4.794   5.834
10014SOL    HW130941   1.277   4.887   5.868
10014SOL    HW230942   1.192   4.794   5.764
10015SOL     OW30943   2.685   6.018   5.982
10015SOL    HW130944   2.705   5.921   5.974
10015SOL    HW230945   2.744   6.070   5.920
10016SOL     OW30946   2.315   1.360   5.455
10016SOL    HW130947   2.363   1.435   5.410
10016SOL    HW230948   2.284   1.389   5.545
10017SOL     OW30949   6.887   2.257   3.049
10017SOL    HW130950   6.893   2.262   2.950
10017SOL    HW230951   6.791   2.244   3.076
10018SOL     OW30952   4.674   6.593   6.372
10018SOL    HW130953   4.696   6.686   6.344
10018SOL    HW230954   4.759   6.546   6.398
10019SOL     OW30955   0.992   0.770   3.719
10019SOL    HW130956   0.935   0.737   3.794
10019SOL    HW230957   1.088   0.767   3.745
10020SOL     OW30958   0.916   3.792   0.193
10020SOL    HW130959   0.932   3.729   0.269
10020SOL    HW230960   0.826   3.834   0.203
10021SOL     OW30961   4.954   3.248   1.170
10021SOL    HW130962   4.990   3.283   1.084
10021SOL    HW230963   5.011   3.173   1.203
10022SOL     OW30964   2.227   1.113   6.026
10022SOL    HW130965   2.312   1.162   6.004
10022SOL    HW230966   2.243   1.015   6.019
10023SOL     OW30967   0.147   3.103   0.103
10023SOL    HW130968   0.220   3.068   0.162
10023SOL    HW230969   0.184   3.123   0.012
10024SOL     OW30970   1.096   3.755   2.743
10024SOL    HW130971   1.001   3.767   2.773
10024SOL    HW230972   1.111   3.808   2.659
10025SOL     OW30973   1.221   1.588   0.851
10025SOL    HW130974   1.196   1.491   0.857
10025SOL    HW230975   1.316   1.600   0.879
10026SOL     OW30976   6.138   0.618   4.601
10026SOL    HW130977   6.109   0.702   4.555
10026SOL    HW230978   6.058   0.563   4.623
10027SOL     OW30979   5.674   2.943   5.976
10027SOL    HW130980   5.580   2.967   5.998
10027SOL    HW230981   5.731   3.025   5.977
10028SOL     OW30982   1.718   1.860   1.483
10028SOL    HW130983   1.647   1.930   1.486
10028SOL    HW230984   1.794   1.887   1.542
10029SOL     OW30985   3.987   1.487   4.278
10029SOL    HW130986   3.952   1.491   4.184
10029SOL    HW230987   3.929   1.427   4.333
10030SOL     OW30988   0.414   0.990   1.984
10030SOL    HW130989   0.468   0.993   1.900
10030SOL    HW230990   0.341   0.922   1.975
10031SOL     OW30991   0.238   5.188   3.097
10031SOL    HW130992   0.214   5.103   3.144
10031SOL    HW230993   0.236   5.173   2.998
10032SOL     OW30994   3.571   2.006   5.070
10032SOL    HW130995   3.552   2.045   5.160
10032SOL    HW230996   3.629   2.069   5.018
10033SOL     OW30997   5.726   2.837   3.950
10033SOL    HW130998   5.688   2.789   4.029
10033SOL    HW230999   5.680   2.925   3.939
10034SOL     OW31000   4.022   6.376   6.000
10034SOL    HW131001   4.068   6.411   5.919
10034SOL    HW231002   4.039   6.438   6.077
10035SOL     OW31003   0.433   6.424   4.298
10035SOL    HW131004   0.384   6.445   4.383
10035SOL    HW231005   0.460   6.510   4.254
10036SOL     OW31006   6.360   0.223   0.365
10036SOL    HW131007   6.417   0.306   0.362
10036SOL    HW231008   6.272   0.244   0.407
10037SOL     OW31009   0.118   6.819   1.216
10037SOL    HW131010   0.196   6.821   1.154
10037SOL    HW231011   0.123   6.737   1.273
10038SOL     OW31012   5.991   6.867   1.156
10038SOL    HW131013   5.960   6.918   1.237
10038SOL    HW231014   5.941   6.899   1.076
10039SOL     OW31015   3.945   0.963   2.968
10039SOL    HW131016   3.896   1.050   2.958
10039SOL    HW231017   3.938   0.911   2.883
10040SOL     OW31018   0.943   2.018   0.345
10040SOL    HW131019   1.011   2.071   0.395
10040SOL    HW231020   0.890   1.962   0.408
10041SOL     OW31021   0.915   6.723   6.898
10041SOL    HW131022   0.999   6.695   6.945
10041SOL    HW231023   0.843   6.739   6.966
10042SOL     OW31024   6.699   1.972   3.708
10042SOL    HW131025   6.765   1.902   3.679
10042SOL    HW231026   6.709   2.053   3.650
10043SOL     OW31027   2.562   2.893   5.674
10043SOL    HW131028   2.519   2.817   5.722
10043SOL    HW231029   2.602   2.957   5.740
10044SOL     OW31030   4.174   0.703   6.741
10044SOL    HW131031   4.147   0.775   6.676
10044SOL    HW231032   4.141   0.615   6.708
10045SOL     OW31033   2.246   0.561   1.572
10045SOL    HW131034   2.268   0.482   1.514
10045SOL    HW231035   2.156   0.547   1.613
10046SOL     OW31036   0.721   6.032   6.610
10046SOL    HW131037   0.647   6.098   6.618
10046SOL    HW231038   0.754   6.008   6.702
10047SOL     OW31039   1.480   4.274   1.017
10047SOL    HW131040   1.490   4.174   1.020
10047SOL    HW231041   1.557   4.317   1.063
10048SOL     OW31042   6.248   3.625   1.035
10048SOL    HW131043   6.234   3.566   1.115
10048SOL    HW231044   6.251   3.570   0.952
10049SOL     OW31045   6.638   2.098   4.644
10049SOL    HW131046   6.710   2.127   4.582
10049SOL    HW231047   6.551   2.141   4.617
10050SOL     OW31048   0.040   2.284   6.003
10050SOL    HW131049   0.050   2.206   5.940
10050SOL    HW231050   0.130   2.325   6.018
10051SOL     OW31051   1.819   0.361   3.105
10051SOL    HW131052   1.760   0.287   3.138
10051SOL    HW231053   1.913   0.328   3.097
10052SOL     OW31054   0.947   0.081   4.292
10052SOL    HW131055   0.936   7.003   4.310
10052SOL    HW231056   1.030   0.096   4.238
10053SOL     OW31057   6.054   5.376   2.210
10053SOL    HW131058   6.070   5.392   2.308
10053SOL    HW231059   5.956   5.361   2.195
10054SOL     OW31060   4.994   4.298   3.462
10054SOL    HW131061   4.919   4.311   3.397
10054SOL    HW231062   4.992   4.370   3.532
10055SOL     OW31063   1.995   1.878   7.007
10055SOL    HW131064   2.028   1.872   6.913
10055SOL    HW231065   1.965   1.788   0.017
10056SOL     OW31066   4.930   2.477   4.772
10056SOL    HW131067   4.957   2.429   4.689
10056SOL    HW231068   4.856   2.540   4.751
10057SOL     OW31069   5.737   4.441   4.605
10057SOL    HW131070   5.806   4.466   4.537
10057SOL    HW231071   5.646   4.460   4.570
10058SOL     OW31072   6.345   4.144   4.039
10058SOL    HW131073   6.257   4.113   4.077
10058SOL    HW231074   6.404   4.065   4.023
10059SOL     OW31075   5.345   6.059   5.878
10059SOL    HW131076   5.320   6.103   5.964
10059SOL    HW231077   5.415   6.113   5.832
10060SOL     OW31078   2.905   1.559   1.674
10060SOL    HW131079   2.872   1.519   1.760
10060SOL    HW231080   2.844   1.633   1.647
10061SOL     OW31081   4.220   0.086   3.414
10061SOL    HW131082   4.165   0.166   3.440
10061SOL    HW231083   4.162   0.004   3.415
10062SOL     OW31084   6.661   0.418   4.423
10062SOL    HW131085   6.640   0.441   4.328
10062SOL    HW231086   6.686   0.321   4.429
10063SOL     OW31087   4.108   2.310   3.191
10063SOL    HW131088   4.145   2.402   3.174
10063SOL    HW231089   4.124   2.285   3.286
10064SOL     OW31090   2.475   6.086   2.551
10064SOL    HW131091   2.433   6.156   2.494
10064SOL    HW231092   2.438   6.093   2.644
10065SOL     OW31093   6.456   2.032   1.529
10065SOL    HW131094   6.447   1.985   1.616
10065SOL    HW231095   6.413   1.978   1.457
10066SOL     OW31096   5.707   4.111   3.414
10066SOL    HW131097   5.768   4.188   3.392
10066SOL    HW231098   5.699   4.104   3.514
10067SOL     OW31099   5.464   3.215   5.040
10067SOL    HW131100   5.468   3.116   5.026
10067SOL    HW231101   5.509   3.262   4.963
10068SOL     OW31102   2.187   3.903   2.909
10068SOL    HW131103   2.150   3.811   2.893
10068SOL    HW231104   2.255   3.924   2.838
10069SOL     OW31105   2.941   5.352   1.491
10069SOL    HW131106   3.012   5.378   1.426
10069SOL    HW231107   2.971   5.272   1.542
10070SOL     OW31108   4.776   0.759   6.996
10070SOL    HW131109   4.705   0.828   7.008
10070SOL    HW231110   4.821   0.774   6.907
10071SOL     OW31111   4.951   1.259   5.112
10071SOL    HW131112   4.904   1.227   5.195
10071SOL    HW231113   5.045   1.284   5.135
10072SOL     OW31114   5.789   3.334   2.343
10072SOL    HW131115   5.782   3.237   2.320
10072SOL    HW231116   5.724   3.356   2.416
10073SOL     OW31117   5.862   5.672   5.159
10073SOL    HW131118   5.796   5.667   5.084
10073SOL    HW231119   5.813   5.684   5.245
10074SOL     OW31120   2.106   4.426   0.825
10074SOL    HW131121   2.047   4.364   0.876
10074SOL    HW231122   2.081   4.520   0.844
10075SOL     OW31123   0.775   3.431   1.314
10075SOL    HW131124   0.803   3.383   1.232
10075SOL    HW231125   0.680   3.407   1.336
10076SOL     OW31126   6.088   4.714   3.966
10076SOL    HW131127   6.062   4.751   3.877
10076SOL    HW231128   6.122   4.621   3.955
10077SOL     OW31129   4.127   3.678   6.896
10077SOL    HW131130   4.177   3.622   6.830
10077SOL    HW231131   4.189   3.749   6.933
10078SOL     OW31132   5.886   6.151   4.028
10078SOL    HW131133   5.801   6.121   3.984
10078SOL    HW231134   5.961   6.145   3.963
10079SOL     OW31135   6.175   4.856   3.031
10079SOL    HW131136   6.109   4.877   3.104
10079SOL    HW231137   6.268   4.864   3.068
10080SOL     OW31138   5.243   2.733   5.191
10080SOL    HW131139   5.194   2.756   5.107
10080SOL    HW231140   5.178   2.727   5.267
10081SOL     OW31141   1.607   4.965   0.781
10081SOL    HW131142   1.608   4.930   0.874
10081SOL    HW231143   1.518   4.947   0.739
10082SOL     OW31144   0.126   4.694   1.982
10082SOL    HW131145   0.089   4.603   1.999
10082SOL    HW231146   0.128   4.711   1.883
10083SOL     OW31147   3.424   5.965   3.047
10083SOL    HW131148   3.491   5.894   3.065
10083SOL    HW231149   3.334   5.936   3.081
10084SOL     OW31150   1.666   3.213   4.707
10084SOL    HW131151   1.719   3.274   4.648
10084SOL    HW231152   1.588   3.178   4.656
10085SOL     OW31153   3.442   6.918   1.937
10085SOL    HW131154   3.365   6.856   1.955
10085SOL    HW231155   3.511   6.908   2.009
10086SOL     OW31156   2.688   0.979   3.165
10086SOL    HW131157   2.739   0.921   3.101
10086SOL    HW231158   2.601   0.935   3.188
10087SOL     OW31159   1.524   5.574   6.036
10087SOL    HW131160   1.550   5.584   6.132
10087SOL    HW231161   1.476   5.656   6.005
10088SOL     OW31162   5.651   1.709   0.854
10088SOL    HW131163   5.693   1.618   0.863
10088SOL    HW231164   5.553   1.699   0.839
10089SOL     OW31165   3.598   6.629   3.095
10089SOL    HW131166   3.571   6.570   3.171
10089SOL    HW231167   3.516   6.668   3.053
10090SOL     OW31168   3.592   6.235   2.334
10090SOL    HW131169   3.637   6.195   2.414
10090SOL    HW231170   3.647   6.310   2.299
10091SOL     OW31171   5.024   5.925   3.073
10091SOL    HW131172   5.048   6.018   3.103
10091SOL    HW231173   5.074   5.903   2.990
10092SOL     OW31174   6.798   1.501   2.292
10092SOL    HW131175   6.865   1.455   2.233
10092SOL    HW231176   6.723   1.438   2.312
10093SOL     OW31177   4.753   4.112   6.262
10093SOL    HW131178   4.717   4.137   6.171
10093SOL    HW231179   4.846   4.148   6.272
10094SOL     OW31180   4.259   2.606   0.603
10094SOL    HW131181   4.345   2.632   0.559
10094SOL    HW231182   4.277   2.583   0.699
10095SOL     OW31183   4.396   2.703   5.301
10095SOL    HW131184   4.309   2.676   5.261
10095SOL    HW231185   4.401   2.803   5.305
10096SOL     OW31186   6.879   4.848   1.895
10096SOL    HW131187   6.893   4.947   1.895
10096SOL    HW231188   6.887   4.813   1.989
10097SOL     OW31189   0.885   0.877   1.470
10097SOL    HW131190   0.837   0.813   1.531
10097SOL    HW231191   0.911   0.829   1.386
10098SOL     OW31192   4.001   4.928   0.617
10098SOL    HW131193   4.027   4.978   0.700
10098SOL    HW231194   3.956   4.843   0.642
10099SOL     OW31195   6.765   6.443   3.227
10099SOL    HW131196   6.804   6.388   3.153
10099SOL    HW231197   6.784   6.400   3.315
10100SOL     OW31198   5.399   5.151   3.933
10100SOL    HW131199   5.457   5.214   3.984
10100SOL    HW231200   5.455   5.097   3.870
10101SOL     OW31201   6.720   2.132   6.233
10101SOL    HW131202   6.792   2.200   6.251
10101SOL    HW231203   6.735   2.091   6.143
10102SOL     OW31204   0.572   4.956   2.980
10102SOL    HW131205   0.584   5.005   3.066
10102SOL    HW231206   0.485   4.907   2.982
10103SOL     OW31207   0.061   0.638   6.893
10103SOL    HW131208   0.150   0.624   6.936
10103SOL    HW231209   0.056   0.583   6.809
10104SOL     OW31210   2.718   1.604   4.311
10104SOL    HW131211   2.762   1.691   4.332
10104SOL    HW231212   2.632   1.620   4.262
10105SOL     OW31213   3.594   1.607   3.973
10105SOL    HW131214   3.555   1.660   3.898
10105SOL    HW231215   3.522   1.587   4.041
10106SOL     OW31216   6.906   3.474   0.900
10106SOL    HW131217   6.904   3.574   0.903
10106SOL    HW231218   6.965   3.439   0.973
10107SOL     OW31219   4.621   5.459   5.383
10107SOL    HW131220   4.655   5.522   5.453
10107SOL    HW231221   4.696   5.433   5.322
10108SOL     OW31222   3.252   1.872   4.828
10108SOL    HW131223   3.157   1.869   4.796
10108SOL    HW231224   3.256   1.922   4.915
10109SOL     OW31225   1.061   3.188   0.564
10109SOL    HW131226   1.076   3.207   0.662
10109SOL    HW231227   1.088   3.094   0.544
10110SOL     OW31228   6.324   6.043   1.679
10110SOL    HW131229   6.337   5.954   1.634
10110SOL    HW231230   6.405   6.100   1.663
10111SOL     OW31231   6.082   2.435   2.074
10111SOL    HW131232   6.071   2.335   2.074
10111SOL    HW231233   6.009   2.476   2.019
10112SOL     OW31234   0.446   2.913   3.801
10112SOL    HW131235   0.444   2.824   3.756
10112SOL    HW231236   0.357   2.959   3.788
10113SOL     OW31237   6.925   0.016   6.233
10113SOL    HW131238   6.913   6.965   6.303
10113SOL    HW231239   6.866   7.015   6.155
10114SOL     OW31240   6.034   4.450   1.014
10114SOL    HW131241   5.943   4.455   1.055
10114SOL    HW231242   6.033   4.385   0.938
10115SOL     OW31243   2.989   1.712   6.548
10115SOL    HW131244   3.031   1.783   6.491
10115SOL    HW231245   3.061   1.656   6.590
10116SOL     OW31246   1.073   6.500   6.317
10116SOL    HW131247   0.998   6.461   6.371
10116SOL    HW231248   1.054   6.486   6.220
10117SOL     OW31249   0.881   4.297   1.226
10117SOL    HW131250   0.782   4.284   1.215
10117SOL    HW231251   0.908   4.383   1.184
10118SOL     OW31252   3.810   5.198   3.731
10118SOL    HW131253   3.736   5.155   3.782
10118SOL    HW231254   3.776   5.225   3.641
10119SOL     OW31255   5.757   5.902   6.866
10119SOL    HW131256   5.698   5.844   6.922
10119SOL    HW231257   5.844   5.915   6.912
10120SOL     OW31258   2.659   2.395   2.684
10120SOL    HW131259   2.583   2.359   2.631
10120SOL    HW231260   2.746   2.365   2.644
10121SOL     OW31261   6.668   5.786   2.144
10121SOL    HW131262   6.755   5.788   2.095
10121SOL    HW231263   6.640   5.880   2.166
10122SOL     OW31264   2.075   0.086   3.558
10122SOL    HW131265   2.032   0.001   3.530
10122SOL    HW231266   2.149   0.109   3.493
10123SOL     OW31267   6.182   6.692   6.549
10123SOL    HW131268   6.220   6.721   6.462
10123SOL    HW231269   6.214   6.599   6.570
10124SOL     OW31270   0.448   4.690   3.370
10124SOL    HW131271   0.484   4.765   3.315
10124SOL    HW231272   0.421   4.725   3.460
10125SOL     OW31273   1.947   2.721   4.057
10125SOL    HW131274   1.884   2.647   4.033
10125SOL    HW231275   1.916   2.765   4.142
10126SOL     OW31276   0.246   5.976   4.791
10126SOL    HW131277   0.263   5.878   4.801
10126SOL    HW231278   0.306   6.014   4.720
10127SOL     OW31279   2.743   0.779   4.870
10127SOL    HW131280   2.745   0.820   4.961
10127SOL    HW231281   2.720   0.682   4.877
10128SOL     OW31282   2.669   1.038   0.774
10128SOL    HW131283   2.696   0.943   0.760
10128SOL    HW231284   2.727   1.079   0.845
10129SOL     OW31285   6.597   1.821   5.716
10129SOL    HW131286   6.667   1.891   5.697
10129SOL    HW231287   6.548   1.845   5.799
10130SOL     OW31288   1.248   2.883   3.274
10130SOL    HW131289   1.183   2.854   3.204
10130SOL    HW231290   1.330   2.826   3.269
10131SOL     OW31291   2.786   0.858   5.122
10131SOL    HW131292   2.852   0.933   5.113
10131SOL    HW231293   2.772   0.838   5.219
10132SOL     OW31294   5.946   0.591   2.066
10132SOL    HW131295   5.915   0.631   1.980
10132SOL    HW231296   5.904   0.640   2.142
10133SOL     OW31297   4.817   5.873   1.697
10133SOL    HW131298   4.879   5.817   1.642
10133SOL    HW231299   4.728   5.827   1.702
10134SOL     OW31300   6.393   1.642   2.700
10134SOL    HW131301   6.345   1.555   2.688
10134SOL    HW231302   6.343   1.714   2.651
10135SOL     OW31303   6.498   0.085   3.211
10135SOL    HW131304   6.526   0.012   3.149
10135SOL    HW231305   6.575   0.109   3.271
10136SOL     OW31306   5.197   0.491   2.953
10136SOL    HW131307   5.266   0.454   2.891
10136SOL    HW231308   5.143   0.560   2.905
10137SOL     OW31309   6.218   6.150   2.673
10137SOL    HW131310   6.308   6.106   2.680
10137SOL    HW231311   6.217   6.211   2.594
10138SOL     OW31312   6.943   1.888   1.832
10138SOL    HW131313   6.955   1.830   1.912
10138SOL    HW231314   6.931   1.983   1.861
10139SOL     OW31315   4.053   2.478   1.309
10139SOL    HW131316   4.143   2.473   1.354
10139SOL    HW231317   4.029   2.574   1.295
10140SOL     OW31318   6.116   6.148   3.854
10140SOL    HW131319   6.135   6.240   3.820
10140SOL    HW231320   6.136   6.081   3.783
10141SOL     OW31321   0.864   1.860   4.915
10141SOL    HW131322   0.924   1.833   4.839
10141SOL    HW231323   0.854   1.960   4.915
10142SOL     OW31324   4.515   6.718   1.752
10142SOL    HW131325   4.504   6.705   1.851
10142SOL    HW231326   4.485   6.636   1.704
10143SOL     OW31327   0.251   3.187   6.888
10143SOL    HW131328   0.179   3.256   6.880
10143SOL    HW231329   0.338   3.233   6.904
10144SOL     OW31330   4.687   0.299   2.354
10144SOL    HW131331   4.666   0.360   2.277
10144SOL    HW231332   4.665   0.205   2.328
10145SOL     OW31333   6.487   0.467   5.374
10145SOL    HW131334   6.575   0.420   5.383
10145SOL    HW231335   6.502   0.558   5.336
10146SOL     OW31336   1.723   1.708   5.531
10146SOL    HW131337   1.756   1.663   5.448
10146SOL    HW231338   1.625   1.725   5.523
10147SOL     OW31339   3.718   4.715   0.422
10147SOL    HW131340   3.740   4.620   0.442
10147SOL    HW231341   3.682   4.722   0.329
10148SOL     OW31342   6.634   5.594   6.667
10148SOL    HW131343   6.634   5.692   6.686
10148SOL    HW231344   6.719   5.553   6.702
10149SOL     OW31345   3.695   2.983   4.425
10149SOL    HW131346   3.700   2.951   4.519
10149SOL    HW231347   3.643   3.068   4.421
10150SOL     OW31348   6.421   3.911   6.593
10150SOL    HW131349   6.514   3.926   6.561
10150SOL    HW231350   6.377   3.840   6.538
10151SOL     OW31351   0.289   0.321   0.066
10151SOL    HW131352   0.291   0.417   0.038
10151SOL    HW231353   0.292   0.262   7.005
10152SOL     OW31354   3.711   6.618   3.975
10152SOL    HW131355   3.782   6.686   3.992
10152SOL    HW231356   3.637   6.659   3.922
10153SOL     OW31357   4.753   4.182   0.984
10153SOL    HW131358   4.707   4.242   1.049
10153SOL    HW231359   4.686   4.129   0.932
10154SOL     OW31360   5.085   5.319   6.198
10154SOL    HW131361   5.079   5.412   6.164
10154SOL    HW231362   5.051   5.255   6.129
10155SOL     OW31363   4.673   2.368   5.217
10155SOL    HW131364   4.610   2.426   5.165
10155SOL    HW231365   4.716   2.302   5.155
10156SOL     OW31366   3.109   1.923   6.922
10156SOL    HW131367   3.089   1.975   6.838
10156SOL    HW231368   3.023   1.899   6.967
10157SOL     OW31369   0.211   6.044   2.354
10157SOL    HW131370   0.189   6.046   2.256
10157SOL    HW231371   0.158   5.973   2.399
10158SOL     OW31372   0.447   4.711   6.247
10158SOL    HW131373   0.506   4.787   6.216
10158SOL    HW231374   0.367   4.706   6.188
10159SOL     OW31375   3.907   3.253   1.767
10159SOL    HW131376   3.866   3.196   1.839
10159SOL    HW231377   4.006   3.252   1.775
10160SOL     OW31378   0.143   4.715   2.388
10160SOL    HW131379   0.075   4.718   2.461
10160SOL    HW231380   0.166   4.620   2.367
10161SOL     OW31381   6.527   2.270   0.611
10161SOL    HW131382   6.535   2.231   0.520
10161SOL    HW231383   6.471   2.353   0.608
10162SOL     OW31384   1.993   1.933   2.260
10162SOL    HW131385   1.899   1.915   2.290
10162SOL    HW231386   2.001   1.912   2.163
10163SOL     OW31387   3.799   5.404   4.934
10163SOL    HW131388   3.743   5.394   4.852
10163SOL    HW231389   3.805   5.317   4.982
10164SOL     OW31390   0.726   1.537   3.589
10164SOL    HW131391   0.769   1.577   3.670
10164SOL    HW231392   0.627   1.533   3.602
10165SOL     OW31393   2.202   3.090   3.602
10165SOL    HW131394   2.248   3.031   3.535
10165SOL    HW231395   2.167   3.171   3.556
10166SOL     OW31396   3.370   6.192   3.783
10166SOL    HW131397   3.318   6.123   3.833
10166SOL    HW231398   3.311   6.272   3.766
10167SOL     OW31399   3.715   1.279   0.327
10167SOL    HW131400   3.765   1.365   0.334
10167SOL    HW231401   3.693   1.246   0.419
10168SOL     OW31402   0.478   1.064   6.911
10168SOL    HW131403   0.492   0.987   6.973
10168SOL    HW231404   0.382   1.067   6.883
10169SOL     OW31405   4.574   5.048   2.733
10169SOL    HW131406   4.614   4.979   2.794
10169SOL    HW231407   4.607   5.035   2.640
10170SOL     OW31408   4.605   6.617   6.815
10170SOL    HW131409   4.694   6.640   6.776
10170SOL    HW231410   4.587   6.677   6.894
10171SOL     OW31411   1.628   4.505   3.141
10171SOL    HW131412   1.561   4.450   3.091
10171SOL    HW231413   1.692   4.546   3.077
10172SOL     OW31414   0.449   0.353   3.504
10172SOL    HW131415   0.543   0.327   3.485
10172SOL    HW231416   0.422   0.318   3.594
10173SOL     OW31417   4.475   2.503   4.513
10173SOL    HW131418   4.456   2.601   4.506
10173SOL    HW231419   4.478   2.476   4.609
10174SOL     OW31420   4.336   5.245   1.158
10174SOL    HW131421   4.328   5.249   1.258
10174SOL    HW231422   4.417   5.296   1.129
10175SOL     OW31423   6.820   6.754   4.352
10175SOL    HW131424   6.844   6.849   4.330
10175SOL    HW231425   6.902   6.697   4.349
10176SOL     OW31426   7.008   1.541   4.945
10176SOL    HW131427   6.986   1.630   4.904
10176SOL    HW231428   6.972   1.468   4.887
10177SOL     OW31429   3.255   0.762   5.190
10177SOL    HW131430   3.266   0.848   5.141
10177SOL    HW231431   3.266   0.686   5.127
10178SOL     OW31432   6.169   1.730   1.959
10178SOL    HW131433   6.165   1.783   1.874
10178SOL    HW231434   6.175   1.633   1.937
10179SOL     OW31435   0.026   6.102   1.026
10179SOL    HW131436   6.974   6.155   0.981
10179SOL    HW231437   0.051   6.024   0.969
10180SOL     OW31438   1.735   0.266   5.970
10180SOL    HW131439   1.641   0.261   5.938
10180SOL    HW231440   1.762   0.180   6.013
10181SOL     OW31441   0.453   3.821   2.178
10181SOL    HW131442   0.405   3.836   2.264
10181SOL    HW231443   0.489   3.728   2.176
10182SOL     OW31444   2.865   6.842   6.389
10182SOL    HW131445   2.822   6.872   6.304
10182SOL    HW231446   2.945   6.786   6.368
10183SOL     OW31447   3.791   5.984   6.653
10183SOL    HW131448   3.801   6.016   6.747
10183SOL    HW231449   3.717   5.916   6.649
10184SOL     OW31450   4.750   2.895   4.086
10184SOL    HW131451   4.792   2.805   4.095
10184SOL    HW231452   4.776   2.935   3.998
10185SOL     OW31453   2.932   4.537   1.648
10185SOL    HW131454   2.922   4.541   1.748
10185SOL    HW231455   2.854   4.490   1.608
10186SOL     OW31456   3.561   2.921   1.819
10186SOL    HW131457   3.516   3.010   1.819
10186SOL    HW231458   3.592   2.900   1.726
10187SOL     OW31459   1.461   3.108   5.202
10187SOL    HW131460   1.536   3.084   5.141
10187SOL    HW231461   1.446   3.034   5.267
10188SOL     OW31462   2.375   6.444   6.826
10188SOL    HW131463   2.427   6.374   6.875
10188SOL    HW231464   2.277   6.435   6.847
10189SOL     OW31465   2.229   1.881   5.230
10189SOL    HW131466   2.311   1.885   5.173
10189SOL    HW231467   2.192   1.973   5.241
10190SOL     OW31468   2.735   4.241   1.131
10190SOL    HW131469   2.656   4.242   1.193
10190SOL    HW231470   2.713   4.295   1.049
10191SOL     OW31471   6.233   0.504   6.803
10191SOL    HW131472   6.271   0.435   6.742
10191SOL    HW231473   6.235   0.594   6.758
10192SOL     OW31474   2.910   0.816   4.256
10192SOL    HW131475   2.919   0.835   4.354
10192SOL    HW231476   3.002   0.806   4.216
10193SOL     OW31477   3.828   3.727   3.720
10193SOL    HW131478   3.784   3.705   3.633
10193SOL    HW231479   3.924   3.701   3.716
10194SOL     OW31480   3.178   5.871   3.099
10194SOL    HW131481   3.106   5.815   3.058
10194SOL    HW231482   3.178   5.858   3.198
10195SOL     OW31483   5.349   0.100   2.516
10195SOL    HW131484   5.300   0.151   2.445
10195SOL    HW231485   5.314   0.128   2.606
10196SOL     OW31486   4.696   4.717   3.956
10196SOL    HW131487   4.677   4.687   3.863
10196SOL    HW231488   4.640   4.665   4.020
10197SOL     OW31489   5.768   1.656   2.649
10197SOL    HW131490   5.779   1.657   2.550
10197SOL    HW231491   5.857   1.670   2.693
10198SOL     OW31492   3.555   1.163   2.003
10198SOL    HW131493   3.522   1.183   1.911
10198SOL    HW231494   3.524   1.071   2.030
10199SOL     OW31495   1.477   2.087   6.996
10199SOL    HW131496   1.500   2.182   7.018
10199SOL    HW231497   1.556   2.029   7.016
10200SOL     OW31498   4.632   6.977   4.006
10200SOL    HW131499   4.566   6.949   3.936
10200SOL    HW231500   4.681   6.896   4.039
10201SOL     OW31501   0.718   5.333   3.137
10201SOL    HW131502   0.631   5.381   3.127
10201SOL    HW231503   0.768   5.372   3.215
10202SOL     OW31504   1.211   2.456   3.505
10202SOL    HW131505   1.298   2.434   3.550
10202SOL    HW231506   1.192   2.553   3.516
10203SOL     OW31507   6.239   2.570   1.333
10203SOL    HW131508   6.315   2.616   1.286
10203SOL    HW231509   6.219   2.619   1.418
10204SOL     OW31510   1.501   6.148   4.435
10204SOL    HW131511   1.524   6.171   4.341
10204SOL    HW231512   1.515   6.227   4.494
10205SOL     OW31513   3.701   6.786   1.257
10205SOL    HW131514   3.703   6.868   1.200
10205SOL    HW231515   3.789   6.739   1.251
10206SOL     OW31516   6.135   5.997   6.802
10206SOL    HW131517   6.093   5.948   6.725
10206SOL    HW231518   6.082   5.981   6.885
10207SOL     OW31519   3.661   1.436   2.038
10207SOL    HW131520   3.655   1.338   2.020
10207SOL    HW231521   3.630   1.487   1.957
10208SOL     OW31522   0.596   2.175   6.229
10208SOL    HW131523   0.562   2.244   6.293
10208SOL    HW231524   0.523   2.152   6.164
10209SOL     OW31525   4.099   6.269   0.417
10209SOL    HW131526   4.044   6.345   0.451
10209SOL    HW231527   4.109   6.200   0.489
10210SOL     OW31528   4.558   6.362   6.640
10210SOL    HW131529   4.514   6.313   6.715
10210SOL    HW231530   4.599   6.446   6.675
10211SOL     OW31531   3.895   4.911   4.533
10211SOL    HW131532   3.915   5.005   4.558
10211SOL    HW231533   3.965   4.850   4.570
10212SOL     OW31534   6.838   5.998   5.743
10212SOL    HW131535   6.878   5.960   5.660
10212SOL    HW231536   6.909   6.009   5.812
10213SOL     OW31537   3.543   6.909   4.728
10213SOL    HW131538   3.507   7.001   4.712
10213SOL    HW231539   3.638   6.916   4.758
10214SOL     OW31540   6.889   0.208   0.284
10214SOL    HW131541   6.927   0.163   0.364
10214SOL    HW231542   6.961   0.227   0.217
10215SOL     OW31543   4.695   2.602   0.413
10215SOL    HW131544   4.748   2.649   0.342
10215SOL    HW231545   4.598   2.623   0.402
10216SOL     OW31546   5.127   0.556   2.611
10216SOL    HW131547   5.080   0.643   2.603
10216SOL    HW231548   5.217   0.562   2.567
10217SOL     OW31549   2.843   2.022   6.507
10217SOL    HW131550   2.766   2.084   6.493
10217SOL    HW231551   2.834   1.943   6.447
10218SOL     OW31552   3.942   0.784   6.246
10218SOL    HW131553   4.032   0.744   6.267
10218SOL    HW231554   3.880   0.712   6.215
10219SOL     OW31555   0.287   5.246   1.019
10219SOL    HW131556   0.192   5.217   1.018
10219SOL    HW231557   0.317   5.261   1.114
10220SOL     OW31558   4.373   2.896   6.366
10220SOL    HW131559   4.276   2.912   6.383
10220SOL    HW231560   4.388   2.800   6.342
10221SOL     OW31561   2.011   0.069   5.348
10221SOL    HW131562   1.954   0.024   5.279
10221SOL    HW231563   2.069   0.137   5.304
10222SOL     OW31564   2.534   4.917   5.376
10222SOL    HW131565   2.617   4.862   5.380
10222SOL    HW231566   2.454   4.860   5.398
10223SOL     OW31567   2.450   5.759   5.950
10223SOL    HW131568   2.379   5.793   6.012
10223SOL    HW231569   2.455   5.659   5.957
10224SOL     OW31570   3.908   6.076   5.413
10224SOL    HW131571   3.959   6.146   5.464
10224SOL    HW231572   3.936   5.985   5.444
10225SOL     OW31573   4.949   0.274   4.826
10225SOL    HW131574   4.928   0.193   4.772
10225SOL    HW231575   4.973   0.246   4.919
10226SOL     OW31576   6.509   2.326   6.135
10226SOL    HW131577   6.547   2.407   6.090
10226SOL    HW231578   6.581   2.281   6.187
10227SOL     OW31579   4.392   4.867   5.205
10227SOL    HW131580   4.357   4.884   5.112
10227SOL    HW231581   4.457   4.938   5.230
10228SOL     OW31582   1.154   2.632   1.226
10228SOL    HW131583   1.159   2.730   1.246
10228SOL    HW231584   1.231   2.586   1.271
10229SOL     OW31585   2.820   0.588   1.879
10229SOL    HW131586   2.870   0.561   1.796
10229SOL    HW231587   2.856   0.675   1.912
10230SOL     OW31588   5.393   0.012   3.028
10230SOL    HW131589   5.453   7.009   3.104
10230SOL    HW231590   5.356   6.947   2.988
10231SOL     OW31591   4.822   7.002   4.849
10231SOL    HW131592   4.878   6.957   4.918
10231SOL    HW231593   4.729   7.013   4.884
10232SOL     OW31594   4.333   2.364   2.799
10232SOL    HW131595   4.415   2.421   2.794
10232SOL    HW231596   4.273   2.385   2.722
10233SOL     OW31597   5.226   6.861   5.331
10233SOL    HW131598   5.153   6.795   5.312
10233SOL    HW231599   5.192   6.954   5.317
10234SOL     OW31600   3.999   4.459   1.065
10234SOL    HW131601   4.074   4.461   1.131
10234SOL    HW231602   4.032   4.492   0.977
10235SOL     OW31603   5.065   0.187   0.027
10235SOL    HW131604   5.096   0.231   6.963
10235SOL    HW231605   5.101   0.236   0.106
10236SOL     OW31606   1.415   4.844   1.271
10236SOL    HW131607   1.501   4.811   1.312
10236SOL    HW231608   1.390   4.784   1.195
10237SOL     OW31609   6.052   2.372   2.990
10237SOL    HW131610   5.989   2.415   3.055
10237SOL    HW231611   6.082   2.440   2.923
10238SOL     OW31612   5.319   5.194   5.481
10238SOL    HW131613   5.252   5.136   5.526
10238SOL    HW231614   5.411   5.163   5.505
10239SOL     OW31615   5.497   3.943   4.094
10239SOL    HW131616   5.464   3.893   4.174
10239SOL    HW231617   5.437   3.925   4.016
10240SOL     OW31618   4.861   3.714   2.575
10240SOL    HW131619   4.887   3.620   2.556
10240SOL    HW231620   4.854   3.765   2.489
10241SOL     OW31621   1.300   2.538   2.411
10241SOL    HW131622   1.272   2.530   2.507
10241SOL    HW231623   1.321   2.446   2.375
10242SOL     OW31624   1.000   5.482   6.672
10242SOL    HW131625   0.996   5.582   6.675
10242SOL    HW231626   0.908   5.445   6.688
10243SOL     OW31627   0.020   5.583   3.867
10243SOL    HW131628   0.070   5.611   3.949
10243SOL    HW231629   6.942   5.588   3.885
10244SOL     OW31630   3.149   5.863   0.386
10244SOL    HW131631   3.155   5.941   0.324
10244SOL    HW231632   3.133   5.896   0.479
10245SOL     OW31633   3.823   4.009   1.183
10245SOL    HW131634   3.871   3.928   1.148
10245SOL    HW231635   3.745   3.980   1.239
10246SOL     OW31636   3.161   3.622   4.647
10246SOL    HW131637   3.114   3.705   4.675
10246SOL    HW231638   3.158   3.555   4.721
10247SOL     OW31639   1.124   5.296   6.495
10247SOL    HW131640   1.208   5.268   6.542
10247SOL    HW231641   1.080   5.369   6.547
10248SOL     OW31642   6.273   6.855   3.645
10248SOL    HW131643   6.358   6.906   3.635
10248SOL    HW231644   6.262   6.793   3.567
10249SOL     OW31645   4.580   1.411   5.979
10249SOL    HW131646   4.609   1.413   6.075
10249SOL    HW231647   4.500   1.470   5.968
10250SOL     OW31648   4.128   5.756   0.682
10250SOL    HW131649   4.070   5.675   0.682
10250SOL    HW231650   4.202   5.745   0.748
10251SOL     OW31651   3.802   4.433   1.262
10251SOL    HW131652   3.861   4.383   1.326
10251SOL    HW231653   3.849   4.442   1.174
10252SOL     OW31654   0.095   4.806   0.410
10252SOL    HW131655   0.017   4.867   0.398
10252SOL    HW231656   0.083   4.751   0.493
10253SOL     OW31657   5.247   4.227   0.406
10253SOL    HW131658   5.313   4.172   0.355
10253SOL    HW231659   5.287   4.315   0.430
10254SOL     OW31660   3.446   2.153   5.680
10254SOL    HW131661   3.361   2.142   5.629
10254SOL    HW231662   3.501   2.070   5.672
10255SOL     OW31663   2.852   4.791   3.941
10255SOL    HW131664   2.814   4.740   4.018
10255SOL    HW231665   2.947   4.815   3.960
10256SOL     OW31666   5.359   5.379   6.981
10256SOL    HW131667   5.430   5.398   0.028
10256SOL    HW231668   5.272   5.362   0.008
10257SOL     OW31669   1.755   4.252   4.789
10257SOL    HW131670   1.717   4.315   4.857
10257SOL    HW231671   1.750   4.294   4.699
10258SOL     OW31672   4.447   1.071   2.631
10258SOL    HW131673   4.350   1.054   2.649
10258SOL    HW231674   4.456   1.128   2.550
10259SOL     OW31675   5.690   3.435   3.763
10259SOL    HW131676   5.621   3.425   3.691
10259SOL    HW231677   5.674   3.367   3.835
10260SOL     OW31678   0.054   5.881   2.772
10260SOL    HW131679   0.075   5.979   2.767
10260SOL    HW231680   0.119   5.836   2.834
10261SOL     OW31681   1.988   0.267   2.318
10261SOL    HW131682   2.059   0.197   2.322
10261SOL    HW231683   1.898   0.223   2.313
10262SOL     OW31684   6.866   6.167   3.972
10262SOL    HW131685   6.899   6.255   4.006
10262SOL    HW231686   6.815   6.181   3.887
10263SOL     OW31687   6.695   3.703   4.970
10263SOL    HW131688   6.619   3.764   4.947
10263SOL    HW231689   6.660   3.625   5.023
10264SOL     OW31690   0.444   0.672   0.682
10264SOL    HW131691   0.401   0.646   0.595
10264SOL    HW231692   0.383   0.647   0.757
10265SOL     OW31693   5.250   2.249   4.567
10265SOL    HW131694   5.183   2.192   4.612
10265SOL    HW231695   5.342   2.215   4.587
10266SOL     OW31696   3.439   3.509   0.032
10266SOL    HW131697   3.392   3.550   6.974
10266SOL    HW231698   3.391   3.425   0.058
10267SOL     OW31699   6.937   1.012   6.358
10267SOL    HW131700   6.933   1.019   6.457
10267SOL    HW231701   6.967   1.100   6.320
10268SOL     OW31702   6.545   4.843   0.602
10268SOL    HW131703   6.488   4.811   0.678
10268SOL    HW231704   6.614   4.907   0.637
10269SOL     OW31705   4.684   1.838   5.959
10269SOL    HW131706   4.711   1.803   5.870
10269SOL    HW231707   4.585   1.852   5.961
10270SOL     OW31708   3.338   6.375   3.451
10270SOL    HW131709   3.269   6.353   3.382
10270SOL    HW231710   3.295   6.379   3.541
10271SOL     OW31711   1.590   4.497   1.193
10271SOL    HW131712   1.652   4.570   1.221
10271SOL    HW231713   1.502   4.536   1.167
10272SOL     OW31714   1.764   3.579   4.323
10272SOL    HW131715   1.747   3.581   4.225
10272SOL    HW231716   1.677   3.567   4.372
10273SOL     OW31717   4.616   6.900   3.569
10273SOL    HW131718   4.602   6.978   3.508
10273SOL    HW231719   4.710   6.900   3.603
10274SOL     OW31720   1.682   4.398   6.947
10274SOL    HW131721   1.583   4.388   6.954
10274SOL    HW231722   1.724   4.308   6.934
10275SOL     OW31723   0.195   5.616   1.925
10275SOL    HW131724   0.263   5.552   1.961
10275SOL    HW231725   0.110   5.568   1.907
10276SOL     OW31726   2.735   6.967   0.445
10276SOL    HW131727   2.663   6.912   0.401
10276SOL    HW231728   2.709   6.984   0.540
10277SOL     OW31729   6.382   5.481   1.882
10277SOL    HW131730   6.446   5.416   1.924
10277SOL    HW231731   6.424   5.521   1.800
10278SOL     OW31732   6.388   1.151   5.082
10278SOL    HW131733   6.380   1.172   5.179
10278SOL    HW231734   6.404   1.235   5.031
10279SOL     OW31735   3.966   6.337   4.115
10279SOL    HW131736   3.994   6.243   4.094
10279SOL    HW231737   3.968   6.392   4.032
10280SOL     OW31738   3.007   2.368   0.012
10280SOL    HW131739   2.944   2.363   6.955
10280SOL    HW231740   2.957   2.393   0.095
10281SOL     OW31741   4.387   1.151   4.435
10281SOL    HW131742   4.413   1.247   4.447
10281SOL    HW231743   4.450   1.093   4.486
10282SOL     OW31744   1.599   2.960   4.355
10282SOL    HW131745   1.588   2.862   4.339
10282SOL    HW231746   1.677   2.975   4.416
10283SOL     OW31747   1.461   5.492   6.513
10283SOL    HW131748   1.490   5.400   6.483
10283SOL    HW231749   1.475   5.556   6.438
10284SOL     OW31750   5.551   2.882   0.628
10284SOL    HW131751   5.477   2.816   0.617
10284SOL    HW231752   5.529   2.967   0.580
10285SOL     OW31753   4.771   1.496   0.391
10285SOL    HW131754   4.734   1.440   0.465
10285SOL    HW231755   4.777   1.441   0.308
10286SOL     OW31756   3.216   0.180   3.958
10286SOL    HW131757   3.198   0.132   4.044
10286SOL    HW231758   3.298   0.235   3.967
10287SOL     OW31759   1.991   3.847   2.211
10287SOL    HW131760   2.009   3.749   2.209
10287SOL    HW231761   1.901   3.863   2.251
10288SOL     OW31762   4.861   6.770   4.477
10288SOL    HW131763   4.863   6.679   4.518
10288SOL    HW231764   4.902   6.767   4.386
10289SOL     OW31765   2.623   1.756   2.176
10289SOL    HW131766   2.671   1.776   2.262
10289SOL    HW231767   2.548   1.821   2.164
10290SOL     OW31768   3.121   3.070   3.967
10290SOL    HW131769   3.140   3.055   4.064
10290SOL    HW231770   3.081   3.161   3.954
10291SOL     OW31771   4.125   0.013   3.883
10291SOL    HW131772   4.086   0.047   3.797
10291SOL    HW231773   4.055   0.014   3.954
10292SOL     OW31774   6.572   3.032   4.341
10292SOL    HW131775   6.551   2.961   4.273
10292SOL    HW231776   6.638   2.996   4.407
10293SOL     OW31777   1.610   4.682   3.349
10293SOL    HW131778   1.607   4.606   3.285
10293SOL    HW231779   1.675   4.661   3.422
10294SOL     OW31780   6.213   0.713   2.919
10294SOL    HW131781   6.240   0.680   2.829
10294SOL    HW231782   6.190   0.635   2.978
10295SOL     OW31783   1.734   4.244   3.184
10295SOL    HW131784   1.697   4.235   3.276
10295SOL    HW231785   1.720   4.337   3.152
10296SOL     OW31786   6.662   3.702   1.784
10296SOL    HW131787   6.623   3.741   1.867
10296SOL    HW231788   6.612   3.737   1.704
10297SOL     OW31789   3.587   4.535   5.534
10297SOL    HW131790   3.556   4.456   5.587
10297SOL    HW231791   3.594   4.615   5.594
10298SOL     OW31792   6.141   3.429   3.105
10298SOL    HW131793   6.141   3.471   3.014
10298SOL    HW231794   6.202   3.480   3.165
10299SOL     OW31795   4.324   5.317   2.196
10299SOL    HW131796   4.349   5.413   2.183
10299SOL    HW231797   4.277   5.283   2.114
10300SOL     OW31798   0.337   6.197   2.531
10300SOL    HW131799   0.278   6.148   2.467
10300SOL    HW231800   0.350   6.291   2.500
10301SOL     OW31801   4.422   1.096   1.750
10301SOL    HW131802   4.512   1.056   1.766
10301SOL    HW231803   4.363   1.078   1.830
10302SOL     OW31804   0.165   4.036   3.567
10302SOL    HW131805   0.258   4.033   3.531
10302SOL    HW231806   0.136   4.131   3.578
10303SOL     OW31807   4.789   3.728   1.352
10303SOL    HW131808   4.793   3.828   1.343
10303SOL    HW231809   4.881   3.690   1.344
10304SOL     OW31810   5.892   5.941   4.197
10304SOL    HW131811   5.887   6.019   4.134
10304SOL    HW231812   5.815   5.944   4.261
10305SOL     OW31813   1.915   4.866   1.227
10305SOL    HW131814   1.950   4.889   1.318
10305SOL    HW231815   1.828   4.914   1.212
10306SOL     OW31816   5.012   3.937   6.681
10306SOL    HW131817   5.036   4.031   6.655
10306SOL    HW231818   5.054   3.915   6.769
10307SOL     OW31819   3.114   2.267   6.070
10307SOL    HW131820   3.119   2.171   6.098
10307SOL    HW231821   3.161   2.279   5.983
10308SOL     OW31822   3.121   4.905   3.984
10308SOL    HW131823   3.132   4.879   3.888
10308SOL    HW231824   3.209   4.935   4.021
10309SOL     OW31825   6.993   6.261   3.650
10309SOL    HW131826   0.005   6.167   3.637
10309SOL    HW231827   0.002   6.293   3.740
10310SOL     OW31828   3.437   4.151   4.213
10310SOL    HW131829   3.342   4.152   4.183
10310SOL    HW231830   3.446   4.205   4.297
10311SOL     OW31831   1.507   0.169   0.373
10311SOL    HW131832   1.412   0.195   0.393
10311SOL    HW231833   1.507   0.083   0.322
10312SOL     OW31834   3.164   4.296   0.553
10312SOL    HW131835   3.165   4.396   0.555
10312SOL    HW231836   3.134   4.265   0.463
10313SOL     OW31837   6.611   5.642   3.646
10313SOL    HW131838   6.514   5.656   3.668
10313SOL    HW231839   6.640   5.710   3.579
10314SOL     OW31840   6.789   5.116   5.117
10314SOL    HW131841   6.766   5.129   5.213
10314SOL    HW231842   6.708   5.131   5.060
10315SOL     OW31843   4.300   5.617   5.594
10315SOL    HW131844   4.372   5.684   5.612
10315SOL    HW231845   4.227   5.629   5.662
10316SOL     OW31846   6.960   2.703   3.951
10316SOL    HW131847   6.924   2.674   4.040
10316SOL    HW231848   0.036   2.729   3.962
10317SOL     OW31849   5.937   4.300   5.904
10317SOL    HW131850   6.025   4.259   5.930
10317SOL    HW231851   5.947   4.399   5.902
10318SOL     OW31852   4.976   5.013   2.355
10318SOL    HW131853   5.000   5.073   2.430
10318SOL    HW231854   4.913   4.942   2.387
10319SOL     OW31855   5.861   6.728   3.435
10319SOL    HW131856   5.887   6.824   3.442
10319SOL    HW231857   5.786   6.709   3.499
10320SOL     OW31858   3.167   6.343   1.777
10320SOL    HW131859   3.108   6.414   1.815
10320SOL    HW231860   3.152   6.335   1.679
10321SOL     OW31861   4.808   6.554   5.154
10321SOL    HW131862   4.848   6.644   5.167
10321SOL    HW231863   4.837   6.494   5.229
10322SOL     OW31864   0.138   1.559   6.129
10322SOL    HW131865   0.207   1.621   6.167
10322SOL    HW231866   0.175   1.514   6.048
10323SOL     OW31867   0.444   2.034   5.199
10323SOL    HW131868   0.466   1.944   5.236
10323SOL    HW231869   0.504   2.054   5.122
10324SOL     OW31870   3.387   3.788   4.884
10324SOL    HW131871   3.381   3.887   4.886
10324SOL    HW231872   3.472   3.761   4.837
10325SOL     OW31873   0.740   3.148   3.867
10325SOL    HW131874   0.689   3.140   3.953
10325SOL    HW231875   0.805   3.223   3.875
10326SOL     OW31876   6.158   1.390   1.229
10326SOL    HW131877   6.171   1.400   1.328
10326SOL    HW231878   6.246   1.390   1.183
10327SOL     OW31879   6.117   1.953   3.859
10327SOL    HW131880   6.205   2.000   3.863
10327SOL    HW231881   6.043   2.020   3.869
10328SOL     OW31882   6.844   3.515   1.818
10328SOL    HW131883   6.920   3.512   1.752
10328SOL    HW231884   6.788   3.595   1.799
10329SOL     OW31885   2.830   5.640   2.671
10329SOL    HW131886   2.781   5.712   2.720
10329SOL    HW231887   2.876   5.680   2.591
10330SOL     OW31888   4.003   3.415   0.829
10330SOL    HW131889   3.956   3.364   0.902
10330SOL    HW231890   4.091   3.373   0.810
10331SOL     OW31891   4.967   2.031   4.292
10331SOL    HW131892   4.882   2.012   4.241
10331SOL    HW231893   4.957   1.999   4.386
10332SOL     OW31894   1.773   2.890   6.743
10332SOL    HW131895   1.729   2.972   6.780
10332SOL    HW231896   1.769   2.892   6.643
10333SOL     OW31897   0.022   4.528   5.325
10333SOL    HW131898   6.992   4.614   5.314
10333SOL    HW231899   0.032   4.483   5.237
10334SOL     OW31900   1.011   4.965   5.945
10334SOL    HW131901   0.943   5.038   5.943
10334SOL    HW231902   0.965   4.876   5.943
10335SOL     OW31903   2.698   4.929   2.494
10335SOL    HW131904   2.766   4.993   2.459
10335SOL    HW231905   2.626   4.917   2.426
10336SOL     OW31906   4.389   0.054   3.182
10336SOL    HW131907   4.480   0.044   3.223
10336SOL    HW231908   4.320   0.054   3.254
10337SOL     OW31909   1.429   3.413   5.950
10337SOL    HW131910   1.407   3.316   5.961
10337SOL    HW231911   1.430   3.458   6.040
10338SOL     OW31912   1.982   4.042   2.758
10338SOL    HW131913   2.039   3.989   2.821
10338SOL    HW231914   1.940   3.981   2.691
10339SOL     OW31915   3.356   6.300   6.678
10339SOL    HW131916   3.376   6.363   6.753
10339SOL    HW231917   3.347   6.207   6.713
10340SOL     OW31918   2.206   5.934   1.046
10340SOL    HW131919   2.240   6.020   1.083
10340SOL    HW231920   2.106   5.937   1.043
10341SOL     OW31921   6.872   2.881   1.405
10341SOL    HW131922   6.798   2.936   1.365
10341SOL    HW231923   6.955   2.936   1.410
10342SOL     OW31924   3.559   5.383   3.819
10342SOL    HW131925   3.465   5.418   3.819
10342SOL    HW231926   3.567   5.308   3.884
10343SOL     OW31927   2.821   2.321   4.349
10343SOL    HW131928   2.908   2.296   4.392
10343SOL    HW231929   2.780   2.397   4.399
10344SOL     OW31930   5.036   3.997   1.218
10344SOL    HW131931   5.114   4.032   1.270
10344SOL    HW231932   4.952   4.011   1.270
10345SOL     OW31933   2.844   1.840   6.292
10345SOL    HW131934   2.846   1.746   6.257
10345SOL    HW231935   2.854   1.905   6.217
10346SOL     OW31936   6.808   5.172   6.869
10346SOL    HW131937   6.715   5.202   6.850
10346SOL    HW231938   6.806   5.101   6.940
10347SOL     OW31939   3.882   6.813   2.537
10347SOL    HW131940   3.816   6.796   2.611
10347SOL    HW231941   3.931   6.898   2.555
10348SOL     OW31942   7.004   3.206   4.238
10348SOL    HW131943   6.939   3.140   4.274
10348SOL    HW231944   0.009   3.271   4.310
10349SOL     OW31945   6.057   1.888   0.069
10349SOL    HW131946   6.062   1.897   6.989
10349SOL    HW231947   6.084   1.974   0.111
10350SOL     OW31948   2.206   5.563   4.296
10350SOL    HW131949   2.196   5.463   4.300
10350SOL    HW231950   2.265   5.587   4.219
10351SOL     OW31951   3.954   5.726   5.183
10351SOL    HW131952   3.923   5.641   5.140
10351SOL    HW231953   3.897   5.746   5.263
10352SOL     OW31954   0.493   1.486   1.582
10352SOL    HW131955   0.501   1.390   1.607
10352SOL    HW231956   0.572   1.536   1.618
10353SOL     OW31957   5.363   2.762   3.362
10353SOL    HW131958   5.413   2.725   3.441
10353SOL    HW231959   5.414   2.743   3.278
10354SOL     OW31960   0.212   2.623   1.647
10354SOL    HW131961   0.226   2.533   1.606
10354SOL    HW231962   0.134   2.620   1.709
10355SOL     OW31963   6.300   1.682   0.388
10355SOL    HW131964   6.301   1.590   0.427
10355SOL    HW231965   6.361   1.742   0.441
10356SOL     OW31966   6.262   2.406   6.190
10356SOL    HW131967   6.250   2.494   6.234
10356SOL    HW231968   6.358   2.380   6.192
10357SOL     OW31969   0.274   6.440   6.639
10357SOL    HW131970   0.217   6.402   6.567
10357SOL    HW231971   0.227   6.431   6.727
10358SOL     OW31972   0.463   3.669   4.339
10358SOL    HW131973   0.462   3.586   4.282
10358SOL    HW231974   0.385   3.726   4.316
10359SOL     OW31975   1.082   2.729   2.124
10359SOL    HW131976   1.105   2.792   2.198
10359SOL    HW231977   0.989   2.696   2.136
10360SOL     OW31978   5.905   4.764   1.000
10360SOL    HW131979   5.859   4.741   1.085
10360SOL    HW231980   6.002   4.739   1.006
10361SOL     OW31981   5.957   2.188   3.850
10361SOL    HW131982   5.974   2.286   3.838
10361SOL    HW231983   5.872   2.163   3.804
10362SOL     OW31984   0.154   6.731   2.479
10362SOL    HW131985   0.178   6.712   2.384
10362SOL    HW231986   0.159   6.830   2.496
10363SOL     OW31987   5.488   4.982   6.420
10363SOL    HW131988   5.484   4.883   6.435
10363SOL    HW231989   5.418   5.027   6.475
10364SOL     OW31990   6.165   5.421   1.014
10364SOL    HW131991   6.264   5.427   1.027
10364SOL    HW231992   6.120   5.417   1.103
10365SOL     OW31993   6.148   6.119   6.456
10365SOL    HW131994   6.106   6.207   6.435
10365SOL    HW231995   6.204   6.128   6.539
10366SOL     OW31996   2.482   0.159   3.726
10366SOL    HW131997   2.428   0.075   3.725
10366SOL    HW231998   2.423   0.236   3.748
10367SOL     OW31999   4.090   6.090   2.349
10367SOL    HW132000   4.176   6.130   2.382
10367SOL    HW232001   4.049   6.151   2.281
10368SOL     OW32002   1.154   5.490   1.876
10368SOL    HW132003   1.147   5.397   1.912
10368SOL    HW232004   1.250   5.518   1.873
10369SOL     OW32005   2.661   1.012   5.667
10369SOL    HW132006   2.756   1.027   5.642
10369SOL    HW232007   2.603   1.076   5.616
10370SOL     OW32008   2.440   1.962   6.929
10370SOL    HW132009   2.417   2.049   6.884
10370SOL    HW232010   2.379   1.947   7.006
10371SOL     OW32011   3.971   5.423   2.693
10371SOL    HW132012   3.906   5.458   2.625
10371SOL    HW232013   3.921   5.380   2.768
10372SOL     OW32014   1.077   6.223   1.292
10372SOL    HW132015   1.042   6.169   1.215
10372SOL    HW232016   1.160   6.270   1.265
10373SOL     OW32017   6.626   0.691   5.583
10373SOL    HW132018   6.547   0.631   5.596
10373SOL    HW232019   6.691   0.649   5.520
10374SOL     OW32020   2.138   5.256   2.337
10374SOL    HW132021   2.214   5.192   2.333
10374SOL    HW232022   2.087   5.243   2.422
10375SOL     OW32023   2.568   5.772   6.455
10375SOL    HW132024   2.626   5.808   6.528
10375SOL    HW232025   2.622   5.758   6.372
10376SOL     OW32026   2.190   4.503   4.043
10376SOL    HW132027   2.139   4.563   3.981
10376SOL    HW232028   2.240   4.558   4.110
10377SOL     OW32029   3.173   0.978   3.861
10377SOL    HW132030   3.197   0.883   3.841
10377SOL    HW232031   3.073   0.987   3.862
10378SOL     OW32032   6.795   6.929   5.274
10378SOL    HW132033   6.779   6.894   5.366
10378SOL    HW232034   6.713   6.914   5.218
10379SOL     OW32035   1.096   5.250   3.158
10379SOL    HW132036   1.095   5.342   3.197
10379SOL    HW232037   1.020   5.241   3.093
10380SOL     OW32038   3.147   1.419   4.107
10380SOL    HW132039   3.128   1.327   4.141
10380SOL    HW232040   3.061   1.467   4.093
10381SOL     OW32041   2.385   6.919   3.783
10381SOL    HW132042   2.353   6.941   3.875
10381SOL    HW232043   2.469   6.865   3.789
10382SOL     OW32044   4.185   5.828   2.445
10382SOL    HW132045   4.111   5.894   2.457
10382SOL    HW232046   4.191   5.770   2.527
10383SOL     OW32047   0.568   6.873   0.071
10383SOL    HW132048   0.529   6.943   0.010
10383SOL    HW232049   0.531   6.886   0.163
10384SOL     OW32050   5.513   5.373   1.256
10384SOL    HW132051   5.583   5.302   1.250
10384SOL    HW232052   5.547   5.457   1.215
10385SOL     OW32053   3.869   4.257   6.359
10385SOL    HW132054   3.881   4.243   6.457
10385SOL    HW232055   3.827   4.176   6.319
10386SOL     OW32056   0.232   0.372   2.164
10386SOL    HW132057   0.223   0.290   2.221
10386SOL    HW232058   0.327   0.382   2.136
10387SOL     OW32059   5.780   1.130   2.076
10387SOL    HW132060   5.755   1.142   2.172
10387SOL    HW232061   5.783   1.032   2.054
10388SOL     OW32062   0.898   0.079   4.575
10388SOL    HW132063   0.898   0.138   4.494
10388SOL    HW232064   0.941   0.128   4.651
10389SOL     OW32065   0.405   3.845   0.671
10389SOL    HW132066   0.429   3.776   0.602
10389SOL    HW232067   0.375   3.929   0.625
10390SOL     OW32068   1.677   2.191   2.425
10390SOL    HW132069   1.660   2.108   2.372
10390SOL    HW232070   1.605   2.257   2.407
10391SOL     OW32071   6.301   0.239   3.398
10391SOL    HW132072   6.332   0.238   3.493
10391SOL    HW232073   6.379   0.227   3.337
10392SOL     OW32074   6.124   3.580   3.801
10392SOL    HW132075   6.069   3.550   3.722
10392SOL    HW232076   6.208   3.527   3.805
10393SOL     OW32077   1.695   2.415   1.408
10393SOL    HW132078   1.615   2.363   1.376
10393SOL    HW232079   1.679   2.448   1.501
10394SOL     OW32080   3.096   6.107   3.839
10394SOL    HW132081   3.100   6.026   3.896
10394SOL    HW232082   3.026   6.169   3.873
10395SOL     OW32083   0.490   1.219   1.654
10395SOL    HW132084   0.518   1.140   1.599
10395SOL    HW232085   0.400   1.203   1.693
10396SOL     OW32086   3.179   1.788   5.242
10396SOL    HW132087   3.212   1.738   5.163
10396SOL    HW232088   3.116   1.860   5.212
10397SOL     OW32089   4.900   1.599   3.926
10397SOL    HW132090   4.920   1.687   3.969
10397SOL    HW232091   4.898   1.527   3.996
10398SOL     OW32092   4.826   2.887   2.601
10398SOL    HW132093   4.782   2.825   2.537
10398SOL    HW232094   4.851   2.972   2.554
10399SOL     OW32095   0.912   3.392   1.831
10399SOL    HW132096   0.999   3.344   1.825
10399SOL    HW232097   0.837   3.328   1.811
10400SOL     OW32098   2.306   6.368   0.664
10400SOL    HW132099   2.399   6.374   0.626
10400SOL    HW232100   2.295   6.280   0.710
10401SOL     OW32101   6.463   0.955   5.370
10401SOL    HW132102   6.560   0.970   5.390
10401SOL    HW232103   6.430   1.027   5.309
10402SOL     OW32104   6.344   4.362   5.354
10402SOL    HW132105   6.381   4.269   5.346
10402SOL    HW232106   6.245   4.357   5.366
10403SOL     OW32107   3.652   7.013   1.136
10403SOL    HW132108   3.575   0.010   1.074
10403SOL    HW232109   3.666   0.073   1.194
10404SOL     OW32110   0.495   5.256   5.439
10404SOL    HW132111   0.484   5.258   5.340
10404SOL    HW232112   0.526   5.345   5.472
10405SOL     OW32113   0.407   1.331   6.793
10405SOL    HW132114   0.446   1.272   6.864
10405SOL    HW232115   0.338   1.280   6.741
10406SOL     OW32116   1.489   5.596   1.090
10406SOL    HW132117   1.397   5.588   1.127
10406SOL    HW232118   1.535   5.675   1.130
10407SOL     OW32119   1.925   5.553   0.041
10407SOL    HW132120   1.981   5.507   6.993
10407SOL    HW232121   1.938   5.652   0.033
10408SOL     OW32122   4.447   0.602   6.988
10408SOL    HW132123   4.428   0.686   6.938
10408SOL    HW232124   4.366   0.574   0.020
10409SOL     OW32125   6.671   3.919   0.265
10409SOL    HW132126   6.698   3.903   0.360
10409SOL    HW232127   6.573   3.939   0.261
10410SOL     OW32128   4.042   6.056   0.877
10410SOL    HW132129   4.104   6.023   0.948
10410SOL    HW232130   3.951   6.016   0.891
10411SOL     OW32131   1.319   4.958   4.222
10411SOL    HW132132   1.393   5.024   4.213
10411SOL    HW232133   1.261   4.984   4.300
10412SOL     OW32134   4.923   0.622   1.842
10412SOL    HW132135   4.918   0.565   1.924
10412SOL    HW232136   4.934   0.717   1.868
10413SOL     OW32137   5.988   3.325   1.407
10413SOL    HW132138   5.914   3.362   1.351
10413SOL    HW232139   5.952   3.297   1.496
10414SOL     OW32140   5.470   3.567   4.064
10414SOL    HW132141   5.533   3.611   3.999
10414SOL    HW232142   5.458   3.626   4.144
10415SOL     OW32143   0.593   0.600   0.009
10415SOL    HW132144   0.613   0.611   0.107
10415SOL    HW232145   0.670   0.556   6.984
10416SOL     OW32146   5.535   3.178   3.412
10416SOL    HW132147   5.524   3.274   3.388
10416SOL    HW232148   5.558   3.125   3.330
10417SOL     OW32149   1.736   4.107   2.073
10417SOL    HW132150   1.656   4.057   2.106
10417SOL    HW232151   1.755   4.184   2.134
10418SOL     OW32152   1.801   5.655   5.960
10418SOL    HW132153   1.879   5.603   5.924
10418SOL    HW232154   1.722   5.595   5.967
10419SOL     OW32155   1.200   0.707   6.492
10419SOL    HW132156   1.120   0.741   6.442
10419SOL    HW232157   1.169   0.654   6.571
10420SOL     OW32158   0.814   2.658   2.099
10420SOL    HW132159   0.762   2.663   2.184
10420SOL    HW232160   0.757   2.688   2.023
10421SOL     OW32161   0.656   1.913   2.732
10421SOL    HW132162   0.585   1.903   2.661
10421SOL    HW232163   0.715   1.990   2.708
10422SOL     OW32164   5.784   2.154   0.439
10422SOL    HW132165   5.816   2.116   0.353
10422SOL    HW232166   5.786   2.254   0.434
10423SOL     OW32167   4.572   5.676   2.827
10423SOL    HW132168   4.543   5.582   2.808
10423SOL    HW232169   4.644   5.675   2.897
10424SOL     OW32170   4.340   1.433   6.277
10424SOL    HW132171   4.418   1.375   6.302
10424SOL    HW232172   4.277   1.438   6.353
10425SOL     OW32173   1.784   6.690   1.897
10425SOL    HW132174   1.768   6.603   1.849
10425SOL    HW232175   1.750   6.765   1.841
10426SOL     OW32176   6.263   3.809   6.171
10426SOL    HW132177   6.250   3.810   6.072
10426SOL    HW232178   6.323   3.884   6.197
10427SOL     OW32179   4.859   1.158   1.122
10427SOL    HW132180   4.778   1.132   1.069
10427SOL    HW232181   4.848   1.250   1.159
10428SOL     OW32182   4.574   2.240   3.366
10428SOL    HW132183   4.626   2.264   3.284
10428SOL    HW232184   4.542   2.145   3.358
10429SOL     OW32185   5.486   5.602   2.534
10429SOL    HW132186   5.400   5.593   2.583
10429SOL    HW232187   5.518   5.696   2.541
10430SOL     OW32188   3.968   5.995   2.990
10430SOL    HW132189   3.902   6.065   3.016
10430SOL    HW232190   4.060   6.026   3.014
10431SOL     OW32191   2.950   1.546   5.547
10431SOL    HW132192   2.951   1.479   5.621
10431SOL    HW232193   2.892   1.512   5.473
10432SOL     OW32194   4.245   0.373   4.482
10432SOL    HW132195   4.256   0.443   4.411
10432SOL    HW232196   4.333   0.354   4.525
10433SOL     OW32197   2.620   5.978   1.613
10433SOL    HW132198   2.715   5.951   1.600
10433SOL    HW232199   2.562   5.896   1.616
10434SOL     OW32200   3.437   2.416   5.321
10434SOL    HW132201   3.490   2.340   5.360
10434SOL    HW232202   3.362   2.379   5.267
10435SOL     OW32203   5.450   5.461   6.227
10435SOL    HW132204   5.532   5.455   6.170
10435SOL    HW232205   5.411   5.370   6.240
10436SOL     OW32206   0.133   1.647   2.619
10436SOL    HW132207   0.048   1.629   2.570
10436SOL    HW232208   0.210   1.616   2.563
10437SOL     OW32209   0.839   3.242   0.130
10437SOL    HW132210   0.923   3.239   0.184
10437SOL    HW232211   0.785   3.160   0.149
10438SOL     OW32212   3.399   6.838   5.732
10438SOL    HW132213   3.337   6.777   5.782
10438SOL    HW232214   3.421   6.797   5.644
10439SOL     OW32215   3.375   0.321   5.690
10439SOL    HW132216   3.399   0.371   5.607
10439SOL    HW232217   3.416   0.230   5.688
10440SOL     OW32218   1.127   5.619   0.866
10440SOL    HW132219   1.070   5.655   0.940
10440SOL    HW232220   1.069   5.573   0.799
10441SOL     OW32221   4.238   6.543   1.013
10441SOL    HW132222   4.290   6.628   1.025
10441SOL    HW232223   4.241   6.490   1.097
10442SOL     OW32224   3.987   6.163   6.169
10442SOL    HW132225   4.045   6.155   6.250
10442SOL    HW232226   4.023   6.233   6.107
10443SOL     OW32227   6.774   2.765   5.111
10443SOL    HW132228   6.834   2.839   5.141
10443SOL    HW232229   6.761   2.770   5.012
10444SOL     OW32230   4.049   5.021   5.113
10444SOL    HW132231   4.014   4.983   5.028
10444SOL    HW232232   4.132   4.973   5.140
10445SOL     OW32233   6.491   6.308   2.048
10445SOL    HW132234   6.480   6.350   1.958
10445SOL    HW232235   6.574   6.342   2.091
10446SOL     OW32236   0.958   6.466   5.757
10446SOL    HW132237   0.952   6.439   5.853
10446SOL    HW232238   1.017   6.401   5.709
10447SOL     OW32239   5.014   2.056   6.893
10447SOL    HW132240   5.003   1.979   6.829
10447SOL    HW232241   5.023   2.021   6.986
10448SOL     OW32242   3.438   3.559   2.409
10448SOL    HW132243   3.490   3.565   2.494
10448SOL    HW232244   3.448   3.644   2.358
10449SOL     OW32245   1.417   5.312   4.872
10449SOL    HW132246   1.481   5.339   4.800
10449SOL    HW232247   1.360   5.391   4.896
10450SOL     OW32248   0.378   3.636   0.484
10450SOL    HW132249   0.383   3.536   0.476
10450SOL    HW232250   0.365   3.675   0.392
10451SOL     OW32251   2.270   4.197   2.448
10451SOL    HW132252   2.322   4.113   2.457
10451SOL    HW232253   2.174   4.175   2.430
10452SOL     OW32254   2.286   3.149   6.193
10452SOL    HW132255   2.212   3.203   6.153
10452SOL    HW232256   2.272   3.052   6.173
10453SOL     OW32257   5.312   0.893   1.823
10453SOL    HW132258   5.225   0.874   1.868
10453SOL    HW232259   5.315   0.847   1.734
10454SOL     OW32260   4.268   5.036   2.430
10454SOL    HW132261   4.297   4.941   2.420
10454SOL    HW232262   4.252   5.055   2.527
10455SOL     OW32263   1.266   4.798   3.284
10455SOL    HW132264   1.334   4.726   3.297
10455SOL    HW232265   1.175   4.761   3.297
10456SOL     OW32266   3.438   6.782   1.196
10456SOL    HW132267   3.400   6.708   1.250
10456SOL    HW232268   3.531   6.802   1.228
10457SOL     OW32269   3.724   2.909   4.681
10457SOL    HW132270   3.625   2.910   4.693
10457SOL    HW232271   3.763   2.836   4.738
10458SOL     OW32272   6.834   6.088   2.382
10458SOL    HW132273   6.800   6.030   2.456
10458SOL    HW232274   6.788   6.064   2.297
10459SOL     OW32275   0.111   5.278   1.275
10459SOL    HW132276   0.080   5.231   1.358
10459SOL    HW232277   0.089   5.223   1.195
10460SOL     OW32278   0.916   4.139   1.455
10460SOL    HW132279   0.823   4.103   1.465
10460SOL    HW232280   0.919   4.201   1.376
10461SOL     OW32281   3.542   0.536   6.424
10461SOL    HW132282   3.607   0.460   6.419
10461SOL    HW232283   3.537   0.570   6.518
10462SOL     OW32284   5.059   6.688   1.442
10462SOL    HW132285   5.080   6.693   1.540
10462SOL    HW232286   5.039   6.593   1.418
10463SOL     OW32287   4.404   3.187   0.678
10463SOL    HW132288   4.352   3.266   0.644
10463SOL    HW232289   4.492   3.219   0.715
10464SOL     OW32290   5.963   6.340   2.100
10464SOL    HW132291   5.870   6.335   2.136
10464SOL    HW232292   6.022   6.279   2.152
10465SOL     OW32293   0.204   5.006   5.119
10465SOL    HW132294   0.264   4.944   5.170
10465SOL    HW232295   0.178   4.964   5.032
10466SOL     OW32296   4.117   5.678   5.801
10466SOL    HW132297   4.031   5.694   5.753
10466SOL    HW232298   4.108   5.599   5.861
10467SOL     OW32299   4.216   1.638   4.281
10467SOL    HW132300   4.183   1.686   4.200
10467SOL    HW232301   4.148   1.570   4.309
10468SOL     OW32302   2.859   5.031   3.321
10468SOL    HW132303   2.952   5.068   3.326
10468SOL    HW232304   2.802   5.073   3.392
10469SOL     OW32305   1.214   4.609   6.100
10469SOL    HW132306   1.137   4.555   6.133
10469SOL    HW232307   1.199   4.630   6.003
10470SOL     OW32308   2.792   1.723   4.701
10470SOL    HW132309   2.702   1.726   4.658
10470SOL    HW232310   2.841   1.641   4.670
10471SOL     OW32311   4.845   4.333   6.840
10471SOL    HW132312   4.813   4.308   6.749
10471SOL    HW232313   4.783   4.401   6.879
10472SOL     OW32314   3.890   1.270   3.655
10472SOL    HW132315   3.795   1.292   3.674
10472SOL    HW232316   3.930   1.224   3.735
10473SOL     OW32317   4.986   4.653   6.571
10473SOL    HW132318   4.907   4.713   6.559
10473SOL    HW232319   5.037   4.648   6.485
10474SOL     OW32320   4.656   0.696   4.165
10474SOL    HW132321   4.683   0.723   4.072
10474SOL    HW232322   4.724   0.633   4.203
10475SOL     OW32323   3.846   6.541   1.388
10475SOL    HW132324   3.893   6.566   1.303
10475SOL    HW232325   3.906   6.561   1.466
10476SOL     OW32326   0.437   4.917   6.673
10476SOL    HW132327   0.472   4.851   6.740
10476SOL    HW232328   0.512   4.973   6.639
10477SOL     OW32329   4.700   4.806   5.374
10477SOL    HW132330   4.634   4.735   5.349
10477SOL    HW232331   4.662   4.896   5.352
10478SOL     OW32332   0.984   6.686   2.874
10478SOL    HW132333   0.930   6.621   2.927
10478SOL    HW232334   0.959   6.779   2.898
10479SOL     OW32335   0.876   3.885   2.487
10479SOL    HW132336   0.943   3.951   2.521
10479SOL    HW232337   0.797   3.885   2.547
10480SOL     OW32338   4.586   0.976   7.006
10480SOL    HW132339   4.517   0.920   6.960
10480SOL    HW232340   4.566   0.981   0.084
10481SOL     OW32341   3.264   1.738   3.681
10481SOL    HW132342   3.189   1.768   3.741
10481SOL    HW232343   3.350   1.774   3.715
10482SOL     OW32344   0.790   6.435   6.395
10482SOL    HW132345   0.784   6.351   6.448
10482SOL    HW232346   0.741   6.424   6.309
10483SOL     OW32347   0.964   6.109   1.070
10483SOL    HW132348   1.035   6.052   1.029
10483SOL    HW232349   0.942   6.184   1.007
10484SOL     OW32350   6.492   1.673   1.799
10484SOL    HW132351   6.583   1.635   1.812
10484SOL    HW232352   6.423   1.605   1.828
10485SOL     OW32353   3.727   4.011   4.578
10485SOL    HW132354   3.785   4.084   4.615
10485SOL    HW232355   3.631   4.034   4.594
10486SOL     OW32356   6.048   4.662   5.403
10486SOL    HW132357   5.976   4.730   5.418
10486SOL    HW232358   6.026   4.607   5.323
10487SOL     OW32359   5.425   3.750   2.814
10487SOL    HW132360   5.512   3.796   2.793
10487SOL    HW232361   5.444   3.667   2.868
10488SOL     OW32362   0.383   2.436   5.594
10488SOL    HW132363   0.310   2.393   5.646
10488SOL    HW232364   0.453   2.470   5.656
10489SOL     OW32365   5.995   4.628   2.973
10489SOL    HW132366   6.041   4.715   2.993
10489SOL    HW232367   5.906   4.645   2.933
10490SOL     OW32368   4.956   6.444   6.086
10490SOL    HW132369   4.988   6.512   6.020
10490SOL    HW232370   4.970   6.480   6.179
10491SOL     OW32371   2.418   1.722   5.598
10491SOL    HW132372   2.471   1.708   5.682
10491SOL    HW232373   2.398   1.819   5.586
10492SOL     OW32374   3.264   6.473   6.948
10492SOL    HW132375   3.326   6.542   6.986
10492SOL    HW232376   3.215   6.427   0.001
10493SOL     OW32377   3.599   6.212   0.848
10493SOL    HW132378   3.672   6.263   0.894
10493SOL    HW232379   3.607   6.224   0.749
10494SOL     OW32380   0.179   5.144   3.478
10494SOL    HW132381   0.175   5.219   3.544
10494SOL    HW232382   0.270   5.141   3.436
10495SOL     OW32383   6.495   6.261   6.858
10495SOL    HW132384   6.429   6.308   6.916
10495SOL    HW232385   6.516   6.172   6.897
10496SOL     OW32386   0.788   4.359   5.982
10496SOL    HW132387   0.718   4.353   6.052
10496SOL    HW232388   0.857   4.288   5.997
10497SOL     OW32389   3.920   6.426   0.052
10497SOL    HW132390   3.879   6.436   0.143
10497SOL    HW232391   3.938   6.330   0.034
10498SOL     OW32392   3.276   3.942   0.135
10498SOL    HW132393   3.258   4.035   0.103
10498SOL    HW232394   3.353   3.904   0.086
10499SOL     OW32395   4.362   4.800   3.197
10499SOL    HW132396   4.422   4.783   3.275
10499SOL    HW232397   4.411   4.776   3.112
10500SOL     OW32398   2.024   2.859   5.436
10500SOL    HW132399   2.082   2.804   5.374
10500SOL    HW232400   2.065   2.950   5.447
10501SOL     OW32401   3.849   4.922   2.986
10501SOL    HW132402   3.933   4.893   2.940
10501SOL    HW232403   3.772   4.918   2.921
10502SOL     OW32404   3.099   3.408   2.866
10502SOL    HW132405   3.148   3.433   2.950
10502SOL    HW232406   3.046   3.486   2.834
10503SOL     OW32407   6.716   6.669   0.874
10503SOL    HW132408   6.683   6.611   0.799
10503SOL    HW232409   6.646   6.672   0.946
10504SOL     OW32410   1.603   2.735   5.904
10504SOL    HW132411   1.534   2.728   5.976
10504SOL    HW232412   1.676   2.796   5.934
10505SOL     OW32413   5.847   6.371   1.846
10505SOL    HW132414   5.813   6.460   1.874
10505SOL    HW232415   5.895   6.327   1.922
10506SOL     OW32416   0.790   4.819   5.574
10506SOL    HW132417   0.740   4.799   5.659
10506SOL    HW232418   0.774   4.914   5.548
10507SOL     OW32419   1.739   6.283   6.078
10507SOL    HW132420   1.814   6.219   6.060
10507SOL    HW232421   1.724   6.291   6.176
10508SOL     OW32422   1.837   6.177   1.439
10508SOL    HW132423   1.772   6.228   1.384
10508SOL    HW232424   1.793   6.148   1.524
10509SOL     OW32425   4.878   3.588   2.058
10509SOL    HW132426   4.896   3.668   2.000
10509SOL    HW232427   4.781   3.586   2.082
10510SOL     OW32428   5.525   6.076   2.109
10510SOL    HW132429   5.595   6.016   2.149
10510SOL    HW232430   5.559   6.114   2.023
10511SOL     OW32431   3.915   1.823   0.831
10511SOL    HW132432   3.932   1.740   0.884
10511SOL    HW232433   3.825   1.860   0.855
10512SOL     OW32434   3.438   0.239   5.193
10512SOL    HW132435   3.458   0.313   5.129
10512SOL    HW232436   3.417   0.156   5.141
10513SOL     OW32437   3.652   3.428   0.581
10513SOL    HW132438   3.717   3.435   0.657
10513SOL    HW232439   3.574   3.488   0.599
10514SOL     OW32440   1.532   4.803   1.688
10514SOL    HW132441   1.461   4.872   1.704
10514SOL    HW232442   1.616   4.830   1.736
10515SOL     OW32443   2.144   3.829   5.135
10515SOL    HW132444   2.061   3.884   5.128
10515SOL    HW232445   2.224   3.890   5.137
10516SOL     OW32446   5.474   2.092   1.745
10516SOL    HW132447   5.561   2.105   1.791
10516SOL    HW232448   5.404   2.064   1.811
10517SOL     OW32449   6.970   2.228   2.259
10517SOL    HW132450   0.020   2.297   2.279
10517SOL    HW232451   6.986   2.148   2.316
10518SOL     OW32452   0.818   5.732   2.721
10518SOL    HW132453   0.875   5.654   2.746
10518SOL    HW232454   0.745   5.701   2.660
10519SOL     OW32455   2.053   6.702   0.308
10519SOL    HW132456   2.012   6.764   0.376
10519SOL    HW232457   2.127   6.650   0.350
10520SOL     OW32458   3.227   2.578   6.152
10520SOL    HW132459   3.142   2.625   6.177
10520SOL    HW232460   3.244   2.503   6.215
10521SOL     OW32461   6.114   2.122   2.507
10521SOL    HW132462   6.135   2.057   2.434
10521SOL    HW232463   6.047   2.082   2.569
10522SOL     OW32464   4.949   1.470   2.927
10522SOL    HW132465   4.909   1.378   2.918
10522SOL    HW232466   5.003   1.491   2.846
10523SOL     OW32467   0.614   4.095   1.445
10523SOL    HW132468   0.658   4.184   1.461
10523SOL    HW232469   0.557   4.072   1.524
10524SOL     OW32470   6.029   6.735   4.689
10524SOL    HW132471   5.980   6.711   4.605
10524SOL    HW232472   6.009   6.830   4.713
10525SOL     OW32473   5.157   2.250   3.342
10525SOL    HW132474   5.213   2.206   3.271
10525SOL    HW232475   5.066   2.209   3.342
10526SOL     OW32476   1.677   5.798   5.713
10526SOL    HW132477   1.655   5.830   5.805
10526SOL    HW232478   1.602   5.741   5.678
10527SOL     OW32479   0.325   6.408   5.858
10527SOL    HW132480   0.421   6.413   5.828
10527SOL    HW232481   0.304   6.488   5.913
10528SOL     OW32482   2.421   6.271   5.393
10528SOL    HW132483   2.449   6.326   5.314
10528SOL    HW232484   2.376   6.187   5.360
10529SOL     OW32485   6.964   5.011   6.608
10529SOL    HW132486   6.957   5.104   6.643
10529SOL    HW232487   6.873   4.975   6.590
10530SOL     OW32488   5.953   0.534   1.221
10530SOL    HW132489   5.997   0.446   1.232
10530SOL    HW232490   5.889   0.549   1.297
10531SOL     OW32491   3.394   1.156   6.381
10531SOL    HW132492   3.384   1.095   6.302
10531SOL    HW232493   3.491   1.169   6.401
10532SOL     OW32494   4.381   5.482   5.967
10532SOL    HW132495   4.281   5.476   5.975
10532SOL    HW232496   4.422   5.399   6.004
10533SOL     OW32497   4.540   6.587   3.677
10533SOL    HW132498   4.447   6.592   3.716
10533SOL    HW232499   4.540   6.628   3.586
10534SOL     OW32500   0.599   6.510   4.565
10534SOL    HW132501   0.692   6.484   4.541
10534SOL    HW232502   0.600   6.594   4.619
10535SOL     OW32503   4.206   1.571   2.338
10535SOL    HW132504   4.294   1.618   2.332
10535SOL    HW232505   4.210   1.503   2.411
10536SOL     OW32506   5.822   3.560   4.417
10536SOL    HW132507   5.903   3.506   4.396
10536SOL    HW232508   5.776   3.586   4.332
10537SOL     OW32509   3.274   1.352   2.858
10537SOL    HW132510   3.221   1.389   2.781
10537SOL    HW232511   3.331   1.424   2.897
10538SOL     OW32512   6.346   2.993   3.625
10538SOL    HW132513   6.320   3.075   3.573
10538SOL    HW232514   6.398   3.020   3.706
10539SOL     OW32515   6.830   0.279   1.840
10539SOL    HW132516   6.789   0.191   1.814
10539SOL    HW232517   6.868   0.323   1.759
10540SOL     OW32518   1.735   2.543   6.346
10540SOL    HW132519   1.779   2.460   6.312
10540SOL    HW232520   1.702   2.528   6.439
10541SOL     OW32521   3.873   2.476   6.301
10541SOL    HW132522   3.834   2.523   6.380
10541SOL    HW232523   3.939   2.537   6.256
10542SOL     OW32524   3.801   6.554   2.399
10542SOL    HW132525   3.829   6.632   2.455
10542SOL    HW232526   3.858   6.474   2.423
10543SOL     OW32527   0.986   2.762   4.663
10543SOL    HW132528   1.004   2.735   4.569
10543SOL    HW232529   0.981   2.681   4.721
10544SOL     OW32530   3.074   2.120   2.160
10544SOL    HW132531   3.043   2.101   2.253
10544SOL    HW232532   3.025   2.200   2.124
10545SOL     OW32533   1.139   3.343   1.163
10545SOL    HW132534   1.189   3.368   1.246
10545SOL    HW232535   1.098   3.425   1.123
10546SOL     OW32536   1.754   0.237   5.358
10546SOL    HW132537   1.705   0.158   5.394
10546SOL    HW232538   1.808   0.210   5.279
10547SOL     OW32539   3.240   5.611   6.581
10547SOL    HW132540   3.213   5.683   6.517
10547SOL    HW232541   3.227   5.644   6.675
10548SOL     OW32542   1.535   4.869   2.706
10548SOL    HW132543   1.467   4.864   2.779
10548SOL    HW232544   1.578   4.779   2.694
10549SOL     OW32545   6.825   1.219   2.685
10549SOL    HW132546   6.759   1.144   2.696
10549SOL    HW232547   6.802   1.272   2.603
10550SOL     OW32548   6.789   4.957   2.518
10550SOL    HW132549   6.796   4.858   2.532
10550SOL    HW232550   6.801   4.978   2.421
10551SOL     OW32551   4.960   0.449   4.468
10551SOL    HW132552   4.944   0.351   4.472
10551SOL    HW232553   5.012   0.478   4.548
10552SOL     OW32554   2.616   0.199   3.491
10552SOL    HW132555   2.550   0.240   3.428
10552SOL    HW232556   2.567   0.163   3.571
10553SOL     OW32557   5.397   5.623   1.389
10553SOL    HW132558   5.474   5.685   1.375
10553SOL    HW232559   5.374   5.578   1.303
10554SOL     OW32560   5.573   5.805   1.337
10554SOL    HW132561   5.535   5.884   1.289
10554SOL    HW232562   5.623   5.835   1.418
10555SOL     OW32563   3.291   3.142   2.035
10555SOL    HW132564   3.378   3.191   2.039
10555SOL    HW232565   3.305   3.047   2.064
10556SOL     OW32566   2.176   2.003   1.927
10556SOL    HW132567   2.171   2.086   1.871
10556SOL    HW232568   2.262   1.956   1.910
10557SOL     OW32569   0.701   4.134   2.969
10557SOL    HW132570   0.751   4.053   3.002
10557SOL    HW232571   0.646   4.171   3.044
10558SOL     OW32572   4.820   5.235   4.431
10558SOL    HW132573   4.900   5.296   4.438
10558SOL    HW232574   4.775   5.251   4.343
10559SOL     OW32575   3.880   5.764   1.609
10559SOL    HW132576   3.962   5.778   1.553
10559SOL    HW232577   3.805   5.821   1.574
10560SOL     OW32578   6.139   0.217   4.223
10560SOL    HW132579   6.108   0.122   4.221
10560SOL    HW232580   6.071   0.273   4.270
10561SOL     OW32581   0.898   5.849   5.346
10561SOL    HW132582   0.851   5.857   5.258
10561SOL    HW232583   0.888   5.756   5.381
10562SOL     OW32584   3.057   1.080   2.742
10562SOL    HW132585   3.013   1.102   2.829
10562SOL    HW232586   3.156   1.075   2.755
10563SOL     OW32587   1.550   5.487   2.110
10563SOL    HW132588   1.610   5.414   2.079
10563SOL    HW232589   1.575   5.515   2.203
10564SOL     OW32590   5.246   5.152   2.768
10564SOL    HW132591   5.159   5.175   2.811
10564SOL    HW232592   5.284   5.070   2.812
10565SOL     OW32593   6.537   1.132   4.411
10565SOL    HW132594   6.594   1.120   4.493
10565SOL    HW232595   6.588   1.105   4.330
10566SOL     OW32596   3.623   1.730   0.647
10566SOL    HW132597   3.588   1.704   0.737
10566SOL    HW232598   3.703   1.674   0.625
10567SOL     OW32599   3.232   1.558   6.590
10567SOL    HW132600   3.296   1.612   6.644
10567SOL    HW232601   3.274   1.532   6.503
10568SOL     OW32602   6.081   1.841   6.821
10568SOL    HW132603   6.181   1.849   6.811
10568SOL    HW232604   6.039   1.846   6.731
10569SOL     OW32605   3.801   0.578   1.463
10569SOL    HW132606   3.807   0.583   1.563
10569SOL    HW232607   3.718   0.625   1.433
10570SOL     OW32608   1.258   4.166   3.136
10570SOL    HW132609   1.229   4.257   3.166
10570SOL    HW232610   1.276   4.109   3.215
10571SOL     OW32611   0.350   3.867   4.846
10571SOL    HW132612   0.405   3.846   4.765
10571SOL    HW232613   0.356   3.965   4.866
10572SOL     OW32614   0.217   5.517   0.972
10572SOL    HW132615   0.260   5.428   0.988
10572SOL    HW232616   0.177   5.519   0.880
10573SOL     OW32617   5.827   2.396   3.468
10573SOL    HW132618   5.800   2.323   3.530
10573SOL    HW232619   5.922   2.422   3.486
10574SOL     OW32620   4.908   2.290   2.794
10574SOL    HW132621   4.951   2.222   2.853
10574SOL    HW232622   4.808   2.286   2.806
10575SOL     OW32623   5.009   0.059   2.530
10575SOL    HW132624   5.029   0.147   2.487
10575SOL    HW232625   4.917   0.030   2.504
10576SOL     OW32626   1.406   2.828   5.272
10576SOL    HW132627   1.312   2.819   5.303
10576SOL    HW232628   1.437   2.742   5.232
10577SOL     OW32629   4.607   4.479   6.453
10577SOL    HW132630   4.625   4.538   6.375
10577SOL    HW232631   4.563   4.395   6.422
10578SOL     OW32632   1.257   3.209   2.132
10578SOL    HW132633   1.234   3.208   2.229
10578SOL    HW232634   1.182   3.250   2.080
10579SOL     OW32635   0.176   3.405   0.270
10579SOL    HW132636   0.253   3.400   0.333
10579SOL    HW232637   0.162   3.316   0.227
10580SOL     OW32638   5.156   6.873   5.851
10580SOL    HW132639   5.157   6.870   5.751
10580SOL    HW232640   5.168   6.967   5.882
10581SOL     OW32641   4.108   0.436   2.525
10581SOL    HW132642   4.065   0.405   2.440
10581SOL    HW232643   4.134   0.357   2.580
10582SOL     OW32644   6.783   3.515   0.500
10582SOL    HW132645   6.850   3.460   0.550
10582SOL    HW232646   6.708   3.456   0.469
10583SOL     OW32647   3.838   2.039   5.919
10583SOL    HW132648   3.808   1.994   6.004
10583SOL    HW232649   3.879   1.970   5.859
10584SOL     OW32650   6.508   0.388   3.822
10584SOL    HW132651   6.601   0.401   3.788
10584SOL    HW232652   6.499   0.297   3.862
10585SOL     OW32653   1.493   1.034   4.939
10585SOL    HW132654   1.572   1.060   4.995
10585SOL    HW232655   1.501   0.938   4.914
10586SOL     OW32656   4.901   3.722   6.385
10586SOL    HW132657   4.987   3.752   6.426
10586SOL    HW232658   4.911   3.629   6.350
10587SOL     OW32659   2.036   5.175   5.475
10587SOL    HW132660   2.099   5.161   5.552
10587SOL    HW232661   1.942   5.168   5.507
10588SOL     OW32662   1.388   4.189   4.278
10588SOL    HW132663   1.301   4.220   4.315
10588SOL    HW232664   1.378   4.168   4.181
10589SOL     OW32665   6.022   0.672   3.296
10589SOL    HW132666   5.923   0.680   3.305
10589SOL    HW232667   6.055   0.734   3.225
10590SOL     OW32668   0.200   6.327   2.111
10590SOL    HW132669   0.190   6.239   2.064
10590SOL    HW232670   0.292   6.335   2.148
10591SOL     OW32671   6.912   4.475   2.451
10591SOL    HW132672   6.947   4.405   2.388
10591SOL    HW232673   6.814   4.485   2.438
10592SOL     OW32674   6.249   4.042   4.988
10592SOL    HW132675   6.272   4.116   4.925
10592SOL    HW232676   6.332   4.012   5.035
10593SOL     OW32677   3.769   5.500   3.132
10593SOL    HW132678   3.831   5.576   3.109
10593SOL    HW232679   3.738   5.511   3.226
10594SOL     OW32680   4.113   5.683   3.853
10594SOL    HW132681   4.174   5.671   3.775
10594SOL    HW232682   4.124   5.606   3.916
10595SOL     OW32683   5.905   5.370   0.327
10595SOL    HW132684   5.951   5.459   0.323
10595SOL    HW232685   5.895   5.332   0.235
10596SOL     OW32686   5.855   3.870   0.599
10596SOL    HW132687   5.850   3.770   0.603
10596SOL    HW232688   5.930   3.897   0.538
10597SOL     OW32689   0.942   6.539   5.098
10597SOL    HW132690   1.009   6.547   5.024
10597SOL    HW232691   0.963   6.458   5.153
10598SOL     OW32692   2.882   1.669   1.050
10598SOL    HW132693   2.880   1.723   0.966
10598SOL    HW232694   2.814   1.704   1.114
10599SOL     OW32695   0.553   1.657   0.642
10599SOL    HW132696   0.481   1.588   0.638
10599SOL    HW232697   0.511   1.748   0.644
10600SOL     OW32698   4.494   1.183   2.161
10600SOL    HW132699   4.550   1.210   2.083
10600SOL    HW232700   4.543   1.115   2.216
10601SOL     OW32701   1.946   2.029   5.330
10601SOL    HW132702   1.916   1.990   5.417
10601SOL    HW232703   1.976   2.123   5.345
10602SOL     OW32704   6.893   6.961   1.140
10602SOL    HW132705   6.829   6.997   1.208
10602SOL    HW232706   6.976   6.930   1.185
10603SOL     OW32707   5.375   0.419   2.713
10603SOL    HW132708   5.323   0.467   2.642
10603SOL    HW232709   5.347   0.323   2.715
10604SOL     OW32710   5.530   2.112   4.604
10604SOL    HW132711   5.539   2.090   4.701
10604SOL    HW232712   5.615   2.090   4.557
10605SOL     OW32713   4.760   1.791   1.127
10605SOL    HW132714   4.781   1.888   1.111
10605SOL    HW232715   4.845   1.742   1.147
10606SOL     OW32716   5.809   1.444   0.825
10606SOL    HW132717   5.891   1.390   0.844
10606SOL    HW232718   5.796   1.452   0.726
10607SOL     OW32719   2.213   5.030   1.282
10607SOL    HW132720   2.279   4.957   1.267
10607SOL    HW232721   2.211   5.053   1.380
10608SOL     OW32722   5.094   4.087   2.546
10608SOL    HW132723   5.056   4.068   2.636
10608SOL    HW232724   5.127   4.001   2.505
10609SOL     OW32725   5.776   6.172   6.761
10609SOL    HW132726   5.748   6.225   6.681
10609SOL    HW232727   5.764   6.075   6.743
10610SOL     OW32728   0.471   2.026   3.301
10610SOL    HW132729   0.417   1.960   3.353
10610SOL    HW232730   0.506   1.982   3.219
10611SOL     OW32731   4.229   5.617   6.311
10611SOL    HW132732   4.221   5.517   6.315
10611SOL    HW232733   4.251   5.652   6.402
10612SOL     OW32734   5.313   2.433   3.650
10612SOL    HW132735   5.251   2.381   3.709
10612SOL    HW232736   5.271   2.447   3.560
10613SOL     OW32737   5.531   5.202   5.619
10613SOL    HW132738   5.560   5.182   5.712
10613SOL    HW232739   5.599   5.166   5.555
10614SOL     OW32740   3.927   1.912   0.297
10614SOL    HW132741   4.002   1.848   0.310
10614SOL    HW232742   3.952   2.002   0.334
10615SOL     OW32743   3.328   2.469   5.908
10615SOL    HW132744   3.257   2.434   5.848
10615SOL    HW232745   3.290   2.489   5.998
10616SOL     OW32746   1.343   5.691   0.249
10616SOL    HW132747   1.414   5.656   0.310
10616SOL    HW232748   1.260   5.710   0.301
10617SOL     OW32749   2.372   3.398   7.019
10617SOL    HW132750   2.450   3.364   0.052
10617SOL    HW232751   2.403   3.431   6.931
10618SOL     OW32752   6.949   4.832   4.617
10618SOL    HW132753   0.014   4.831   4.566
10618SOL    HW232754   6.961   4.783   4.704
10619SOL     OW32755   1.035   2.526   0.844
10619SOL    HW132756   1.045   2.626   0.849
10619SOL    HW232757   1.114   2.487   0.798
10620SOL     OW32758   4.180   1.014   5.574
10620SOL    HW132759   4.242   1.093   5.567
10620SOL    HW232760   4.085   1.046   5.573
10621SOL     OW32761   0.677   4.932   4.709
10621SOL    HW132762   0.685   5.027   4.681
10621SOL    HW232763   0.726   4.873   4.645
10622SOL     OW32764   3.709   1.969   6.159
10622SOL    HW132765   3.744   1.952   6.251
10622SOL    HW232766   3.671   2.061   6.154
10623SOL     OW32767   5.134   4.684   5.140
10623SOL    HW132768   5.127   4.746   5.218
10623SOL    HW232769   5.227   4.649   5.132
10624SOL     OW32770   0.430   1.304   5.720
10624SOL    HW132771   0.509   1.341   5.671
10624SOL    HW232772   0.456   1.218   5.765
10625SOL     OW32773   5.979   5.634   6.777
10625SOL    HW132774   5.999   5.542   6.744
10625SOL    HW232775   5.909   5.675   6.719
10626SOL     OW32776   5.718   3.702   1.933
10626SOL    HW132777   5.648   3.699   2.004
10626SOL    HW232778   5.726   3.612   1.889
10627SOL     OW32779   4.999   4.852   4.953
10627SOL    HW132780   4.972   4.935   5.002
10627SOL    HW232781   5.044   4.790   5.017
10628SOL     OW32782   2.623   6.107   1.865
10628SOL    HW132783   2.637   6.066   1.774
10628SOL    HW232784   2.526   6.104   1.888
10629SOL     OW32785   4.420   5.828   4.264
10629SOL    HW132786   4.393   5.911   4.312
10629SOL    HW232787   4.427   5.847   4.166
10630SOL     OW32788   4.374   0.612   1.812
10630SOL    HW132789   4.284   0.570   1.796
10630SOL    HW232790   4.362   0.700   1.859
10631SOL     OW32791   3.699   6.476   2.170
10631SOL    HW132792   3.737   6.510   2.084
10631SOL    HW232793   3.688   6.552   2.234
10632SOL     OW32794   5.608   0.521   4.725
10632SOL    HW132795   5.531   0.577   4.756
10632SOL    HW232796   5.590   0.488   4.632
10633SOL     OW32797   3.020   3.270   0.358
10633SOL    HW132798   2.980   3.206   0.293
10633SOL    HW232799   3.068   3.220   0.430
10634SOL     OW32800   0.814   4.390   0.205
10634SOL    HW132801   0.905   4.431   0.214
10634SOL    HW232802   0.746   4.463   0.197
10635SOL     OW32803   3.146   4.283   6.534
10635SOL    HW132804   3.181   4.333   6.455
10635SOL    HW232805   3.049   4.266   6.523
10636SOL     OW32806   6.934   2.248   0.652
10636SOL    HW132807   6.924   2.223   0.556
10636SOL    HW232808   6.865   2.316   0.676
10637SOL     OW32809   1.670   0.035   5.557
10637SOL    HW132810   1.586   0.083   5.583
10637SOL    HW232811   1.733   0.036   5.634
10638SOL     OW32812   5.943   4.747   6.667
10638SOL    HW132813   5.987   4.765   6.756
10638SOL    HW232814   5.902   4.832   6.633
10639SOL     OW32815   6.540   5.460   6.945
10639SOL    HW132816   6.531   5.416   0.015
10639SOL    HW232817   6.561   5.391   6.876
10640SOL     OW32818   4.033   5.405   4.761
10640SOL    HW132819   3.994   5.467   4.829
10640SOL    HW232820   4.124   5.377   4.790
10641SOL     OW32821   1.192   1.216   3.889
10641SOL    HW132822   1.099   1.194   3.917
10641SOL    HW232823   1.241   1.260   3.965
10642SOL     OW32824   0.038   2.097   5.804
10642SOL    HW132825   0.029   2.012   5.752
10642SOL    HW232826   0.077   2.168   5.745
10643SOL     OW32827   3.037   5.351   4.740
10643SOL    HW132828   3.053   5.324   4.646
10643SOL    HW232829   3.048   5.272   4.801
10644SOL     OW32830   1.389   3.470   3.696
10644SOL    HW132831   1.309   3.486   3.753
10644SOL    HW232832   1.472   3.480   3.751
10645SOL     OW32833   1.956   3.452   3.712
10645SOL    HW132834   1.904   3.368   3.729
10645SOL    HW232835   1.964   3.504   3.796
10646SOL     OW32836   5.371   1.610   3.273
10646SOL    HW132837   5.307   1.599   3.349
10646SOL    HW232838   5.454   1.655   3.306
10647SOL     OW32839   4.579   5.799   4.721
10647SOL    HW132840   4.511   5.743   4.672
10647SOL    HW232841   4.665   5.748   4.728
10648SOL     OW32842   4.869   3.685   5.786
10648SOL    HW132843   4.798   3.617   5.771
10648SOL    HW232844   4.959   3.644   5.770
10649SOL     OW32845   6.053   3.211   3.267
10649SOL    HW132846   6.072   3.288   3.205
10649SOL    HW232847   6.055   3.125   3.215
10650SOL     OW32848   1.110   0.160   3.076
10650SOL    HW132849   1.096   0.248   3.031
10650SOL    HW232850   1.199   0.123   3.050
10651SOL     OW32851   2.375   5.874   5.106
10651SOL    HW132852   2.416   5.818   5.035
10651SOL    HW232853   2.377   5.825   5.193
10652SOL     OW32854   2.796   0.466   0.042
10652SOL    HW132855   2.862   0.395   0.065
10652SOL    HW232856   2.844   0.551   0.019
10653SOL     OW32857   5.912   6.250   4.828
10653SOL    HW132858   5.948   6.343   4.823
10653SOL    HW232859   5.987   6.185   4.821
10654SOL     OW32860   0.227   1.374   3.698
10654SOL    HW132861   0.167   1.453   3.692
10654SOL    HW232862   0.172   1.290   3.691
10655SOL     OW32863   6.102   5.023   0.258
10655SOL    HW132864   6.103   4.935   0.307
10655SOL    HW232865   6.158   5.015   0.175
10656SOL     OW32866   5.693   0.511   6.012
10656SOL    HW132867   5.685   0.565   5.928
10656SOL    HW232868   5.785   0.473   6.018
10657SOL     OW32869   4.145   6.829   5.355
10657SOL    HW132870   4.091   6.791   5.281
10657SOL    HW232871   4.242   6.824   5.331
10658SOL     OW32872   1.521   1.313   5.545
10658SOL    HW132873   1.492   1.348   5.457
10658SOL    HW232874   1.621   1.312   5.550
10659SOL     OW32875   0.762   5.354   6.739
10659SOL    HW132876   0.709   5.405   6.807
10659SOL    HW232877   0.707   5.278   6.704
10660SOL     OW32878   6.110   2.062   6.321
10660SOL    HW132879   6.129   2.131   6.251
10660SOL    HW232880   6.171   2.075   6.398
10661SOL     OW32881   3.442   5.589   5.556
10661SOL    HW132882   3.486   5.499   5.555
10661SOL    HW232883   3.474   5.643   5.478
10662SOL     OW32884   3.677   1.897   0.900
10662SOL    HW132885   3.656   1.926   0.993
10662SOL    HW232886   3.649   1.968   0.835
10663SOL     OW32887   6.496   3.071   3.813
10663SOL    HW132888   6.572   3.064   3.749
10663SOL    HW232889   6.510   3.151   3.872
10664SOL     OW32890   1.242   6.561   4.620
10664SOL    HW132891   1.316   6.539   4.556
10664SOL    HW232892   1.160   6.587   4.568
10665SOL     OW32893   4.233   3.364   0.576
10665SOL    HW132894   4.239   3.408   0.666
10665SOL    HW232895   4.193   3.429   0.511
10666SOL     OW32896   5.133   3.256   1.722
10666SOL    HW132897   5.090   3.181   1.773
10666SOL    HW232898   5.220   3.224   1.684
10667SOL     OW32899   5.727   2.450   4.385
10667SOL    HW132900   5.820   2.487   4.392
10667SOL    HW232901   5.661   2.523   4.401
10668SOL     OW32902   3.359   3.294   5.895
10668SOL    HW132903   3.401   3.205   5.914
10668SOL    HW232904   3.415   3.344   5.829
10669SOL     OW32905   6.517   3.038   1.703
10669SOL    HW132906   6.439   2.999   1.654
10669SOL    HW232907   6.585   2.967   1.720
10670SOL     OW32908   4.448   4.869   4.106
10670SOL    HW132909   4.371   4.846   4.164
10670SOL    HW232910   4.420   4.864   4.010
10671SOL     OW32911   2.016   3.222   4.743
10671SOL    HW132912   1.957   3.299   4.720
10671SOL    HW232913   2.087   3.251   4.807
10672SOL     OW32914   6.497   4.688   1.204
10672SOL    HW132915   6.461   4.642   1.286
10672SOL    HW232916   6.432   4.758   1.174
10673SOL     OW32917   3.130   1.102   1.842
10673SOL    HW132918   3.139   1.044   1.922
10673SOL    HW232919   3.219   1.141   1.818
10674SOL     OW32920   4.039   3.244   4.563
10674SOL    HW132921   4.028   3.177   4.490
10674SOL    HW232922   4.041   3.196   4.651
10675SOL     OW32923   3.335   6.506   5.584
10675SOL    HW132924   3.385   6.420   5.597
10675SOL    HW232925   3.399   6.577   5.553
10676SOL     OW32926   1.311   1.352   4.610
10676SOL    HW132927   1.341   1.333   4.517
10676SOL    HW232928   1.238   1.421   4.608
10677SOL     OW32929   0.034   1.699   6.797
10677SOL    HW132930   0.011   1.682   6.702
10677SOL    HW232931   0.070   1.615   6.838
10678SOL     OW32932   3.502   4.927   2.507
10678SOL    HW132933   3.420   4.873   2.526
10678SOL    HW232934   3.524   4.921   2.410
10679SOL     OW32935   5.314   3.713   0.134
10679SOL    HW132936   5.226   3.747   0.168
10679SOL    HW232937   5.307   3.698   0.035
10680SOL     OW32938   4.379   1.680   5.258
10680SOL    HW132939   4.336   1.664   5.169
10680SOL    HW232940   4.391   1.593   5.305
10681SOL     OW32941   2.894   3.285   5.243
10681SOL    HW132942   2.885   3.385   5.237
10681SOL    HW232943   2.833   3.251   5.315
10682SOL     OW32944   4.939   3.268   6.216
10682SOL    HW132945   4.872   3.272   6.142
10682SOL    HW232946   5.017   3.212   6.187
10683SOL     OW32947   1.949   0.626   3.310
10683SOL    HW132948   1.876   0.596   3.372
10683SOL    HW232949   1.926   0.716   3.274
10684SOL     OW32950   4.589   4.200   1.327
10684SOL    HW132951   4.571   4.233   1.420
10684SOL    HW232952   4.584   4.276   1.263
10685SOL     OW32953   1.015   0.561   2.594
10685SOL    HW132954   0.917   0.541   2.585
10685SOL    HW232955   1.066   0.504   2.529
10686SOL     OW32956   3.046   1.382   6.683
10686SOL    HW132957   3.119   1.450   6.681
10686SOL    HW232958   3.024   1.355   6.589
10687SOL     OW32959   0.505   2.810   3.180
10687SOL    HW132960   0.544   2.885   3.234
10687SOL    HW232961   0.518   2.724   3.229
10688SOL     OW32962   5.073   1.044   3.605
10688SOL    HW132963   5.135   1.017   3.679
10688SOL    HW232964   5.042   1.138   3.621
10689SOL     OW32965   1.569   1.280   2.847
10689SOL    HW132966   1.565   1.309   2.942
10689SOL    HW232967   1.528   1.351   2.789
10690SOL     OW32968   0.755   6.881   4.625
10690SOL    HW132969   0.806   6.965   4.610
10690SOL    HW232970   0.809   6.819   4.682
10691SOL     OW32971   3.367   6.522   1.641
10691SOL    HW132972   3.450   6.477   1.672
10691SOL    HW232973   3.287   6.471   1.672
10692SOL     OW32974   2.612   2.163   4.213
10692SOL    HW132975   2.512   2.169   4.215
10692SOL    HW232976   2.651   2.233   4.273
10693SOL     OW32977   1.390   4.236   0.389
10693SOL    HW132978   1.434   4.146   0.388
10693SOL    HW232979   1.294   4.226   0.362
10694SOL     OW32980   5.430   2.089   5.531
10694SOL    HW132981   5.437   2.065   5.628
10694SOL    HW232982   5.485   2.171   5.513
10695SOL     OW32983   4.751   4.707   1.508
10695SOL    HW132984   4.806   4.782   1.469
10695SOL    HW232985   4.811   4.629   1.527
10696SOL     OW32986   6.569   4.954   4.241
10696SOL    HW132987   6.486   5.001   4.269
10696SOL    HW232988   6.574   4.865   4.286
10697SOL     OW32989   2.537   5.042   4.597
10697SOL    HW132990   2.582   4.988   4.526
10697SOL    HW232991   2.591   5.124   4.616
10698SOL     OW32992   3.889   4.670   6.983
10698SOL    HW132993   3.891   4.600   0.034
10698SOL    HW232994   3.920   4.757   0.001
10699SOL     OW32995   4.145   3.914   1.339
10699SOL    HW132996   4.094   3.871   1.264
10699SOL    HW232997   4.186   3.843   1.396
10700SOL     OW32998   4.932   0.477   1.366
10700SOL    HW132999   4.951   0.520   1.454
10700SOL    HW233000   4.833   0.480   1.347
10701SOL     OW33001   3.327   6.300   6.379
10701SOL    HW133002   3.301   6.213   6.337
10701SOL    HW233003   3.360   6.283   6.473
10702SOL     OW33004   5.440   2.840   2.689
10702SOL    HW133005   5.505   2.907   2.726
10702SOL    HW233006   5.432   2.764   2.752
10703SOL     OW33007   0.866   2.031   5.361
10703SOL    HW133008   0.875   2.008   5.458
10703SOL    HW233009   0.864   1.947   5.307
10704SOL     OW33010   5.487   6.753   2.062
10704SOL    HW133011   5.392   6.764   2.092
10704SOL    HW233012   5.506   6.819   1.989
10705SOL     OW33013   4.652   3.270   1.439
10705SOL    HW133014   4.555   3.273   1.414
10705SOL    HW233015   4.694   3.358   1.420
10706SOL     OW33016   2.900   0.835   1.992
10706SOL    HW133017   2.821   0.873   2.039
10706SOL    HW233018   2.977   0.900   1.999
10707SOL     OW33019   4.111   6.643   3.564
10707SOL    HW133020   4.036   6.589   3.528
10707SOL    HW233021   4.150   6.598   3.645
10708SOL     OW33022   3.928   0.866   1.298
10708SOL    HW133023   4.011   0.816   1.271
10708SOL    HW233024   3.853   0.840   1.238
10709SOL     OW33025   5.710   4.212   2.716
10709SOL    HW133026   5.797   4.260   2.728
10709SOL    HW233027   5.634   4.277   2.726
10710SOL     OW33028   4.659   1.513   3.070
10710SOL    HW133029   4.656   1.429   3.017
10710SOL    HW233030   4.659   1.592   3.008
10711SOL     OW33031   2.654   6.472   3.508
10711SOL    HW133032   2.668   6.566   3.475
10711SOL    HW233033   2.669   6.469   3.607
10712SOL     OW33034   5.663   1.040   3.411
10712SOL    HW133035   5.707   1.124   3.379
10712SOL    HW233036   5.640   0.983   3.332
10713SOL     OW33037   1.120   3.740   1.193
10713SOL    HW133038   1.125   3.829   1.148
10713SOL    HW233039   1.145   3.750   1.290
10714SOL     OW33040   3.110   4.136   5.295
10714SOL    HW133041   3.072   4.110   5.383
10714SOL    HW233042   3.156   4.224   5.303
10715SOL     OW33043   5.666   0.889   2.012
10715SOL    HW133044   5.570   0.903   2.037
10715SOL    HW233045   5.677   0.797   1.974
10716SOL     OW33046   5.177   1.229   3.124
10716SOL    HW133047   5.089   1.181   3.131
10716SOL    HW233048   5.161   1.327   3.125
10717SOL     OW33049   3.701   2.513   0.830
10717SOL    HW133050   3.721   2.589   0.768
10717SOL    HW233051   3.608   2.522   0.866
10718SOL     OW33052   1.809   5.292   6.220
10718SOL    HW133053   1.713   5.270   6.234
10718SOL    HW233054   1.841   5.249   6.135
10719SOL     OW33055   0.288   4.796   5.275
10719SOL    HW133056   0.202   4.831   5.313
10719SOL    HW233057   0.357   4.791   5.347
10720SOL     OW33058   0.247   5.544   3.007
10720SOL    HW133059   0.202   5.633   3.000
10720SOL    HW233060   0.234   5.494   2.922
10721SOL     OW33061   4.998   2.413   5.957
10721SOL    HW133062   4.985   2.322   5.917
10721SOL    HW233063   5.030   2.404   6.051
10722SOL     OW33064   0.200   3.675   5.146
10722SOL    HW133065   0.134   3.695   5.074
10722SOL    HW233066   0.246   3.759   5.173
10723SOL     OW33067   5.656   6.319   0.465
10723SOL    HW133068   5.670   6.309   0.563
10723SOL    HW233069   5.730   6.275   0.415
10724SOL     OW33070   0.079   6.032   5.892
10724SOL    HW133071   0.047   5.954   5.946
10724SOL    HW233072   0.131   5.998   5.813
10725SOL     OW33073   2.459   6.652   6.233
10725SOL    HW133074   2.493   6.562   6.258
10725SOL    HW233075   2.393   6.644   6.158
10726SOL     OW33076   3.854   0.704   4.239
10726SOL    HW133077   3.795   0.783   4.222
10726SOL    HW233078   3.921   0.728   4.309
10727SOL     OW33079   2.578   6.283   7.010
10727SOL    HW133080   2.670   6.246   0.004
10727SOL    HW233081   2.521   6.263   0.069
10728SOL     OW33082   5.498   6.178   1.626
10728SOL    HW133083   5.495   6.244   1.551
10728SOL    HW233084   5.429   6.107   1.611
10729SOL     OW33085   6.186   2.071   0.587
10729SOL    HW133086   6.260   2.016   0.548
10729SOL    HW233087   6.195   2.075   0.686
10730SOL     OW33088   4.941   0.654   2.987
10730SOL    HW133089   4.884   0.675   2.907
10730SOL    HW233090   4.926   0.724   3.057
10731SOL     OW33091   3.297   6.914   0.994
10731SOL    HW133092   3.304   7.011   0.974
10731SOL    HW233093   3.369   6.888   1.059
10732SOL     OW33094   0.818   3.491   6.185
10732SOL    HW133095   0.729   3.479   6.142
10732SOL    HW233096   0.815   3.570   6.246
10733SOL     OW33097   5.641   0.592   0.390
10733SOL    HW133098   5.730   0.588   0.344
10733SOL    HW233099   5.574   0.633   0.329
10734SOL     OW33100   5.710   3.127   2.174
10734SOL    HW133101   5.799   3.167   2.154
10734SOL    HW233102   5.689   3.056   2.106
10735SOL     OW33103   0.750   5.598   3.007
10735SOL    HW133104   0.769   5.695   2.990
10735SOL    HW233105   0.759   5.579   3.105
10736SOL     OW33106   2.031   1.448   4.817
10736SOL    HW133107   2.112   1.407   4.775
10736SOL    HW233108   1.982   1.503   4.749
10737SOL     OW33109   6.631   2.105   6.742
10737SOL    HW133110   6.691   2.060   6.676
10737SOL    HW233111   6.676   2.109   6.832
10738SOL     OW33112   4.054   6.923   4.177
10738SOL    HW133113   4.152   6.934   4.192
10738SOL    HW233114   4.004   6.955   4.258
10739SOL     OW33115   2.391   1.772   1.971
10739SOL    HW133116   2.488   1.776   1.949
10739SOL    HW233117   2.356   1.681   1.950
10740SOL     OW33118   4.476   5.927   3.357
10740SOL    HW133119   4.505   5.832   3.365
10740SOL    HW233120   4.556   5.985   3.341
10741SOL     OW33121   2.497   0.327   3.297
10741SOL    HW133122   2.525   0.413   3.255
10741SOL    HW233123   2.516   0.252   3.234
10742SOL     OW33124   6.943   5.650   0.154
10742SOL    HW133125   6.973   5.745   0.160
10742SOL    HW233126   6.961   5.604   0.241
10743SOL     OW33127   2.778   1.502   5.083
10743SOL    HW133128   2.721   1.474   5.006
10743SOL    HW233129   2.857   1.553   5.049
10744SOL     OW33130   6.236   1.467   0.184
10744SOL    HW133131   6.247   1.554   0.231
10744SOL    HW233132   6.326   1.428   0.163
10745SOL     OW33133   0.055   5.764   6.038
10745SOL    HW133134   0.098   5.686   6.083
10745SOL    HW233135   7.017   5.731   5.964
10746SOL     OW33136   1.838   4.252   5.669
10746SOL    HW133137   1.787   4.333   5.642
10746SOL    HW233138   1.924   4.280   5.712
10747SOL     OW33139   3.058   2.191   4.759
10747SOL    HW133140   3.109   2.219   4.840
10747SOL    HW233141   2.960   2.200   4.777
10748SOL     OW33142   5.808   1.366   2.645
10748SOL    HW133143   5.871   1.390   2.719
10748SOL    HW233144   5.764   1.449   2.611
10749SOL     OW33145   3.144   0.020   0.385
10749SOL    HW133146   3.142   6.946   0.419
10749SOL    HW233147   3.238   0.049   0.371
10750SOL     OW33148   4.491   6.481   5.871
10750SOL    HW133149   4.434   6.407   5.906
10750SOL    HW233150   4.471   6.565   5.921
10751SOL     OW33151   2.689   5.340   3.410
10751SOL    HW133152   2.716   5.246   3.391
10751SOL    HW233153   2.594   5.354   3.381
10752SOL     OW33154   5.149   4.908   3.857
10752SOL    HW133155   5.108   4.850   3.927
10752SOL    HW233156   5.248   4.906   3.865
10753SOL     OW33157   5.917   4.179   4.403
10753SOL    HW133158   5.872   4.093   4.427
10753SOL    HW233159   6.016   4.165   4.401
10754SOL     OW33160   1.097   6.948   2.589
10754SOL    HW133161   1.107   0.001   2.657
10754SOL    HW233162   1.101   6.987   2.497
10755SOL     OW33163   6.299   5.337   1.552
10755SOL    HW133164   6.234   5.300   1.618
10755SOL    HW233165   6.363   5.398   1.599
10756SOL     OW33166   0.602   0.545   4.938
10756SOL    HW133167   0.515   0.507   4.970
10756SOL    HW233168   0.622   0.628   4.989
10757SOL     OW33169   3.166   3.282   1.816
10757SOL    HW133170   3.193   3.237   1.901
10757SOL    HW233171   3.103   3.223   1.765
10758SOL     OW33172   0.339   5.008   4.180
10758SOL    HW133173   0.415   5.041   4.236
10758SOL    HW233174   0.342   4.908   4.175
10759SOL     OW33175   0.067   1.151   7.005
10759SOL    HW133176   7.014   1.216   0.008
10759SOL    HW233177   0.026   1.066   6.972
10760SOL     OW33178   5.933   1.638   4.774
10760SOL    HW133179   5.958   1.659   4.679
10760SOL    HW233180   6.007   1.666   4.835
10761SOL     OW33181   2.947   5.008   5.753
10761SOL    HW133182   2.864   4.951   5.756
10761SOL    HW233183   2.930   5.089   5.697
10762SOL     OW33184   3.289   1.462   6.337
10762SOL    HW133185   3.260   1.368   6.357
10762SOL    HW233186   3.385   1.462   6.309
10763SOL     OW33187   4.654   5.957   3.934
10763SOL    HW133188   4.567   5.911   3.956
10763SOL    HW233189   4.647   6.054   3.958
10764SOL     OW33190   4.137   0.128   4.668
10764SOL    HW133191   4.152   0.050   4.729
10764SOL    HW233192   4.187   0.113   4.582
10765SOL     OW33193   6.718   3.584   6.791
10765SOL    HW133194   6.723   3.650   6.715
10765SOL    HW233195   6.622   3.563   6.811
10766SOL     OW33196   3.353   3.478   1.803
10766SOL    HW133197   3.277   3.414   1.810
10766SOL    HW233198   3.436   3.428   1.778
10767SOL     OW33199   4.375   2.168   2.466
10767SOL    HW133200   4.282   2.199   2.447
10767SOL    HW233201   4.377   2.068   2.465
10768SOL     OW33202   5.907   4.802   6.048
10768SOL    HW133203   5.942   4.845   6.130
10768SOL    HW233204   5.809   4.785   6.058
10769SOL     OW33205   1.829   3.417   5.102
10769SOL    HW133206   1.815   3.470   5.186
10769SOL    HW233207   1.886   3.469   5.039
10770SOL     OW33208   4.093   5.447   3.999
10770SOL    HW133209   4.054   5.407   3.916
10770SOL    HW233210   4.026   5.440   4.073
10771SOL     OW33211   2.357   1.826   4.351
10771SOL    HW133212   2.393   1.879   4.428
10771SOL    HW233213   2.360   1.882   4.268
10772SOL     OW33214   5.360   5.839   3.788
10772SOL    HW133215   5.348   5.796   3.699
10772SOL    HW233216   5.294   5.914   3.798
10773SOL     OW33217   5.640   4.934   2.790
10773SOL    HW133218   5.689   4.972   2.868
10773SOL    HW233219   5.705   4.918   2.715
10774SOL     OW33220   0.238   6.810   3.494
10774SOL    HW133221   0.260   6.895   3.447
10774SOL    HW233222   0.321   6.755   3.506
10775SOL     OW33223   0.469   3.589   1.009
10775SOL    HW133224   0.440   3.496   0.989
10775SOL    HW233225   0.432   3.617   1.098
10776SOL     OW33226   1.458   0.259   5.982
10776SOL    HW133227   1.431   0.197   5.908
10776SOL    HW233228   1.410   0.346   5.971
10777SOL     OW33229   2.485   5.507   1.699
10777SOL    HW133230   2.524   5.507   1.791
10777SOL    HW233231   2.388   5.534   1.704
10778SOL     OW33232   6.036   5.741   2.148
10778SOL    HW133233   6.134   5.729   2.133
10778SOL    HW233234   6.005   5.681   2.221
10779SOL     OW33235   5.010   2.932   3.605
10779SOL    HW133236   5.058   2.946   3.519
10779SOL    HW233237   4.961   2.845   3.603
10780SOL     OW33238   6.783   0.462   2.031
10780SOL    HW133239   6.797   0.383   1.971
10780SOL    HW233240   6.715   0.439   2.101
10781SOL     OW33241   3.270   6.991   4.498
10781SOL    HW133242   3.349   6.967   4.441
10781SOL    HW233243   3.277   6.945   4.586
10782SOL     OW33244   6.448   5.026   3.530
10782SOL    HW133245   6.380   5.092   3.563
10782SOL    HW233246   6.528   5.028   3.589
10783SOL     OW33247   6.804   2.765   3.135
10783SOL    HW133248   6.756   2.839   3.088
10783SOL    HW233249   6.788   2.679   3.086
10784SOL     OW33250   2.147   1.719   4.650
10784SOL    HW133251   2.216   1.693   4.718
10784SOL    HW233252   2.069   1.762   4.696
10785SOL     OW33253   1.021   2.936   6.075
10785SOL    HW133254   1.078   2.968   6.000
10785SOL    HW233255   1.075   2.879   6.137
10786SOL     OW33256   6.564   4.044   4.393
10786SOL    HW133257   6.592   4.033   4.298
10786SOL    HW233258   6.487   3.983   4.412
10787SOL     OW33259   2.138   1.917   6.272
10787SOL    HW133260   2.201   1.958   6.206
10787SOL    HW233261   2.081   1.988   6.313
10788SOL     OW33262   5.543   3.437   5.936
10788SOL    HW133263   5.493   3.353   5.954
10788SOL    HW233264   5.627   3.416   5.885
10789SOL     OW33265   4.771   1.196   7.016
10789SOL    HW133266   4.809   1.217   6.926
10789SOL    HW233267   4.696   1.130   7.006
10790SOL     OW33268   5.906   6.242   3.078
10790SOL    HW133269   5.973   6.182   3.124
10790SOL    HW233270   5.836   6.186   3.034
10791SOL     OW33271   0.915   6.304   2.443
10791SOL    HW133272   0.867   6.331   2.360
10791SOL    HW233273   0.974   6.378   2.474
10792SOL     OW33274   3.789   4.810   6.176
10792SOL    HW133275   3.846   4.771   6.248
10792SOL    HW233276   3.783   4.909   6.189
10793SOL     OW33277   5.725   3.984   4.537
10793SOL    HW133278   5.686   3.935   4.615
10793SOL    HW233279   5.783   3.921   4.484
10794SOL     OW33280   3.218   3.403   4.468
10794SOL    HW133281   3.209   3.464   4.547
10794SOL    HW233282   3.289   3.437   4.407
10795SOL     OW33283   0.180   5.018   2.846
10795SOL    HW133284   0.106   5.067   2.800
10795SOL    HW233285   0.207   4.939   2.791
10796SOL     OW33286   0.771   6.386   5.577
10796SOL    HW133287   0.807   6.456   5.639
10796SOL    HW233288   0.847   6.346   5.526
10797SOL     OW33289   3.919   2.552   0.364
10797SOL    HW133290   3.975   2.552   0.282
10797SOL    HW233291   3.831   2.597   0.345
10798SOL     OW33292   6.065   1.369   0.927
10798SOL    HW133293   6.157   1.365   0.965
10798SOL    HW233294   6.008   1.298   0.968
10799SOL     OW33295   5.119   1.490   1.005
10799SOL    HW133296   5.207   1.443   1.017
10799SOL    HW233297   5.056   1.432   0.955
10800SOL     OW33298   6.779   0.121   0.909
10800SOL    HW133299   6.835   0.083   0.983
10800SOL    HW233300   6.692   0.073   0.906
10801SOL     OW33301   1.953   0.536   1.577
10801SOL    HW133302   1.856   0.532   1.603
10801SOL    HW233303   1.978   0.451   1.530
10802SOL     OW33304   5.814   1.835   3.692
10802SOL    HW133305   5.852   1.759   3.640
10802SOL    HW233306   5.714   1.824   3.699
10803SOL     OW33307   2.369   5.163   5.166
10803SOL    HW133308   2.431   5.086   5.176
10803SOL    HW233309   2.275   5.133   5.183
10804SOL     OW33310   6.240   3.560   4.354
10804SOL    HW133311   6.339   3.563   4.369
10804SOL    HW233312   6.221   3.543   4.257
10805SOL     OW33313   6.586   0.063   7.012
10805SOL    HW133314   6.499   0.107   6.992
10805SOL    HW233315   6.614   0.086   0.085
10806SOL     OW33316   1.510   5.655   0.662
10806SOL    HW133317   1.532   5.619   0.572
10806SOL    HW233318   1.470   5.583   0.719
10807SOL     OW33319   3.328   5.212   4.588
10807SOL    HW133320   3.300   5.224   4.683
10807SOL    HW233321   3.246   5.207   4.530
10808SOL     OW33322   1.842   3.226   6.538
10808SOL    HW133323   1.774   3.269   6.597
10808SOL    HW233324   1.922   3.286   6.529
10809SOL     OW33325   1.450   0.361   4.742
10809SOL    HW133326   1.539   0.317   4.728
10809SOL    HW233327   1.433   0.371   4.840
10810SOL     OW33328   6.085   0.822   3.974
10810SOL    HW133329   6.179   0.845   3.949
10810SOL    HW233330   6.083   0.736   4.025
10811SOL     OW33331   5.636   6.331   4.837
10811SOL    HW133332   5.732   6.304   4.839
10811SOL    HW233333   5.588   6.276   4.769
10812SOL     OW33334   0.360   3.041   0.750
10812SOL    HW133335   0.329   3.020   0.843
10812SOL    HW233336   0.293   3.100   0.706
10813SOL     OW33337   1.103   3.941   6.990
10813SOL    HW133338   1.068   3.926   6.898
10813SOL    HW233339   1.030   3.924   0.037
10814SOL     OW33340   3.379   1.997   1.540
10814SOL    HW133341   3.448   2.059   1.576
10814SOL    HW233342   3.419   1.907   1.526
10815SOL     OW33343   4.636   0.694   4.469
10815SOL    HW133344   4.574   0.636   4.416
10815SOL    HW233345   4.728   0.657   4.465
10816SOL     OW33346   3.342   2.972   5.300
10816SOL    HW133347   3.266   2.995   5.240
10816SOL    HW233348   3.383   2.885   5.271
10817SOL     OW33349   1.241   5.921   4.438
10817SOL    HW133350   1.279   5.998   4.490
10817SOL    HW233351   1.144   5.911   4.460
10818SOL     OW33352   4.186   3.806   0.143
10818SOL    HW133353   4.095   3.764   0.144
10818SOL    HW233354   4.228   3.797   0.233
10819SOL     OW33355   6.125   5.627   5.201
10819SOL    HW133356   6.167   5.713   5.231
10819SOL    HW233357   6.025   5.636   5.207
10820SOL     OW33358   1.843   4.829   5.962
10820SOL    HW133359   1.792   4.912   5.942
10820SOL    HW233360   1.935   4.853   5.993
10821SOL     OW33361   4.343   5.380   3.792
10821SOL    HW133362   4.274   5.308   3.787
10821SOL    HW233363   4.354   5.422   3.702
10822SOL     OW33364   5.654   0.558   2.436
10822SOL    HW133365   5.644   0.556   2.536
10822SOL    HW233366   5.751   0.551   2.412
10823SOL     OW33367   5.738   6.709   2.683
10823SOL    HW133368   5.804   6.749   2.746
10823SOL    HW233369   5.747   6.751   2.593
10824SOL     OW33370   1.320   2.863   2.769
10824SOL    HW133371   1.239   2.858   2.828
10824SOL    HW233372   1.402   2.846   2.823
10825SOL     OW33373   0.035   1.596   0.548
10825SOL    HW133374   0.026   1.634   0.641
10825SOL    HW233375   0.043   1.497   0.554
10826SOL     OW33376   6.715   3.186   2.375
10826SOL    HW133377   6.726   3.174   2.277
10826SOL    HW233378   6.648   3.258   2.393
10827SOL     OW33379   6.891   3.363   4.050
10827SOL    HW133380   6.946   3.297   4.100
10827SOL    HW233381   6.869   3.326   3.959
10828SOL     OW33382   0.045   4.091   4.863
10828SOL    HW133383   7.016   4.096   4.776
10828SOL    HW233384   0.121   4.156   4.862
10829SOL     OW33385   3.738   3.120   5.727
10829SOL    HW133386   3.822   3.067   5.742
10829SOL    HW233387   3.664   3.059   5.701
10830SOL     OW33388   5.525   1.833   3.621
10830SOL    HW133389   5.471   1.854   3.702
10830SOL    HW233390   5.503   1.898   3.548
10831SOL     OW33391   4.419   6.923   3.833
10831SOL    HW133392   4.324   6.950   3.847
10831SOL    HW233393   4.433   6.900   3.736
10832SOL     OW33394   6.884   2.760   6.732
10832SOL    HW133395   6.849   2.702   6.659
10832SOL    HW233396   6.954   2.822   6.696
10833SOL     OW33397   0.677   1.499   6.481
10833SOL    HW133398   0.700   1.431   6.550
10833SOL    HW233399   0.729   1.481   6.397
10834SOL     OW33400   6.546   6.174   1.617
10834SOL    HW133401   6.608   6.096   1.605
10834SOL    HW233402   6.502   6.194   1.529
10835SOL     OW33403   6.549   2.393   5.202
10835SOL    HW133404   6.634   2.415   5.155
10835SOL    HW233405   6.550   2.431   5.295
10836SOL     OW33406   6.870   1.534   3.324
10836SOL    HW133407   6.922   1.604   3.276
10836SOL    HW233408   6.784   1.574   3.357
10837SOL     OW33409   6.912   3.171   3.874
10837SOL    HW133410   6.870   3.110   3.806
10837SOL    HW233411   6.974   3.235   3.828
10838SOL     OW33412   0.252   6.363   2.829
10838SOL    HW133413   0.281   6.394   2.738
10838SOL    HW233414   0.320   6.390   2.897
10839SOL     OW33415   4.431   2.760   0.423
10839SOL    HW133416   4.458   2.856   0.429
10839SOL    HW233417   4.365   2.749   0.349
10840SOL     OW33418   2.785   0.727   2.299
10840SOL    HW133419   2.781   0.637   2.255
10840SOL    HW233420   2.743   0.795   2.239
10841SOL     OW33421   2.214   5.426   5.206
10841SOL    HW133422   2.278   5.349   5.196
10841SOL    HW233423   2.191   5.437   5.303
10842SOL     OW33424   6.731   4.589   1.567
10842SOL    HW133425   6.780   4.670   1.600
10842SOL    HW233426   6.779   4.506   1.596
10843SOL     OW33427   2.576   1.384   1.831
10843SOL    HW133428   2.584   1.284   1.828
10843SOL    HW233429   2.653   1.422   1.883
10844SOL     OW33430   2.200   5.364   4.787
10844SOL    HW133431   2.120   5.322   4.744
10844SOL    HW233432   2.257   5.293   4.828
10845SOL     OW33433   4.031   0.711   4.449
10845SOL    HW133434   4.072   0.782   4.507
10845SOL    HW233435   4.100   0.674   4.388
10846SOL     OW33436   6.133   6.787   5.982
10846SOL    HW133437   6.034   6.780   5.970
10846SOL    HW233438   6.155   6.876   6.022
10847SOL     OW33439   3.027   7.003   0.051
10847SOL    HW133440   3.087   0.048   0.005
10847SOL    HW233441   2.971   6.956   7.003
10848SOL     OW33442   1.722   3.338   1.793
10848SOL    HW133443   1.725   3.399   1.873
10848SOL    HW233444   1.688   3.389   1.714
10849SOL     OW33445   1.857   6.507   3.705
10849SOL    HW133446   1.823   6.514   3.611
10849SOL    HW233447   1.925   6.434   3.711
10850SOL     OW33448   4.733   4.298   0.602
10850SOL    HW133449   4.731   4.234   0.526
10850SOL    HW233450   4.813   4.280   0.659
10851SOL     OW33451   1.832   4.809   0.720
10851SOL    HW133452   1.888   4.889   0.741
10851SOL    HW233453   1.747   4.814   0.772
10852SOL     OW33454   2.978   1.416   2.149
10852SOL    HW133455   3.065   1.377   2.179
10852SOL    HW233456   2.903   1.361   2.185
10853SOL     OW33457   3.666   1.189   6.469
10853SOL    HW133458   3.626   1.131   6.540
10853SOL    HW233459   3.720   1.133   6.406
10854SOL     OW33460   3.045   5.810   5.820
10854SOL    HW133461   3.102   5.804   5.738
10854SOL    HW233462   2.988   5.892   5.816
10855SOL     OW33463   4.290   1.101   6.801
10855SOL    HW133464   4.330   1.015   6.770
10855SOL    HW233465   4.360   1.157   6.844
10856SOL     OW33466   0.937   1.204   0.470
10856SOL    HW133467   0.846   1.238   0.447
10856SOL    HW233468   0.992   1.198   0.387
10857SOL     OW33469   6.750   2.702   1.849
10857SOL    HW133470   6.714   2.628   1.792
10857SOL    HW233471   6.748   2.787   1.797
10858SOL     OW33472   2.206   6.478   2.023
10858SOL    HW133473   2.200   6.541   2.101
10858SOL    HW233474   2.276   6.510   1.960
10859SOL     OW33475   1.471   4.564   3.760
10859SOL    HW133476   1.475   4.664   3.756
10859SOL    HW233477   1.396   4.531   3.703
10860SOL     OW33478   0.095   3.362   3.061
10860SOL    HW133479   0.059   3.269   3.070
10860SOL    HW233480   0.019   3.426   3.052
10861SOL     OW33481   4.222   3.164   5.369
10861SOL    HW133482   4.126   3.165   5.342
10861SOL    HW233483   4.249   3.256   5.398
10862SOL     OW33484   1.303   0.808   5.615
10862SOL    HW133485   1.222   0.798   5.673
10862SOL    HW233486   1.352   0.891   5.640
10863SOL     OW33487   2.310   6.528   4.173
10863SOL    HW133488   2.329   6.524   4.271
10863SOL    HW233489   2.250   6.452   4.147
10864SOL     OW33490   3.502   6.896   3.225
10864SOL    HW133491   3.591   6.862   3.256
10864SOL    HW233492   3.451   6.929   3.304
10865SOL     OW33493   6.475   0.972   6.368
10865SOL    HW133494   6.544   0.968   6.296
10865SOL    HW233495   6.422   1.056   6.358
10866SOL     OW33496   5.667   4.695   6.787
10866SOL    HW133497   5.719   4.721   6.706
10866SOL    HW233498   5.619   4.775   6.824
10867SOL     OW33499   2.884   1.939   0.130
10867SOL    HW133500   2.959   1.878   0.156
10867SOL    HW233501   2.797   1.900   0.161
10868SOL     OW33502   1.653   2.275   3.280
10868SOL    HW133503   1.707   2.289   3.197
10868SOL    HW233504   1.709   2.233   3.350
10869NA      NA33505   6.309   2.032   5.337
10870NA      NA33506   4.341   4.631   5.230
10871NA      NA33507   2.164   3.277   1.840
10872NA      NA33508   4.942   3.581   5.211
10873NA      NA33509   4.085   2.453   5.356
10874NA      NA33510   3.643   4.907   1.777
10875NA      NA33511   6.692   6.409   4.898
10876NA      NA33512   3.629   3.586   5.134
10877NA      NA33513   4.835   6.253   6.011
10878NA      NA33514   2.566   0.446   5.083
10879NA      NA33515   0.665   5.010   2.760
10880NA      NA33516   2.245   0.507   2.572
10881NA      NA33517   3.556   4.436   1.243
10882NA      NA33518   3.912   3.460   3.041
   7.02013   7.02013   7.02013
