Generated by trjconv : CNT in water t= 244.00000
33518
    1C        C    1   2.842   2.768   4.747
    1C        C    2   2.898   2.721   4.868
    1C        C    3   2.839   2.768   4.985
    1C        C    4   2.851   2.780   4.257
    1C        C    5   2.899   2.731   4.380
    1C        C    6   2.848   2.776   4.504
    1C        C    7   3.015   2.645   4.624
    1C        C    8   2.898   2.723   4.625
    1C        C    9   3.076   2.603   4.744
    1C        C   10   3.007   2.631   4.864
    1C        C   11   3.178   2.492   4.975
    1C        C   12   3.053   2.556   4.973
    1C        C   13   2.851   2.770   3.770
    1C        C   14   2.900   2.724   3.894
    1C        C   15   2.849   2.777   4.014
    1C        C   16   3.017   2.645   4.137
    1C        C   17   2.904   2.730   4.135
    1C        C   18   3.080   2.614   4.260
    1C        C   19   3.017   2.652   4.380
    1C        C   20   3.210   2.565   4.502
    1C        C   21   3.076   2.610   4.501
    1C        C   22   3.279   2.541   4.623
    1C        C   23   3.208   2.549   4.744
    1C        C   24   3.410   2.485   4.865
    1C        C   25   3.267   2.501   4.864
    1C        C   26   3.487   2.470   4.980
    1C        C   27   2.847   2.768   3.280
    1C        C   28   2.903   2.726   3.403
    1C        C   29   2.852   2.774   3.526
    1C        C   30   3.015   2.638   3.648
    1C        C   31   2.901   2.722   3.647
    1C        C   32   3.075   2.605   3.772
    1C        C   33   3.015   2.641   3.894
    1C        C   34   3.206   2.547   4.014
    1C        C   35   3.077   2.604   4.016
    1C        C   36   3.277   2.534   4.136
    1C        C   37   3.211   2.561   4.258
    1C        C   38   3.418   2.515   4.378
    1C        C   39   3.279   2.542   4.381
    1C        C   40   3.486   2.504   4.501
    1C        C   41   3.418   2.513   4.624
    1C        C   42   3.628   2.484   4.744
    1C        C   43   3.486   2.483   4.744
    1C        C   44   3.702   2.486   4.865
    1C        C   45   3.626   2.478   4.982
    1C        C   46   2.837   2.759   2.792
    1C        C   47   2.893   2.714   2.914
    1C        C   48   2.841   2.761   3.036
    1C        C   49   3.011   2.634   3.159
    1C        C   50   2.897   2.718   3.158
    1C        C   51   3.080   2.609   3.280
    1C        C   52   3.020   2.647   3.402
    1C        C   53   3.207   2.551   3.526
    1C        C   54   3.076   2.604   3.525
    1C        C   55   3.274   2.531   3.649
    1C        C   56   3.206   2.550   3.771
    1C        C   57   3.415   2.509   3.893
    1C        C   58   3.275   2.529   3.892
    1C        C   59   3.488   2.506   4.014
    1C        C   60   3.415   2.506   4.135
    1C        C   61   3.628   2.499   4.259
    1C        C   62   3.487   2.497   4.256
    1C        C   63   3.701   2.499   4.380
    1C        C   64   3.627   2.490   4.500
    1C        C   65   3.833   2.533   4.620
    1C        C   66   3.697   2.496   4.622
    1C        C   67   3.903   2.557   4.740
    1C        C   68   3.838   2.524   4.861
    1C        C   69   4.046   2.586   4.979
    1C        C   70   3.921   2.524   4.974
    1C        C   71   2.820   2.731   2.308
    1C        C   72   2.881   2.692   2.429
    1C        C   73   2.830   2.748   2.549
    1C        C   74   3.006   2.631   2.673
    1C        C   75   2.886   2.705   2.671
    1C        C   76   3.071   2.597   2.793
    1C        C   77   3.011   2.635   2.915
    1C        C   78   3.205   2.549   3.038
    1C        C   79   3.073   2.601   3.037
    1C        C   80   3.277   2.536   3.159
    1C        C   81   3.208   2.549   3.281
    1C        C   82   3.412   2.497   3.404
    1C        C   83   3.273   2.523   3.404
    1C        C   84   3.483   2.498   3.526
    1C        C   85   3.412   2.503   3.648
    1C        C   86   3.624   2.498   3.770
    1C        C   87   3.483   2.494   3.770
    1C        C   88   3.696   2.510   3.891
    1C        C   89   3.629   2.504   4.015
    1C        C   90   3.838   2.541   4.134
    1C        C   91   3.700   2.509   4.138
    1C        C   92   3.904   2.562   4.257
    1C        C   93   3.837   2.536   4.379
    1C        C   94   4.030   2.625   4.500
    1C        C   95   3.904   2.561   4.501
    1C        C   96   4.090   2.665   4.621
    1C        C   97   4.030   2.620   4.740
    1C        C   98   4.191   2.760   4.860
    1C        C   99   4.094   2.654   4.863
    1C        C  100   4.214   2.840   4.973
    1C        C  101   2.813   2.726   2.069
    1C        C  102   2.988   2.595   2.189
    1C        C  103   2.872   2.678   2.187
    1C        C  104   3.059   2.572   2.310
    1C        C  105   3.001   2.617   2.431
    1C        C  106   3.199   2.538   2.550
    1C        C  107   3.068   2.591   2.552
    1C        C  108   3.268   2.522   2.672
    1C        C  109   3.203   2.545   2.795
    1C        C  110   3.412   2.503   2.912
    1C        C  111   3.272   2.526   2.917
    1C        C  112   3.481   2.490   3.035
    1C        C  113   3.415   2.506   3.159
    1C        C  114   3.624   2.499   3.281
    1C        C  115   3.483   2.495   3.282
    1C        C  116   3.695   2.507   3.402
    1C        C  117   3.624   2.501   3.525
    1C        C  118   3.832   2.536   3.646
    1C        C  119   3.695   2.505   3.647
    1C        C  120   3.899   2.560   3.768
    1C        C  121   3.835   2.536   3.891
    1C        C  122   4.030   2.628   4.010
    1C        C  123   3.903   2.566   4.011
    1C        C  124   4.090   2.664   4.133
    1C        C  125   4.028   2.630   4.255
    1C        C  126   4.193   2.761   4.377
    1C        C  127   4.088   2.667   4.378
    1C        C  128   4.245   2.816   4.496
    1C        C  129   4.192   2.763   4.616
    1C        C  130   4.325   2.930   4.738
    1C        C  131   4.239   2.816   4.739
    1C        C  132   4.349   3.004   4.855
    1C        C  133   4.282   2.961   4.970
    1C        C  134   3.169   2.466   2.083
    1C        C  135   3.037   2.511   2.083
    1C        C  136   3.257   2.476   2.192
    1C        C  137   3.190   2.517   2.309
    1C        C  138   3.402   2.477   2.429
    1C        C  139   3.264   2.505   2.429
    1C        C  140   3.478   2.478   2.548
    1C        C  141   3.406   2.492   2.669
    1C        C  142   3.622   2.489   2.790
    1C        C  143   3.480   2.490   2.789
    1C        C  144   3.692   2.495   2.912
    1C        C  145   3.622   2.492   3.035
    1C        C  146   3.829   2.537   3.154
    1C        C  147   3.692   2.503   3.157
    1C        C  148   3.897   2.558   3.275
    1C        C  149   3.833   2.536   3.400
    1C        C  150   4.028   2.615   3.520
    1C        C  151   3.899   2.559   3.523
    1C        C  152   4.084   2.661   3.641
    1C        C  153   4.022   2.630   3.765
    1C        C  154   4.193   2.757   3.888
    1C        C  155   4.085   2.666   3.886
    1C        C  156   4.243   2.806   4.010
    1C        C  157   4.198   2.755   4.134
    1C        C  158   4.337   2.918   4.251
    1C        C  159   4.244   2.811   4.255
    1C        C  160   4.373   2.983   4.370
    1C        C  161   4.331   2.928   4.493
    1C        C  162   4.430   3.114   4.612
    1C        C  163   4.366   2.989   4.616
    1C        C  164   4.459   3.184   4.731
    1C        C  165   4.422   3.125   4.853
    1C        C  166   4.513   3.314   4.966
    1C        C  167   4.480   3.179   4.969
    1C        C  168   3.474   2.435   2.072
    1C        C  169   3.397   2.454   2.187
    1C        C  170   3.614   2.464   2.303
    1C        C  171   3.471   2.463   2.307
    1C        C  172   3.686   2.487   2.422
    1C        C  173   3.619   2.487   2.546
    1C        C  174   3.827   2.535   2.667
    1C        C  175   3.690   2.498   2.667
    1C        C  176   3.895   2.557   2.788
    1C        C  177   3.830   2.528   2.910
    1C        C  178   4.023   2.620   3.028
    1C        C  179   3.896   2.558   3.031
    1C        C  180   4.086   2.653   3.150
    1C        C  181   4.026   2.616   3.272
    1C        C  182   4.190   2.745   3.395
    1C        C  183   4.086   2.650   3.396
    1C        C  184   4.240   2.797   3.517
    1C        C  185   4.193   2.751   3.641
    1C        C  186   4.333   2.911   3.762
    1C        C  187   4.240   2.804   3.763
    1C        C  188   4.374   2.971   3.883
    1C        C  189   4.330   2.918   4.006
    1C        C  190   4.438   3.102   4.123
    1C        C  191   4.373   2.976   4.127
    1C        C  192   4.466   3.168   4.244
    1C        C  193   4.436   3.110   4.370
    1C        C  194   4.502   3.314   4.488
    1C        C  195   4.461   3.179   4.490
    1C        C  196   4.521   3.386   4.608
    1C        C  197   4.506   3.318   4.731
    1C        C  198   4.555   3.533   4.848
    1C        C  199   4.529   3.392   4.850
    1C        C  200   4.583   3.617   4.960
    1C        C  201   3.611   2.408   2.076
    1C        C  202   3.825   2.509   2.181
    1C        C  203   3.691   2.458   2.183
    1C        C  204   3.894   2.537   2.302
    1C        C  205   3.825   2.512   2.423
    1C        C  206   4.016   2.615   2.540
    1C        C  207   3.892   2.547   2.542
    1C        C  208   4.081   2.656   2.659
    1C        C  209   4.021   2.622   2.783
    1C        C  210   4.194   2.743   2.905
    1C        C  211   4.082   2.656   2.905
    1C        C  212   4.247   2.787   3.028
    1C        C  213   4.200   2.737   3.151
    1C        C  214   4.327   2.906   3.269
    1C        C  215   4.246   2.791   3.274
    1C        C  216   4.364   2.967   3.391
    1C        C  217   4.327   2.909   3.515
    1C        C  218   4.426   3.096   3.635
    1C        C  219   4.366   2.968   3.637
    1C        C  220   4.454   3.165   3.755
    1C        C  221   4.433   3.099   3.879
    1C        C  222   4.493   3.304   3.998
    1C        C  223   4.464   3.165   4.000
    1C        C  224   4.508   3.373   4.120
    1C        C  225   4.504   3.304   4.244
    1C        C  226   4.517   3.521   4.364
    1C        C  227   4.514   3.380   4.363
    1C        C  228   4.519   3.596   4.484
    1C        C  229   4.531   3.527   4.607
    1C        C  230   4.497   3.740   4.724
    1C        C  231   4.531   3.602   4.726
    1C        C  232   4.494   3.814   4.844
    1C        C  233   4.546   3.752   4.958
    1C        C  234   4.014   2.607   2.061
    1C        C  235   3.895   2.535   2.063
    1C        C  236   4.078   2.647   2.179
    1C        C  237   4.018   2.608   2.300
    1C        C  238   4.199   2.728   2.417
    1C        C  239   4.083   2.646   2.419
    1C        C  240   4.252   2.780   2.537
    1C        C  241   4.197   2.736   2.660
    1C        C  242   4.333   2.900   2.782
    1C        C  243   4.245   2.789   2.781
    1C        C  244   4.376   2.957   2.904
    1C        C  245   4.335   2.898   3.025
    1C        C  246   4.428   3.091   3.146
    1C        C  247   4.370   2.962   3.147
    1C        C  248   4.448   3.159   3.268
    1C        C  249   4.421   3.096   3.392
    1C        C  250   4.493   3.298   3.510
    1C        C  251   4.451   3.163   3.513
    1C        C  252   4.506   3.369   3.632
    1C        C  253   4.491   3.301   3.755
    1C        C  254   4.515   3.514   3.875
    1C        C  255   4.507   3.373   3.875
    1C        C  256   4.515   3.584   3.997
    1C        C  257   4.514   3.514   4.120
    1C        C  258   4.490   3.728   4.238
    1C        C  259   4.513   3.588   4.240
    1C        C  260   4.472   3.802   4.357
    1C        C  261   4.492   3.735   4.479
    1C        C  262   4.420   3.936   4.600
    1C        C  263   4.471   3.804   4.600
    1C        C  264   4.401   4.007   4.720
    1C        C  265   4.438   3.944   4.842
    1C        C  266   4.316   4.127   4.953
    1C        C  267   4.399   4.015   4.956
    1C        C  268   4.259   2.769   2.062
    1C        C  269   4.192   2.731   2.178
    1C        C  270   4.347   2.884   2.297
    1C        C  271   4.251   2.780   2.297
    1C        C  272   4.380   2.950   2.418
    1C        C  273   4.341   2.890   2.539
    1C        C  274   4.434   3.085   2.657
    1C        C  275   4.371   2.959   2.659
    1C        C  276   4.463   3.151   2.778
    1C        C  277   4.436   3.085   2.900
    1C        C  278   4.497   3.288   3.023
    1C        C  279   4.459   3.152   3.023
    1C        C  280   4.504   3.361   3.143
    1C        C  281   4.487   3.295   3.267
    1C        C  282   4.513   3.508   3.385
    1C        C  283   4.500   3.367   3.387
    1C        C  284   4.505   3.579   3.507
    1C        C  285   4.510   3.510   3.630
    1C        C  286   4.486   3.722   3.750
    1C        C  287   4.510   3.583   3.751
    1C        C  288   4.477   3.791   3.874
    1C        C  289   4.496   3.724   3.997
    1C        C  290   4.427   3.929   4.113
    1C        C  291   4.475   3.797   4.116
    1C        C  292   4.397   3.998   4.233
    1C        C  293   4.429   3.937   4.357
    1C        C  294   4.326   4.124   4.477
    1C        C  295   4.398   4.003   4.478
    1C        C  296   4.280   4.185   4.597
    1C        C  297   4.330   4.129   4.717
    1C        C  298   4.205   4.313   4.835
    1C        C  299   4.287   4.195   4.835
    1C        C  300   4.173   4.397   4.946
    1C        C  301   4.340   2.883   2.061
    1C        C  302   4.467   3.066   2.177
    1C        C  303   4.388   2.947   2.176
    1C        C  304   4.478   3.144   2.295
    1C        C  305   4.439   3.078   2.414
    1C        C  306   4.509   3.281   2.533
    1C        C  307   4.472   3.144   2.535
    1C        C  308   4.518   3.354   2.653
    1C        C  309   4.497   3.288   2.776
    1C        C  310   4.518   3.497   2.895
    1C        C  311   4.507   3.356   2.900
    1C        C  312   4.516   3.569   3.017
    1C        C  313   4.511   3.502   3.141
    1C        C  314   4.488   3.715   3.261
    1C        C  315   4.513   3.576   3.261
    1C        C  316   4.467   3.787   3.381
    1C        C  317   4.482   3.718   3.504
    1C        C  318   4.429   3.923   3.624
    1C        C  319   4.469   3.787   3.626
    1C        C  320   4.397   3.985   3.747
    1C        C  321   4.426   3.922   3.871
    1C        C  322   4.314   4.108   3.991
    1C        C  323   4.393   3.991   3.990
    1C        C  324   4.277   4.171   4.112
    1C        C  325   4.322   4.117   4.235
    1C        C  326   4.183   4.281   4.352
    1C        C  327   4.281   4.179   4.355
    1C        C  328   4.136   4.341   4.471
    1C        C  329   4.187   4.291   4.593
    1C        C  330   4.025   4.432   4.710
    1C        C  331   4.137   4.345   4.714
    1C        C  332   3.971   4.489   4.827
    1C        C  333   4.053   4.470   4.939
    1C        C  334   4.553   3.264   2.058
    1C        C  335   4.526   3.126   2.061
    1C        C  336   4.538   3.348   2.169
    1C        C  337   4.512   3.282   2.291
    1C        C  338   4.530   3.494   2.407
    1C        C  339   4.524   3.353   2.412
    1C        C  340   4.525   3.564   2.530
    1C        C  341   4.523   3.495   2.653
    1C        C  342   4.489   3.708   2.770
    1C        C  343   4.512   3.569   2.773
    1C        C  344   4.473   3.777   2.892
    1C        C  345   4.490   3.708   3.014
    1C        C  346   4.417   3.908   3.134
    1C        C  347   4.470   3.777   3.136
    1C        C  348   4.391   3.979   3.253
    1C        C  349   4.417   3.919   3.379
    1C        C  350   4.319   4.104   3.501
    1C        C  351   4.395   3.984   3.502
    1C        C  352   4.277   4.159   3.623
    1C        C  353   4.322   4.104   3.745
    1C        C  354   4.177   4.262   3.867
    1C        C  355   4.273   4.159   3.866
    1C        C  356   4.123   4.315   3.987
    1C        C  357   4.174   4.267   4.109
    1C        C  358   4.008   4.401   4.227
    1C        C  359   4.125   4.322   4.230
    1C        C  360   3.954   4.449   4.348
    1C        C  361   4.017   4.416   4.471
    1C        C  362   3.823   4.510   4.591
    1C        C  363   3.952   4.453   4.591
    1C        C  364   3.759   4.545   4.712
    1C        C  365   3.841   4.543   4.827
    1C        C  366   3.627   4.583   4.945
    1C        C  367   3.765   4.569   4.942
    1C        C  368   4.509   3.558   2.048
    1C        C  369   4.521   3.488   2.169
    1C        C  370   4.504   3.707   2.282
    1C        C  371   4.524   3.567   2.286
    1C        C  372   4.482   3.774   2.404
    1C        C  373   4.500   3.703   2.525
    1C        C  374   4.428   3.906   2.645
    1C        C  375   4.474   3.772   2.645
    1C        C  376   4.401   3.973   2.766
    1C        C  377   4.427   3.911   2.891
    1C        C  378   4.317   4.094   3.010
    1C        C  379   4.385   3.970   3.012
    1C        C  380   4.275   4.154   3.131
    1C        C  381   4.317   4.100   3.255
    1C        C  382   4.176   4.257   3.376
    1C        C  383   4.274   4.155   3.377
    1C        C  384   4.122   4.303   3.498
    1C        C  385   4.176   4.258   3.620
    1C        C  386   4.004   4.381   3.739
    1C        C  387   4.123   4.304   3.743
    1C        C  388   3.941   4.422   3.859
    1C        C  389   4.004   4.392   3.982
    1C        C  390   3.813   4.481   4.107
    1C        C  391   3.946   4.432   4.104
    1C        C  392   3.747   4.511   4.228
    1C        C  393   3.822   4.499   4.347
    1C        C  394   3.614   4.545   4.472
    1C        C  395   3.753   4.521   4.469
    1C        C  396   3.542   4.562   4.592
    1C        C  397   3.619   4.561   4.711
    1C        C  398   3.406   4.552   4.838
    1C        C  399   3.546   4.566   4.832
    1C        C  400   3.338   4.513   4.954
    1C        C  401   4.499   3.696   2.044
    1C        C  402   4.458   3.912   2.161
    1C        C  403   4.492   3.775   2.159
    1C        C  404   4.416   3.976   2.280
    1C        C  405   4.439   3.909   2.402
    1C        C  406   4.327   4.091   2.524
    1C        C  407   4.406   3.974   2.523
    1C        C  408   4.281   4.150   2.643
    1C        C  409   4.323   4.091   2.765
    1C        C  410   4.175   4.246   2.885
    1C        C  411   4.277   4.148   2.886
    1C        C  412   4.121   4.295   3.006
    1C        C  413   4.173   4.251   3.130
    1C        C  414   4.001   4.373   3.249
    1C        C  415   4.121   4.299   3.253
    1C        C  416   3.940   4.407   3.372
    1C        C  417   4.001   4.377   3.496
    1C        C  418   3.810   4.470   3.618
    1C        C  419   3.940   4.414   3.618
    1C        C  420   3.743   4.495   3.739
    1C        C  421   3.812   4.480   3.862
    1C        C  422   3.607   4.531   3.985
    1C        C  423   3.746   4.502   3.984
    1C        C  424   3.537   4.535   4.107
    1C        C  425   3.608   4.535   4.230
    1C        C  426   3.398   4.546   4.353
    1C        C  427   3.539   4.552   4.352
    1C        C  428   3.328   4.548   4.476
    1C        C  429   3.401   4.555   4.597
    1C        C  430   3.191   4.515   4.720
    1C        C  431   3.330   4.546   4.719
    1C        C  432   3.123   4.487   4.841
    1C        C  433   3.201   4.491   4.958
    1C        C  434   4.380   4.120   2.049
    1C        C  435   4.447   3.997   2.050
    1C        C  436   4.305   4.161   2.164
    1C        C  437   4.336   4.093   2.285
    1C        C  438   4.183   4.249   2.399
    1C        C  439   4.284   4.150   2.403
    1C        C  440   4.128   4.296   2.520
    1C        C  441   4.179   4.248   2.643
    1C        C  442   4.002   4.370   2.763
    1C        C  443   4.117   4.288   2.763
    1C        C  444   3.941   4.411   2.884
    1C        C  445   4.002   4.372   3.005
    1C        C  446   3.810   4.465   3.128
    1C        C  447   3.937   4.404   3.127
    1C        C  448   3.744   4.486   3.251
    1C        C  449   3.810   4.462   3.374
    1C        C  450   3.605   4.519   3.494
    1C        C  451   3.743   4.491   3.495
    1C        C  452   3.536   4.533   3.617
    1C        C  453   3.605   4.527   3.740
    1C        C  454   3.395   4.546   3.862
    1C        C  455   3.536   4.538   3.863
    1C        C  456   3.327   4.535   3.985
    1C        C  457   3.396   4.533   4.108
    1C        C  458   3.189   4.503   4.234
    1C        C  459   3.328   4.527   4.232
    1C        C  460   3.119   4.493   4.357
    1C        C  461   3.191   4.516   4.477
    1C        C  462   2.995   4.433   4.600
    1C        C  463   3.124   4.491   4.598
    1C        C  464   2.927   4.399   4.720
    1C        C  465   2.987   4.441   4.842
    1C        C  466   2.799   4.335   4.958
    1C        C  467   2.903   4.429   4.956
    1C        C  468   4.124   4.279   2.043
    1C        C  469   4.192   4.248   2.162
    1C        C  470   4.007   4.375   2.277
    1C        C  471   4.125   4.295   2.278
    1C        C  472   3.942   4.402   2.399
    1C        C  473   4.004   4.364   2.520
    1C        C  474   3.809   4.456   2.640
    1C        C  475   3.938   4.400   2.640
    1C        C  476   3.745   4.487   2.763
    1C        C  477   3.813   4.469   2.885
    1C        C  478   3.603   4.515   3.006
    1C        C  479   3.742   4.487   3.006
    1C        C  480   3.535   4.523   3.130
    1C        C  481   3.605   4.514   3.252
    1C        C  482   3.392   4.534   3.372
    1C        C  483   3.533   4.527   3.373
    1C        C  484   3.325   4.530   3.497
    1C        C  485   3.395   4.537   3.619
    1C        C  486   3.188   4.498   3.742
    1C        C  487   3.323   4.539   3.741
    1C        C  488   3.124   4.476   3.866
    1C        C  489   3.189   4.504   3.989
    1C        C  490   2.998   4.413   4.111
    1C        C  491   3.122   4.480   4.111
    1C        C  492   2.940   4.380   4.236
    1C        C  493   2.998   4.421   4.358
    1C        C  494   2.822   4.303   4.481
    1C        C  495   2.936   4.388   4.480
    1C        C  496   2.770   4.253   4.602
    1C        C  497   2.811   4.317   4.721
    1C        C  498   2.661   4.165   4.841
    1C        C  499   2.750   4.275   4.841
    1C        C  500   2.599   4.114   4.955
    1C        C  501   4.005   4.351   2.040
    1C        C  502   3.810   4.452   2.152
    1C        C  503   3.940   4.396   2.155
    1C        C  504   3.742   4.474   2.273
    1C        C  505   3.809   4.450   2.395
    1C        C  506   3.603   4.501   2.519
    1C        C  507   3.741   4.471   2.517
    1C        C  508   3.532   4.517   2.640
    1C        C  509   3.605   4.507   2.761
    1C        C  510   3.394   4.523   2.882
    1C        C  511   3.535   4.522   2.883
    1C        C  512   3.323   4.520   3.004
    1C        C  513   3.393   4.525   3.126
    1C        C  514   3.186   4.492   3.251
    1C        C  515   3.324   4.524   3.249
    1C        C  516   3.119   4.475   3.375
    1C        C  517   3.187   4.501   3.496
    1C        C  518   2.995   4.414   3.622
    1C        C  519   3.123   4.475   3.619
    1C        C  520   2.938   4.371   3.744
    1C        C  521   3.002   4.406   3.865
    1C        C  522   2.831   4.284   3.993
    1C        C  523   2.944   4.369   3.988
    1C        C  524   2.784   4.235   4.117
    1C        C  525   2.835   4.286   4.238
    1C        C  526   2.698   4.126   4.363
    1C        C  527   2.779   4.242   4.361
    1C        C  528   2.652   4.072   4.485
    1C        C  529   2.682   4.143   4.603
    1C        C  530   2.588   3.955   4.729
    1C        C  531   2.634   4.090   4.725
    1C        C  532   2.538   3.898   4.850
    1C        C  533   2.530   3.991   4.958
    1C        C  534   3.614   4.552   2.036
    1C        C  535   3.748   4.511   2.041
    1C        C  536   3.534   4.529   2.152
    1C        C  537   3.602   4.501   2.274
    1C        C  538   3.392   4.509   2.398
    1C        C  539   3.533   4.509   2.397
    1C        C  540   3.319   4.504   2.519
    1C        C  541   3.391   4.508   2.641
    1C        C  542   3.181   4.483   2.763
    1C        C  543   3.319   4.511   2.762
    1C        C  544   3.117   4.463   2.888
    1C        C  545   3.185   4.490   3.009
    1C        C  546   2.994   4.396   3.132
    1C        C  547   3.118   4.464   3.131
    1C        C  548   2.938   4.364   3.257
    1C        C  549   2.995   4.407   3.379
    1C        C  550   2.828   4.279   3.501
    1C        C  551   2.934   4.372   3.502
    1C        C  552   2.775   4.234   3.624
    1C        C  553   2.825   4.286   3.745
    1C        C  554   2.702   4.119   3.872
    1C        C  555   2.780   4.237   3.870
    1C        C  556   2.666   4.058   3.994
    1C        C  557   2.704   4.118   4.116
    1C        C  558   2.607   3.935   4.243
    1C        C  559   2.667   4.062   4.241
    1C        C  560   2.577   3.873   4.367
    1C        C  561   2.593   3.944   4.488
    1C        C  562   2.523   3.746   4.613
    1C        C  563   2.563   3.882   4.611
    1C        C  564   2.517   3.678   4.737
    1C        C  565   2.523   3.756   4.856
    1C        C  566   2.535   3.542   4.979
    1C        C  567   2.525   3.681   4.974
    1C        C  568   3.326   4.472   2.036
    1C        C  569   3.392   4.512   2.152
    1C        C  570   3.184   4.465   2.277
    1C        C  571   3.323   4.497   2.275
    1C        C  572   3.113   4.452   2.398
    1C        C  573   3.180   4.480   2.519
    1C        C  574   2.987   4.396   2.645
    1C        C  575   3.114   4.458   2.642
    1C        C  576   2.928   4.358   2.768
    1C        C  577   2.994   4.394   2.887
    1C        C  578   2.825   4.267   3.010
    1C        C  579   2.934   4.357   3.010
    1C        C  580   2.778   4.218   3.134
    1C        C  581   2.836   4.266   3.254
    1C        C  582   2.700   4.110   3.382
    1C        C  583   2.788   4.221   3.379
    1C        C  584   2.662   4.055   3.506
    1C        C  585   2.697   4.117   3.628
    1C        C  586   2.598   3.931   3.755
    1C        C  587   2.660   4.058   3.752
    1C        C  588   2.572   3.868   3.878
    1C        C  589   2.603   3.932   4.000
    1C        C  590   2.542   3.730   4.126
    1C        C  591   2.579   3.867   4.123
    1C        C  592   2.523   3.666   4.250
    1C        C  593   2.531   3.740   4.371
    1C        C  594   2.502   3.532   4.496
    1C        C  595   2.508   3.673   4.493
    1C        C  596   2.514   3.462   4.619
    1C        C  597   2.514   3.536   4.739
    1C        C  598   2.533   3.326   4.860
    1C        C  599   2.523   3.467   4.862
    1C        C  600   2.527   3.246   4.975
    1C        C  601   3.193   4.436   2.040
    1C        C  602   2.979   4.392   2.155
    1C        C  603   3.115   4.437   2.156
    1C        C  604   2.923   4.353   2.280
    1C        C  605   2.987   4.387   2.401
    1C        C  606   2.814   4.269   2.525
    1C        C  607   2.925   4.357   2.524
    1C        C  608   2.768   4.215   2.647
    1C        C  609   2.820   4.267   2.767
    1C        C  610   2.683   4.106   2.895
    1C        C  611   2.770   4.218   2.890
    1C        C  612   2.646   4.050   3.019
    1C        C  613   2.688   4.109   3.141
    1C        C  614   2.586   3.925   3.265
    1C        C  615   2.651   4.051   3.264
    1C        C  616   2.565   3.862   3.390
    1C        C  617   2.598   3.929   3.510
    1C        C  618   2.529   3.729   3.636
    1C        C  619   2.573   3.864   3.633
    1C        C  620   2.514   3.663   3.760
    1C        C  621   2.527   3.734   3.881
    1C        C  622   2.505   3.522   4.006
    1C        C  623   2.521   3.663   4.003
    1C        C  624   2.511   3.455   4.130
    1C        C  625   2.514   3.525   4.252
    1C        C  626   2.528   3.318   4.378
    1C        C  627   2.508   3.458   4.376
    1C        C  628   2.551   3.250   4.500
    1C        C  629   2.530   3.322   4.620
    1C        C  630   2.596   3.118   4.743
    1C        C  631   2.542   3.250   4.741
    1C        C  632   2.614   3.048   4.865
    1C        C  633   2.557   3.109   4.982
    1C        C  634   2.781   4.296   2.049
    1C        C  635   2.887   4.387   2.045
    1C        C  636   2.744   4.227   2.165
    1C        C  637   2.807   4.271   2.283
    1C        C  638   2.674   4.104   2.407
    1C        C  639   2.761   4.216   2.405
    1C        C  640   2.638   4.043   2.529
    1C        C  641   2.681   4.104   2.649
    1C        C  642   2.582   3.920   2.775
    1C        C  643   2.643   4.047   2.773
    1C        C  644   2.564   3.851   2.897
    1C        C  645   2.588   3.921   3.018
    1C        C  646   2.527   3.723   3.149
    1C        C  647   2.562   3.860   3.142
    1C        C  648   2.511   3.654   3.271
    1C        C  649   2.527   3.726   3.392
    1C        C  650   2.509   3.517   3.518
    1C        C  651   2.515   3.658   3.515
    1C        C  652   2.507   3.448   3.641
    1C        C  653   2.506   3.522   3.762
    1C        C  654   2.521   3.311   3.888
    1C        C  655   2.504   3.451   3.884
    1C        C  656   2.541   3.246   4.012
    1C        C  657   2.535   3.315   4.134
    1C        C  658   2.599   3.116   4.257
    1C        C  659   2.547   3.247   4.258
    1C        C  660   2.631   3.054   4.380
    1C        C  661   2.595   3.116   4.501
    1C        C  662   2.707   2.935   4.624
    1C        C  663   2.625   3.050   4.623
    1C        C  664   2.746   2.873   4.745
    1C        C  665   2.698   2.932   4.864
    1C        C  666   2.744   2.870   4.981
    1C        C  667   2.683   4.017   2.053
    1C        C  668   2.684   4.099   2.167
    1C        C  669   2.587   3.907   2.288
    1C        C  670   2.639   4.040   2.287
    1C        C  671   2.557   3.846   2.412
    1C        C  672   2.580   3.914   2.533
    1C        C  673   2.518   3.712   2.657
    1C        C  674   2.557   3.848   2.656
    1C        C  675   2.507   3.644   2.781
    1C        C  676   2.528   3.715   2.901
    1C        C  677   2.506   3.511   3.029
    1C        C  678   2.518   3.651   3.027
    1C        C  679   2.502   3.440   3.151
    1C        C  680   2.501   3.513   3.272
    1C        C  681   2.529   3.306   3.398
    1C        C  682   2.507   3.445   3.396
    1C        C  683   2.547   3.238   3.521
    1C        C  684   2.530   3.308   3.642
    1C        C  685   2.598   3.111   3.767
    1C        C  686   2.548   3.243   3.766
    1C        C  687   2.634   3.054   3.891
    1C        C  688   2.600   3.117   4.013
    1C        C  689   2.704   2.931   4.135
    1C        C  690   2.633   3.053   4.135
    1C        C  691   2.747   2.875   4.257
    1C        C  692   2.708   2.935   4.379
    1C        C  693   2.753   2.880   4.502
    1C        C  694   2.621   3.891   2.052
    1C        C  695   2.522   3.701   2.173
    1C        C  696   2.568   3.835   2.169
    1C        C  697   2.505   3.634   2.296
    1C        C  698   2.518   3.710   2.415
    1C        C  699   2.483   3.501   2.541
    1C        C  700   2.501   3.641   2.537
    1C        C  701   2.495   3.431   2.664
    1C        C  702   2.494   3.504   2.785
    1C        C  703   2.515   3.296   2.909
    1C        C  704   2.499   3.436   2.909
    1C        C  705   2.535   3.228   3.032
    1C        C  706   2.520   3.300   3.152
    1C        C  707   2.595   3.104   3.277
    1C        C  708   2.544   3.236   3.276
    1C        C  709   2.630   3.043   3.399
    1C        C  710   2.600   3.107   3.521
    1C        C  711   2.708   2.930   3.649
    1C        C  712   2.630   3.048   3.645
    1C        C  713   2.752   2.871   3.770
    1C        C  714   2.713   2.937   3.889
    1C        C  715   2.755   2.882   4.013
    1C        C  716   2.447   3.499   2.063
    1C        C  717   2.477   3.636   2.058
    1C        C  718   2.468   3.419   2.180
    1C        C  719   2.484   3.493   2.300
    1C        C  720   2.511   3.286   2.424
    1C        C  721   2.480   3.424   2.423
    1C        C  722   2.525   3.219   2.547
    1C        C  723   2.512   3.291   2.668
    1C        C  724   2.576   3.089   2.789
    1C        C  725   2.527   3.222   2.790
    1C        C  726   2.603   3.025   2.912
    1C        C  727   2.574   3.092   3.033
    1C        C  728   2.703   2.923   3.157
    1C        C  729   2.619   3.036   3.155
    1C        C  730   2.750   2.870   3.279
    1C        C  731   2.709   2.926   3.403
    1C        C  732   2.756   2.877   3.527
    1C        C  733   2.482   3.193   2.068
    1C        C  734   2.484   3.277   2.180
    1C        C  735   2.578   3.084   2.303
    1C        C  736   2.520   3.213   2.303
    1C        C  737   2.611   3.021   2.425
    1C        C  738   2.582   3.089   2.545
    1C        C  739   2.693   2.911   2.668
    1C        C  740   2.610   3.026   2.668
    1C        C  741   2.738   2.860   2.792
    1C        C  742   2.691   2.914   2.914
    1C        C  743   2.743   2.863   3.035
    1C        C  744   2.534   3.065   2.072
    1C        C  745   2.680   2.895   2.184
    1C        C  746   2.600   3.011   2.184
    1C        C  747   2.723   2.836   2.305
    1C        C  748   2.686   2.901   2.424
    1C        C  749   2.736   2.853   2.547
    1C        C  750   2.727   2.835   2.066
    1C        C  751   3.640   2.284   2.000
    1C        O  752   3.648   2.168   2.050
    1C        O  753   3.641   2.280   1.860
    1C        C  754   4.619   3.062   1.965
    1C        O  755   4.572   3.026   1.854
    1C        O  756   4.749   3.024   2.002
    1C        C  757   4.417   4.211   1.939
    1C        O  758   4.467   4.326   1.954
    1C        O  759   4.401   4.177   1.804
    1C        C  760   3.587   4.647   1.925
    1C        O  761   3.599   4.772   1.928
    1C        O  762   3.580   4.592   1.797
    1C        C  763   2.851   4.509   1.970
    1C        O  764   2.920   4.548   1.872
    1C        O  765   2.788   4.622   2.025
    1C        C  766   2.357   3.458   1.954
    1C        O  767   2.410   3.453   1.839
    1C        O  768   2.218   3.470   1.970
    1C        C  769   4.683   3.583   5.064
    1C        O  770   4.646   3.516   5.164
    1C        O  771   4.797   3.662   5.081
    1C        C  772   4.271   4.432   5.052
    1C        O  773   4.252   4.446   5.175
    1C        O  774   4.396   4.481   5.012
    1C        C  775   4.143   2.523   5.072
    1C        O  776   4.208   2.420   5.038
    1C        O  777   4.154   2.568   5.203
    1C        C  778   2.889   4.543   5.050
    1C        O  779   2.872   4.659   5.003
    1C        O  780   2.961   4.548   5.170
    1C        C  781   2.455   3.043   5.065
    1C        O  782   2.367   2.968   5.016
    1C        O  783   2.482   3.008   5.197
    1C        C  784   2.448   3.990   5.081
    1C        O  785   2.322   3.996   5.079
    1C        O  786   2.508   3.987   5.208
    1C        C  787   2.943   2.412   2.025
    1C        O  788   2.900   2.417   1.906
    1C        O  789   2.881   2.316   2.103
    1C        C  790   3.178   2.388   5.081
    1C        O  791   3.185   2.266   5.051
    1C        O  792   3.129   2.414   5.210
    1C        H  793   4.261   3.032   5.048
    1C        H  794   4.188   2.804   5.070
    1C        H  795   4.510   3.126   5.057
    1C        H  796   4.498   3.371   5.055
    1C        H  797   4.598   3.815   5.027
    1C        H  798   4.435   3.984   5.052
    1C        H  799   4.250   4.148   5.035
    1C        H  800   4.001   4.483   5.031
    1C        H  801   3.818   4.563   5.035
    1C        H  802   3.590   4.655   5.015
    1C        H  803   3.396   4.480   5.037
    1C        H  804   3.157   4.504   5.055
    1C        H  805   3.907   2.438   5.037
    1C        H  806   3.676   2.435   5.066
    1C        H  807   3.021   2.583   5.072
    1C        H  808   3.448   2.410   5.060
    1C        H  809   2.841   2.707   5.073
    1C        H  810   2.695   2.896   5.073
    1C        H  811   2.478   3.287   5.061
    1C        H  812   2.562   3.497   5.072
    1C        H  813   2.496   3.737   5.060
    1C        H  814   2.600   4.176   5.043
    1C        H  815   2.759   4.313   5.055
    1C        H  816   2.676   2.854   1.974
    1C        H  817   2.877   2.720   1.983
    1C        H  818   3.209   2.442   1.987
    1C        H  819   3.422   2.420   1.980
    1C        H  820   3.855   2.502   1.969
    1C        H  821   4.065   2.612   1.967
    1C        H  822   4.276   2.697   1.985
    1C        H  823   4.369   2.925   1.967
    1C        H  824   4.571   3.308   1.962
    1C        H  825   4.507   3.496   1.960
    1C        H  826   4.471   3.744   1.952
    1C        H  827   3.803   4.517   1.950
    1C        H  828   3.953   4.355   1.946
    1C        H  829   4.171   4.261   1.949
    1C        H  830   4.498   3.968   1.960
    1C        H  831   2.664   3.820   1.984
    1C        H  832   2.703   4.056   1.956
    1C        H  833   2.738   4.270   1.954
    1C        H  834   3.378   4.453   1.944
    1C        H  835   3.162   4.369   1.963
    1C        H  836   2.487   2.993   2.008
    1C        H  837   2.393   3.199   2.008
    1C        H  838   2.506   3.668   1.959
    2V3OU   H29  839   2.806   3.549   2.491
    2V3OU   C27  840   2.787   3.499   2.590
    2V3OU   H27  841   2.735   3.567   2.663
    2V3OU   H28  842   2.731   3.404   2.571
    2V3OU   O11  843   2.913   3.457   2.645
    2V3OU   C15  844   2.921   3.399   2.769
    2V3OU   C13  845   3.049   3.372   2.822
    2V3OU   C14  846   3.079   3.264   2.906
    2V3OU   C16  847   2.975   3.181   2.948
    2V3OU    H6  848   2.994   3.099   3.018
    2V3OU   C12  849   3.210   3.229   2.964
    2V3OU    O2  850   3.228   3.119   3.021
    2V3OU   C10  851   3.327   3.313   2.934
    2V3OU    C8  852   3.455   3.266   2.959
    2V3OU   O10  853   3.486   3.152   3.027
    2V3OU   H26  854   3.402   3.110   3.053
    2V3OU    C6  855   3.561   3.350   2.913
    2V3OU    C5  856   3.535   3.466   2.842
    2V3OU    C4  857   3.700   3.295   2.919
    2V3OU    H4  858   3.726   3.224   3.003
    2V3OU    H5  859   3.705   3.225   2.830
    2V3OU    C2  860   3.813   3.397   2.904
    2V3OU    O6  861   3.807   3.475   3.024
    2V3OU   H21  862   3.761   3.553   2.990
    2V3OU    C3  863   3.779   3.490   2.788
    2V3OU    H2  864   3.854   3.572   2.778
    2V3OU    H3  865   3.779   3.435   2.690
    2V3OU   C25  866   3.949   3.328   2.892
    2V3OU    O7  867   4.000   3.291   2.786
    2V3OU   C26  868   4.030   3.289   3.014
    2V3OU   H22  869   4.059   3.386   3.062
    2V3OU   H23  870   4.118   3.226   2.985
    2V3OU    O8  871   3.962   3.207   3.107
    2V3OU   H24  872   3.919   3.259   3.176
    2V3OU    C1  873   3.646   3.561   2.809
    2V3OU    H1  874   3.624   3.622   2.717
    2V3OU    O3  875   3.656   3.653   2.918
    2V3OU   C19  876   3.615   3.789   2.907
    2V3OU    H9  877   3.520   3.799   2.847
    2V3OU    O4  878   3.712   3.844   2.821
    2V3OU   C20  879   3.842   3.873   2.872
    2V3OU   H10  880   3.897   3.775   2.888
    2V3OU   C24  881   3.604   3.850   3.047
    2V3OU   H16  882   3.540   3.783   3.111
    2V3OU   H17  883   3.556   3.950   3.036
    2V3OU   C23  884   3.744   3.874   3.102
    2V3OU   H15  885   3.787   3.773   3.134
    2V3OU    N1  886   3.735   3.954   3.223
    2V3OU   H19  887   3.807   3.929   3.288
    2V3OU   H20  888   3.650   3.929   3.269
    2V3OU   C21  889   3.844   3.946   3.006
    2V3OU   H11  890   3.945   3.920   3.050
    2V3OU    O5  891   3.826   4.086   2.995
    2V3OU   H18  892   3.778   4.099   3.078
    2V3OU   C22  893   3.910   3.946   2.756
    2V3OU   H12  894   3.862   4.045   2.735
    2V3OU   H13  895   3.912   3.880   2.666
    2V3OU   H14  896   4.020   3.957   2.772
    2V3OU   C11  897   3.160   3.469   2.812
    2V3OU    O1  898   3.135   3.586   2.776
    2V3OU    C9  899   3.294   3.430   2.860
    2V3OU    C7  900   3.400   3.504   2.811
    2V3OU    O9  901   3.383   3.624   2.744
    2V3OU   H25  902   3.287   3.632   2.733
    2V3OU   C17  903   2.822   3.315   2.824
    2V3OU    H7  904   2.723   3.350   2.794
    2V3OU   C18  905   2.844   3.210   2.912
    2V3OU    H8  906   2.774   3.162   2.982
    3SOL     OW  907   2.687   5.364   0.071
    3SOL    HW1  908   2.756   5.295   0.050
    3SOL    HW2  909   2.611   5.358   0.006
    4SOL     OW  910   6.537   6.864   2.213
    4SOL    HW1  911   6.469   6.924   2.254
    4SOL    HW2  912   6.492   6.800   2.151
    5SOL     OW  913   4.361   2.038   2.721
    5SOL    HW1  914   4.439   2.013   2.778
    5SOL    HW2  915   4.283   1.979   2.744
    6SOL     OW  916   4.208   0.997   1.868
    6SOL    HW1  917   4.198   0.929   1.795
    6SOL    HW2  918   4.254   0.956   1.947
    7SOL     OW  919   0.047   3.394   2.573
    7SOL    HW1  920   6.978   3.428   2.607
    7SOL    HW2  921   0.035   3.302   2.535
    8SOL     OW  922   3.456   0.727   0.140
    8SOL    HW1  923   3.368   0.679   0.143
    8SOL    HW2  924   3.530   0.660   0.136
    9SOL     OW  925   4.775   1.002   6.068
    9SOL    HW1  926   4.800   1.099   6.067
    9SOL    HW2  927   4.842   0.950   6.015
   10SOL     OW  928   1.660   4.791   5.799
   10SOL    HW1  929   1.605   4.865   5.761
   10SOL    HW2  930   1.619   4.703   5.775
   11SOL     OW  931   2.835   0.409   6.037
   11SOL    HW1  932   2.832   0.332   6.100
   11SOL    HW2  933   2.926   0.416   5.997
   12SOL     OW  934   3.723   5.620   3.557
   12SOL    HW1  935   3.786   5.543   3.548
   12SOL    HW2  936   3.774   5.706   3.553
   13SOL     OW  937   4.091   6.149   4.087
   13SOL    HW1  938   4.167   6.201   4.049
   13SOL    HW2  939   4.085   6.167   4.186
   14SOL     OW  940   3.849   5.585   5.686
   14SOL    HW1  941   3.874   5.555   5.594
   14SOL    HW2  942   3.749   5.583   5.695
   15SOL     OW  943   0.241   6.490   2.245
   15SOL    HW1  944   0.275   6.580   2.272
   15SOL    HW2  945   0.306   6.448   2.182
   16SOL     OW  946   5.211   2.622   6.094
   16SOL    HW1  947   5.261   2.678   6.028
   16SOL    HW2  948   5.149   2.680   6.147
   17SOL     OW  949   5.645   6.517   6.425
   17SOL    HW1  950   5.573   6.570   6.469
   17SOL    HW2  951   5.723   6.507   6.487
   18SOL     OW  952   3.230   0.887   5.358
   18SOL    HW1  953   3.134   0.867   5.338
   18SOL    HW2  954   3.243   0.895   5.456
   19SOL     OW  955   0.102   1.917   2.983
   19SOL    HW1  956   0.072   1.841   3.040
   19SOL    HW2  957   0.129   1.883   2.893
   20SOL     OW  958   5.311   1.798   3.851
   20SOL    HW1  959   5.269   1.717   3.892
   20SOL    HW2  960   5.408   1.783   3.837
   21SOL     OW  961   3.412   1.387   2.773
   21SOL    HW1  962   3.380   1.464   2.719
   21SOL    HW2  963   3.509   1.371   2.754
   22SOL     OW  964   2.250   6.561   6.789
   22SOL    HW1  965   2.196   6.517   6.861
   22SOL    HW2  966   2.238   6.660   6.795
   23SOL     OW  967   5.529   5.510   3.269
   23SOL    HW1  968   5.478   5.468   3.194
   23SOL    HW2  969   5.533   5.609   3.254
   24SOL     OW  970   4.281   0.168   3.439
   24SOL    HW1  971   4.332   0.129   3.515
   24SOL    HW2  972   4.208   0.106   3.412
   25SOL     OW  973   3.349   0.815   4.900
   25SOL    HW1  974   3.440   0.849   4.923
   25SOL    HW2  975   3.302   0.788   4.985
   26SOL     OW  976   0.250   0.646   0.537
   26SOL    HW1  977   0.208   0.700   0.610
   26SOL    HW2  978   0.297   0.567   0.577
   27SOL     OW  979   1.454   2.417   2.530
   27SOL    HW1  980   1.502   2.355   2.592
   27SOL    HW2  981   1.419   2.495   2.581
   28SOL     OW  982   3.045   1.573   6.138
   28SOL    HW1  983   3.055   1.661   6.092
   28SOL    HW2  984   2.961   1.528   6.106
   29SOL     OW  985   6.376   1.649   1.876
   29SOL    HW1  986   6.363   1.742   1.909
   29SOL    HW2  987   6.431   1.651   1.792
   30SOL     OW  988   4.258   0.760   3.694
   30SOL    HW1  989   4.194   0.726   3.763
   30SOL    HW2  990   4.328   0.817   3.738
   31SOL     OW  991   0.821   2.778   6.333
   31SOL    HW1  992   0.860   2.750   6.421
   31SOL    HW2  993   0.827   2.703   6.268
   32SOL     OW  994   0.728   1.737   2.706
   32SOL    HW1  995   0.702   1.804   2.636
   32SOL    HW2  996   0.729   1.645   2.666
   33SOL     OW  997   1.386   4.720   5.643
   33SOL    HW1  998   1.304   4.679   5.684
   33SOL    HW2  999   1.420   4.662   5.569
   34SOL     OW 1000   3.116   0.176   4.384
   34SOL    HW1 1001   3.109   0.199   4.481
   34SOL    HW2 1002   3.028   0.142   4.351
   35SOL     OW 1003   3.764   3.715   6.890
   35SOL    HW1 1004   3.857   3.723   6.928
   35SOL    HW2 1005   3.768   3.723   6.790
   36SOL     OW 1006   6.115   1.241   4.746
   36SOL    HW1 1007   6.187   1.298   4.784
   36SOL    HW2 1008   6.114   1.152   4.792
   37SOL     OW 1009   1.288   2.282   0.435
   37SOL    HW1 1010   1.274   2.297   0.336
   37SOL    HW2 1011   1.241   2.199   0.463
   38SOL     OW 1012   0.622   5.156   2.075
   38SOL    HW1 1013   0.707   5.107   2.090
   38SOL    HW2 1014   0.548   5.112   2.126
   39SOL     OW 1015   6.826   4.364   6.641
   39SOL    HW1 1016   6.751   4.337   6.702
   39SOL    HW2 1017   6.788   4.415   6.563
   40SOL     OW 1018   4.895   1.438   0.266
   40SOL    HW1 1019   4.842   1.470   0.188
   40SOL    HW2 1020   4.896   1.509   0.337
   41SOL     OW 1021   6.612   5.079   3.288
   41SOL    HW1 1022   6.659   5.029   3.216
   41SOL    HW2 1023   6.520   5.043   3.300
   42SOL     OW 1024   2.683   5.165   4.605
   42SOL    HW1 1025   2.675   5.093   4.673
   42SOL    HW2 1026   2.712   5.126   4.518
   43SOL     OW 1027   5.099   6.961   5.431
   43SOL    HW1 1028   5.192   6.993   5.412
   43SOL    HW2 1029   5.095   6.922   5.523
   44SOL     OW 1030   4.252   1.282   5.846
   44SOL    HW1 1031   4.283   1.194   5.809
   44SOL    HW2 1032   4.327   1.347   5.845
   45SOL     OW 1033   4.515   6.109   1.953
   45SOL    HW1 1034   4.593   6.104   2.015
   45SOL    HW2 1035   4.544   6.089   1.860
   46SOL     OW 1036   0.487   3.205   2.785
   46SOL    HW1 1037   0.405   3.164   2.825
   46SOL    HW2 1038   0.519   3.279   2.844
   47SOL     OW 1039   4.718   3.957   0.817
   47SOL    HW1 1040   4.762   3.882   0.867
   47SOL    HW2 1041   4.786   4.026   0.795
   48SOL     OW 1042   6.743   3.238   5.655
   48SOL    HW1 1043   6.737   3.337   5.666
   48SOL    HW2 1044   6.819   3.215   5.594
   49SOL     OW 1045   4.963   3.689   1.702
   49SOL    HW1 1046   5.034   3.628   1.737
   49SOL    HW2 1047   4.957   3.681   1.603
   50SOL     OW 1048   5.650   1.396   5.243
   50SOL    HW1 1049   5.567   1.350   5.212
   50SOL    HW2 1050   5.675   1.468   5.179
   51SOL     OW 1051   2.737   6.527   3.274
   51SOL    HW1 1052   2.711   6.435   3.303
   51SOL    HW2 1053   2.662   6.591   3.292
   52SOL     OW 1054   6.369   3.531   2.971
   52SOL    HW1 1055   6.283   3.543   2.921
   52SOL    HW2 1056   6.419   3.618   2.972
   53SOL     OW 1057   3.970   6.162   3.824
   53SOL    HW1 1058   4.009   6.155   3.915
   53SOL    HW2 1059   3.994   6.250   3.783
   54SOL     OW 1060   3.956   4.779   1.164
   54SOL    HW1 1061   3.912   4.692   1.190
   54SOL    HW2 1062   3.905   4.855   1.205
   55SOL     OW 1063   2.144   2.991   6.490
   55SOL    HW1 1064   2.224   2.975   6.548
   55SOL    HW2 1065   2.072   3.036   6.542
   56SOL     OW 1066   6.961   0.789   1.339
   56SOL    HW1 1067   6.967   0.887   1.356
   56SOL    HW2 1068   0.033   0.753   1.320
   57SOL     OW 1069   4.615   1.122   1.765
   57SOL    HW1 1070   4.583   1.091   1.676
   57SOL    HW2 1071   4.599   1.051   1.833
   58SOL     OW 1072   0.537   6.466   5.877
   58SOL    HW1 1073   0.449   6.512   5.886
   58SOL    HW2 1074   0.594   6.486   5.957
   59SOL     OW 1075   1.445   2.384   5.724
   59SOL    HW1 1076   1.355   2.374   5.681
   59SOL    HW2 1077   1.516   2.350   5.663
   60SOL     OW 1078   5.493   2.716   4.687
   60SOL    HW1 1079   5.431   2.660   4.743
   60SOL    HW2 1080   5.441   2.788   4.642
   61SOL     OW 1081   6.595   2.154   4.801
   61SOL    HW1 1082   6.577   2.056   4.806
   61SOL    HW2 1083   6.646   2.182   4.882
   62SOL     OW 1084   1.308   1.179   1.983
   62SOL    HW1 1085   1.221   1.142   2.016
   62SOL    HW2 1086   1.290   1.256   1.921
   63SOL     OW 1087   5.590   1.366   3.391
   63SOL    HW1 1088   5.512   1.426   3.410
   63SOL    HW2 1089   5.626   1.329   3.477
   64SOL     OW 1090   0.515   3.448   5.858
   64SOL    HW1 1091   0.608   3.413   5.873
   64SOL    HW2 1092   0.466   3.386   5.797
   65SOL     OW 1093   0.526   4.901   0.081
   65SOL    HW1 1094   0.507   4.977   0.142
   65SOL    HW2 1095   0.520   4.932   7.005
   66SOL     OW 1096   4.162   1.100   5.384
   66SOL    HW1 1097   4.090   1.169   5.375
   66SOL    HW2 1098   4.240   1.125   5.326
   67SOL     OW 1099   5.967   3.612   5.872
   67SOL    HW1 1100   5.890   3.608   5.936
   67SOL    HW2 1101   5.998   3.519   5.853
   68SOL     OW 1102   6.187   0.893   6.489
   68SOL    HW1 1103   6.176   0.991   6.468
   68SOL    HW2 1104   6.115   0.865   6.553
   69SOL     OW 1105   0.867   3.769   6.382
   69SOL    HW1 1106   0.887   3.865   6.364
   69SOL    HW2 1107   0.946   3.726   6.425
   70SOL     OW 1108   5.465   4.124   5.387
   70SOL    HW1 1109   5.419   4.070   5.317
   70SOL    HW2 1110   5.483   4.066   5.467
   71SOL     OW 1111   4.240   1.563   3.978
   71SOL    HW1 1112   4.333   1.573   4.015
   71SOL    HW2 1113   4.245   1.542   3.881
   72SOL     OW 1114   1.607   0.433   4.170
   72SOL    HW1 1115   1.573   0.512   4.220
   72SOL    HW2 1116   1.636   0.461   4.078
   73SOL     OW 1117   3.696   0.699   1.381
   73SOL    HW1 1118   3.731   0.618   1.427
   73SOL    HW2 1119   3.598   0.707   1.397
   74SOL     OW 1120   4.012   0.618   0.458
   74SOL    HW1 1121   4.104   0.642   0.488
   74SOL    HW2 1122   3.968   0.559   0.526
   75SOL     OW 1123   4.505   0.726   1.031
   75SOL    HW1 1124   4.548   0.757   1.116
   75SOL    HW2 1125   4.472   0.805   0.979
   76SOL     OW 1126   2.786   3.484   1.524
   76SOL    HW1 1127   2.711   3.441   1.474
   76SOL    HW2 1128   2.761   3.492   1.621
   77SOL     OW 1129   0.753   6.930   3.657
   77SOL    HW1 1130   0.761   0.009   3.642
   77SOL    HW2 1131   0.678   6.894   3.602
   78SOL     OW 1132   5.672   1.447   0.127
   78SOL    HW1 1133   5.635   1.463   0.036
   78SOL    HW2 1134   5.629   1.509   0.193
   79SOL     OW 1135   3.198   5.779   0.842
   79SOL    HW1 1136   3.242   5.734   0.765
   79SOL    HW2 1137   3.230   5.737   0.927
   80SOL     OW 1138   4.933   1.321   4.468
   80SOL    HW1 1139   4.886   1.410   4.470
   80SOL    HW2 1140   4.930   1.280   4.559
   81SOL     OW 1141   2.117   0.169   2.321
   81SOL    HW1 1142   2.135   0.229   2.243
   81SOL    HW2 1143   2.146   0.076   2.298
   82SOL     OW 1144   5.655   4.776   0.740
   82SOL    HW1 1145   5.577   4.747   0.685
   82SOL    HW2 1146   5.708   4.697   0.769
   83SOL     OW 1147   0.647   0.317   7.000
   83SOL    HW1 1148   0.572   0.276   0.033
   83SOL    HW2 1149   0.729   0.262   7.011
   84SOL     OW 1150   6.691   2.573   3.422
   84SOL    HW1 1151   6.747   2.502   3.463
   84SOL    HW2 1152   6.615   2.531   3.371
   85SOL     OW 1153   1.769   1.163   3.980
   85SOL    HW1 1154   1.796   1.097   4.051
   85SOL    HW2 1155   1.822   1.146   3.897
   86SOL     OW 1156   0.776   1.631   6.227
   86SOL    HW1 1157   0.821   1.600   6.143
   86SOL    HW2 1158   0.688   1.673   6.204
   87SOL     OW 1159   4.518   4.604   1.077
   87SOL    HW1 1160   4.538   4.644   1.167
   87SOL    HW2 1161   4.421   4.580   1.072
   88SOL     OW 1162   3.714   1.807   6.093
   88SOL    HW1 1163   3.717   1.738   6.165
   88SOL    HW2 1164   3.652   1.777   6.021
   89SOL     OW 1165   2.397   2.707   6.312
   89SOL    HW1 1166   2.455   2.741   6.238
   89SOL    HW2 1167   2.377   2.611   6.297
   90SOL     OW 1168   4.210   5.150   2.319
   90SOL    HW1 1169   4.221   5.056   2.286
   90SOL    HW2 1170   4.293   5.178   2.367
   91SOL     OW 1171   6.088   3.875   5.873
   91SOL    HW1 1172   6.089   3.776   5.880
   91SOL    HW2 1173   6.154   3.914   5.938
   92SOL     OW 1174   4.342   4.709   0.626
   92SOL    HW1 1175   4.414   4.639   0.622
   92SOL    HW2 1176   4.320   4.729   0.721
   93SOL     OW 1177   3.226   3.553   0.352
   93SOL    HW1 1178   3.306   3.530   0.408
   93SOL    HW2 1179   3.143   3.536   0.405
   94SOL     OW 1180   2.088   6.010   5.939
   94SOL    HW1 1181   2.065   5.961   5.855
   94SOL    HW2 1182   2.148   5.954   5.995
   95SOL     OW 1183   0.734   6.703   2.705
   95SOL    HW1 1184   0.780   6.761   2.638
   95SOL    HW2 1185   0.752   6.607   2.684
   96SOL     OW 1186   3.456   0.071   4.874
   96SOL    HW1 1187   3.512   0.125   4.938
   96SOL    HW2 1188   3.514   0.003   4.829
   97SOL     OW 1189   2.543   3.255   6.150
   97SOL    HW1 1190   2.481   3.177   6.164
   97SOL    HW2 1191   2.566   3.263   6.053
   98SOL     OW 1192   0.807   3.279   0.782
   98SOL    HW1 1193   0.847   3.356   0.733
   98SOL    HW2 1194   0.713   3.302   0.809
   99SOL     OW 1195   3.862   2.454   1.442
   99SOL    HW1 1196   3.764   2.435   1.438
   99SOL    HW2 1197   3.886   2.484   1.534
  100SOL     OW 1198   0.921   6.619   4.890
  100SOL    HW1 1199   0.886   6.529   4.866
  100SOL    HW2 1200   1.011   6.611   4.931
  101SOL     OW 1201   1.835   4.987   2.428
  101SOL    HW1 1202   1.907   4.991   2.359
  101SOL    HW2 1203   1.748   4.962   2.385
  102SOL     OW 1204   3.811   5.526   1.616
  102SOL    HW1 1205   3.728   5.479   1.647
  102SOL    HW2 1206   3.807   5.542   1.518
  103SOL     OW 1207   2.037   2.345   1.674
  103SOL    HW1 1208   2.065   2.257   1.711
  103SOL    HW2 1209   2.116   2.391   1.634
  104SOL     OW 1210   1.465   6.094   2.473
  104SOL    HW1 1211   1.556   6.083   2.512
  104SOL    HW2 1212   1.446   6.018   2.411
  105SOL     OW 1213   6.957   1.281   5.895
  105SOL    HW1 1214   0.014   1.223   5.926
  105SOL    HW2 1215   6.948   1.274   5.796
  106SOL     OW 1216   3.637   6.433   4.542
  106SOL    HW1 1217   3.598   6.380   4.467
  106SOL    HW2 1218   3.714   6.486   4.508
  107SOL     OW 1219   1.072   1.199   0.934
  107SOL    HW1 1220   1.023   1.128   0.884
  107SOL    HW2 1221   1.063   1.182   1.032
  108SOL     OW 1222   2.825   6.801   5.832
  108SOL    HW1 1223   2.891   6.737   5.873
  108SOL    HW2 1224   2.733   6.762   5.837
  109SOL     OW 1225   1.088   0.941   2.484
  109SOL    HW1 1226   1.152   0.884   2.536
  109SOL    HW2 1227   1.135   1.023   2.451
  110SOL     OW 1228   3.173   5.770   4.109
  110SOL    HW1 1229   3.106   5.741   4.177
  110SOL    HW2 1230   3.264   5.771   4.150
  111SOL     OW 1231   1.625   1.394   4.072
  111SOL    HW1 1232   1.600   1.350   4.158
  111SOL    HW2 1233   1.694   1.338   4.025
  112SOL     OW 1234   3.173   6.014   6.425
  112SOL    HW1 1235   3.250   5.950   6.424
  112SOL    HW2 1236   3.164   6.054   6.516
  113SOL     OW 1237   0.708   5.304   2.417
  113SOL    HW1 1238   0.629   5.314   2.355
  113SOL    HW2 1239   0.690   5.229   2.481
  114SOL     OW 1240   1.283   6.852   2.426
  114SOL    HW1 1241   1.371   6.899   2.413
  114SOL    HW2 1242   1.260   6.851   2.523
  115SOL     OW 1243   4.826   1.373   3.260
  115SOL    HW1 1244   4.828   1.352   3.162
  115SOL    HW2 1245   4.857   1.293   3.312
  116SOL     OW 1246   6.161   5.807   1.815
  116SOL    HW1 1247   6.131   5.712   1.822
  116SOL    HW2 1248   6.218   5.829   1.894
  117SOL     OW 1249   1.671   1.792   0.815
  117SOL    HW1 1250   1.753   1.815   0.762
  117SOL    HW2 1251   1.600   1.860   0.799
  118SOL     OW 1252   1.529   0.535   2.437
  118SOL    HW1 1253   1.502   0.452   2.388
  118SOL    HW2 1254   1.541   0.609   2.371
  119SOL     OW 1255   0.752   0.564   6.944
  119SOL    HW1 1256   0.756   0.618   0.009
  119SOL    HW2 1257   0.728   0.470   6.965
  120SOL     OW 1258   5.900   0.195   6.545
  120SOL    HW1 1259   5.820   0.254   6.544
  120SOL    HW2 1260   5.896   0.131   6.469
  121SOL     OW 1261   1.858   3.458   6.309
  121SOL    HW1 1262   1.918   3.457   6.228
  121SOL    HW2 1263   1.914   3.472   6.391
  122SOL     OW 1264   1.387   3.613   6.814
  122SOL    HW1 1265   1.486   3.610   6.825
  122SOL    HW2 1266   1.355   3.707   6.827
  123SOL     OW 1267   0.701   1.079   2.830
  123SOL    HW1 1268   0.619   1.032   2.796
  123SOL    HW2 1269   0.681   1.176   2.841
  124SOL     OW 1270   3.619   2.388   0.562
  124SOL    HW1 1271   3.635   2.487   0.557
  124SOL    HW2 1272   3.534   2.366   0.513
  125SOL     OW 1273   3.613   1.811   0.668
  125SOL    HW1 1274   3.654   1.787   0.580
  125SOL    HW2 1275   3.568   1.731   0.707
  126SOL     OW 1276   2.030   4.051   0.804
  126SOL    HW1 1277   1.984   4.056   0.716
  126SOL    HW2 1278   2.030   4.142   0.847
  127SOL     OW 1279   0.858   4.613   6.987
  127SOL    HW1 1280   0.859   4.556   0.050
  127SOL    HW2 1281   0.765   4.641   6.966
  128SOL     OW 1282   5.049   2.185   1.466
  128SOL    HW1 1283   5.051   2.198   1.565
  128SOL    HW2 1284   5.072   2.271   1.420
  129SOL     OW 1285   3.156   3.406   6.514
  129SOL    HW1 1286   3.140   3.401   6.613
  129SOL    HW2 1287   3.130   3.497   6.482
  130SOL     OW 1288   1.441   2.079   4.057
  130SOL    HW1 1289   1.445   1.993   4.006
  130SOL    HW2 1290   1.350   2.120   4.047
  131SOL     OW 1291   4.955   0.301   3.334
  131SOL    HW1 1292   5.053   0.280   3.335
  131SOL    HW2 1293   4.923   0.307   3.239
  132SOL     OW 1294   3.103   3.237   1.773
  132SOL    HW1 1295   3.076   3.183   1.693
  132SOL    HW2 1296   3.140   3.176   1.843
  133SOL     OW 1297   5.612   1.129   4.282
  133SOL    HW1 1298   5.705   1.146   4.249
  133SOL    HW2 1299   5.546   1.174   4.221
  134SOL     OW 1300   6.790   1.186   2.536
  134SOL    HW1 1301   6.873   1.240   2.524
  134SOL    HW2 1302   6.741   1.180   2.450
  135SOL     OW 1303   5.689   4.063   3.731
  135SOL    HW1 1304   5.635   3.999   3.677
  135SOL    HW2 1305   5.765   4.014   3.774
  136SOL     OW 1306   2.112   5.288   5.138
  136SOL    HW1 1307   2.120   5.333   5.049
  136SOL    HW2 1308   2.111   5.357   5.210
  137SOL     OW 1309   5.477   1.362   2.979
  137SOL    HW1 1310   5.498   1.272   2.943
  137SOL    HW2 1311   5.543   1.386   3.051
  138SOL     OW 1312   1.195   3.964   2.599
  138SOL    HW1 1313   1.212   3.924   2.689
  138SOL    HW2 1314   1.225   3.900   2.528
  139SOL     OW 1315   1.344   0.212   5.323
  139SOL    HW1 1316   1.426   0.260   5.291
  139SOL    HW2 1317   1.263   0.262   5.295
  140SOL     OW 1318   1.215   6.787   3.757
  140SOL    HW1 1319   1.137   6.759   3.813
  140SOL    HW2 1320   1.257   6.869   3.797
  141SOL     OW 1321   0.082   2.672   5.057
  141SOL    HW1 1322   0.159   2.725   5.020
  141SOL    HW2 1323   0.027   2.731   5.117
  142SOL     OW 1324   1.201   4.246   1.352
  142SOL    HW1 1325   1.159   4.320   1.406
  142SOL    HW2 1326   1.292   4.226   1.389
  143SOL     OW 1327   5.560   3.871   0.742
  143SOL    HW1 1328   5.604   3.961   0.748
  143SOL    HW2 1329   5.541   3.837   0.834
  144SOL     OW 1330   0.999   4.762   5.719
  144SOL    HW1 1331   1.047   4.676   5.737
  144SOL    HW2 1332   0.999   4.819   5.801
  145SOL     OW 1333   0.825   5.404   1.028
  145SOL    HW1 1334   0.729   5.426   1.013
  145SOL    HW2 1335   0.883   5.468   0.977
  146SOL     OW 1336   4.573   0.864   6.231
  146SOL    HW1 1337   4.632   0.893   6.156
  146SOL    HW2 1338   4.493   0.816   6.195
  147SOL     OW 1339   5.281   2.942   6.082
  147SOL    HW1 1340   5.353   2.979   6.141
  147SOL    HW2 1341   5.214   2.893   6.137
  148SOL     OW 1342   6.927   5.352   0.979
  148SOL    HW1 1343   0.007   5.346   0.974
  148SOL    HW2 1344   6.886   5.302   0.902
  149SOL     OW 1345   3.968   2.140   3.939
  149SOL    HW1 1346   3.881   2.169   3.900
  149SOL    HW2 1347   4.036   2.134   3.865
  150SOL     OW 1348   5.848   0.274   0.693
  150SOL    HW1 1349   5.813   0.200   0.635
  150SOL    HW2 1350   5.782   0.293   0.766
  151SOL     OW 1351   3.323   1.650   1.439
  151SOL    HW1 1352   3.397   1.620   1.499
  151SOL    HW2 1353   3.309   1.581   1.368
  152SOL     OW 1354   0.106   0.794   1.694
  152SOL    HW1 1355   0.120   0.747   1.781
  152SOL    HW2 1356   0.013   0.832   1.691
  153SOL     OW 1357   3.387   0.642   3.604
  153SOL    HW1 1358   3.322   0.718   3.613
  153SOL    HW2 1359   3.480   0.678   3.608
  154SOL     OW 1360   0.655   3.078   1.498
  154SOL    HW1 1361   0.574   3.137   1.501
  154SOL    HW2 1362   0.724   3.119   1.438
  155SOL     OW 1363   0.655   1.655   4.914
  155SOL    HW1 1364   0.743   1.696   4.891
  155SOL    HW2 1365   0.591   1.727   4.941
  156SOL     OW 1366   0.126   0.666   1.027
  156SOL    HW1 1367   0.161   0.578   1.061
  156SOL    HW2 1368   0.166   0.740   1.081
  157SOL     OW 1369   5.401   2.835   1.635
  157SOL    HW1 1370   5.419   2.761   1.700
  157SOL    HW2 1371   5.370   2.916   1.684
  158SOL     OW 1372   1.869   3.613   1.972
  158SOL    HW1 1373   1.790   3.586   1.917
  158SOL    HW2 1374   1.894   3.538   2.033
  159SOL     OW 1375   4.611   4.352   2.595
  159SOL    HW1 1376   4.515   4.333   2.616
  159SOL    HW2 1377   4.618   4.388   2.502
  160SOL     OW 1378   5.463   6.072   0.802
  160SOL    HW1 1379   5.363   6.081   0.804
  160SOL    HW2 1380   5.495   6.084   0.708
  161SOL     OW 1381   1.696   6.547   3.302
  161SOL    HW1 1382   1.695   6.529   3.204
  161SOL    HW2 1383   1.763   6.487   3.346
  162SOL     OW 1384   3.443   6.426   0.179
  162SOL    HW1 1385   3.359   6.412   0.231
  162SOL    HW2 1386   3.470   6.522   0.184
  163SOL     OW 1387   6.399   5.348   1.608
  163SOL    HW1 1388   6.395   5.373   1.511
  163SOL    HW2 1389   6.404   5.431   1.664
  164SOL     OW 1390   0.320   4.480   1.965
  164SOL    HW1 1391   0.250   4.518   2.026
  164SOL    HW2 1392   0.408   4.479   2.013
  165SOL     OW 1393   4.920   3.529   1.140
  165SOL    HW1 1394   4.900   3.515   1.043
  165SOL    HW2 1395   4.886   3.450   1.192
  166SOL     OW 1396   1.533   3.672   2.070
  166SOL    HW1 1397   1.466   3.660   2.143
  166SOL    HW2 1398   1.516   3.757   2.021
  167SOL     OW 1399   4.686   3.574   6.670
  167SOL    HW1 1400   4.710   3.593   6.575
  167SOL    HW2 1401   4.769   3.572   6.725
  168SOL     OW 1402   3.337   2.726   0.766
  168SOL    HW1 1403   3.387   2.639   0.774
  168SOL    HW2 1404   3.280   2.739   0.847
  169SOL     OW 1405   5.621   1.739   1.874
  169SOL    HW1 1406   5.656   1.830   1.852
  169SOL    HW2 1407   5.698   1.674   1.877
  170SOL     OW 1408   0.271   6.864   2.793
  170SOL    HW1 1409   0.255   6.772   2.829
  170SOL    HW2 1410   0.366   6.872   2.763
  171SOL     OW 1411   2.298   4.428   6.645
  171SOL    HW1 1412   2.250   4.513   6.621
  171SOL    HW2 1413   2.308   4.423   6.744
  172SOL     OW 1414   6.490   1.041   2.878
  172SOL    HW1 1415   6.589   1.041   2.863
  172SOL    HW2 1416   6.465   0.965   2.938
  173SOL     OW 1417   6.598   1.000   4.205
  173SOL    HW1 1418   6.549   1.079   4.167
  173SOL    HW2 1419   6.691   0.998   4.168
  174SOL     OW 1420   3.948   5.695   3.811
  174SOL    HW1 1421   4.031   5.682   3.756
  174SOL    HW2 1422   3.927   5.609   3.859
  175SOL     OW 1423   3.050   6.913   1.945
  175SOL    HW1 1424   2.962   6.904   1.993
  175SOL    HW2 1425   3.053   7.001   1.898
  176SOL     OW 1426   6.544   4.322   0.822
  176SOL    HW1 1427   6.571   4.329   0.726
  176SOL    HW2 1428   6.624   4.333   0.881
  177SOL     OW 1429   6.471   3.071   3.438
  177SOL    HW1 1430   6.388   3.120   3.415
  177SOL    HW2 1431   6.474   3.054   3.537
  178SOL     OW 1432   2.786   3.652   6.283
  178SOL    HW1 1433   2.706   3.692   6.327
  178SOL    HW2 1434   2.863   3.653   6.347
  179SOL     OW 1435   4.447   1.532   5.737
  179SOL    HW1 1436   4.367   1.593   5.746
  179SOL    HW2 1437   4.443   1.484   5.650
  180SOL     OW 1438   2.359   6.668   0.305
  180SOL    HW1 1439   2.449   6.693   0.270
  180SOL    HW2 1440   2.320   6.597   0.247
  181SOL     OW 1441   3.525   3.236   5.799
  181SOL    HW1 1442   3.616   3.238   5.756
  181SOL    HW2 1443   3.535   3.207   5.894
  182SOL     OW 1444   3.423   1.799   5.024
  182SOL    HW1 1445   3.405   1.896   5.009
  182SOL    HW2 1446   3.369   1.766   5.101
  183SOL     OW 1447   3.756   2.116   2.964
  183SOL    HW1 1448   3.745   2.043   3.032
  183SOL    HW2 1449   3.671   2.126   2.912
  184SOL     OW 1450   0.846   6.671   4.425
  184SOL    HW1 1451   0.818   6.612   4.500
  184SOL    HW2 1452   0.905   6.620   4.362
  185SOL     OW 1453   0.642   1.163   6.215
  185SOL    HW1 1454   0.557   1.182   6.264
  185SOL    HW2 1455   0.690   1.087   6.258
  186SOL     OW 1456   5.878   0.775   4.073
  186SOL    HW1 1457   5.872   0.707   4.146
  186SOL    HW2 1458   5.966   0.823   4.080
  187SOL     OW 1459   5.220   0.145   2.526
  187SOL    HW1 1460   5.219   0.170   2.623
  187SOL    HW2 1461   5.281   0.067   2.513
  188SOL     OW 1462   0.941   3.048   3.048
  188SOL    HW1 1463   1.013   3.112   3.020
  188SOL    HW2 1464   0.856   3.099   3.063
  189SOL     OW 1465   2.812   5.320   1.285
  189SOL    HW1 1466   2.833   5.292   1.378
  189SOL    HW2 1467   2.806   5.420   1.280
  190SOL     OW 1468   5.072   2.905   5.393
  190SOL    HW1 1469   5.170   2.898   5.374
  190SOL    HW2 1470   5.054   2.870   5.485
  191SOL     OW 1471   6.122   0.238   6.692
  191SOL    HW1 1472   6.044   0.224   6.631
  191SOL    HW2 1473   6.164   0.327   6.674
  192SOL     OW 1474   0.852   5.308   1.910
  192SOL    HW1 1475   0.845   5.237   1.980
  192SOL    HW2 1476   0.907   5.384   1.944
  193SOL     OW 1477   4.457   3.565   5.350
  193SOL    HW1 1478   4.366   3.574   5.310
  193SOL    HW2 1479   4.523   3.544   5.278
  194SOL     OW 1480   4.144   0.710   2.718
  194SOL    HW1 1481   4.174   0.618   2.744
  194SOL    HW2 1482   4.164   0.725   2.622
  195SOL     OW 1483   1.475   0.191   4.136
  195SOL    HW1 1484   1.517   0.276   4.169
  195SOL    HW2 1485   1.492   0.118   4.201
  196SOL     OW 1486   3.215   0.435   0.969
  196SOL    HW1 1487   3.160   0.356   0.996
  196SOL    HW2 1488   3.158   0.517   0.965
  197SOL     OW 1489   2.286   0.094   1.431
  197SOL    HW1 1490   2.289   0.001   1.395
  197SOL    HW2 1491   2.343   0.154   1.375
  198SOL     OW 1492   5.409   6.866   1.489
  198SOL    HW1 1493   5.483   6.850   1.423
  198SOL    HW2 1494   5.356   6.946   1.461
  199SOL     OW 1495   6.957   1.210   3.116
  199SOL    HW1 1496   6.877   1.254   3.076
  199SOL    HW2 1497   6.948   1.207   3.216
  200SOL     OW 1498   1.209   4.709   1.989
  200SOL    HW1 1499   1.118   4.671   2.010
  200SOL    HW2 1500   1.214   4.729   1.891
  201SOL     OW 1501   6.327   6.577   6.276
  201SOL    HW1 1502   6.361   6.551   6.185
  201SOL    HW2 1503   6.341   6.675   6.290
  202SOL     OW 1504   4.398   0.492   6.375
  202SOL    HW1 1505   4.495   0.471   6.374
  202SOL    HW2 1506   4.350   0.432   6.311
  203SOL     OW 1507   4.377   2.429   4.463
  203SOL    HW1 1508   4.309   2.361   4.437
  203SOL    HW2 1509   4.420   2.402   4.549
  204SOL     OW 1510   0.840   0.987   6.723
  204SOL    HW1 1511   0.835   0.888   6.709
  204SOL    HW2 1512   0.925   1.022   6.682
  205SOL     OW 1513   0.619   1.379   3.113
  205SOL    HW1 1514   0.584   1.447   3.177
  205SOL    HW2 1515   0.668   1.308   3.164
  206SOL     OW 1516   6.883   4.947   1.223
  206SOL    HW1 1517   6.818   4.881   1.260
  206SOL    HW2 1518   6.972   4.904   1.211
  207SOL     OW 1519   5.240   1.293   3.455
  207SOL    HW1 1520   5.168   1.316   3.519
  207SOL    HW2 1521   5.272   1.200   3.473
  208SOL     OW 1522   5.514   2.594   5.181
  208SOL    HW1 1523   5.528   2.554   5.272
  208SOL    HW2 1524   5.602   2.599   5.133
  209SOL     OW 1525   0.260   4.663   3.881
  209SOL    HW1 1526   0.282   4.749   3.834
  209SOL    HW2 1527   0.165   4.666   3.912
  210SOL     OW 1528   3.978   1.464   0.692
  210SOL    HW1 1529   3.991   1.556   0.729
  210SOL    HW2 1530   4.062   1.411   0.703
  211SOL     OW 1531   2.485   6.173   3.142
  211SOL    HW1 1532   2.534   6.244   3.092
  211SOL    HW2 1533   2.550   6.105   3.176
  212SOL     OW 1534   1.395   4.371   1.954
  212SOL    HW1 1535   1.403   4.463   1.991
  212SOL    HW2 1536   1.339   4.372   1.872
  213SOL     OW 1537   3.199   0.421   7.011
  213SOL    HW1 1538   3.122   0.382   6.962
  213SOL    HW2 1539   3.280   0.364   6.998
  214SOL     OW 1540   4.396   5.267   1.465
  214SOL    HW1 1541   4.437   5.337   1.406
  214SOL    HW2 1542   4.297   5.275   1.463
  215SOL     OW 1543   1.834   3.635   1.012
  215SOL    HW1 1544   1.830   3.727   0.973
  215SOL    HW2 1545   1.913   3.586   0.976
  216SOL     OW 1546   2.293   5.963   4.018
  216SOL    HW1 1547   2.341   5.908   3.949
  216SOL    HW2 1548   2.347   6.044   4.040
  217SOL     OW 1549   2.308   2.510   3.903
  217SOL    HW1 1550   2.270   2.444   3.968
  217SOL    HW2 1551   2.240   2.530   3.833
  218SOL     OW 1552   0.682   3.405   4.310
  218SOL    HW1 1553   0.666   3.384   4.407
  218SOL    HW2 1554   0.730   3.493   4.303
  219SOL     OW 1555   4.713   6.256   6.097
  219SOL    HW1 1556   4.690   6.250   6.000
  219SOL    HW2 1557   4.668   6.180   6.146
  220SOL     OW 1558   3.739   7.011   0.909
  220SOL    HW1 1559   3.661   6.956   0.882
  220SOL    HW2 1560   3.824   6.962   0.887
  221SOL     OW 1561   6.283   2.702   1.312
  221SOL    HW1 1562   6.325   2.695   1.402
  221SOL    HW2 1563   6.183   2.704   1.321
  222SOL     OW 1564   2.610   4.912   5.007
  222SOL    HW1 1565   2.570   4.822   5.029
  222SOL    HW2 1566   2.641   4.912   4.912
  223SOL     OW 1567   5.686   2.515   0.382
  223SOL    HW1 1568   5.647   2.441   0.327
  223SOL    HW2 1569   5.782   2.497   0.400
  224SOL     OW 1570   2.195   2.322   4.723
  224SOL    HW1 1571   2.103   2.287   4.740
  224SOL    HW2 1572   2.199   2.418   4.751
  225SOL     OW 1573   4.529   3.022   6.326
  225SOL    HW1 1574   4.516   3.102   6.268
  225SOL    HW2 1575   4.530   2.940   6.270
  226SOL     OW 1576   1.124   0.902   6.238
  226SOL    HW1 1577   1.191   0.966   6.202
  226SOL    HW2 1578   1.075   0.944   6.314
  227SOL     OW 1579   1.434   3.473   3.150
  227SOL    HW1 1580   1.526   3.459   3.188
  227SOL    HW2 1581   1.367   3.428   3.209
  228SOL     OW 1582   3.203   6.092   3.837
  228SOL    HW1 1583   3.265   6.042   3.776
  228SOL    HW2 1584   3.153   6.161   3.784
  229SOL     OW 1585   5.040   5.887   0.101
  229SOL    HW1 1586   5.032   5.812   0.035
  229SOL    HW2 1587   4.954   5.895   0.152
  230SOL     OW 1588   3.239   4.916   3.585
  230SOL    HW1 1589   3.144   4.910   3.616
  230SOL    HW2 1590   3.244   4.892   3.488
  231SOL     OW 1591   5.939   2.161   0.022
  231SOL    HW1 1592   5.936   2.125   6.948
  231SOL    HW2 1593   5.965   2.088   0.085
  232SOL     OW 1594   1.014   3.571   6.556
  232SOL    HW1 1595   1.111   3.593   6.561
  232SOL    HW2 1596   0.995   3.519   6.472
  233SOL     OW 1597   2.427   2.125   3.577
  233SOL    HW1 1598   2.475   2.076   3.650
  233SOL    HW2 1599   2.424   2.222   3.599
  234SOL     OW 1600   4.737   0.280   4.902
  234SOL    HW1 1601   4.791   0.204   4.868
  234SOL    HW2 1602   4.685   0.252   4.982
  235SOL     OW 1603   3.767   3.004   1.619
  235SOL    HW1 1604   3.767   2.990   1.520
  235SOL    HW2 1605   3.739   2.919   1.665
  236SOL     OW 1606   4.379   3.096   6.963
  236SOL    HW1 1607   4.334   3.176   6.924
  236SOL    HW2 1608   4.473   3.091   6.932
  237SOL     OW 1609   5.899   5.028   1.713
  237SOL    HW1 1610   5.988   4.987   1.731
  237SOL    HW2 1611   5.828   4.974   1.759
  238SOL     OW 1612   5.106   1.729   0.517
  238SOL    HW1 1613   5.107   1.775   0.428
  238SOL    HW2 1614   5.092   1.797   0.589
  239SOL     OW 1615   0.297   5.459   6.105
  239SOL    HW1 1616   0.369   5.404   6.064
  239SOL    HW2 1617   0.252   5.407   6.178
  240SOL     OW 1618   0.566   2.844   3.719
  240SOL    HW1 1619   0.485   2.812   3.768
  240SOL    HW2 1620   0.540   2.912   3.651
  241SOL     OW 1621   1.704   0.404   4.831
  241SOL    HW1 1622   1.765   0.433   4.757
  241SOL    HW2 1623   1.610   0.431   4.808
  242SOL     OW 1624   3.541   3.175   5.400
  242SOL    HW1 1625   3.543   3.087   5.447
  242SOL    HW2 1626   3.531   3.248   5.467
  243SOL     OW 1627   4.060   0.266   5.881
  243SOL    HW1 1628   4.021   0.241   5.792
  243SOL    HW2 1629   3.987   0.295   5.942
  244SOL     OW 1630   5.794   2.278   4.582
  244SOL    HW1 1631   5.733   2.201   4.603
  244SOL    HW2 1632   5.782   2.349   4.651
  245SOL     OW 1633   6.406   3.415   4.449
  245SOL    HW1 1634   6.367   3.497   4.409
  245SOL    HW2 1635   6.428   3.431   4.545
  246SOL     OW 1636   4.983   2.457   3.256
  246SOL    HW1 1637   5.013   2.536   3.311
  246SOL    HW2 1638   5.015   2.373   3.299
  247SOL     OW 1639   2.807   1.895   1.794
  247SOL    HW1 1640   2.843   1.805   1.769
  247SOL    HW2 1641   2.872   1.942   1.853
  248SOL     OW 1642   3.997   2.163   2.613
  248SOL    HW1 1643   4.052   2.194   2.536
  248SOL    HW2 1644   4.049   2.172   2.698
  249SOL     OW 1645   3.943   6.997   5.228
  249SOL    HW1 1646   3.938   0.077   5.219
  249SOL    HW2 1647   3.985   6.957   5.147
  250SOL     OW 1648   5.270   2.507   1.029
  250SOL    HW1 1649   5.199   2.439   1.010
  250SOL    HW2 1650   5.244   2.595   0.989
  251SOL     OW 1651   4.169   3.704   5.606
  251SOL    HW1 1652   4.192   3.685   5.702
  251SOL    HW2 1653   4.195   3.626   5.549
  252SOL     OW 1654   6.303   6.572   6.757
  252SOL    HW1 1655   6.277   6.614   6.670
  252SOL    HW2 1656   6.369   6.499   6.740
  253SOL     OW 1657   2.884   4.664   0.154
  253SOL    HW1 1658   2.906   4.699   0.063
  253SOL    HW2 1659   2.957   4.603   0.185
  254SOL     OW 1660   5.011   3.018   3.241
  254SOL    HW1 1661   5.049   2.985   3.154
  254SOL    HW2 1662   5.081   3.065   3.293
  255SOL     OW 1663   1.874   3.289   4.643
  255SOL    HW1 1664   1.944   3.357   4.623
  255SOL    HW2 1665   1.889   3.250   4.734
  256SOL     OW 1666   6.663   4.239   6.246
  256SOL    HW1 1667   6.723   4.255   6.167
  256SOL    HW2 1668   6.664   4.320   6.305
  257SOL     OW 1669   5.055   6.533   4.050
  257SOL    HW1 1670   5.093   6.537   3.957
  257SOL    HW2 1671   5.101   6.599   4.108
  258SOL     OW 1672   0.788   4.947   4.871
  258SOL    HW1 1673   0.849   4.907   4.803
  258SOL    HW2 1674   0.831   4.944   4.961
  259SOL     OW 1675   1.452   1.856   2.674
  259SOL    HW1 1676   1.515   1.879   2.600
  259SOL    HW2 1677   1.364   1.900   2.656
  260SOL     OW 1678   4.480   0.982   0.919
  260SOL    HW1 1679   4.536   0.987   0.836
  260SOL    HW2 1680   4.526   1.032   0.993
  261SOL     OW 1681   6.063   3.793   0.036
  261SOL    HW1 1682   6.004   3.727   0.084
  261SOL    HW2 1683   6.157   3.784   0.069
  262SOL     OW 1684   6.683   4.399   0.559
  262SOL    HW1 1685   6.752   4.471   0.566
  262SOL    HW2 1686   6.592   4.440   0.554
  263SOL     OW 1687   0.375   1.494   3.563
  263SOL    HW1 1688   0.415   1.420   3.616
  263SOL    HW2 1689   0.367   1.466   3.467
  264SOL     OW 1690   4.585   3.468   6.376
  264SOL    HW1 1691   4.640   3.551   6.391
  264SOL    HW2 1692   4.507   3.469   6.438
  265SOL     OW 1693   4.522   5.306   2.948
  265SOL    HW1 1694   4.558   5.213   2.936
  265SOL    HW2 1695   4.551   5.363   2.871
  266SOL     OW 1696   3.565   2.921   5.507
  266SOL    HW1 1697   3.520   2.928   5.595
  266SOL    HW2 1698   3.656   2.880   5.519
  267SOL     OW 1699   0.176   2.033   6.366
  267SOL    HW1 1700   0.181   1.941   6.328
  267SOL    HW2 1701   0.258   2.084   6.339
  268SOL     OW 1702   4.080   0.586   5.091
  268SOL    HW1 1703   4.179   0.575   5.078
  268SOL    HW2 1704   4.044   0.505   5.137
  269SOL     OW 1705   1.476   3.261   1.086
  269SOL    HW1 1706   1.430   3.311   1.159
  269SOL    HW2 1707   1.566   3.301   1.069
  270SOL     OW 1708   0.132   0.803   0.095
  270SOL    HW1 1709   0.099   0.772   0.184
  270SOL    HW2 1710   0.145   0.902   0.097
  271SOL     OW 1711   1.809   1.557   0.492
  271SOL    HW1 1712   1.886   1.573   0.554
  271SOL    HW2 1713   1.763   1.472   0.518
  272SOL     OW 1714   3.052   5.034   4.637
  272SOL    HW1 1715   3.093   5.093   4.566
  272SOL    HW2 1716   3.033   5.089   4.718
  273SOL     OW 1717   1.865   4.124   5.072
  273SOL    HW1 1718   1.821   4.057   5.012
  273SOL    HW2 1719   1.897   4.202   5.018
  274SOL     OW 1720   4.880   1.832   3.070
  274SOL    HW1 1721   4.949   1.904   3.070
  274SOL    HW2 1722   4.860   1.804   3.164
  275SOL     OW 1723   6.171   4.419   5.485
  275SOL    HW1 1724   6.076   4.410   5.453
  275SOL    HW2 1725   6.185   4.358   5.563
  276SOL     OW 1726   6.903   5.387   2.391
  276SOL    HW1 1727   6.963   5.462   2.420
  276SOL    HW2 1728   6.810   5.404   2.422
  277SOL     OW 1729   1.650   3.900   0.963
  277SOL    HW1 1730   1.609   3.860   1.045
  277SOL    HW2 1731   1.619   3.850   0.882
  278SOL     OW 1732   6.803   4.880   1.497
  278SOL    HW1 1733   6.752   4.816   1.440
  278SOL    HW2 1734   6.747   4.907   1.575
  279SOL     OW 1735   6.228   2.976   4.861
  279SOL    HW1 1736   6.145   2.952   4.910
  279SOL    HW2 1737   6.204   3.018   4.773
  280SOL     OW 1738   2.444   6.567   3.128
  280SOL    HW1 1739   2.514   6.524   3.072
  280SOL    HW2 1740   2.357   6.565   3.080
  281SOL     OW 1741   3.236   4.954   1.944
  281SOL    HW1 1742   3.326   4.948   1.901
  281SOL    HW2 1743   3.181   4.876   1.915
  282SOL     OW 1744   3.718   1.628   5.244
  282SOL    HW1 1745   3.667   1.640   5.159
  282SOL    HW2 1746   3.813   1.658   5.230
  283SOL     OW 1747   6.893   1.222   5.624
  283SOL    HW1 1748   6.832   1.301   5.616
  283SOL    HW2 1749   6.854   1.145   5.573
  284SOL     OW 1750   1.106   4.172   4.478
  284SOL    HW1 1751   1.171   4.190   4.552
  284SOL    HW2 1752   1.017   4.147   4.517
  285SOL     OW 1753   5.578   5.060   5.747
  285SOL    HW1 1754   5.557   4.978   5.693
  285SOL    HW2 1755   5.663   5.045   5.798
  286SOL     OW 1756   3.404   5.701   4.980
  286SOL    HW1 1757   3.348   5.653   5.047
  286SOL    HW2 1758   3.348   5.767   4.931
  287SOL     OW 1759   0.641   4.398   0.120
  287SOL    HW1 1760   0.594   4.312   0.103
  287SOL    HW2 1761   0.621   4.462   0.046
  288SOL     OW 1762   3.896   2.003   6.219
  288SOL    HW1 1763   3.812   1.969   6.178
  288SOL    HW2 1764   3.904   1.969   6.313
  289SOL     OW 1765   0.053   5.206   4.881
  289SOL    HW1 1766   0.016   5.138   4.944
  289SOL    HW2 1767   0.121   5.262   4.929
  290SOL     OW 1768   5.601   1.583   4.136
  290SOL    HW1 1769   5.564   1.551   4.049
  290SOL    HW2 1770   5.528   1.592   4.203
  291SOL     OW 1771   1.921   2.198   4.776
  291SOL    HW1 1772   1.929   2.142   4.694
  291SOL    HW2 1773   1.869   2.149   4.845
  292SOL     OW 1774   1.847   1.908   3.082
  292SOL    HW1 1775   1.778   1.976   3.058
  292SOL    HW2 1776   1.938   1.947   3.069
  293SOL     OW 1777   4.639   4.751   1.890
  293SOL    HW1 1778   4.707   4.692   1.845
  293SOL    HW2 1779   4.561   4.764   1.830
  294SOL     OW 1780   6.603   5.394   6.178
  294SOL    HW1 1781   6.560   5.345   6.254
  294SOL    HW2 1782   6.533   5.423   6.113
  295SOL     OW 1783   3.368   1.648   4.113
  295SOL    HW1 1784   3.409   1.560   4.090
  295SOL    HW2 1785   3.438   1.709   4.150
  296SOL     OW 1786   5.703   2.014   2.003
  296SOL    HW1 1787   5.784   1.959   2.022
  296SOL    HW2 1788   5.695   2.087   2.071
  297SOL     OW 1789   2.897   5.139   3.045
  297SOL    HW1 1790   2.844   5.109   2.966
  297SOL    HW2 1791   2.920   5.061   3.103
  298SOL     OW 1792   3.395   5.720   0.527
  298SOL    HW1 1793   3.489   5.750   0.512
  298SOL    HW2 1794   3.393   5.651   0.599
  299SOL     OW 1795   3.657   3.558   6.364
  299SOL    HW1 1796   3.572   3.599   6.331
  299SOL    HW2 1797   3.651   3.458   6.358
  300SOL     OW 1798   5.415   0.715   2.022
  300SOL    HW1 1799   5.462   0.671   2.098
  300SOL    HW2 1800   5.337   0.767   2.057
  301SOL     OW 1801   5.619   3.130   0.657
  301SOL    HW1 1802   5.547   3.061   0.659
  301SOL    HW2 1803   5.586   3.212   0.612
  302SOL     OW 1804   0.341   1.087   3.593
  302SOL    HW1 1805   0.369   1.183   3.599
  302SOL    HW2 1806   0.280   1.074   3.516
  303SOL     OW 1807   6.533   6.874   1.729
  303SOL    HW1 1808   6.594   6.835   1.660
  303SOL    HW2 1809   6.462   6.929   1.684
  304SOL     OW 1810   1.851   0.251   5.392
  304SOL    HW1 1811   1.779   0.203   5.342
  304SOL    HW2 1812   1.840   0.350   5.380
  305SOL     OW 1813   0.494   3.318   0.363
  305SOL    HW1 1814   0.475   3.349   0.456
  305SOL    HW2 1815   0.408   3.299   0.316
  306SOL     OW 1816   2.126   0.524   3.727
  306SOL    HW1 1817   2.208   0.471   3.706
  306SOL    HW2 1818   2.075   0.542   3.642
  307SOL     OW 1819   4.949   6.147   0.394
  307SOL    HW1 1820   5.020   6.143   0.324
  307SOL    HW2 1821   4.864   6.181   0.354
  308SOL     OW 1822   6.342   3.143   4.548
  308SOL    HW1 1823   6.243   3.129   4.550
  308SOL    HW2 1824   6.361   3.239   4.530
  309SOL     OW 1825   2.910   5.945   6.673
  309SOL    HW1 1826   2.814   5.928   6.651
  309SOL    HW2 1827   2.967   5.910   6.599
  310SOL     OW 1828   6.169   6.851   5.340
  310SOL    HW1 1829   6.108   6.901   5.278
  310SOL    HW2 1830   6.124   6.768   5.372
  311SOL     OW 1831   4.848   4.763   2.939
  311SOL    HW1 1832   4.899   4.839   2.899
  311SOL    HW2 1833   4.805   4.709   2.866
  312SOL     OW 1834   4.234   1.336   4.566
  312SOL    HW1 1835   4.227   1.321   4.468
  312SOL    HW2 1836   4.251   1.249   4.613
  313SOL     OW 1837   3.247   3.817   2.357
  313SOL    HW1 1838   3.182   3.771   2.417
  313SOL    HW2 1839   3.241   3.777   2.265
  314SOL     OW 1840   3.417   5.705   6.852
  314SOL    HW1 1841   3.336   5.743   6.807
  314SOL    HW2 1842   3.450   5.626   6.800
  315SOL     OW 1843   1.383   2.675   3.908
  315SOL    HW1 1844   1.467   2.639   3.947
  315SOL    HW2 1845   1.367   2.768   3.943
  316SOL     OW 1846   3.101   1.614   4.019
  316SOL    HW1 1847   3.197   1.627   4.042
  316SOL    HW2 1848   3.091   1.539   3.955
  317SOL     OW 1849   0.166   0.913   1.137
  317SOL    HW1 1850   0.148   0.974   1.060
  317SOL    HW2 1851   0.253   0.939   1.181
  318SOL     OW 1852   1.058   5.419   6.546
  318SOL    HW1 1853   1.158   5.428   6.541
  318SOL    HW2 1854   1.019   5.426   6.455
  319SOL     OW 1855   6.694   0.465   3.725
  319SOL    HW1 1856   6.693   0.561   3.753
  319SOL    HW2 1857   6.609   0.421   3.753
  320SOL     OW 1858   6.142   2.265   0.563
  320SOL    HW1 1859   6.241   2.271   0.563
  320SOL    HW2 1860   6.103   2.341   0.616
  321SOL     OW 1861   3.943   1.731   6.833
  321SOL    HW1 1862   4.008   1.692   6.898
  321SOL    HW2 1863   3.890   1.658   6.791
  322SOL     OW 1864   3.984   3.164   4.525
  322SOL    HW1 1865   3.966   3.122   4.613
  322SOL    HW2 1866   3.898   3.194   4.484
  323SOL     OW 1867   1.006   3.158   6.322
  323SOL    HW1 1868   0.940   3.087   6.347
  323SOL    HW2 1869   1.092   3.142   6.370
  324SOL     OW 1870   2.531   1.410   5.188
  324SOL    HW1 1871   2.574   1.399   5.098
  324SOL    HW2 1872   2.492   1.502   5.195
  325SOL     OW 1873   1.170   2.876   2.159
  325SOL    HW1 1874   1.129   2.876   2.068
  325SOL    HW2 1875   1.098   2.872   2.228
  326SOL     OW 1876   1.418   5.170   0.010
  326SOL    HW1 1877   1.514   5.160   0.037
  326SOL    HW2 1878   1.394   5.102   6.961
  327SOL     OW 1879   1.819   5.001   3.573
  327SOL    HW1 1880   1.826   4.916   3.624
  327SOL    HW2 1881   1.732   5.002   3.522
  328SOL     OW 1882   1.448   5.183   2.171
  328SOL    HW1 1883   1.497   5.201   2.085
  328SOL    HW2 1884   1.366   5.240   2.176
  329SOL     OW 1885   3.799   4.080   4.843
  329SOL    HW1 1886   3.720   4.139   4.860
  329SOL    HW2 1887   3.876   4.109   4.899
  330SOL     OW 1888   3.618   0.045   1.754
  330SOL    HW1 1889   3.610   0.125   1.695
  330SOL    HW2 1890   3.527   0.010   1.777
  331SOL     OW 1891   3.541   4.849   0.780
  331SOL    HW1 1892   3.630   4.809   0.757
  331SOL    HW2 1893   3.502   4.893   0.699
  332SOL     OW 1894   4.227   1.754   5.122
  332SOL    HW1 1895   4.249   1.776   5.027
  332SOL    HW2 1896   4.196   1.659   5.129
  333SOL     OW 1897   3.074   0.212   6.000
  333SOL    HW1 1898   3.048   0.154   5.923
  333SOL    HW2 1899   3.148   0.274   5.971
  334SOL     OW 1900   2.810   0.544   1.653
  334SOL    HW1 1901   2.779   0.634   1.683
  334SOL    HW2 1902   2.907   0.549   1.630
  335SOL     OW 1903   4.033   6.943   4.904
  335SOL    HW1 1904   3.976   6.878   4.853
  335SOL    HW2 1905   3.978   0.003   4.931
  336SOL     OW 1906   1.792   0.643   3.447
  336SOL    HW1 1907   1.890   0.658   3.459
  336SOL    HW2 1908   1.759   0.698   3.371
  337SOL     OW 1909   0.448   2.707   0.026
  337SOL    HW1 1910   0.472   2.761   0.107
  337SOL    HW2 1911   0.356   2.731   7.016
  338SOL     OW 1912   2.607   2.308   1.615
  338SOL    HW1 1913   2.571   2.314   1.522
  338SOL    HW2 1914   2.698   2.268   1.613
  339SOL     OW 1915   3.183   6.261   3.556
  339SOL    HW1 1916   3.270   6.310   3.551
  339SOL    HW2 1917   3.117   6.315   3.609
  340SOL     OW 1918   4.795   4.497   5.533
  340SOL    HW1 1919   4.847   4.582   5.544
  340SOL    HW2 1920   4.781   4.454   5.623
  341SOL     OW 1921   6.848   0.915   4.640
  341SOL    HW1 1922   6.908   0.909   4.560
  341SOL    HW2 1923   6.897   0.879   4.720
  342SOL     OW 1924   5.597   3.511   6.761
  342SOL    HW1 1925   5.627   3.459   6.841
  342SOL    HW2 1926   5.675   3.561   6.723
  343SOL     OW 1927   2.170   5.413   0.844
  343SOL    HW1 1928   2.256   5.427   0.895
  343SOL    HW2 1929   2.190   5.369   0.757
  344SOL     OW 1930   1.163   4.998   2.043
  344SOL    HW1 1931   1.069   5.030   2.051
  344SOL    HW2 1932   1.167   4.901   2.067
  345SOL     OW 1933   5.117   1.530   3.807
  345SOL    HW1 1934   5.105   1.578   3.720
  345SOL    HW2 1935   5.029   1.523   3.854
  346SOL     OW 1936   2.416   0.659   2.908
  346SOL    HW1 1937   2.333   0.668   2.854
  346SOL    HW2 1938   2.410   0.718   2.989
  347SOL     OW 1939   3.142   5.410   6.324
  347SOL    HW1 1940   3.179   5.325   6.286
  347SOL    HW2 1941   3.206   5.448   6.390
  348SOL     OW 1942   5.321   3.890   2.533
  348SOL    HW1 1943   5.288   3.910   2.625
  348SOL    HW2 1944   5.283   3.803   2.501
  349SOL     OW 1945   6.927   4.835   0.737
  349SOL    HW1 1946   6.866   4.838   0.816
  349SOL    HW2 1947   0.003   4.830   0.769
  350SOL     OW 1948   3.655   3.590   0.919
  350SOL    HW1 1949   3.556   3.594   0.905
  350SOL    HW2 1950   3.676   3.515   0.982
  351SOL     OW 1951   1.567   2.807   0.721
  351SOL    HW1 1952   1.474   2.816   0.756
  351SOL    HW2 1953   1.631   2.850   0.785
  352SOL     OW 1954   2.750   1.297   4.429
  352SOL    HW1 1955   2.845   1.328   4.436
  352SOL    HW2 1956   2.700   1.324   4.511
  353SOL     OW 1957   2.460   6.615   0.736
  353SOL    HW1 1958   2.407   6.565   0.805
  353SOL    HW2 1959   2.557   6.601   0.753
  354SOL     OW 1960   3.541   2.648   0.233
  354SOL    HW1 1961   3.517   2.583   0.160
  354SOL    HW2 1962   3.639   2.643   0.250
  355SOL     OW 1963   1.004   3.711   2.731
  355SOL    HW1 1964   0.964   3.648   2.663
  355SOL    HW2 1965   0.930   3.755   2.783
  356SOL     OW 1966   3.260   6.999   5.678
  356SOL    HW1 1967   3.343   6.982   5.732
  356SOL    HW2 1968   3.284   7.008   5.581
  357SOL     OW 1969   0.310   6.448   5.267
  357SOL    HW1 1970   0.213   6.441   5.241
  357SOL    HW2 1971   0.352   6.358   5.261
  358SOL     OW 1972   4.681   0.491   1.237
  358SOL    HW1 1973   4.654   0.502   1.141
  358SOL    HW2 1974   4.618   0.429   1.283
  359SOL     OW 1975   1.723   2.577   1.920
  359SOL    HW1 1976   1.739   2.487   1.960
  359SOL    HW2 1977   1.783   2.591   1.841
  360SOL     OW 1978   0.692   5.154   6.527
  360SOL    HW1 1979   0.701   5.058   6.554
  360SOL    HW2 1980   0.755   5.210   6.581
  361SOL     OW 1981   5.878   5.865   2.994
  361SOL    HW1 1982   5.972   5.899   2.997
  361SOL    HW2 1983   5.868   5.788   3.056
  362SOL     OW 1984   4.022   3.950   1.940
  362SOL    HW1 1985   4.003   3.973   2.035
  362SOL    HW2 1986   3.974   3.866   1.915
  363SOL     OW 1987   5.309   4.763   3.888
  363SOL    HW1 1988   5.404   4.796   3.881
  363SOL    HW2 1989   5.276   4.778   3.981
  364SOL     OW 1990   5.995   5.329   5.775
  364SOL    HW1 1991   6.021   5.246   5.725
  364SOL    HW2 1992   5.937   5.304   5.853
  365SOL     OW 1993   5.575   5.949   2.306
  365SOL    HW1 1994   5.503   5.970   2.372
  365SOL    HW2 1995   5.633   5.877   2.341
  366SOL     OW 1996   6.473   0.781   6.234
  366SOL    HW1 1997   6.548   0.752   6.294
  366SOL    HW2 1998   6.510   0.834   6.158
  367SOL     OW 1999   4.459   3.157   1.263
  367SOL    HW1 2000   4.369   3.137   1.222
  367SOL    HW2 2001   4.490   3.078   1.314
  368SOL     OW 2002   0.333   3.794   5.130
  368SOL    HW1 2003   0.256   3.844   5.169
  368SOL    HW2 2004   0.358   3.834   5.042
  369SOL     OW 2005   6.458   5.591   1.174
  369SOL    HW1 2006   6.438   5.618   1.268
  369SOL    HW2 2007   6.519   5.512   1.174
  370SOL     OW 2008   2.629   1.662   6.402
  370SOL    HW1 2009   2.688   1.742   6.394
  370SOL    HW2 2010   2.540   1.681   6.360
  371SOL     OW 2011   2.623   3.686   6.546
  371SOL    HW1 2012   2.692   3.641   6.602
  371SOL    HW2 2013   2.568   3.617   6.498
  372SOL     OW 2014   1.103   6.422   5.922
  372SOL    HW1 2015   1.158   6.450   5.844
  372SOL    HW2 2016   1.029   6.488   5.935
  373SOL     OW 2017   6.998   6.497   4.338
  373SOL    HW1 2018   0.077   6.510   4.320
  373SOL    HW2 2019   6.970   6.406   4.308
  374SOL     OW 2020   2.561   1.757   2.883
  374SOL    HW1 2021   2.572   1.712   2.794
  374SOL    HW2 2022   2.644   1.809   2.904
  375SOL     OW 2023   0.963   4.683   3.931
  375SOL    HW1 2024   0.936   4.587   3.934
  375SOL    HW2 2025   0.982   4.709   3.837
  376SOL     OW 2026   2.193   1.627   4.800
  376SOL    HW1 2027   2.179   1.591   4.892
  376SOL    HW2 2028   2.187   1.727   4.802
  377SOL     OW 2029   0.697   1.843   1.410
  377SOL    HW1 2030   0.750   1.928   1.419
  377SOL    HW2 2031   0.750   1.767   1.448
  378SOL     OW 2032   3.180   2.325   5.741
  378SOL    HW1 2033   3.183   2.391   5.667
  378SOL    HW2 2034   3.269   2.279   5.748
  379SOL     OW 2035   6.125   4.369   0.726
  379SOL    HW1 2036   6.156   4.283   0.685
  379SOL    HW2 2037   6.096   4.432   0.654
  380SOL     OW 2038   2.725   0.899   1.037
  380SOL    HW1 2039   2.701   0.989   0.999
  380SOL    HW2 2040   2.823   0.896   1.055
  381SOL     OW 2041   1.185   4.418   2.653
  381SOL    HW1 2042   1.111   4.392   2.715
  381SOL    HW2 2043   1.229   4.336   2.617
  382SOL     OW 2044   5.513   6.375   6.052
  382SOL    HW1 2045   5.560   6.379   6.140
  382SOL    HW2 2046   5.417   6.352   6.065
  383SOL     OW 2047   4.619   3.181   5.562
  383SOL    HW1 2048   4.610   3.130   5.477
  383SOL    HW2 2049   4.623   3.279   5.542
  384SOL     OW 2050   6.324   5.569   4.417
  384SOL    HW1 2051   6.231   5.553   4.385
  384SOL    HW2 2052   6.358   5.655   4.379
  385SOL     OW 2053   4.110   5.942   5.640
  385SOL    HW1 2054   4.119   6.001   5.720
  385SOL    HW2 2055   4.102   5.999   5.558
  386SOL     OW 2056   2.757   6.408   5.406
  386SOL    HW1 2057   2.821   6.332   5.397
  386SOL    HW2 2058   2.767   6.448   5.497
  387SOL     OW 2059   1.004   6.638   3.317
  387SOL    HW1 2060   0.964   6.673   3.402
  387SOL    HW2 2061   0.971   6.545   3.301
  388SOL     OW 2062   1.552   1.875   3.884
  388SOL    HW1 2063   1.648   1.897   3.901
  388SOL    HW2 2064   1.531   1.889   3.787
  389SOL     OW 2065   4.396   4.256   1.394
  389SOL    HW1 2066   4.365   4.343   1.433
  389SOL    HW2 2067   4.430   4.198   1.467
  390SOL     OW 2068   3.346   1.151   0.027
  390SOL    HW1 2069   3.281   1.155   0.103
  390SOL    HW2 2070   3.300   1.118   6.964
  391SOL     OW 2071   2.137   3.882   5.557
  391SOL    HW1 2072   2.212   3.930   5.510
  391SOL    HW2 2073   2.050   3.908   5.515
  392SOL     OW 2074   1.886   4.228   1.693
  392SOL    HW1 2075   1.913   4.132   1.683
  392SOL    HW2 2076   1.829   4.255   1.616
  393SOL     OW 2077   1.119   4.681   0.056
  393SOL    HW1 2078   1.031   4.662   0.012
  393SOL    HW2 2079   1.193   4.652   7.016
  394SOL     OW 2080   6.962   2.651   0.386
  394SOL    HW1 2081   7.014   2.644   0.472
  394SOL    HW2 2082   7.017   2.614   0.311
  395SOL     OW 2083   4.877   4.524   3.202
  395SOL    HW1 2084   4.912   4.441   3.247
  395SOL    HW2 2085   4.793   4.503   3.154
  396SOL     OW 2086   3.044   3.240   2.181
  396SOL    HW1 2087   3.056   3.145   2.152
  396SOL    HW2 2088   2.989   3.289   2.114
  397SOL     OW 2089   5.737   1.633   6.053
  397SOL    HW1 2090   5.673   1.591   5.988
  397SOL    HW2 2091   5.772   1.718   6.014
  398SOL     OW 2092   1.389   0.100   3.256
  398SOL    HW1 2093   1.383   0.151   3.342
  398SOL    HW2 2094   1.299   0.097   3.213
  399SOL     OW 2095   5.583   6.235   4.237
  399SOL    HW1 2096   5.595   6.146   4.193
  399SOL    HW2 2097   5.655   6.248   4.305
  400SOL     OW 2098   6.525   6.445   5.734
  400SOL    HW1 2099   6.467   6.519   5.698
  400SOL    HW2 2100   6.591   6.417   5.664
  401SOL     OW 2101   4.820   0.092   6.314
  401SOL    HW1 2102   4.742   0.048   6.271
  401SOL    HW2 2103   4.877   0.023   6.359
  402SOL     OW 2104   6.656   0.939   3.552
  402SOL    HW1 2105   6.595   1.015   3.535
  402SOL    HW2 2106   6.745   0.973   3.583
  403SOL     OW 2107   4.124   1.221   5.008
  403SOL    HW1 2108   4.074   1.153   5.062
  403SOL    HW2 2109   4.207   1.180   4.972
  404SOL     OW 2110   1.584   4.894   4.067
  404SOL    HW1 2111   1.621   4.982   4.096
  404SOL    HW2 2112   1.484   4.901   4.061
  405SOL     OW 2113   2.129   3.272   3.102
  405SOL    HW1 2114   2.187   3.199   3.065
  405SOL    HW2 2115   2.128   3.349   3.039
  406SOL     OW 2116   0.285   4.109   5.031
  406SOL    HW1 2117   0.335   4.195   5.038
  406SOL    HW2 2118   0.347   4.037   4.998
  407SOL     OW 2119   1.541   2.610   5.194
  407SOL    HW1 2120   1.567   2.517   5.220
  407SOL    HW2 2121   1.613   2.651   5.139
  408SOL     OW 2122   3.560   2.112   2.769
  408SOL    HW1 2123   3.620   2.088   2.692
  408SOL    HW2 2124   3.465   2.099   2.741
  409SOL     OW 2125   6.426   3.098   1.506
  409SOL    HW1 2126   6.502   3.111   1.568
  409SOL    HW2 2127   6.342   3.081   1.558
  410SOL     OW 2128   0.869   1.663   1.262
  410SOL    HW1 2129   0.842   1.754   1.230
  410SOL    HW2 2130   0.816   1.593   1.214
  411SOL     OW 2131   6.652   1.035   1.578
  411SOL    HW1 2132   6.688   1.069   1.491
  411SOL    HW2 2133   6.624   0.939   1.568
  412SOL     OW 2134   3.615   5.106   2.508
  412SOL    HW1 2135   3.649   5.140   2.595
  412SOL    HW2 2136   3.649   5.013   2.493
  413SOL     OW 2137   5.559   4.061   1.577
  413SOL    HW1 2138   5.592   4.045   1.485
  413SOL    HW2 2139   5.624   4.118   1.627
  414SOL     OW 2140   3.434   6.329   3.837
  414SOL    HW1 2141   3.461   6.256   3.774
  414SOL    HW2 2142   3.383   6.399   3.787
  415SOL     OW 2143   0.382   0.433   6.718
  415SOL    HW1 2144   0.356   0.424   6.814
  415SOL    HW2 2145   0.421   0.346   6.686
  416SOL     OW 2146   4.964   5.233   5.537
  416SOL    HW1 2147   5.044   5.202   5.588
  416SOL    HW2 2148   4.949   5.330   5.553
  417SOL     OW 2149   1.973   6.901   5.787
  417SOL    HW1 2150   2.021   6.937   5.707
  417SOL    HW2 2151   2.039   6.863   5.851
  418SOL     OW 2152   3.117   0.118   6.583
  418SOL    HW1 2153   3.020   0.091   6.575
  418SOL    HW2 2154   3.175   0.046   6.545
  419SOL     OW 2155   0.759   6.693   2.978
  419SOL    HW1 2156   0.750   6.677   2.879
  419SOL    HW2 2157   0.813   6.776   2.993
  420SOL     OW 2158   5.655   1.555   6.488
  420SOL    HW1 2159   5.657   1.614   6.408
  420SOL    HW2 2160   5.704   1.470   6.468
  421SOL     OW 2161   5.473   3.741   4.637
  421SOL    HW1 2162   5.555   3.780   4.678
  421SOL    HW2 2163   5.413   3.707   4.709
  422SOL     OW 2164   4.738   3.270   0.815
  422SOL    HW1 2165   4.686   3.238   0.894
  422SOL    HW2 2166   4.685   3.338   0.765
  423SOL     OW 2167   2.052   2.211   0.153
  423SOL    HW1 2168   2.147   2.192   0.126
  423SOL    HW2 2169   2.011   2.129   0.192
  424SOL     OW 2170   1.935   4.530   2.461
  424SOL    HW1 2171   1.889   4.562   2.543
  424SOL    HW2 2172   1.976   4.608   2.414
  425SOL     OW 2173   5.193   2.017   3.995
  425SOL    HW1 2174   5.115   1.970   4.037
  425SOL    HW2 2175   5.251   1.950   3.950
  426SOL     OW 2176   2.694   2.404   4.704
  426SOL    HW1 2177   2.626   2.477   4.712
  426SOL    HW2 2178   2.730   2.381   4.794
  427SOL     OW 2179   6.218   6.895   3.948
  427SOL    HW1 2180   6.213   6.886   4.048
  427SOL    HW2 2181   6.141   6.949   3.915
  428SOL     OW 2182   4.195   0.570   3.017
  428SOL    HW1 2183   4.168   0.490   3.070
  428SOL    HW2 2184   4.115   0.606   2.967
  429SOL     OW 2185   0.753   4.819   3.647
  429SOL    HW1 2186   0.676   4.860   3.599
  429SOL    HW2 2187   0.740   4.829   3.746
  430SOL     OW 2188   1.177   6.690   4.516
  430SOL    HW1 2189   1.099   6.730   4.564
  430SOL    HW2 2190   1.235   6.641   4.581
  431SOL     OW 2191   2.599   1.138   1.046
  431SOL    HW1 2192   2.525   1.187   1.001
  431SOL    HW2 2193   2.671   1.202   1.073
  432SOL     OW 2194   5.832   2.104   0.928
  432SOL    HW1 2195   5.909   2.064   0.880
  432SOL    HW2 2196   5.758   2.122   0.863
  433SOL     OW 2197   2.168   6.678   5.893
  433SOL    HW1 2198   2.099   6.619   5.934
  433SOL    HW2 2199   2.170   6.766   5.941
  434SOL     OW 2200   4.317   6.197   3.674
  434SOL    HW1 2201   4.397   6.200   3.614
  434SOL    HW2 2202   4.309   6.106   3.713
  435SOL     OW 2203   3.657   2.060   5.094
  435SOL    HW1 2204   3.733   2.052   5.030
  435SOL    HW2 2205   3.572   2.075   5.044
  436SOL     OW 2206   2.961   5.945   1.963
  436SOL    HW1 2207   3.055   5.914   1.949
  436SOL    HW2 2208   2.906   5.869   1.999
  437SOL     OW 2209   0.854   1.339   6.140
  437SOL    HW1 2210   0.787   1.295   6.198
  437SOL    HW2 2211   0.878   1.278   6.064
  438SOL     OW 2212   0.971   3.704   3.699
  438SOL    HW1 2213   1.064   3.738   3.696
  438SOL    HW2 2214   0.917   3.759   3.763
  439SOL     OW 2215   5.765   6.434   2.162
  439SOL    HW1 2216   5.816   6.469   2.084
  439SOL    HW2 2217   5.746   6.336   2.149
  440SOL     OW 2218   2.852   1.421   6.077
  440SOL    HW1 2219   2.796   1.401   6.157
  440SOL    HW2 2220   2.823   1.364   6.001
  441SOL     OW 2221   6.155   3.112   3.812
  441SOL    HW1 2222   6.177   3.066   3.898
  441SOL    HW2 2223   6.222   3.185   3.796
  442SOL     OW 2224   4.848   5.346   5.896
  442SOL    HW1 2225   4.802   5.393   5.821
  442SOL    HW2 2226   4.908   5.275   5.859
  443SOL     OW 2227   5.538   3.833   4.181
  443SOL    HW1 2228   5.475   3.910   4.191
  443SOL    HW2 2229   5.626   3.866   4.148
  444SOL     OW 2230   4.509   0.454   6.017
  444SOL    HW1 2231   4.426   0.401   5.998
  444SOL    HW2 2232   4.568   0.455   5.937
  445SOL     OW 2233   2.452   6.043   2.832
  445SOL    HW1 2234   2.537   6.029   2.782
  445SOL    HW2 2235   2.423   6.138   2.824
  446SOL     OW 2236   4.237   6.018   2.628
  446SOL    HW1 2237   4.241   6.059   2.537
  446SOL    HW2 2238   4.272   6.083   2.696
  447SOL     OW 2239   6.291   3.951   4.985
  447SOL    HW1 2240   6.300   3.862   5.029
  447SOL    HW2 2241   6.194   3.968   4.965
  448SOL     OW 2242   2.740   0.660   2.862
  448SOL    HW1 2243   2.697   0.748   2.880
  448SOL    HW2 2244   2.773   0.658   2.767
  449SOL     OW 2245   3.031   1.485   3.746
  449SOL    HW1 2246   3.032   1.481   3.646
  449SOL    HW2 2247   2.946   1.444   3.780
  450SOL     OW 2248   1.774   4.662   3.578
  450SOL    HW1 2249   1.788   4.658   3.479
  450SOL    HW2 2250   1.848   4.613   3.624
  451SOL     OW 2251   1.996   2.267   4.213
  451SOL    HW1 2252   2.063   2.229   4.150
  451SOL    HW2 2253   1.915   2.295   4.163
  452SOL     OW 2254   4.250   6.432   1.735
  452SOL    HW1 2255   4.232   6.509   1.797
  452SOL    HW2 2256   4.191   6.440   1.655
  453SOL     OW 2257   3.706   6.558   6.058
  453SOL    HW1 2258   3.668   6.571   6.149
  453SOL    HW2 2259   3.701   6.644   6.007
  454SOL     OW 2260   0.064   3.701   6.653
  454SOL    HW1 2261   0.046   3.785   6.706
  454SOL    HW2 2262   0.143   3.654   6.691
  455SOL     OW 2263   6.008   2.713   4.995
  455SOL    HW1 2264   5.933   2.658   5.032
  455SOL    HW2 2265   5.975   2.806   4.977
  456SOL     OW 2266   1.307   0.946   4.551
  456SOL    HW1 2267   1.243   0.877   4.585
  456SOL    HW2 2268   1.267   1.037   4.561
  457SOL     OW 2269   2.248   4.158   4.459
  457SOL    HW1 2270   2.267   4.250   4.423
  457SOL    HW2 2271   2.235   4.163   4.558
  458SOL     OW 2272   2.936   0.261   2.871
  458SOL    HW1 2273   2.953   0.175   2.920
  458SOL    HW2 2274   3.000   0.331   2.905
  459SOL     OW 2275   1.742   0.679   5.305
  459SOL    HW1 2276   1.783   0.751   5.360
  459SOL    HW2 2277   1.813   0.631   5.253
  460SOL     OW 2278   0.978   0.453   5.196
  460SOL    HW1 2279   0.948   0.501   5.114
  460SOL    HW2 2280   1.077   0.466   5.208
  461SOL     OW 2281   6.416   4.655   5.966
  461SOL    HW1 2282   6.329   4.660   5.916
  461SOL    HW2 2283   6.491   4.645   5.900
  462SOL     OW 2284   3.883   3.550   5.555
  462SOL    HW1 2285   3.865   3.648   5.545
  462SOL    HW2 2286   3.860   3.503   5.470
  463SOL     OW 2287   0.469   0.360   3.630
  463SOL    HW1 2288   0.529   0.440   3.639
  463SOL    HW2 2289   0.395   0.366   3.697
  464SOL     OW 2290   3.115   0.691   6.108
  464SOL    HW1 2291   3.021   0.688   6.139
  464SOL    HW2 2292   3.127   0.768   6.045
  465SOL     OW 2293   0.349   2.458   0.076
  465SOL    HW1 2294   0.387   2.543   0.039
  465SOL    HW2 2295   0.378   2.381   0.019
  466SOL     OW 2296   2.518   6.637   4.021
  466SOL    HW1 2297   2.436   6.584   4.001
  466SOL    HW2 2298   2.599   6.583   4.001
  467SOL     OW 2299   1.512   1.589   2.830
  467SOL    HW1 2300   1.533   1.614   2.735
  467SOL    HW2 2301   1.505   1.672   2.886
  468SOL     OW 2302   4.119   5.520   5.427
  468SOL    HW1 2303   4.201   5.468   5.452
  468SOL    HW2 2304   4.104   5.593   5.494
  469SOL     OW 2305   3.072   4.095   5.780
  469SOL    HW1 2306   3.032   4.181   5.749
  469SOL    HW2 2307   3.120   4.052   5.704
  470SOL     OW 2308   3.903   5.930   1.644
  470SOL    HW1 2309   3.863   5.936   1.736
  470SOL    HW2 2310   3.987   5.984   1.641
  471SOL     OW 2311   2.811   2.072   4.048
  471SOL    HW1 2312   2.748   2.095   3.974
  471SOL    HW2 2313   2.789   2.127   4.128
  472SOL     OW 2314   5.794   4.714   6.873
  472SOL    HW1 2315   5.733   4.793   6.866
  472SOL    HW2 2316   5.855   4.713   6.794
  473SOL     OW 2317   0.967   2.210   2.099
  473SOL    HW1 2318   0.869   2.199   2.080
  473SOL    HW2 2319   0.997   2.300   2.068
  474SOL     OW 2320   5.702   5.598   5.375
  474SOL    HW1 2321   5.704   5.698   5.377
  474SOL    HW2 2322   5.607   5.566   5.374
  475SOL     OW 2323   6.209   3.214   0.449
  475SOL    HW1 2324   6.278   3.204   0.377
  475SOL    HW2 2325   6.133   3.151   0.430
  476SOL     OW 2326   0.150   3.391   2.211
  476SOL    HW1 2327   0.109   3.435   2.290
  476SOL    HW2 2328   0.216   3.323   2.241
  477SOL     OW 2329   2.732   5.866   3.545
  477SOL    HW1 2330   2.635   5.886   3.529
  477SOL    HW2 2331   2.780   5.862   3.458
  478SOL     OW 2332   4.109   6.285   3.541
  478SOL    HW1 2333   4.069   6.347   3.609
  478SOL    HW2 2334   4.188   6.238   3.581
  479SOL     OW 2335   3.701   3.038   5.199
  479SOL    HW1 2336   3.667   3.112   5.256
  479SOL    HW2 2337   3.624   2.987   5.159
  480SOL     OW 2338   2.650   0.289   1.427
  480SOL    HW1 2339   2.580   0.352   1.461
  480SOL    HW2 2340   2.741   0.327   1.446
  481SOL     OW 2341   0.444   6.446   1.650
  481SOL    HW1 2342   0.477   6.354   1.630
  481SOL    HW2 2343   0.423   6.493   1.564
  482SOL     OW 2344   4.680   5.086   2.916
  482SOL    HW1 2345   4.758   5.136   2.878
  482SOL    HW2 2346   4.651   5.015   2.853
  483SOL     OW 2347   6.974   2.055   2.505
  483SOL    HW1 2348   6.992   2.106   2.589
  483SOL    HW2 2349   0.034   1.999   2.481
  484SOL     OW 2350   1.685   4.252   4.666
  484SOL    HW1 2351   1.641   4.340   4.683
  484SOL    HW2 2352   1.632   4.200   4.600
  485SOL     OW 2353   5.042   4.903   2.557
  485SOL    HW1 2354   5.049   4.815   2.509
  485SOL    HW2 2355   4.960   4.951   2.527
  486SOL     OW 2356   5.825   1.642   6.808
  486SOL    HW1 2357   5.862   1.686   6.727
  486SOL    HW2 2358   5.855   1.546   6.810
  487SOL     OW 2359   0.763   0.594   2.991
  487SOL    HW1 2360   0.825   0.534   2.941
  487SOL    HW2 2361   0.815   0.667   3.035
  488SOL     OW 2362   0.782   6.756   2.233
  488SOL    HW1 2363   0.774   6.851   2.203
  488SOL    HW2 2364   0.696   6.708   2.214
  489SOL     OW 2365   6.113   5.732   5.212
  489SOL    HW1 2366   6.191   5.749   5.151
  489SOL    HW2 2367   6.146   5.721   5.306
  490SOL     OW 2368   1.530   6.037   3.977
  490SOL    HW1 2369   1.452   5.983   3.945
  490SOL    HW2 2370   1.542   6.023   4.076
  491SOL     OW 2371   1.122   3.461   1.184
  491SOL    HW1 2372   1.086   3.484   1.274
  491SOL    HW2 2373   1.206   3.513   1.167
  492SOL     OW 2374   1.394   1.173   5.567
  492SOL    HW1 2375   1.481   1.183   5.519
  492SOL    HW2 2376   1.327   1.130   5.506
  493SOL     OW 2377   2.539   0.001   5.681
  493SOL    HW1 2378   2.629   0.029   5.647
  493SOL    HW2 2379   2.474   0.075   5.669
  494SOL     OW 2380   1.653   1.493   6.585
  494SOL    HW1 2381   1.739   1.443   6.592
  494SOL    HW2 2382   1.577   1.431   6.602
  495SOL     OW 2383   3.560   6.353   4.283
  495SOL    HW1 2384   3.561   6.372   4.185
  495SOL    HW2 2385   3.509   6.269   4.300
  496SOL     OW 2386   6.406   2.182   1.582
  496SOL    HW1 2387   6.467   2.154   1.508
  496SOL    HW2 2388   6.459   2.191   1.667
  497SOL     OW 2389   3.229   1.240   4.894
  497SOL    HW1 2390   3.136   1.269   4.868
  497SOL    HW2 2391   3.256   1.287   4.978
  498SOL     OW 2392   0.837   4.417   2.628
  498SOL    HW1 2393   0.910   4.372   2.680
  498SOL    HW2 2394   0.771   4.349   2.595
  499SOL     OW 2395   1.730   5.428   4.975
  499SOL    HW1 2396   1.701   5.460   5.065
  499SOL    HW2 2397   1.724   5.503   4.909
  500SOL     OW 2398   5.368   2.631   6.937
  500SOL    HW1 2399   5.437   2.695   6.971
  500SOL    HW2 2400   5.387   2.609   6.841
  501SOL     OW 2401   4.173   6.864   1.073
  501SOL    HW1 2402   4.126   6.939   1.026
  501SOL    HW2 2403   4.112   6.823   1.140
  502SOL     OW 2404   0.537   4.471   6.427
  502SOL    HW1 2405   0.477   4.547   6.402
  502SOL    HW2 2406   0.501   4.427   6.509
  503SOL     OW 2407   1.947   4.819   6.372
  503SOL    HW1 2408   1.869   4.823   6.310
  503SOL    HW2 2409   2.030   4.850   6.324
  504SOL     OW 2410   0.965   5.440   1.636
  504SOL    HW1 2411   0.978   5.534   1.604
  504SOL    HW2 2412   0.881   5.435   1.690
  505SOL     OW 2413   4.493   6.818   4.783
  505SOL    HW1 2414   4.537   6.795   4.869
  505SOL    HW2 2415   4.403   6.858   4.801
  506SOL     OW 2416   2.964   6.172   2.104
  506SOL    HW1 2417   3.061   6.198   2.108
  506SOL    HW2 2418   2.955   6.083   2.060
  507SOL     OW 2419   3.854   6.578   2.765
  507SOL    HW1 2420   3.887   6.651   2.824
  507SOL    HW2 2421   3.881   6.597   2.670
  508SOL     OW 2422   6.942   2.409   2.638
  508SOL    HW1 2423   7.008   2.449   2.574
  508SOL    HW2 2424   6.990   2.347   2.701
  509SOL     OW 2425   4.025   1.123   0.465
  509SOL    HW1 2426   3.998   1.135   0.560
  509SOL    HW2 2427   3.943   1.113   0.408
  510SOL     OW 2428   6.842   4.759   5.972
  510SOL    HW1 2429   6.843   4.716   5.881
  510SOL    HW2 2430   6.753   4.801   5.987
  511SOL     OW 2431   0.920   2.297   6.744
  511SOL    HW1 2432   0.881   2.386   6.724
  511SOL    HW2 2433   0.850   2.226   6.736
  512SOL     OW 2434   6.155   2.644   6.970
  512SOL    HW1 2435   6.250   2.667   6.951
  512SOL    HW2 2436   6.113   2.603   6.889
  513SOL     OW 2437   5.283   6.829   3.138
  513SOL    HW1 2438   5.255   6.883   3.058
  513SOL    HW2 2439   5.238   6.866   3.220
  514SOL     OW 2440   6.989   0.465   4.376
  514SOL    HW1 2441   6.969   0.460   4.278
  514SOL    HW2 2442   6.907   0.492   4.426
  515SOL     OW 2443   1.942   0.503   0.231
  515SOL    HW1 2444   2.033   0.511   0.273
  515SOL    HW2 2445   1.922   0.407   0.213
  516SOL     OW 2446   2.865   4.722   2.494
  516SOL    HW1 2447   2.806   4.693   2.419
  516SOL    HW2 2448   2.957   4.738   2.459
  517SOL     OW 2449   3.447   4.655   1.584
  517SOL    HW1 2450   3.481   4.636   1.676
  517SOL    HW2 2451   3.367   4.716   1.590
  518SOL     OW 2452   2.611   2.173   3.895
  518SOL    HW1 2453   2.583   2.138   3.985
  518SOL    HW2 2454   2.529   2.187   3.839
  519SOL     OW 2455   0.100   6.672   3.775
  519SOL    HW1 2456   0.099   6.759   3.725
  519SOL    HW2 2457   0.102   6.596   3.710
  520SOL     OW 2458   0.110   3.451   6.851
  520SOL    HW1 2459   0.165   3.370   6.832
  520SOL    HW2 2460   0.025   3.447   6.798
  521SOL     OW 2461   5.427   5.358   4.921
  521SOL    HW1 2462   5.381   5.400   4.843
  521SOL    HW2 2463   5.382   5.386   5.005
  522SOL     OW 2464   4.146   3.653   2.867
  522SOL    HW1 2465   4.170   3.749   2.857
  522SOL    HW2 2466   4.135   3.632   2.964
  523SOL     OW 2467   6.769   5.839   1.915
  523SOL    HW1 2468   6.717   5.783   1.850
  523SOL    HW2 2469   6.847   5.880   1.868
  524SOL     OW 2470   1.778   2.699   2.578
  524SOL    HW1 2471   1.771   2.652   2.490
  524SOL    HW2 2472   1.687   2.727   2.608
  525SOL     OW 2473   1.710   3.915   6.080
  525SOL    HW1 2474   1.789   3.919   6.142
  525SOL    HW2 2475   1.630   3.953   6.126
  526SOL     OW 2476   3.240   6.732   3.952
  526SOL    HW1 2477   3.252   6.746   3.853
  526SOL    HW2 2478   3.328   6.707   3.993
  527SOL     OW 2479   0.333   2.202   0.534
  527SOL    HW1 2480   0.282   2.154   0.463
  527SOL    HW2 2481   0.306   2.299   0.535
  528SOL     OW 2482   1.814   2.840   3.967
  528SOL    HW1 2483   1.824   2.741   3.955
  528SOL    HW2 2484   1.783   2.859   4.061
  529SOL     OW 2485   1.798   6.781   4.747
  529SOL    HW1 2486   1.820   6.784   4.649
  529SOL    HW2 2487   1.827   6.693   4.784
  530SOL     OW 2488   4.131   3.498   2.637
  530SOL    HW1 2489   4.087   3.418   2.678
  530SOL    HW2 2490   4.142   3.569   2.707
  531SOL     OW 2491   1.275   0.915   2.855
  531SOL    HW1 2492   1.251   1.011   2.854
  531SOL    HW2 2493   1.351   0.899   2.792
  532SOL     OW 2494   1.313   3.600   0.496
  532SOL    HW1 2495   1.237   3.639   0.548
  532SOL    HW2 2496   1.385   3.571   0.559
  533SOL     OW 2497   4.611   0.062   3.368
  533SOL    HW1 2498   4.559   7.015   3.422
  533SOL    HW2 2499   4.693   0.090   3.419
  534SOL     OW 2500   6.146   5.968   2.604
  534SOL    HW1 2501   6.184   5.966   2.511
  534SOL    HW2 2502   6.049   5.943   2.600
  535SOL     OW 2503   6.823   4.195   2.946
  535SOL    HW1 2504   6.772   4.120   2.905
  535SOL    HW2 2505   6.818   4.189   3.046
  536SOL     OW 2506   5.953   4.979   2.512
  536SOL    HW1 2507   6.007   5.052   2.553
  536SOL    HW2 2508   6.010   4.927   2.448
  537SOL     OW 2509   3.835   0.536   4.477
  537SOL    HW1 2510   3.862   0.606   4.543
  537SOL    HW2 2511   3.802   0.580   4.393
  538SOL     OW 2512   0.800   4.515   4.469
  538SOL    HW1 2513   0.721   4.524   4.530
  538SOL    HW2 2514   0.873   4.464   4.515
  539SOL     OW 2515   1.845   5.270   1.914
  539SOL    HW1 2516   1.846   5.348   1.977
  539SOL    HW2 2517   1.933   5.223   1.918
  540SOL     OW 2518   1.700   1.000   3.167
  540SOL    HW1 2519   1.710   0.906   3.136
  540SOL    HW2 2520   1.603   1.023   3.175
  541SOL     OW 2521   4.881   5.540   3.923
  541SOL    HW1 2522   4.865   5.534   4.021
  541SOL    HW2 2523   4.940   5.465   3.894
  542SOL     OW 2524   4.056   6.548   0.036
  542SOL    HW1 2525   4.151   6.537   0.065
  542SOL    HW2 2526   4.021   6.636   0.070
  543SOL     OW 2527   6.040   3.641   3.516
  543SOL    HW1 2528   6.011   3.567   3.575
  543SOL    HW2 2529   6.137   3.662   3.533
  544SOL     OW 2530   0.433   5.157   0.138
  544SOL    HW1 2531   0.403   5.244   0.178
  544SOL    HW2 2532   0.354   5.105   0.106
  545SOL     OW 2533   3.868   0.916   1.520
  545SOL    HW1 2534   3.804   0.988   1.546
  545SOL    HW2 2535   3.818   0.840   1.479
  546SOL     OW 2536   1.458   4.012   1.733
  546SOL    HW1 2537   1.507   3.978   1.813
  546SOL    HW2 2538   1.487   4.106   1.714
  547SOL     OW 2539   3.252   2.514   1.160
  547SOL    HW1 2540   3.277   2.540   1.253
  547SOL    HW2 2541   3.246   2.414   1.154
  548SOL     OW 2542   3.415   3.636   1.705
  548SOL    HW1 2543   3.389   3.544   1.733
  548SOL    HW2 2544   3.415   3.696   1.785
  549SOL     OW 2545   5.270   2.411   1.763
  549SOL    HW1 2546   5.252   2.406   1.861
  549SOL    HW2 2547   5.185   2.425   1.714
  550SOL     OW 2548   1.168   5.389   3.376
  550SOL    HW1 2549   1.106   5.370   3.300
  550SOL    HW2 2550   1.174   5.488   3.390
  551SOL     OW 2551   0.381   0.008   1.745
  551SOL    HW1 2552   0.298   0.045   1.786
  551SOL    HW2 2553   0.372   0.008   1.645
  552SOL     OW 2554   5.983   4.424   6.275
  552SOL    HW1 2555   5.903   4.383   6.319
  552SOL    HW2 2556   5.957   4.459   6.185
  553SOL     OW 2557   2.743   0.026   3.948
  553SOL    HW1 2558   2.651   0.061   3.935
  553SOL    HW2 2559   2.802   0.098   3.985
  554SOL     OW 2560   5.737   0.011   0.289
  554SOL    HW1 2561   5.806   6.957   0.286
  554SOL    HW2 2562   5.746   0.068   0.208
  555SOL     OW 2563   3.154   4.827   5.063
  555SOL    HW1 2564   3.117   4.734   5.075
  555SOL    HW2 2565   3.083   4.886   5.025
  556SOL     OW 2566   4.810   1.821   3.870
  556SOL    HW1 2567   4.832   1.793   3.777
  556SOL    HW2 2568   4.794   1.920   3.872
  557SOL     OW 2569   6.625   5.359   6.831
  557SOL    HW1 2570   6.712   5.333   6.872
  557SOL    HW2 2571   6.632   5.451   6.792
  558SOL     OW 2572   3.411   3.056   3.649
  558SOL    HW1 2573   3.498   3.102   3.667
  558SOL    HW2 2574   3.377   3.014   3.733
  559SOL     OW 2575   0.115   5.552   5.499
  559SOL    HW1 2576   0.098   5.460   5.535
  559SOL    HW2 2577   0.036   5.583   5.447
  560SOL     OW 2578   6.382   3.885   3.695
  560SOL    HW1 2579   6.320   3.812   3.721
  560SOL    HW2 2580   6.347   3.931   3.614
  561SOL     OW 2581   0.282   1.869   0.746
  561SOL    HW1 2582   0.241   1.877   0.655
  561SOL    HW2 2583   0.345   1.945   0.761
  562SOL     OW 2584   4.058   0.271   6.319
  562SOL    HW1 2585   4.082   0.365   6.343
  562SOL    HW2 2586   4.138   0.225   6.279
  563SOL     OW 2587   2.772   1.378   3.805
  563SOL    HW1 2588   2.699   1.330   3.853
  563SOL    HW2 2589   2.798   1.327   3.723
  564SOL     OW 2590   0.855   3.590   6.980
  564SOL    HW1 2591   0.897   3.506   6.946
  564SOL    HW2 2592   0.847   3.656   6.905
  565SOL     OW 2593   3.416   3.536   4.361
  565SOL    HW1 2594   3.461   3.489   4.284
  565SOL    HW2 2595   3.483   3.552   4.434
  566SOL     OW 2596   0.818   3.293   3.376
  566SOL    HW1 2597   0.729   3.248   3.381
  566SOL    HW2 2598   0.809   3.388   3.405
  567SOL     OW 2599   3.257   2.890   1.310
  567SOL    HW1 2600   3.292   2.982   1.323
  567SOL    HW2 2601   3.282   2.833   1.389
  568SOL     OW 2602   4.280   0.132   0.405
  568SOL    HW1 2603   4.270   0.076   0.323
  568SOL    HW2 2604   4.262   0.228   0.382
  569SOL     OW 2605   1.001   3.465   0.517
  569SOL    HW1 2606   1.076   3.408   0.485
  569SOL    HW2 2607   0.921   3.452   0.458
  570SOL     OW 2608   3.629   0.573   6.714
  570SOL    HW1 2609   3.537   0.609   6.731
  570SOL    HW2 2610   3.641   0.487   6.764
  571SOL     OW 2611   3.239   4.939   3.320
  571SOL    HW1 2612   3.153   4.914   3.274
  571SOL    HW2 2613   3.315   4.890   3.277
  572SOL     OW 2614   2.607   5.174   5.106
  572SOL    HW1 2615   2.614   5.173   5.206
  572SOL    HW2 2616   2.608   5.080   5.072
  573SOL     OW 2617   5.783   1.190   6.115
  573SOL    HW1 2618   5.686   1.211   6.127
  573SOL    HW2 2619   5.838   1.267   6.147
  574SOL     OW 2620   3.448   1.077   4.285
  574SOL    HW1 2621   3.522   1.117   4.231
  574SOL    HW2 2622   3.480   1.064   4.379
  575SOL     OW 2623   4.325   3.014   1.718
  575SOL    HW1 2624   4.411   3.022   1.768
  575SOL    HW2 2625   4.336   2.950   1.642
  576SOL     OW 2626   1.307   3.065   2.810
  576SOL    HW1 2627   1.258   3.013   2.739
  576SOL    HW2 2628   1.259   3.151   2.827
  577SOL     OW 2629   1.516   0.984   2.425
  577SOL    HW1 2630   1.495   1.068   2.476
  577SOL    HW2 2631   1.480   0.992   2.332
  578SOL     OW 2632   0.048   5.396   4.072
  578SOL    HW1 2633   0.030   5.309   4.026
  578SOL    HW2 2634   0.094   5.379   4.159
  579SOL     OW 2635   1.724   3.123   3.644
  579SOL    HW1 2636   1.647   3.153   3.589
  579SOL    HW2 2637   1.766   3.202   3.690
  580SOL     OW 2638   4.307   5.065   5.477
  580SOL    HW1 2639   4.282   5.158   5.501
  580SOL    HW2 2640   4.302   5.053   5.378
  581SOL     OW 2641   1.611   2.953   1.902
  581SOL    HW1 2642   1.689   2.919   1.851
  581SOL    HW2 2643   1.546   2.878   1.918
  582SOL     OW 2644   5.043   5.673   2.554
  582SOL    HW1 2645   4.975   5.746   2.562
  582SOL    HW2 2646   5.102   5.691   2.475
  583SOL     OW 2647   2.703   6.476   4.939
  583SOL    HW1 2648   2.690   6.513   5.030
  583SOL    HW2 2649   2.765   6.534   4.887
  584SOL     OW 2650   2.958   6.244   6.431
  584SOL    HW1 2651   2.982   6.325   6.377
  584SOL    HW2 2652   3.032   6.178   6.426
  585SOL     OW 2653   4.257   1.308   6.842
  585SOL    HW1 2654   4.292   1.383   6.785
  585SOL    HW2 2655   4.169   1.277   6.805
  586SOL     OW 2656   3.164   0.319   6.405
  586SOL    HW1 2657   3.133   0.254   6.474
  586SOL    HW2 2658   3.260   0.343   6.421
  587SOL     OW 2659   4.780   2.324   3.948
  587SOL    HW1 2660   4.692   2.348   3.988
  587SOL    HW2 2661   4.815   2.401   3.895
  588SOL     OW 2662   2.664   4.952   1.898
  588SOL    HW1 2663   2.644   4.854   1.902
  588SOL    HW2 2664   2.587   5.004   1.935
  589SOL     OW 2665   3.588   5.390   1.577
  589SOL    HW1 2666   3.521   5.409   1.505
  589SOL    HW2 2667   3.541   5.384   1.665
  590SOL     OW 2668   5.473   2.593   1.777
  590SOL    HW1 2669   5.399   2.530   1.752
  590SOL    HW2 2670   5.555   2.569   1.724
  591SOL     OW 2671   3.839   5.859   3.551
  591SOL    HW1 2672   3.813   5.954   3.535
  591SOL    HW2 2673   3.930   5.857   3.594
  592SOL     OW 2674   4.447   0.725   1.461
  592SOL    HW1 2675   4.529   0.731   1.404
  592SOL    HW2 2676   4.383   0.659   1.421
  593SOL     OW 2677   4.571   2.491   4.028
  593SOL    HW1 2678   4.586   2.588   4.010
  593SOL    HW2 2679   4.489   2.479   4.084
  594SOL     OW 2680   5.577   0.892   0.631
  594SOL    HW1 2681   5.506   0.868   0.697
  594SOL    HW2 2682   5.667   0.872   0.670
  595SOL     OW 2683   5.780   0.370   3.448
  595SOL    HW1 2684   5.846   0.403   3.381
  595SOL    HW2 2685   5.800   0.275   3.471
  596SOL     OW 2686   0.286   4.973   3.281
  596SOL    HW1 2687   0.219   5.045   3.267
  596SOL    HW2 2688   0.287   4.947   3.378
  597SOL     OW 2689   2.086   0.062   6.932
  597SOL    HW1 2690   2.011   0.014   6.978
  597SOL    HW2 2691   2.073   0.160   6.943
  598SOL     OW 2692   3.538   4.186   4.914
  598SOL    HW1 2693   3.454   4.202   4.967
  598SOL    HW2 2694   3.515   4.166   4.819
  599SOL     OW 2695   2.797   5.763   2.801
  599SOL    HW1 2696   2.804   5.747   2.900
  599SOL    HW2 2697   2.747   5.688   2.758
  600SOL     OW 2698   5.835   2.034   6.765
  600SOL    HW1 2699   5.870   1.944   6.737
  600SOL    HW2 2700   5.785   2.075   6.689
  601SOL     OW 2701   1.507   1.039   3.968
  601SOL    HW1 2702   1.575   1.109   3.989
  601SOL    HW2 2703   1.416   1.080   3.970
  602SOL     OW 2704   1.357   0.881   6.436
  602SOL    HW1 2705   1.430   0.813   6.428
  602SOL    HW2 2706   1.273   0.843   6.397
  603SOL     OW 2707   3.090   2.829   5.265
  603SOL    HW1 2708   3.026   2.752   5.272
  603SOL    HW2 2709   3.110   2.863   5.356
  604SOL     OW 2710   0.564   1.453   1.613
  604SOL    HW1 2711   0.506   1.378   1.647
  604SOL    HW2 2712   0.561   1.454   1.513
  605SOL     OW 2713   6.805   5.091   0.120
  605SOL    HW1 2714   6.870   5.020   0.148
  605SOL    HW2 2715   6.729   5.094   0.185
  606SOL     OW 2716   5.147   6.358   5.570
  606SOL    HW1 2717   5.128   6.455   5.556
  606SOL    HW2 2718   5.132   6.334   5.666
  607SOL     OW 2719   6.443   4.772   5.291
  607SOL    HW1 2720   6.457   4.870   5.305
  607SOL    HW2 2721   6.479   4.722   5.370
  608SOL     OW 2722   4.068   6.411   6.476
  608SOL    HW1 2723   4.031   6.426   6.568
  608SOL    HW2 2724   4.167   6.398   6.482
  609SOL     OW 2725   3.945   3.022   2.623
  609SOL    HW1 2726   3.961   3.078   2.704
  609SOL    HW2 2727   3.899   2.937   2.649
  610SOL     OW 2728   5.975   3.379   0.740
  610SOL    HW1 2729   5.922   3.299   0.712
  610SOL    HW2 2730   5.913   3.452   0.770
  611SOL     OW 2731   4.744   0.023   1.822
  611SOL    HW1 2732   4.779   7.003   1.907
  611SOL    HW2 2733   4.770   0.120   1.817
  612SOL     OW 2734   3.969   5.583   4.551
  612SOL    HW1 2735   3.943   5.651   4.619
  612SOL    HW2 2736   3.921   5.602   4.465
  613SOL     OW 2737   4.745   5.205   5.075
  613SOL    HW1 2738   4.828   5.225   5.125
  613SOL    HW2 2739   4.666   5.218   5.135
  614SOL     OW 2740   5.300   5.526   6.395
  614SOL    HW1 2741   5.353   5.589   6.452
  614SOL    HW2 2742   5.237   5.474   6.452
  615SOL     OW 2743   6.793   1.814   1.426
  615SOL    HW1 2744   6.806   1.719   1.456
  615SOL    HW2 2745   6.865   1.837   1.360
  616SOL     OW 2746   0.446   2.948   2.453
  616SOL    HW1 2747   0.510   2.980   2.523
  616SOL    HW2 2748   0.380   2.885   2.494
  617SOL     OW 2749   0.101   4.409   6.086
  617SOL    HW1 2750   0.201   4.406   6.073
  617SOL    HW2 2751   0.061   4.471   6.019
  618SOL     OW 2752   0.227   2.770   0.695
  618SOL    HW1 2753   0.282   2.842   0.737
  618SOL    HW2 2754   0.283   2.720   0.629
  619SOL     OW 2755   3.605   1.367   0.319
  619SOL    HW1 2756   3.629   1.415   0.235
  619SOL    HW2 2757   3.685   1.363   0.379
  620SOL     OW 2758   4.127   2.545   1.710
  620SOL    HW1 2759   4.104   2.452   1.738
  620SOL    HW2 2760   4.211   2.544   1.655
  621SOL     OW 2761   2.692   6.449   6.694
  621SOL    HW1 2762   2.604   6.484   6.663
  621SOL    HW2 2763   2.702   6.354   6.665
  622SOL     OW 2764   1.427   1.020   6.217
  622SOL    HW1 2765   1.512   1.073   6.210
  622SOL    HW2 2766   1.418   0.982   6.309
  623SOL     OW 2767   0.677   5.363   5.877
  623SOL    HW1 2768   0.626   5.416   5.809
  623SOL    HW2 2769   0.775   5.372   5.860
  624SOL     OW 2770   0.056   2.562   0.618
  624SOL    HW1 2771   0.121   2.628   0.655
  624SOL    HW2 2772   0.083   2.470   0.648
  625SOL     OW 2773   2.275   1.172   1.278
  625SOL    HW1 2774   2.257   1.228   1.197
  625SOL    HW2 2775   2.208   1.193   1.349
  626SOL     OW 2776   2.480   5.797   3.427
  626SOL    HW1 2777   2.410   5.864   3.403
  626SOL    HW2 2778   2.448   5.706   3.400
  627SOL     OW 2779   5.261   6.959   0.272
  627SOL    HW1 2780   5.176   6.966   0.220
  627SOL    HW2 2781   5.320   6.891   0.229
  628SOL     OW 2782   6.178   5.648   5.499
  628SOL    HW1 2783   6.123   5.566   5.508
  628SOL    HW2 2784   6.143   5.719   5.560
  629SOL     OW 2785   0.003   0.194   0.406
  629SOL    HW1 2786   0.062   0.210   0.327
  629SOL    HW2 2787   6.927   0.218   0.382
  630SOL     OW 2788   6.657   1.731   1.976
  630SOL    HW1 2789   6.657   1.743   1.876
  630SOL    HW2 2790   6.710   1.805   2.018
  631SOL     OW 2791   3.184   6.587   4.910
  631SOL    HW1 2792   3.128   6.599   4.991
  631SOL    HW2 2793   3.188   6.489   4.886
  632SOL     OW 2794   2.605   1.463   0.522
  632SOL    HW1 2795   2.539   1.536   0.504
  632SOL    HW2 2796   2.558   1.384   0.561
  633SOL     OW 2797   5.107   4.380   7.012
  633SOL    HW1 2798   5.017   4.405   0.030
  633SOL    HW2 2799   5.150   4.313   0.053
  634SOL     OW 2800   4.733   4.397   1.885
  634SOL    HW1 2801   4.641   4.370   1.915
  634SOL    HW2 2802   4.725   4.478   1.827
  635SOL     OW 2803   4.587   4.940   0.957
  635SOL    HW1 2804   4.635   5.000   0.893
  635SOL    HW2 2805   4.533   4.994   1.021
  636SOL     OW 2806   4.507   5.585   6.476
  636SOL    HW1 2807   4.556   5.639   6.407
  636SOL    HW2 2808   4.439   5.528   6.430
  637SOL     OW 2809   6.296   3.652   2.346
  637SOL    HW1 2810   6.368   3.652   2.416
  637SOL    HW2 2811   6.328   3.700   2.265
  638SOL     OW 2812   5.491   2.527   2.212
  638SOL    HW1 2813   5.584   2.555   2.187
  638SOL    HW2 2814   5.470   2.561   2.304
  639SOL     OW 2815   5.299   4.204   2.789
  639SOL    HW1 2816   5.320   4.261   2.710
  639SOL    HW2 2817   5.300   4.259   2.872
  640SOL     OW 2818   0.807   4.833   4.173
  640SOL    HW1 2819   0.774   4.754   4.122
  640SOL    HW2 2820   0.803   4.815   4.271
  641SOL     OW 2821   0.539   5.777   4.338
  641SOL    HW1 2822   0.509   5.871   4.321
  641SOL    HW2 2823   0.498   5.743   4.422
  642SOL     OW 2824   0.167   3.628   4.816
  642SOL    HW1 2825   0.193   3.630   4.912
  642SOL    HW2 2826   0.239   3.583   4.763
  643SOL     OW 2827   4.997   5.574   5.138
  643SOL    HW1 2828   4.925   5.616   5.083
  643SOL    HW2 2829   4.973   5.479   5.158
  644SOL     OW 2830   1.326   6.262   4.178
  644SOL    HW1 2831   1.415   6.283   4.136
  644SOL    HW2 2832   1.279   6.347   4.200
  645SOL     OW 2833   5.608   1.440   4.506
  645SOL    HW1 2834   5.509   1.449   4.494
  645SOL    HW2 2835   5.651   1.530   4.493
  646SOL     OW 2836   3.141   1.192   3.462
  646SOL    HW1 2837   3.175   1.140   3.541
  646SOL    HW2 2838   3.180   1.154   3.378
  647SOL     OW 2839   5.322   2.126   5.453
  647SOL    HW1 2840   5.394   2.159   5.393
  647SOL    HW2 2841   5.276   2.203   5.496
  648SOL     OW 2842   6.660   3.962   3.432
  648SOL    HW1 2843   6.676   4.008   3.519
  648SOL    HW2 2844   6.562   3.964   3.410
  649SOL     OW 2845   3.748   3.950   0.245
  649SOL    HW1 2846   3.827   3.913   0.294
  649SOL    HW2 2847   3.678   3.979   0.310
  650SOL     OW 2848   5.901   4.889   0.838
  650SOL    HW1 2849   5.913   4.817   0.906
  650SOL    HW2 2850   5.806   4.889   0.807
  651SOL     OW 2851   6.531   6.398   6.779
  651SOL    HW1 2852   6.584   6.403   6.863
  651SOL    HW2 2853   6.592   6.379   6.702
  652SOL     OW 2854   5.537   6.049   3.859
  652SOL    HW1 2855   5.600   5.971   3.866
  652SOL    HW2 2856   5.445   6.015   3.839
  653SOL     OW 2857   3.290   6.639   4.661
  653SOL    HW1 2858   3.246   6.615   4.748
  653SOL    HW2 2859   3.288   6.559   4.601
  654SOL     OW 2860   0.127   3.942   5.481
  654SOL    HW1 2861   0.109   3.939   5.382
  654SOL    HW2 2862   0.090   3.860   5.524
  655SOL     OW 2863   0.802   0.000   1.714
  655SOL    HW1 2864   0.765   6.947   1.772
  655SOL    HW2 2865   0.895   0.023   1.744
  656SOL     OW 2866   1.764   6.010   1.515
  656SOL    HW1 2867   1.792   5.937   1.452
  656SOL    HW2 2868   1.797   5.990   1.607
  657SOL     OW 2869   1.518   2.131   2.047
  657SOL    HW1 2870   1.482   2.198   1.982
  657SOL    HW2 2871   1.562   2.180   2.123
  658SOL     OW 2872   2.797   3.549   6.711
  658SOL    HW1 2873   2.774   3.451   6.710
  658SOL    HW2 2874   2.821   3.577   6.804
  659SOL     OW 2875   2.286   5.950   5.721
  659SOL    HW1 2876   2.291   5.852   5.742
  659SOL    HW2 2877   2.347   5.971   5.645
  660SOL     OW 2878   4.976   4.387   2.058
  660SOL    HW1 2879   4.894   4.405   2.003
  660SOL    HW2 2880   5.020   4.474   2.080
  661SOL     OW 2881   4.084   5.912   3.715
  661SOL    HW1 2882   4.023   5.841   3.751
  661SOL    HW2 2883   4.050   6.002   3.741
  662SOL     OW 2884   4.038   0.589   5.520
  662SOL    HW1 2885   4.061   0.686   5.513
  662SOL    HW2 2886   4.001   0.557   5.432
  663SOL     OW 2887   2.410   4.012   6.339
  663SOL    HW1 2888   2.362   4.088   6.383
  663SOL    HW2 2889   2.470   4.048   6.267
  664SOL     OW 2890   0.102   5.788   5.944
  664SOL    HW1 2891   0.086   5.885   5.927
  664SOL    HW2 2892   0.084   5.767   6.040
  665SOL     OW 2893   4.658   5.398   1.959
  665SOL    HW1 2894   4.672   5.300   1.942
  665SOL    HW2 2895   4.591   5.411   2.032
  666SOL     OW 2896   5.632   2.225   2.174
  666SOL    HW1 2897   5.687   2.301   2.139
  666SOL    HW2 2898   5.536   2.242   2.155
  667SOL     OW 2899   1.451   4.499   3.312
  667SOL    HW1 2900   1.440   4.556   3.231
  667SOL    HW2 2901   1.423   4.406   3.292
  668SOL     OW 2902   4.944   6.351   5.811
  668SOL    HW1 2903   4.866   6.290   5.824
  668SOL    HW2 2904   5.027   6.305   5.843
  669SOL     OW 2905   4.552   0.541   2.684
  669SOL    HW1 2906   4.527   0.541   2.781
  669SOL    HW2 2907   4.476   0.578   2.630
  670SOL     OW 2908   3.218   2.622   1.759
  670SOL    HW1 2909   3.258   2.701   1.806
  670SOL    HW2 2910   3.270   2.540   1.780
  671SOL     OW 2911   2.263   6.604   0.550
  671SOL    HW1 2912   2.335   6.619   0.618
  671SOL    HW2 2913   2.278   6.663   0.471
  672SOL     OW 2914   0.232   5.265   1.677
  672SOL    HW1 2915   0.302   5.250   1.747
  672SOL    HW2 2916   0.274   5.307   1.597
  673SOL     OW 2917   6.872   0.124   1.438
  673SOL    HW1 2918   6.788   0.138   1.490
  673SOL    HW2 2919   6.872   0.182   1.357
  674SOL     OW 2920   0.778   1.282   5.299
  674SOL    HW1 2921   0.735   1.239   5.220
  674SOL    HW2 2922   0.763   1.381   5.295
  675SOL     OW 2923   0.393   1.094   2.660
  675SOL    HW1 2924   0.420   1.020   2.599
  675SOL    HW2 2925   0.363   1.056   2.748
  676SOL     OW 2926   3.501   5.572   2.432
  676SOL    HW1 2927   3.419   5.532   2.472
  676SOL    HW2 2928   3.581   5.546   2.486
  677SOL     OW 2929   5.461   1.618   0.694
  677SOL    HW1 2930   5.401   1.658   0.764
  677SOL    HW2 2931   5.405   1.580   0.621
  678SOL     OW 2932   2.532   0.030   5.384
  678SOL    HW1 2933   2.518   0.016   5.482
  678SOL    HW2 2934   2.444   0.039   5.338
  679SOL     OW 2935   4.562   2.474   3.395
  679SOL    HW1 2936   4.466   2.458   3.375
  679SOL    HW2 2937   4.605   2.520   3.317
  680SOL     OW 2938   5.664   5.367   5.150
  680SOL    HW1 2939   5.617   5.423   5.083
  680SOL    HW2 2940   5.629   5.387   5.241
  681SOL     OW 2941   4.923   4.775   1.760
  681SOL    HW1 2942   4.882   4.729   1.681
  681SOL    HW2 2943   4.973   4.856   1.729
  682SOL     OW 2944   6.323   1.068   1.395
  682SOL    HW1 2945   6.375   1.150   1.373
  682SOL    HW2 2946   6.327   1.004   1.318
  683SOL     OW 2947   4.963   3.149   0.376
  683SOL    HW1 2948   4.892   3.156   0.446
  683SOL    HW2 2949   4.942   3.072   0.315
  684SOL     OW 2950   6.590   0.925   0.451
  684SOL    HW1 2951   6.576   0.915   0.352
  684SOL    HW2 2952   6.606   0.835   0.491
  685SOL     OW 2953   4.403   1.643   3.668
  685SOL    HW1 2954   4.428   1.692   3.751
  685SOL    HW2 2955   4.352   1.704   3.608
  686SOL     OW 2956   4.857   2.578   3.916
  686SOL    HW1 2957   4.952   2.603   3.932
  686SOL    HW2 2958   4.808   2.575   4.003
  687SOL     OW 2959   0.429   2.509   4.668
  687SOL    HW1 2960   0.435   2.565   4.750
  687SOL    HW2 2961   0.337   2.517   4.629
  688SOL     OW 2962   0.123   1.740   0.009
  688SOL    HW1 2963   0.199   1.704   6.974
  688SOL    HW2 2964   0.063   1.665   0.036
  689SOL     OW 2965   0.840   4.735   6.364
  689SOL    HW1 2966   0.846   4.637   6.383
  689SOL    HW2 2967   0.783   4.749   6.282
  690SOL     OW 2968   0.209   3.342   2.919
  690SOL    HW1 2969   0.229   3.249   2.889
  690SOL    HW2 2970   0.118   3.344   2.961
  691SOL     OW 2971   2.688   0.804   0.518
  691SOL    HW1 2972   2.628   0.752   0.456
  691SOL    HW2 2973   2.683   0.901   0.495
  692SOL     OW 2974   3.978   0.572   3.549
  692SOL    HW1 2975   4.051   0.512   3.584
  692SOL    HW2 2976   3.968   0.651   3.609
  693SOL     OW 2977   5.599   0.476   4.196
  693SOL    HW1 2978   5.683   0.532   4.199
  693SOL    HW2 2979   5.601   0.418   4.115
  694SOL     OW 2980   4.315   6.955   4.228
  694SOL    HW1 2981   4.248   6.936   4.157
  694SOL    HW2 2982   4.405   6.969   4.186
  695SOL     OW 2983   4.769   6.319   4.413
  695SOL    HW1 2984   4.827   6.343   4.491
  695SOL    HW2 2985   4.801   6.369   4.332
  696SOL     OW 2986   4.552   4.986   3.175
  696SOL    HW1 2987   4.574   4.890   3.162
  696SOL    HW2 2988   4.607   5.041   3.112
  697SOL     OW 2989   1.352   3.992   3.307
  697SOL    HW1 2990   1.283   3.965   3.240
  697SOL    HW2 2991   1.423   3.921   3.312
  698SOL     OW 2992   4.468   6.416   1.086
  698SOL    HW1 2993   4.423   6.504   1.068
  698SOL    HW2 2994   4.400   6.344   1.092
  699SOL     OW 2995   1.841   3.961   6.586
  699SOL    HW1 2996   1.871   3.937   6.678
  699SOL    HW2 2997   1.894   4.039   6.553
  700SOL     OW 2998   2.579   0.768   1.994
  700SOL    HW1 2999   2.670   0.770   2.037
  700SOL    HW2 3000   2.526   0.847   2.024
  701SOL     OW 3001   6.383   3.725   6.761
  701SOL    HW1 3002   6.322   3.783   6.707
  701SOL    HW2 3003   6.331   3.685   6.837
  702SOL     OW 3004   1.634   6.459   4.969
  702SOL    HW1 3005   1.592   6.499   5.050
  702SOL    HW2 3006   1.595   6.502   4.887
  703SOL     OW 3007   3.510   2.982   6.491
  703SOL    HW1 3008   3.497   3.079   6.469
  703SOL    HW2 3009   3.428   2.931   6.466
  704SOL     OW 3010   1.518   2.844   0.002
  704SOL    HW1 3011   1.459   2.780   6.972
  704SOL    HW2 3012   1.484   2.937   7.009
  705SOL     OW 3013   6.111   5.042   2.947
  705SOL    HW1 3014   6.172   5.113   2.913
  705SOL    HW2 3015   6.110   5.044   3.047
  706SOL     OW 3016   4.276   2.115   5.182
  706SOL    HW1 3017   4.324   2.080   5.101
  706SOL    HW2 3018   4.253   2.039   5.242
  707SOL     OW 3019   4.326   4.662   3.038
  707SOL    HW1 3020   4.325   4.563   3.023
  707SOL    HW2 3021   4.415   4.689   3.076
  708SOL     OW 3022   3.216   0.884   2.330
  708SOL    HW1 3023   3.173   0.906   2.417
  708SOL    HW2 3024   3.171   0.934   2.256
  709SOL     OW 3025   0.336   5.971   0.719
  709SOL    HW1 3026   0.340   5.886   0.772
  709SOL    HW2 3027   0.429   6.004   0.704
  710SOL     OW 3028   3.572   2.471   1.237
  710SOL    HW1 3029   3.580   2.409   1.315
  710SOL    HW2 3030   3.576   2.566   1.269
  711SOL     OW 3031   0.008   3.098   5.940
  711SOL    HW1 3032   0.062   3.059   5.866
  711SOL    HW2 3033   0.013   3.039   6.021
  712SOL     OW 3034   3.953   1.978   1.181
  712SOL    HW1 3035   4.048   2.003   1.163
  712SOL    HW2 3036   3.928   2.008   1.273
  713SOL     OW 3037   3.924   2.731   6.188
  713SOL    HW1 3038   3.910   2.714   6.090
  713SOL    HW2 3039   3.945   2.828   6.202
  714SOL     OW 3040   0.709   4.552   3.252
  714SOL    HW1 3041   0.774   4.531   3.325
  714SOL    HW2 3042   0.620   4.575   3.291
  715SOL     OW 3043   4.941   6.423   0.030
  715SOL    HW1 3044   4.885   6.498   0.064
  715SOL    HW2 3045   5.010   6.459   6.986
  716SOL     OW 3046   0.393   0.984   2.268
  716SOL    HW1 3047   0.442   0.981   2.180
  716SOL    HW2 3048   0.344   1.071   2.275
  717SOL     OW 3049   6.240   4.467   3.555
  717SOL    HW1 3050   6.269   4.477   3.650
  717SOL    HW2 3051   6.319   4.446   3.498
  718SOL     OW 3052   4.228   3.291   6.312
  718SOL    HW1 3053   4.328   3.284   6.318
  718SOL    HW2 3054   4.198   3.265   6.220
  719SOL     OW 3055   6.933   0.523   2.959
  719SOL    HW1 3056   6.850   0.466   2.954
  719SOL    HW2 3057   7.013   0.464   2.950
  720SOL     OW 3058   2.357   0.288   6.071
  720SOL    HW1 3059   2.337   0.235   5.989
  720SOL    HW2 3060   2.287   0.359   6.083
  721SOL     OW 3061   2.915   1.698   2.634
  721SOL    HW1 3062   2.951   1.713   2.543
  721SOL    HW2 3063   2.817   1.677   2.629
  722SOL     OW 3064   2.658   0.403   5.296
  722SOL    HW1 3065   2.646   0.321   5.241
  722SOL    HW2 3066   2.605   0.478   5.257
  723SOL     OW 3067   1.536   4.636   3.707
  723SOL    HW1 3068   1.480   4.570   3.657
  723SOL    HW2 3069   1.614   4.663   3.651
  724SOL     OW 3070   1.009   1.632   4.137
  724SOL    HW1 3071   0.970   1.723   4.152
  724SOL    HW2 3072   1.053   1.629   4.047
  725SOL     OW 3073   1.779   5.550   1.994
  725SOL    HW1 3074   1.744   5.573   1.903
  725SOL    HW2 3075   1.708   5.568   2.062
  726SOL     OW 3076   3.664   4.276   1.462
  726SOL    HW1 3077   3.760   4.251   1.466
  726SOL    HW2 3078   3.655   4.365   1.417
  727SOL     OW 3079   6.217   4.593   5.245
  727SOL    HW1 3080   6.189   4.520   5.306
  727SOL    HW2 3081   6.309   4.624   5.269
  728SOL     OW 3082   6.442   2.510   3.311
  728SOL    HW1 3083   6.398   2.482   3.396
  728SOL    HW2 3084   6.393   2.588   3.272
  729SOL     OW 3085   0.331   1.812   1.179
  729SOL    HW1 3086   0.283   1.854   1.256
  729SOL    HW2 3087   0.429   1.826   1.189
  730SOL     OW 3088   6.603   6.974   4.430
  730SOL    HW1 3089   6.568   6.889   4.470
  730SOL    HW2 3090   6.548   6.998   4.350
  731SOL     OW 3091   4.925   5.351   6.774
  731SOL    HW1 3092   4.980   5.321   6.852
  731SOL    HW2 3093   4.886   5.272   6.728
  732SOL     OW 3094   5.338   2.727   1.366
  732SOL    HW1 3095   5.343   2.776   1.453
  732SOL    HW2 3096   5.283   2.779   1.301
  733SOL     OW 3097   5.286   0.282   3.977
  733SOL    HW1 3098   5.307   0.234   4.062
  733SOL    HW2 3099   5.354   0.354   3.963
  734SOL     OW 3100   6.040   4.594   3.027
  734SOL    HW1 3101   6.111   4.637   2.971
  734SOL    HW2 3102   6.003   4.662   3.090
  735SOL     OW 3103   4.092   1.719   0.507
  735SOL    HW1 3104   4.059   1.800   0.556
  735SOL    HW2 3105   4.016   1.675   0.461
  736SOL     OW 3106   0.164   2.087   3.604
  736SOL    HW1 3107   0.160   2.091   3.505
  736SOL    HW2 3108   0.217   2.165   3.639
  737SOL     OW 3109   5.522   1.984   5.571
  737SOL    HW1 3110   5.460   2.024   5.503
  737SOL    HW2 3111   5.557   2.056   5.631
  738SOL     OW 3112   2.326   3.820   1.288
  738SOL    HW1 3113   2.287   3.880   1.219
  738SOL    HW2 3114   2.426   3.821   1.280
  739SOL     OW 3115   5.367   0.976   4.400
  739SOL    HW1 3116   5.307   1.040   4.449
  739SOL    HW2 3117   5.449   1.025   4.368
  740SOL     OW 3118   5.790   1.481   1.760
  740SOL    HW1 3119   5.839   1.405   1.717
  740SOL    HW2 3120   5.711   1.445   1.811
  741SOL     OW 3121   2.078   0.064   3.068
  741SOL    HW1 3122   2.077   0.057   3.168
  741SOL    HW2 3123   2.162   0.109   3.039
  742SOL     OW 3124   2.319   6.736   2.449
  742SOL    HW1 3125   2.395   6.795   2.422
  742SOL    HW2 3126   2.332   6.645   2.411
  743SOL     OW 3127   1.093   5.300   3.659
  743SOL    HW1 3128   1.041   5.218   3.680
  743SOL    HW2 3129   1.118   5.301   3.562
  744SOL     OW 3130   5.817   0.561   0.923
  744SOL    HW1 3131   5.836   0.623   0.847
  744SOL    HW2 3132   5.889   0.570   0.992
  745SOL     OW 3133   1.675   5.482   5.262
  745SOL    HW1 3134   1.746   5.552   5.249
  745SOL    HW2 3135   1.613   5.510   5.334
  746SOL     OW 3136   6.150   4.275   6.089
  746SOL    HW1 3137   6.111   4.344   6.150
  746SOL    HW2 3138   6.207   4.212   6.142
  747SOL     OW 3139   3.839   6.529   4.368
  747SOL    HW1 3140   3.821   6.450   4.309
  747SOL    HW2 3141   3.924   6.514   4.418
  748SOL     OW 3142   3.940   5.163   2.391
  748SOL    HW1 3143   3.891   5.140   2.307
  748SOL    HW2 3144   4.037   5.178   2.370
  749SOL     OW 3145   6.212   3.695   3.789
  749SOL    HW1 3146   6.247   3.644   3.867
  749SOL    HW2 3147   6.163   3.776   3.820
  750SOL     OW 3148   2.526   1.219   1.362
  750SOL    HW1 3149   2.435   1.203   1.322
  750SOL    HW2 3150   2.586   1.143   1.338
  751SOL     OW 3151   4.388   1.534   6.708
  751SOL    HW1 3152   4.389   1.624   6.664
  751SOL    HW2 3153   4.409   1.545   6.805
  752SOL     OW 3154   2.720   2.284   1.153
  752SOL    HW1 3155   2.645   2.221   1.172
  752SOL    HW2 3156   2.685   2.368   1.113
  753SOL     OW 3157   1.172   3.789   6.280
  753SOL    HW1 3158   1.113   3.866   6.256
  753SOL    HW2 3159   1.197   3.794   6.376
  754SOL     OW 3160   4.690   2.155   5.938
  754SOL    HW1 3161   4.781   2.121   5.963
  754SOL    HW2 3162   4.695   2.253   5.919
  755SOL     OW 3163   1.569   4.237   5.076
  755SOL    HW1 3164   1.612   4.178   5.008
  755SOL    HW2 3165   1.563   4.330   5.041
  756SOL     OW 3166   2.757   6.211   6.607
  756SOL    HW1 3167   2.784   6.125   6.649
  756SOL    HW2 3168   2.826   6.239   6.540
  757SOL     OW 3169   0.478   6.973   4.183
  757SOL    HW1 3170   0.506   6.986   4.088
  757SOL    HW2 3171   0.534   6.902   4.225
  758SOL     OW 3172   3.858   0.571   3.213
  758SOL    HW1 3173   3.778   0.588   3.271
  758SOL    HW2 3174   3.879   0.473   3.214
  759SOL     OW 3175   0.691   2.646   2.012
  759SOL    HW1 3176   0.714   2.552   1.987
  759SOL    HW2 3177   0.593   2.652   2.032
  760SOL     OW 3178   6.237   6.741   4.194
  760SOL    HW1 3179   6.138   6.729   4.205
  760SOL    HW2 3180   6.274   6.664   4.142
  761SOL     OW 3181   5.410   3.667   6.285
  761SOL    HW1 3182   5.479   3.606   6.324
  761SOL    HW2 3183   5.452   3.755   6.264
  762SOL     OW 3184   2.617   0.185   5.147
  762SOL    HW1 3185   2.622   0.112   5.215
  762SOL    HW2 3186   2.538   0.169   5.087
  763SOL     OW 3187   3.728   5.546   6.335
  763SOL    HW1 3188   3.652   5.547   6.270
  763SOL    HW2 3189   3.712   5.613   6.407
  764SOL     OW 3190   5.511   0.870   5.867
  764SOL    HW1 3191   5.553   0.951   5.911
  764SOL    HW2 3192   5.412   0.878   5.872
  765SOL     OW 3193   1.451   5.787   1.575
  765SOL    HW1 3194   1.451   5.703   1.520
  765SOL    HW2 3195   1.489   5.862   1.521
  766SOL     OW 3196   2.438   2.082   6.016
  766SOL    HW1 3197   2.502   2.134   6.073
  766SOL    HW2 3198   2.438   1.986   6.045
  767SOL     OW 3199   6.548   6.000   3.404
  767SOL    HW1 3200   6.561   5.987   3.503
  767SOL    HW2 3201   6.598   6.081   3.374
  768SOL     OW 3202   2.141   5.061   2.741
  768SOL    HW1 3203   2.136   5.046   2.840
  768SOL    HW2 3204   2.059   5.023   2.698
  769SOL     OW 3205   2.419   1.228   5.750
  769SOL    HW1 3206   2.423   1.328   5.748
  769SOL    HW2 3207   2.511   1.191   5.748
  770SOL     OW 3208   1.810   5.258   3.424
  770SOL    HW1 3209   1.832   5.168   3.462
  770SOL    HW2 3210   1.711   5.264   3.408
  771SOL     OW 3211   1.146   5.031   2.793
  771SOL    HW1 3212   1.080   5.101   2.819
  771SOL    HW2 3213   1.187   4.992   2.875
  772SOL     OW 3214   5.414   4.784   6.249
  772SOL    HW1 3215   5.387   4.689   6.267
  772SOL    HW2 3216   5.366   4.817   6.167
  773SOL     OW 3217   0.383   4.512   3.602
  773SOL    HW1 3218   0.346   4.422   3.626
  773SOL    HW2 3219   0.450   4.540   3.671
  774SOL     OW 3220   1.683   0.899   1.412
  774SOL    HW1 3221   1.651   0.888   1.507
  774SOL    HW2 3222   1.619   0.852   1.351
  775SOL     OW 3223   2.259   2.208   4.355
  775SOL    HW1 3224   2.268   2.123   4.407
  775SOL    HW2 3225   2.318   2.278   4.396
  776SOL     OW 3226   0.070   0.404   5.465
  776SOL    HW1 3227   0.097   0.395   5.369
  776SOL    HW2 3228   6.990   0.416   5.471
  777SOL     OW 3229   1.382   4.908   0.560
  777SOL    HW1 3230   1.395   4.939   0.654
  777SOL    HW2 3231   1.471   4.895   0.516
  778SOL     OW 3232   2.156   0.571   1.858
  778SOL    HW1 3233   2.115   0.626   1.785
  778SOL    HW2 3234   2.255   0.577   1.853
  779SOL     OW 3235   0.054   2.527   2.441
  779SOL    HW1 3236   0.046   2.578   2.355
  779SOL    HW2 3237   0.149   2.497   2.452
  780SOL     OW 3238   0.867   2.849   4.462
  780SOL    HW1 3239   0.807   2.775   4.489
  780SOL    HW2 3240   0.831   2.893   4.380
  781SOL     OW 3241   5.985   6.265   0.445
  781SOL    HW1 3242   6.052   6.200   0.411
  781SOL    HW2 3243   5.925   6.294   0.371
  782SOL     OW 3244   0.991   3.439   6.320
  782SOL    HW1 3245   0.986   3.342   6.298
  782SOL    HW2 3246   1.033   3.489   6.244
  783SOL     OW 3247   5.068   4.653   2.042
  783SOL    HW1 3248   5.036   4.666   1.948
  783SOL    HW2 3249   5.167   4.643   2.042
  784SOL     OW 3250   4.200   4.791   0.395
  784SOL    HW1 3251   4.250   4.821   0.313
  784SOL    HW2 3252   4.265   4.756   0.463
  785SOL     OW 3253   0.165   2.106   3.311
  785SOL    HW1 3254   0.123   2.016   3.301
  785SOL    HW2 3255   0.094   2.176   3.305
  786SOL     OW 3256   0.551   0.087   2.933
  786SOL    HW1 3257   0.619   0.137   2.987
  786SOL    HW2 3258   0.459   0.121   2.954
  787SOL     OW 3259   1.107   0.804   0.075
  787SOL    HW1 3260   1.120   0.729   0.010
  787SOL    HW2 3261   1.042   0.870   0.037
  788SOL     OW 3262   3.807   1.379   0.906
  788SOL    HW1 3263   3.869   1.374   0.984
  788SOL    HW2 3264   3.857   1.407   0.824
  789SOL     OW 3265   4.215   4.325   1.705
  789SOL    HW1 3266   4.260   4.363   1.625
  789SOL    HW2 3267   4.281   4.274   1.760
  790SOL     OW 3268   1.927   1.652   2.943
  790SOL    HW1 3269   1.972   1.741   2.956
  790SOL    HW2 3270   1.869   1.633   3.022
  791SOL     OW 3271   1.777   6.125   4.608
  791SOL    HW1 3272   1.857   6.167   4.650
  791SOL    HW2 3273   1.706   6.195   4.594
  792SOL     OW 3274   0.912   1.135   1.802
  792SOL    HW1 3275   0.840   1.066   1.805
  792SOL    HW2 3276   0.899   1.200   1.878
  793SOL     OW 3277   5.155   5.403   4.290
  793SOL    HW1 3278   5.066   5.358   4.295
  793SOL    HW2 3279   5.179   5.440   4.380
  794SOL     OW 3280   2.929   3.870   5.870
  794SOL    HW1 3281   2.972   3.781   5.851
  794SOL    HW2 3282   2.988   3.943   5.837
  795SOL     OW 3283   3.978   0.390   4.837
  795SOL    HW1 3284   3.971   0.372   4.739
  795SOL    HW2 3285   4.070   0.422   4.858
  796SOL     OW 3286   1.141   2.542   6.452
  796SOL    HW1 3287   1.174   2.619   6.397
  796SOL    HW2 3288   1.184   2.457   6.420
  797SOL     OW 3289   5.092   0.951   1.096
  797SOL    HW1 3290   5.093   1.050   1.108
  797SOL    HW2 3291   5.185   0.915   1.110
  798SOL     OW 3292   3.616   6.706   2.033
  798SOL    HW1 3293   3.686   6.761   1.988
  798SOL    HW2 3294   3.551   6.766   2.078
  799SOL     OW 3295   0.200   0.063   6.079
  799SOL    HW1 3296   0.115   0.010   6.086
  799SOL    HW2 3297   0.233   0.085   6.170
  800SOL     OW 3298   5.725   0.953   2.423
  800SOL    HW1 3299   5.736   0.971   2.325
  800SOL    HW2 3300   5.718   1.041   2.472
  801SOL     OW 3301   2.387   4.433   4.414
  801SOL    HW1 3302   2.329   4.514   4.413
  801SOL    HW2 3303   2.449   4.436   4.335
  802SOL     OW 3304   2.837   1.774   0.942
  802SOL    HW1 3305   2.828   1.696   0.881
  802SOL    HW2 3306   2.923   1.767   0.993
  803SOL     OW 3307   1.707   0.379   5.948
  803SOL    HW1 3308   1.745   0.295   5.910
  803SOL    HW2 3309   1.641   0.357   6.019
  804SOL     OW 3310   6.024   6.464   0.732
  804SOL    HW1 3311   6.017   6.399   0.656
  804SOL    HW2 3312   6.088   6.537   0.706
  805SOL     OW 3313   2.560   1.091   4.417
  805SOL    HW1 3314   2.611   1.175   4.435
  805SOL    HW2 3315   2.527   1.053   4.503
  806SOL     OW 3316   5.551   1.066   4.683
  806SOL    HW1 3317   5.588   1.111   4.602
  806SOL    HW2 3318   5.560   1.126   4.762
  807SOL     OW 3319   0.275   0.603   5.216
  807SOL    HW1 3320   0.253   0.530   5.280
  807SOL    HW2 3321   0.218   0.594   5.134
  808SOL     OW 3322   3.930   4.257   6.710
  808SOL    HW1 3323   3.893   4.252   6.617
  808SOL    HW2 3324   3.907   4.174   6.760
  809SOL     OW 3325   0.776   5.029   0.968
  809SOL    HW1 3326   0.847   5.069   0.909
  809SOL    HW2 3327   0.741   5.100   1.029
  810SOL     OW 3328   3.657   4.035   0.548
  810SOL    HW1 3329   3.671   4.134   0.540
  810SOL    HW2 3330   3.559   4.015   0.539
  811SOL     OW 3331   5.674   5.965   5.169
  811SOL    HW1 3332   5.630   5.887   5.214
  811SOL    HW2 3333   5.773   5.962   5.186
  812SOL     OW 3334   0.132   0.817   3.136
  812SOL    HW1 3335   0.087   0.887   3.080
  812SOL    HW2 3336   0.070   0.789   3.210
  813SOL     OW 3337   3.719   6.809   3.938
  813SOL    HW1 3338   3.749   6.847   4.026
  813SOL    HW2 3339   3.721   6.880   3.868
  814SOL     OW 3340   6.492   5.971   2.585
  814SOL    HW1 3341   6.510   6.066   2.559
  814SOL    HW2 3342   6.395   5.960   2.604
  815SOL     OW 3343   6.813   3.199   3.667
  815SOL    HW1 3344   6.791   3.235   3.576
  815SOL    HW2 3345   6.728   3.178   3.715
  816SOL     OW 3346   5.879   5.585   0.769
  816SOL    HW1 3347   5.871   5.533   0.854
  816SOL    HW2 3348   5.820   5.543   0.699
  817SOL     OW 3349   1.449   5.573   1.423
  817SOL    HW1 3350   1.493   5.576   1.333
  817SOL    HW2 3351   1.402   5.485   1.435
  818SOL     OW 3352   6.068   2.644   3.716
  818SOL    HW1 3353   6.064   2.562   3.658
  818SOL    HW2 3354   6.156   2.646   3.763
  819SOL     OW 3355   6.177   3.095   1.642
  819SOL    HW1 3356   6.227   3.175   1.678
  819SOL    HW2 3357   6.081   3.101   1.669
  820SOL     OW 3358   3.110   2.123   4.822
  820SOL    HW1 3359   3.146   2.191   4.885
  820SOL    HW2 3360   3.090   2.039   4.872
  821SOL     OW 3361   6.567   4.135   6.663
  821SOL    HW1 3362   6.570   4.214   6.725
  821SOL    HW2 3363   6.477   4.130   6.621
  822SOL     OW 3364   0.498   3.258   3.283
  822SOL    HW1 3365   0.429   3.302   3.226
  822SOL    HW2 3366   0.468   3.258   3.378
  823SOL     OW 3367   6.064   4.174   5.847
  823SOL    HW1 3368   6.106   4.224   5.923
  823SOL    HW2 3369   6.063   4.076   5.869
  824SOL     OW 3370   3.826   0.684   5.919
  824SOL    HW1 3371   3.851   0.714   6.011
  824SOL    HW2 3372   3.883   0.605   5.894
  825SOL     OW 3373   6.798   5.660   1.517
  825SOL    HW1 3374   6.859   5.581   1.530
  825SOL    HW2 3375   6.747   5.676   1.601
  826SOL     OW 3376   4.039   1.971   5.966
  826SOL    HW1 3377   3.987   1.979   6.050
  826SOL    HW2 3378   4.085   2.058   5.946
  827SOL     OW 3379   2.512   4.446   5.184
  827SOL    HW1 3380   2.537   4.520   5.121
  827SOL    HW2 3381   2.413   4.431   5.179
  828SOL     OW 3382   5.206   6.462   6.290
  828SOL    HW1 3383   5.173   6.493   6.201
  828SOL    HW2 3384   5.245   6.540   6.340
  829SOL     OW 3385   4.165   3.320   2.392
  829SOL    HW1 3386   4.149   3.376   2.474
  829SOL    HW2 3387   4.263   3.302   2.383
  830SOL     OW 3388   5.451   4.971   6.662
  830SOL    HW1 3389   5.496   5.022   6.588
  830SOL    HW2 3390   5.377   4.915   6.624
  831SOL     OW 3391   5.884   6.736   0.294
  831SOL    HW1 3392   5.869   6.645   0.255
  831SOL    HW2 3393   5.960   6.780   0.246
  832SOL     OW 3394   4.283   1.506   2.957
  832SOL    HW1 3395   4.191   1.532   2.928
  832SOL    HW2 3396   4.279   1.421   3.010
  833SOL     OW 3397   1.408   3.488   6.554
  833SOL    HW1 3398   1.356   3.564   6.593
  833SOL    HW2 3399   1.505   3.503   6.569
  834SOL     OW 3400   4.844   3.791   1.008
  834SOL    HW1 3401   4.747   3.798   1.030
  834SOL    HW2 3402   4.875   3.697   1.020
  835SOL     OW 3403   3.466   0.432   5.524
  835SOL    HW1 3404   3.411   0.462   5.446
  835SOL    HW2 3405   3.557   0.473   5.518
  836SOL     OW 3406   3.770   0.067   4.666
  836SOL    HW1 3407   3.704   0.009   4.618
  836SOL    HW2 3408   3.737   0.161   4.666
  837SOL     OW 3409   6.628   0.576   1.120
  837SOL    HW1 3410   6.713   0.596   1.071
  837SOL    HW2 3411   6.639   0.494   1.176
  838SOL     OW 3412   2.268   0.184   4.675
  838SOL    HW1 3413   2.172   0.175   4.647
  838SOL    HW2 3414   2.318   0.101   4.651
  839SOL     OW 3415   2.043   1.406   1.899
  839SOL    HW1 3416   1.996   1.323   1.870
  839SOL    HW2 3417   2.110   1.383   1.969
  840SOL     OW 3418   6.450   5.894   0.146
  840SOL    HW1 3419   6.390   5.935   0.077
  840SOL    HW2 3420   6.430   5.797   0.153
  841SOL     OW 3421   3.212   5.184   6.106
  841SOL    HW1 3422   3.209   5.235   6.020
  841SOL    HW2 3423   3.305   5.184   6.142
  842SOL     OW 3424   3.711   0.207   5.260
  842SOL    HW1 3425   3.652   0.228   5.181
  842SOL    HW2 3426   3.654   0.192   5.341
  843SOL     OW 3427   1.008   1.492   1.615
  843SOL    HW1 3428   1.048   1.522   1.529
  843SOL    HW2 3429   1.080   1.452   1.673
  844SOL     OW 3430   6.302   0.354   0.232
  844SOL    HW1 3431   6.379   0.291   0.245
  844SOL    HW2 3432   6.275   0.392   0.320
  845SOL     OW 3433   5.024   3.807   4.103
  845SOL    HW1 3434   4.989   3.718   4.073
  845SOL    HW2 3435   5.116   3.820   4.065
  846SOL     OW 3436   1.983   1.200   6.018
  846SOL    HW1 3437   2.078   1.190   5.988
  846SOL    HW2 3438   1.924   1.140   5.963
  847SOL     OW 3439   1.347   3.584   1.125
  847SOL    HW1 3440   1.332   3.563   1.029
  847SOL    HW2 3441   1.383   3.677   1.133
  848SOL     OW 3442   6.958   6.961   6.156
  848SOL    HW1 3443   6.937   6.881   6.212
  848SOL    HW2 3444   6.897   6.964   6.077
  849SOL     OW 3445   6.194   3.861   6.564
  849SOL    HW1 3446   6.236   3.951   6.570
  849SOL    HW2 3447   6.202   3.827   6.470
  850SOL     OW 3448   5.213   1.182   4.510
  850SOL    HW1 3449   5.202   1.135   4.598
  850SOL    HW2 3450   5.137   1.245   4.496
  851SOL     OW 3451   0.063   2.704   0.930
  851SOL    HW1 3452   0.127   2.742   0.863
  851SOL    HW2 3453   6.992   2.692   0.887
  852SOL     OW 3454   0.672   3.893   0.906
  852SOL    HW1 3455   0.737   3.956   0.947
  852SOL    HW2 3456   0.613   3.943   0.843
  853SOL     OW 3457   0.799   4.771   0.980
  853SOL    HW1 3458   0.806   4.741   1.075
  853SOL    HW2 3459   0.769   4.866   0.977
  854SOL     OW 3460   5.084   5.495   0.687
  854SOL    HW1 3461   5.088   5.558   0.610
  854SOL    HW2 3462   5.080   5.401   0.653
  855SOL     OW 3463   6.733   0.264   1.663
  855SOL    HW1 3464   6.654   0.311   1.623
  855SOL    HW2 3465   6.718   0.251   1.761
  856SOL     OW 3466   1.329   2.073   6.774
  856SOL    HW1 3467   1.326   2.035   6.867
  856SOL    HW2 3468   1.279   2.159   6.772
  857SOL     OW 3469   6.287   4.746   1.876
  857SOL    HW1 3470   6.202   4.700   1.902
  857SOL    HW2 3471   6.339   4.768   1.959
  858SOL     OW 3472   2.910   3.992   1.309
  858SOL    HW1 3473   2.859   4.067   1.351
  858SOL    HW2 3474   2.896   3.909   1.363
  859SOL     OW 3475   5.709   0.181   5.170
  859SOL    HW1 3476   5.720   0.267   5.219
  859SOL    HW2 3477   5.731   0.194   5.073
  860SOL     OW 3478   6.356   2.877   0.593
  860SOL    HW1 3479   6.440   2.823   0.585
  860SOL    HW2 3480   6.277   2.817   0.587
  861SOL     OW 3481   2.730   4.944   3.983
  861SOL    HW1 3482   2.736   4.894   3.897
  861SOL    HW2 3483   2.771   4.889   4.056
  862SOL     OW 3484   1.447   4.205   3.575
  862SOL    HW1 3485   1.526   4.144   3.574
  862SOL    HW2 3486   1.363   4.151   3.585
  863SOL     OW 3487   5.995   0.785   6.661
  863SOL    HW1 3488   5.906   0.807   6.621
  863SOL    HW2 3489   5.989   0.698   6.710
  864SOL     OW 3490   3.752   5.507   4.288
  864SOL    HW1 3491   3.825   5.573   4.272
  864SOL    HW2 3492   3.682   5.516   4.217
  865SOL     OW 3493   1.575   6.865   6.115
  865SOL    HW1 3494   1.531   6.925   6.183
  865SOL    HW2 3495   1.644   6.808   6.160
  866SOL     OW 3496   2.078   1.277   0.931
  866SOL    HW1 3497   2.025   1.329   0.864
  866SOL    HW2 3498   2.147   1.223   0.883
  867SOL     OW 3499   5.126   3.886   0.268
  867SOL    HW1 3500   5.220   3.853   0.273
  867SOL    HW2 3501   5.118   3.955   0.197
  868SOL     OW 3502   5.972   1.394   1.053
  868SOL    HW1 3503   6.020   1.329   1.111
  868SOL    HW2 3504   5.922   1.345   0.981
  869SOL     OW 3505   0.336   4.775   2.933
  869SOL    HW1 3506   0.356   4.683   2.900
  869SOL    HW2 3507   0.297   4.829   2.858
  870SOL     OW 3508   3.585   3.704   0.184
  870SOL    HW1 3509   3.651   3.775   0.157
  870SOL    HW2 3510   3.547   3.661   0.102
  871SOL     OW 3511   5.265   2.567   2.716
  871SOL    HW1 3512   5.301   2.620   2.793
  871SOL    HW2 3513   5.167   2.587   2.705
  872SOL     OW 3514   5.706   3.579   3.979
  872SOL    HW1 3515   5.645   3.637   3.925
  872SOL    HW2 3516   5.651   3.513   4.031
  873SOL     OW 3517   5.568   6.143   5.522
  873SOL    HW1 3518   5.509   6.076   5.567
  873SOL    HW2 3519   5.514   6.219   5.487
  874SOL     OW 3520   0.272   3.865   6.283
  874SOL    HW1 3521   0.235   3.784   6.329
  874SOL    HW2 3522   0.370   3.871   6.300
  875SOL     OW 3523   5.413   4.698   0.625
  875SOL    HW1 3524   5.343   4.753   0.580
  875SOL    HW2 3525   5.370   4.629   0.683
  876SOL     OW 3526   1.001   4.807   2.713
  876SOL    HW1 3527   1.086   4.860   2.714
  876SOL    HW2 3528   0.996   4.755   2.627
  877SOL     OW 3529   3.638   4.876   5.612
  877SOL    HW1 3530   3.648   4.839   5.705
  877SOL    HW2 3531   3.629   4.801   5.547
  878SOL     OW 3532   4.135   6.265   4.578
  878SOL    HW1 3533   4.175   6.196   4.518
  878SOL    HW2 3534   4.202   6.292   4.647
  879SOL     OW 3535   4.337   1.440   1.233
  879SOL    HW1 3536   4.417   1.482   1.275
  879SOL    HW2 3537   4.296   1.375   1.297
  880SOL     OW 3538   2.950   3.655   4.613
  880SOL    HW1 3539   3.032   3.623   4.661
  880SOL    HW2 3540   2.868   3.624   4.662
  881SOL     OW 3541   5.786   3.341   5.649
  881SOL    HW1 3542   5.788   3.253   5.602
  881SOL    HW2 3543   5.865   3.395   5.622
  882SOL     OW 3544   0.994   2.706   4.061
  882SOL    HW1 3545   1.010   2.658   3.975
  882SOL    HW2 3546   0.993   2.640   4.137
  883SOL     OW 3547   3.531   0.726   0.536
  883SOL    HW1 3548   3.512   0.629   0.522
  883SOL    HW2 3549   3.625   0.746   0.507
  884SOL     OW 3550   6.879   4.794   0.388
  884SOL    HW1 3551   6.927   4.865   0.337
  884SOL    HW2 3552   6.820   4.837   0.457
  885SOL     OW 3553   4.504   6.798   5.337
  885SOL    HW1 3554   4.581   6.745   5.302
  885SOL    HW2 3555   4.498   6.885   5.287
  886SOL     OW 3556   4.057   0.747   0.718
  886SOL    HW1 3557   4.079   0.811   0.791
  886SOL    HW2 3558   4.122   0.757   0.643
  887SOL     OW 3559   3.850   5.844   4.042
  887SOL    HW1 3560   3.878   5.777   4.111
  887SOL    HW2 3561   3.851   5.800   3.952
  888SOL     OW 3562   6.925   6.189   3.590
  888SOL    HW1 3563   6.991   6.176   3.664
  888SOL    HW2 3564   6.944   6.276   3.544
  889SOL     OW 3565   6.536   1.087   6.345
  889SOL    HW1 3566   6.521   1.025   6.422
  889SOL    HW2 3567   6.627   1.070   6.306
  890SOL     OW 3568   2.926   5.409   2.971
  890SOL    HW1 3569   2.850   5.451   3.021
  890SOL    HW2 3570   2.923   5.310   2.985
  891SOL     OW 3571   6.656   3.531   0.768
  891SOL    HW1 3572   6.656   3.513   0.866
  891SOL    HW2 3573   6.748   3.558   0.738
  892SOL     OW 3574   3.526   3.136   4.843
  892SOL    HW1 3575   3.441   3.100   4.882
  892SOL    HW2 3576   3.603   3.106   4.899
  893SOL     OW 3577   2.206   6.532   3.014
  893SOL    HW1 3578   2.116   6.559   3.046
  893SOL    HW2 3579   2.198   6.484   2.926
  894SOL     OW 3580   1.118   2.646   2.809
  894SOL    HW1 3581   1.047   2.717   2.810
  894SOL    HW2 3582   1.077   2.558   2.831
  895SOL     OW 3583   1.376   5.235   4.051
  895SOL    HW1 3584   1.321   5.167   4.003
  895SOL    HW2 3585   1.333   5.325   4.042
  896SOL     OW 3586   6.050   5.181   1.388
  896SOL    HW1 3587   5.978   5.249   1.383
  896SOL    HW2 3588   6.137   5.222   1.358
  897SOL     OW 3589   3.995   0.530   6.617
  897SOL    HW1 3590   4.014   0.588   6.696
  897SOL    HW2 3591   3.904   0.550   6.581
  898SOL     OW 3592   4.027   6.201   2.419
  898SOL    HW1 3593   3.974   6.156   2.347
  898SOL    HW2 3594   3.966   6.257   2.475
  899SOL     OW 3595   0.450   5.667   0.259
  899SOL    HW1 3596   0.527   5.729   0.277
  899SOL    HW2 3597   0.432   5.664   0.161
  900SOL     OW 3598   4.878   6.439   6.707
  900SOL    HW1 3599   4.844   6.354   6.747
  900SOL    HW2 3600   4.924   6.420   6.621
  901SOL     OW 3601   1.155   0.822   4.087
  901SOL    HW1 3602   1.209   0.873   4.153
  901SOL    HW2 3603   1.214   0.791   4.012
  902SOL     OW 3604   1.116   2.934   1.305
  902SOL    HW1 3605   1.184   2.863   1.321
  902SOL    HW2 3606   1.155   3.023   1.328
  903SOL     OW 3607   0.423   3.553   0.158
  903SOL    HW1 3608   0.518   3.526   0.144
  903SOL    HW2 3609   0.365   3.472   0.152
  904SOL     OW 3610   2.156   3.030   2.691
  904SOL    HW1 3611   2.212   2.952   2.721
  904SOL    HW2 3612   2.121   3.013   2.599
  905SOL     OW 3613   4.840   4.181   6.380
  905SOL    HW1 3614   4.754   4.188   6.432
  905SOL    HW2 3615   4.829   4.113   6.307
  906SOL     OW 3616   0.824   2.169   6.461
  906SOL    HW1 3617   0.838   2.134   6.553
  906SOL    HW2 3618   0.839   2.095   6.395
  907SOL     OW 3619   4.912   2.456   1.154
  907SOL    HW1 3620   4.980   2.405   1.101
  907SOL    HW2 3621   4.820   2.435   1.120
  908SOL     OW 3622   2.461   4.696   3.133
  908SOL    HW1 3623   2.412   4.707   3.220
  908SOL    HW2 3624   2.532   4.766   3.127
  909SOL     OW 3625   4.151   6.056   1.832
  909SOL    HW1 3626   4.185   6.146   1.859
  909SOL    HW2 3627   4.185   5.987   1.897
  910SOL     OW 3628   3.245   1.453   1.251
  910SOL    HW1 3629   3.262   1.369   1.200
  910SOL    HW2 3630   3.146   1.465   1.261
  911SOL     OW 3631   1.085   5.895   6.749
  911SOL    HW1 3632   1.108   5.885   6.845
  911SOL    HW2 3633   1.153   5.953   6.704
  912SOL     OW 3634   4.917   1.088   3.374
  912SOL    HW1 3635   4.974   1.036   3.310
  912SOL    HW2 3636   4.954   1.079   3.466
  913SOL     OW 3637   2.581   0.652   3.982
  913SOL    HW1 3638   2.551   0.557   3.987
  913SOL    HW2 3639   2.615   0.681   4.072
  914SOL     OW 3640   2.778   6.611   5.196
  914SOL    HW1 3641   2.765   6.534   5.258
  914SOL    HW2 3642   2.795   6.694   5.248
  915SOL     OW 3643   6.713   2.940   0.797
  915SOL    HW1 3644   6.774   3.019   0.801
  915SOL    HW2 3645   6.623   2.967   0.832
  916SOL     OW 3646   2.143   3.313   2.635
  916SOL    HW1 3647   2.158   3.225   2.679
  916SOL    HW2 3648   2.155   3.303   2.536
  917SOL     OW 3649   0.072   6.521   1.856
  917SOL    HW1 3650   0.037   6.559   1.770
  917SOL    HW2 3651   0.171   6.512   1.849
  918SOL     OW 3652   3.411   0.805   1.544
  918SOL    HW1 3653   3.432   0.866   1.620
  918SOL    HW2 3654   3.327   0.837   1.499
  919SOL     OW 3655   6.775   6.877   3.313
  919SOL    HW1 3656   6.785   6.779   3.295
  919SOL    HW2 3657   6.854   6.925   3.275
  920SOL     OW 3658   2.694   4.670   2.744
  920SOL    HW1 3659   2.649   4.759   2.740
  920SOL    HW2 3660   2.761   4.663   2.670
  921SOL     OW 3661   3.839   5.344   3.551
  921SOL    HW1 3662   3.824   5.248   3.530
  921SOL    HW2 3663   3.935   5.367   3.537
  922SOL     OW 3664   3.103   3.482   4.801
  922SOL    HW1 3665   3.035   3.470   4.873
  922SOL    HW2 3666   3.098   3.405   4.738
  923SOL     OW 3667   2.601   4.056   6.128
  923SOL    HW1 3668   2.580   3.958   6.121
  923SOL    HW2 3669   2.581   4.100   6.040
  924SOL     OW 3670   6.606   3.331   2.828
  924SOL    HW1 3671   6.533   3.396   2.805
  924SOL    HW2 3672   6.565   3.246   2.861
  925SOL     OW 3673   6.957   2.342   0.039
  925SOL    HW1 3674   7.014   2.287   0.101
  925SOL    HW2 3675   6.861   2.318   0.053
  926SOL     OW 3676   6.377   0.928   0.810
  926SOL    HW1 3677   6.315   0.886   0.877
  926SOL    HW2 3678   6.338   0.916   0.718
  927SOL     OW 3679   5.548   4.334   3.245
  927SOL    HW1 3680   5.495   4.273   3.187
  927SOL    HW2 3681   5.535   4.429   3.214
  928SOL     OW 3682   1.544   6.251   0.192
  928SOL    HW1 3683   1.526   6.215   0.284
  928SOL    HW2 3684   1.611   6.193   0.146
  929SOL     OW 3685   1.122   0.104   6.889
  929SOL    HW1 3686   1.074   0.136   6.808
  929SOL    HW2 3687   1.097   0.009   6.908
  930SOL     OW 3688   5.042   6.122   4.858
  930SOL    HW1 3689   5.116   6.164   4.911
  930SOL    HW2 3690   5.077   6.042   4.809
  931SOL     OW 3691   6.186   1.729   4.950
  931SOL    HW1 3692   6.207   1.710   5.045
  931SOL    HW2 3693   6.212   1.650   4.894
  932SOL     OW 3694   3.282   0.259   3.767
  932SOL    HW1 3695   3.259   0.272   3.671
  932SOL    HW2 3696   3.255   0.167   3.796
  933SOL     OW 3697   1.998   6.032   3.582
  933SOL    HW1 3698   1.920   5.983   3.542
  933SOL    HW2 3699   2.083   5.995   3.545
  934SOL     OW 3700   1.924   6.581   6.974
  934SOL    HW1 3701   1.968   6.656   6.926
  934SOL    HW2 3702   1.854   6.617   0.017
  935SOL     OW 3703   5.107   4.507   4.222
  935SOL    HW1 3704   5.085   4.409   4.223
  935SOL    HW2 3705   5.022   4.559   4.209
  936SOL     OW 3706   0.134   0.625   6.390
  936SOL    HW1 3707   0.110   0.695   6.323
  936SOL    HW2 3708   0.140   0.667   6.481
  937SOL     OW 3709   5.219   1.562   5.728
  937SOL    HW1 3710   5.202   1.625   5.652
  937SOL    HW2 3711   5.131   1.537   5.770
  938SOL     OW 3712   6.028   5.091   5.683
  938SOL    HW1 3713   5.947   5.042   5.715
  938SOL    HW2 3714   6.105   5.073   5.745
  939SOL     OW 3715   0.119   6.921   4.766
  939SOL    HW1 3716   0.098   7.019   4.777
  939SOL    HW2 3717   0.089   6.891   4.676
  940SOL     OW 3718   1.384   3.439   1.593
  940SOL    HW1 3719   1.351   3.367   1.532
  940SOL    HW2 3720   1.453   3.493   1.547
  941SOL     OW 3721   5.714   1.270   6.467
  941SOL    HW1 3722   5.688   1.237   6.558
  941SOL    HW2 3723   5.810   1.248   6.451
  942SOL     OW 3724   5.860   0.133   3.165
  942SOL    HW1 3725   5.821   0.207   3.219
  942SOL    HW2 3726   5.793   0.102   3.097
  943SOL     OW 3727   1.827   3.457   3.504
  943SOL    HW1 3728   1.776   3.427   3.585
  943SOL    HW2 3729   1.924   3.438   3.517
  944SOL     OW 3730   0.307   4.831   5.992
  944SOL    HW1 3731   0.345   4.919   6.020
  944SOL    HW2 3732   0.257   4.791   6.069
  945SOL     OW 3733   6.622   3.474   5.973
  945SOL    HW1 3734   6.658   3.381   5.983
  945SOL    HW2 3735   6.527   3.477   6.005
  946SOL     OW 3736   5.100   3.876   5.672
  946SOL    HW1 3737   5.124   3.961   5.626
  946SOL    HW2 3738   5.044   3.819   5.611
  947SOL     OW 3739   3.968   3.028   3.518
  947SOL    HW1 3740   3.924   3.109   3.557
  947SOL    HW2 3741   4.037   2.994   3.582
  948SOL     OW 3742   4.760   0.727   2.884
  948SOL    HW1 3743   4.680   0.748   2.828
  948SOL    HW2 3744   4.837   0.705   2.825
  949SOL     OW 3745   1.720   5.825   0.301
  949SOL    HW1 3746   1.657   5.849   0.375
  949SOL    HW2 3747   1.777   5.904   0.278
  950SOL     OW 3748   4.925   5.610   1.978
  950SOL    HW1 3749   5.011   5.642   2.018
  950SOL    HW2 3750   4.904   5.665   1.896
  951SOL     OW 3751   1.343   0.507   4.438
  951SOL    HW1 3752   1.429   0.556   4.424
  951SOL    HW2 3753   1.272   0.546   4.378
  952SOL     OW 3754   4.563   2.195   3.166
  952SOL    HW1 3755   4.656   2.224   3.143
  952SOL    HW2 3756   4.498   2.266   3.140
  953SOL     OW 3757   5.433   5.277   4.470
  953SOL    HW1 3758   5.365   5.249   4.537
  953SOL    HW2 3759   5.432   5.214   4.392
  954SOL     OW 3760   4.113   5.731   1.321
  954SOL    HW1 3761   4.128   5.671   1.400
  954SOL    HW2 3762   4.016   5.730   1.296
  955SOL     OW 3763   0.357   3.693   2.055
  955SOL    HW1 3764   0.384   3.659   1.965
  955SOL    HW2 3765   0.430   3.674   2.121
  956SOL     OW 3766   6.245   0.200   2.138
  956SOL    HW1 3767   6.299   0.255   2.073
  956SOL    HW2 3768   6.198   0.261   2.202
  957SOL     OW 3769   5.569   3.084   3.520
  957SOL    HW1 3770   5.491   3.147   3.525
  957SOL    HW2 3771   5.617   3.098   3.434
  958SOL     OW 3772   4.075   1.300   1.776
  958SOL    HW1 3773   4.146   1.356   1.820
  958SOL    HW2 3774   3.992   1.302   1.832
  959SOL     OW 3775   3.756   6.072   4.153
  959SOL    HW1 3776   3.786   5.984   4.116
  959SOL    HW2 3777   3.824   6.104   4.220
  960SOL     OW 3778   0.550   0.144   2.289
  960SOL    HW1 3779   0.547   0.116   2.385
  960SOL    HW2 3780   0.545   0.244   2.284
  961SOL     OW 3781   4.332   6.464   3.468
  961SOL    HW1 3782   4.295   6.382   3.512
  961SOL    HW2 3783   4.353   6.444   3.373
  962SOL     OW 3784   0.561   1.541   5.433
  962SOL    HW1 3785   0.543   1.452   5.392
  962SOL    HW2 3786   0.521   1.544   5.525
  963SOL     OW 3787   5.188   1.391   6.616
  963SOL    HW1 3788   5.157   1.304   6.653
  963SOL    HW2 3789   5.137   1.466   6.660
  964SOL     OW 3790   5.773   5.010   0.045
  964SOL    HW1 3791   5.868   4.977   0.042
  964SOL    HW2 3792   5.746   5.024   0.140
  965SOL     OW 3793   5.405   2.211   1.585
  965SOL    HW1 3794   5.489   2.191   1.635
  965SOL    HW2 3795   5.373   2.302   1.609
  966SOL     OW 3796   5.653   3.567   2.017
  966SOL    HW1 3797   5.555   3.574   2.036
  966SOL    HW2 3798   5.702   3.632   2.075
  967SOL     OW 3799   2.523   4.134   1.343
  967SOL    HW1 3800   2.542   4.046   1.300
  967SOL    HW2 3801   2.517   4.205   1.273
  968SOL     OW 3802   3.670   0.588   2.287
  968SOL    HW1 3803   3.767   0.614   2.295
  968SOL    HW2 3804   3.613   0.670   2.293
  969SOL     OW 3805   2.271   5.058   5.570
  969SOL    HW1 3806   2.209   5.130   5.600
  969SOL    HW2 3807   2.307   5.080   5.479
  970SOL     OW 3808   5.758   0.900   6.518
  970SOL    HW1 3809   5.729   0.924   6.611
  970SOL    HW2 3810   5.698   0.830   6.481
  971SOL     OW 3811   0.239   2.761   2.334
  971SOL    HW1 3812   0.279   2.679   2.375
  971SOL    HW2 3813   0.150   2.779   2.378
  972SOL     OW 3814   5.723   2.275   1.408
  972SOL    HW1 3815   5.626   2.256   1.398
  972SOL    HW2 3816   5.770   2.258   1.322
  973SOL     OW 3817   0.448   4.996   6.694
  973SOL    HW1 3818   0.477   4.932   6.623
  973SOL    HW2 3819   0.456   5.089   6.660
  974SOL     OW 3820   5.697   6.683   2.730
  974SOL    HW1 3821   5.713   6.597   2.778
  974SOL    HW2 3822   5.602   6.712   2.743
  975SOL     OW 3823   1.780   0.900   6.701
  975SOL    HW1 3824   1.749   0.807   6.680
  975SOL    HW2 3825   1.829   0.937   6.622
  976SOL     OW 3826   6.856   3.757   2.236
  976SOL    HW1 3827   6.947   3.750   2.196
  976SOL    HW2 3828   6.808   3.836   2.197
  977SOL     OW 3829   0.608   0.171   1.775
  977SOL    HW1 3830   0.686   0.118   1.742
  977SOL    HW2 3831   0.523   0.124   1.752
  978SOL     OW 3832   5.647   2.843   5.512
  978SOL    HW1 3833   5.560   2.869   5.469
  978SOL    HW2 3834   5.695   2.778   5.453
  979SOL     OW 3835   0.090   2.542   0.192
  979SOL    HW1 3836   0.071   2.521   0.096
  979SOL    HW2 3837   0.139   2.465   0.233
  980SOL     OW 3838   5.120   1.944   3.689
  980SOL    HW1 3839   5.189   1.965   3.619
  980SOL    HW2 3840   5.165   1.904   3.769
  981SOL     OW 3841   0.418   1.808   4.903
  981SOL    HW1 3842   0.392   1.761   4.819
  981SOL    HW2 3843   0.478   1.885   4.882
  982SOL     OW 3844   1.452   1.944   5.072
  982SOL    HW1 3845   1.449   2.034   5.029
  982SOL    HW2 3846   1.404   1.877   5.015
  983SOL     OW 3847   6.038   2.697   3.309
  983SOL    HW1 3848   5.985   2.709   3.394
  983SOL    HW2 3849   6.136   2.703   3.330
  984SOL     OW 3850   2.852   2.310   4.501
  984SOL    HW1 3851   2.783   2.342   4.566
  984SOL    HW2 3852   2.817   2.319   4.408
  985SOL     OW 3853   6.277   2.945   5.319
  985SOL    HW1 3854   6.275   2.881   5.242
  985SOL    HW2 3855   6.329   3.026   5.292
  986SOL     OW 3856   4.482   4.780   1.362
  986SOL    HW1 3857   4.382   4.785   1.362
  986SOL    HW2 3858   4.519   4.864   1.402
  987SOL     OW 3859   4.858   6.668   2.745
  987SOL    HW1 3860   4.758   6.669   2.749
  987SOL    HW2 3861   4.894   6.760   2.762
  988SOL     OW 3862   3.755   3.762   2.212
  988SOL    HW1 3863   3.756   3.703   2.292
  988SOL    HW2 3864   3.841   3.812   2.206
  989SOL     OW 3865   6.578   1.982   6.544
  989SOL    HW1 3866   6.565   2.039   6.463
  989SOL    HW2 3867   6.675   1.978   6.567
  990SOL     OW 3868   3.953   1.371   2.197
  990SOL    HW1 3869   4.017   1.295   2.195
  990SOL    HW2 3870   4.003   1.456   2.213
  991SOL     OW 3871   0.904   3.612   4.433
  991SOL    HW1 3872   0.949   3.569   4.512
  991SOL    HW2 3873   0.972   3.642   4.367
  992SOL     OW 3874   0.208   3.294   1.292
  992SOL    HW1 3875   0.247   3.217   1.343
  992SOL    HW2 3876   0.202   3.374   1.352
  993SOL     OW 3877   6.919   4.591   0.586
  993SOL    HW1 3878   6.924   4.634   0.496
  993SOL    HW2 3879   6.943   4.658   0.656
  994SOL     OW 3880   3.801   5.118   1.853
  994SOL    HW1 3881   3.888   5.160   1.825
  994SOL    HW2 3882   3.785   5.037   1.797
  995SOL     OW 3883   4.015   2.765   5.691
  995SOL    HW1 3884   4.070   2.837   5.649
  995SOL    HW2 3885   4.076   2.695   5.729
  996SOL     OW 3886   3.099   5.452   4.701
  996SOL    HW1 3887   3.127   5.405   4.618
  996SOL    HW2 3888   2.999   5.445   4.712
  997SOL     OW 3889   0.942   0.037   3.299
  997SOL    HW1 3890   0.983   7.005   3.374
  997SOL    HW2 3891   0.843   0.036   3.307
  998SOL     OW 3892   5.765   0.998   5.360
  998SOL    HW1 3893   5.682   1.001   5.304
  998SOL    HW2 3894   5.755   0.927   5.429
  999SOL     OW 3895   5.385   4.363   2.553
  999SOL    HW1 3896   5.477   4.329   2.532
  999SOL    HW2 3897   5.391   4.458   2.584
 1000SOL     OW 3898   3.722   1.340   1.479
 1000SOL    HW1 3899   3.702   1.319   1.384
 1000SOL    HW2 3900   3.820   1.357   1.490
 1001SOL     OW 3901   4.996   5.900   1.306
 1001SOL    HW1 3902   4.959   5.951   1.228
 1001SOL    HW2 3903   5.029   5.963   1.375
 1002SOL     OW 3904   5.613   1.867   1.441
 1002SOL    HW1 3905   5.556   1.919   1.504
 1002SOL    HW2 3906   5.614   1.913   1.352
 1003SOL     OW 3907   2.230   6.499   2.631
 1003SOL    HW1 3908   2.256   6.579   2.577
 1003SOL    HW2 3909   2.140   6.514   2.673
 1004SOL     OW 3910   0.565   1.030   2.053
 1004SOL    HW1 3911   0.479   1.055   2.007
 1004SOL    HW2 3912   0.631   1.000   1.985
 1005SOL     OW 3913   2.238   2.291   4.062
 1005SOL    HW1 3914   2.259   2.298   4.159
 1005SOL    HW2 3915   2.243   2.195   4.033
 1006SOL     OW 3916   1.365   4.641   0.330
 1006SOL    HW1 3917   1.445   4.675   0.281
 1006SOL    HW2 3918   1.377   4.544   0.351
 1007SOL     OW 3919   4.696   0.697   5.172
 1007SOL    HW1 3920   4.766   0.723   5.239
 1007SOL    HW2 3921   4.607   0.690   5.217
 1008SOL     OW 3922   0.732   2.859   6.048
 1008SOL    HW1 3923   0.663   2.852   6.120
 1008SOL    HW2 3924   0.762   2.953   6.039
 1009SOL     OW 3925   0.351   4.983   4.866
 1009SOL    HW1 3926   0.406   4.902   4.888
 1009SOL    HW2 3927   0.402   5.066   4.891
 1010SOL     OW 3928   2.779   1.750   0.119
 1010SOL    HW1 3929   2.773   1.737   0.020
 1010SOL    HW2 3930   2.857   1.809   0.140
 1011SOL     OW 3931   1.396   5.557   3.174
 1011SOL    HW1 3932   1.490   5.578   3.149
 1011SOL    HW2 3933   1.375   5.600   3.262
 1012SOL     OW 3934   6.779   6.829   2.962
 1012SOL    HW1 3935   6.740   6.912   2.922
 1012SOL    HW2 3936   6.719   6.794   3.033
 1013SOL     OW 3937   1.020   1.922   6.506
 1013SOL    HW1 3938   1.091   1.993   6.504
 1013SOL    HW2 3939   1.003   1.894   6.600
 1014SOL     OW 3940   6.927   4.667   5.463
 1014SOL    HW1 3941   6.933   4.754   5.415
 1014SOL    HW2 3942   7.001   4.607   5.434
 1015SOL     OW 3943   3.011   0.024   6.221
 1015SOL    HW1 3944   3.002   6.957   6.169
 1015SOL    HW2 3945   3.048   0.095   6.161
 1016SOL     OW 3946   4.469   3.676   6.896
 1016SOL    HW1 3947   4.448   3.617   6.974
 1016SOL    HW2 3948   4.507   3.620   6.822
 1017SOL     OW 3949   4.647   2.800   1.285
 1017SOL    HW1 3950   4.551   2.812   1.258
 1017SOL    HW2 3951   4.654   2.728   1.354
 1018SOL     OW 3952   1.092   4.476   4.599
 1018SOL    HW1 3953   1.186   4.442   4.599
 1018SOL    HW2 3954   1.078   4.536   4.520
 1019SOL     OW 3955   7.002   6.777   1.212
 1019SOL    HW1 3956   6.978   6.691   1.257
 1019SOL    HW2 3957   6.925   6.841   1.220
 1020SOL     OW 3958   6.370   0.943   1.145
 1020SOL    HW1 3959   6.410   0.956   1.054
 1020SOL    HW2 3960   6.390   0.851   1.177
 1021SOL     OW 3961   5.617   6.554   1.220
 1021SOL    HW1 3962   5.587   6.649   1.228
 1021SOL    HW2 3963   5.590   6.518   1.130
 1022SOL     OW 3964   2.875   4.515   5.418
 1022SOL    HW1 3965   2.786   4.469   5.413
 1022SOL    HW2 3966   2.909   4.530   5.325
 1023SOL     OW 3967   0.146   1.105   2.505
 1023SOL    HW1 3968   0.242   1.131   2.517
 1023SOL    HW2 3969   0.093   1.184   2.475
 1024SOL     OW 3970   0.406   2.693   4.330
 1024SOL    HW1 3971   0.442   2.733   4.414
 1024SOL    HW2 3972   0.344   2.757   4.286
 1025SOL     OW 3973   3.704   3.636   1.576
 1025SOL    HW1 3974   3.624   3.605   1.627
 1025SOL    HW2 3975   3.726   3.570   1.505
 1026SOL     OW 3976   2.471   2.675   1.778
 1026SOL    HW1 3977   2.541   2.611   1.811
 1026SOL    HW2 3978   2.515   2.750   1.728
 1027SOL     OW 3979   3.400   6.898   2.123
 1027SOL    HW1 3980   3.362   6.805   2.121
 1027SOL    HW2 3981   3.450   6.911   2.208
 1028SOL     OW 3982   1.493   0.059   2.488
 1028SOL    HW1 3983   1.494   0.109   2.401
 1028SOL    HW2 3984   1.586   0.031   2.512
 1029SOL     OW 3985   1.673   1.195   6.165
 1029SOL    HW1 3986   1.672   1.292   6.192
 1029SOL    HW2 3987   1.673   1.188   6.066
 1030SOL     OW 3988   3.299   3.322   2.065
 1030SOL    HW1 3989   3.360   3.249   2.096
 1030SOL    HW2 3990   3.209   3.309   2.107
 1031SOL     OW 3991   4.711   3.956   1.370
 1031SOL    HW1 3992   4.676   3.865   1.346
 1031SOL    HW2 3993   4.720   3.963   1.469
 1032SOL     OW 3994   1.408   1.755   5.799
 1032SOL    HW1 3995   1.439   1.846   5.774
 1032SOL    HW2 3996   1.350   1.718   5.726
 1033SOL     OW 3997   0.979   5.754   1.251
 1033SOL    HW1 3998   1.039   5.711   1.183
 1033SOL    HW2 3999   1.010   5.847   1.269
 1034SOL     OW 4000   1.038   5.019   4.671
 1034SOL    HW1 4001   1.109   5.088   4.678
 1034SOL    HW2 4002   0.988   5.031   4.585
 1035SOL     OW 4003   0.259   0.867   5.215
 1035SOL    HW1 4004   0.289   0.772   5.217
 1035SOL    HW2 4005   0.281   0.911   5.302
 1036SOL     OW 4006   3.638   0.456   2.017
 1036SOL    HW1 4007   3.652   0.494   2.109
 1036SOL    HW2 4008   3.603   0.363   2.024
 1037SOL     OW 4009   1.239   1.207   2.868
 1037SOL    HW1 4010   1.285   1.282   2.915
 1037SOL    HW2 4011   1.141   1.228   2.860
 1038SOL     OW 4012   2.024   1.020   5.596
 1038SOL    HW1 4013   1.971   1.100   5.570
 1038SOL    HW2 4014   2.118   1.047   5.617
 1039SOL     OW 4015   3.690   3.816   4.544
 1039SOL    HW1 4016   3.591   3.824   4.537
 1039SOL    HW2 4017   3.715   3.720   4.557
 1040SOL     OW 4018   5.080   1.479   2.449
 1040SOL    HW1 4019   4.997   1.511   2.495
 1040SOL    HW2 4020   5.117   1.400   2.498
 1041SOL     OW 4021   0.253   6.777   3.446
 1041SOL    HW1 4022   0.322   6.748   3.380
 1041SOL    HW2 4023   0.225   6.871   3.426
 1042SOL     OW 4024   4.094   5.505   2.516
 1042SOL    HW1 4025   4.191   5.511   2.541
 1042SOL    HW2 4026   4.054   5.425   2.560
 1043SOL     OW 4027   3.671   2.057   3.593
 1043SOL    HW1 4028   3.637   2.011   3.511
 1043SOL    HW2 4029   3.756   2.105   3.571
 1044SOL     OW 4030   5.713   5.017   2.187
 1044SOL    HW1 4031   5.726   5.051   2.280
 1044SOL    HW2 4032   5.771   4.937   2.171
 1045SOL     OW 4033   3.624   0.360   2.422
 1045SOL    HW1 4034   3.707   0.329   2.469
 1045SOL    HW2 4035   3.642   0.448   2.378
 1046SOL     OW 4036   1.403   1.372   0.380
 1046SOL    HW1 4037   1.354   1.433   0.443
 1046SOL    HW2 4038   1.408   1.415   0.290
 1047SOL     OW 4039   1.863   0.304   4.237
 1047SOL    HW1 4040   1.942   0.325   4.179
 1047SOL    HW2 4041   1.781   0.345   4.198
 1048SOL     OW 4042   4.346   6.400   3.210
 1048SOL    HW1 4043   4.437   6.409   3.170
 1048SOL    HW2 4044   4.277   6.409   3.138
 1049SOL     OW 4045   6.617   6.588   4.027
 1049SOL    HW1 4046   6.517   6.584   4.022
 1049SOL    HW2 4047   6.654   6.616   3.938
 1050SOL     OW 4048   3.323   5.248   1.837
 1050SOL    HW1 4049   3.419   5.246   1.866
 1050SOL    HW2 4050   3.264   5.223   1.914
 1051SOL     OW 4051   0.536   5.409   0.956
 1051SOL    HW1 4052   0.558   5.365   0.869
 1051SOL    HW2 4053   0.478   5.488   0.940
 1052SOL     OW 4054   4.404   0.667   5.315
 1052SOL    HW1 4055   4.376   0.586   5.366
 1052SOL    HW2 4056   4.431   0.739   5.378
 1053SOL     OW 4057   5.763   4.495   3.445
 1053SOL    HW1 4058   5.819   4.412   3.443
 1053SOL    HW2 4059   5.708   4.495   3.529
 1054SOL     OW 4060   3.117   3.668   0.792
 1054SOL    HW1 4061   3.050   3.662   0.866
 1054SOL    HW2 4062   3.133   3.577   0.754
 1055SOL     OW 4063   4.248   6.643   5.055
 1055SOL    HW1 4064   4.313   6.569   5.038
 1055SOL    HW2 4065   4.183   6.648   4.979
 1056SOL     OW 4066   2.316   3.782   0.339
 1056SOL    HW1 4067   2.387   3.839   0.380
 1056SOL    HW2 4068   2.241   3.840   0.307
 1057SOL     OW 4069   3.592   3.386   1.854
 1057SOL    HW1 4070   3.495   3.409   1.864
 1057SOL    HW2 4071   3.648   3.458   1.895
 1058SOL     OW 4072   5.401   2.530   3.361
 1058SOL    HW1 4073   5.427   2.450   3.416
 1058SOL    HW2 4074   5.481   2.568   3.316
 1059SOL     OW 4075   2.648   0.796   1.735
 1059SOL    HW1 4076   2.642   0.895   1.722
 1059SOL    HW2 4077   2.641   0.775   1.833
 1060SOL     OW 4078   0.222   5.026   4.023
 1060SOL    HW1 4079   0.172   4.947   4.057
 1060SOL    HW2 4080   0.160   5.087   3.974
 1061SOL     OW 4081   6.522   3.262   6.968
 1061SOL    HW1 4082   6.532   3.204   6.887
 1061SOL    HW2 4083   6.558   3.353   6.949
 1062SOL     OW 4084   5.496   5.427   5.382
 1062SOL    HW1 4085   5.404   5.466   5.382
 1062SOL    HW2 4086   5.501   5.355   5.451
 1063SOL     OW 4087   0.731   5.796   0.932
 1063SOL    HW1 4088   0.677   5.799   1.016
 1063SOL    HW2 4089   0.814   5.850   0.944
 1064SOL     OW 4090   1.770   4.531   3.071
 1064SOL    HW1 4091   1.803   4.589   2.996
 1064SOL    HW2 4092   1.744   4.441   3.035
 1065SOL     OW 4093   4.741   0.422   3.574
 1065SOL    HW1 4094   4.662   0.484   3.567
 1065SOL    HW2 4095   4.812   0.465   3.631
 1066SOL     OW 4096   4.994   6.865   2.874
 1066SOL    HW1 4097   4.934   6.923   2.929
 1066SOL    HW2 4098   5.090   6.885   2.897
 1067SOL     OW 4099   0.582   2.966   0.513
 1067SOL    HW1 4100   0.604   2.908   0.434
 1067SOL    HW2 4101   0.657   3.030   0.528
 1068SOL     OW 4102   6.221   5.070   2.218
 1068SOL    HW1 4103   6.238   4.983   2.266
 1068SOL    HW2 4104   6.127   5.071   2.185
 1069SOL     OW 4105   4.418   5.856   0.899
 1069SOL    HW1 4106   4.334   5.815   0.863
 1069SOL    HW2 4107   4.402   5.953   0.919
 1070SOL     OW 4108   0.408   0.324   1.538
 1070SOL    HW1 4109   0.436   0.335   1.633
 1070SOL    HW2 4110   0.486   0.289   1.485
 1071SOL     OW 4111   1.214   1.359   4.075
 1071SOL    HW1 4112   1.124   1.385   4.110
 1071SOL    HW2 4113   1.283   1.381   4.143
 1072SOL     OW 4114   1.656   0.667   0.935
 1072SOL    HW1 4115   1.580   0.614   0.898
 1072SOL    HW2 4116   1.650   0.668   1.035
 1073SOL     OW 4117   5.225   0.269   3.338
 1073SOL    HW1 4118   5.260   0.348   3.288
 1073SOL    HW2 4119   5.254   0.274   3.433
 1074SOL     OW 4120   2.360   5.655   1.901
 1074SOL    HW1 4121   2.345   5.676   1.804
 1074SOL    HW2 4122   2.300   5.580   1.928
 1075SOL     OW 4123   5.618   0.072   3.694
 1075SOL    HW1 4124   5.650   0.087   3.601
 1075SOL    HW2 4125   5.639   6.997   3.722
 1076SOL     OW 4126   0.682   2.691   5.523
 1076SOL    HW1 4127   0.698   2.672   5.620
 1076SOL    HW2 4128   0.732   2.774   5.497
 1077SOL     OW 4129   6.104   0.294   0.748
 1077SOL    HW1 4130   6.135   0.216   0.803
 1077SOL    HW2 4131   6.008   0.283   0.725
 1078SOL     OW 4132   0.298   0.530   2.376
 1078SOL    HW1 4133   0.289   0.506   2.279
 1078SOL    HW2 4134   0.388   0.503   2.409
 1079SOL     OW 4135   1.507   6.084   1.978
 1079SOL    HW1 4136   1.479   6.078   1.882
 1079SOL    HW2 4137   1.470   6.168   2.018
 1080SOL     OW 4138   2.187   5.575   3.237
 1080SOL    HW1 4139   2.122   5.523   3.291
 1080SOL    HW2 4140   2.149   5.590   3.145
 1081SOL     OW 4141   6.713   4.885   5.433
 1081SOL    HW1 4142   6.779   4.944   5.480
 1081SOL    HW2 4143   6.629   4.880   5.487
 1082SOL     OW 4144   5.279   2.381   5.285
 1082SOL    HW1 4145   5.298   2.426   5.372
 1082SOL    HW2 4146   5.323   2.431   5.211
 1083SOL     OW 4147   4.634   4.293   0.264
 1083SOL    HW1 4148   4.595   4.327   0.178
 1083SOL    HW2 4149   4.602   4.351   0.339
 1084SOL     OW 4150   6.065   5.793   6.346
 1084SOL    HW1 4151   6.117   5.814   6.263
 1084SOL    HW2 4152   6.114   5.724   6.399
 1085SOL     OW 4153   1.735   3.620   4.593
 1085SOL    HW1 4154   1.777   3.654   4.677
 1085SOL    HW2 4155   1.698   3.528   4.609
 1086SOL     OW 4156   0.156   4.912   0.523
 1086SOL    HW1 4157   0.102   4.839   0.566
 1086SOL    HW2 4158   0.246   4.876   0.497
 1087SOL     OW 4159   6.804   2.441   5.269
 1087SOL    HW1 4160   6.818   2.500   5.190
 1087SOL    HW2 4161   6.711   2.406   5.269
 1088SOL     OW 4162   0.281   3.619   2.548
 1088SOL    HW1 4163   0.253   3.709   2.514
 1088SOL    HW2 4164   0.200   3.561   2.560
 1089SOL     OW 4165   0.491   5.777   4.599
 1089SOL    HW1 4166   0.430   5.850   4.569
 1089SOL    HW2 4167   0.484   5.765   4.698
 1090SOL     OW 4168   3.061   1.939   3.286
 1090SOL    HW1 4169   3.077   1.881   3.365
 1090SOL    HW2 4170   3.053   2.035   3.315
 1091SOL     OW 4171   3.047   1.881   4.455
 1091SOL    HW1 4172   2.957   1.838   4.464
 1091SOL    HW2 4173   3.040   1.978   4.480
 1092SOL     OW 4174   0.594   4.533   0.724
 1092SOL    HW1 4175   0.663   4.537   0.796
 1092SOL    HW2 4176   0.539   4.617   0.726
 1093SOL     OW 4177   2.429   0.483   1.496
 1093SOL    HW1 4178   2.334   0.497   1.468
 1093SOL    HW2 4179   2.477   0.571   1.496
 1094SOL     OW 4180   0.887   6.837   2.532
 1094SOL    HW1 4181   0.940   6.761   2.495
 1094SOL    HW2 4182   0.948   6.910   2.561
 1095SOL     OW 4183   1.145   3.047   6.052
 1095SOL    HW1 4184   1.190   3.068   6.139
 1095SOL    HW2 4185   1.087   2.967   6.062
 1096SOL     OW 4186   3.222   4.238   1.681
 1096SOL    HW1 4187   3.140   4.296   1.677
 1096SOL    HW2 4188   3.249   4.227   1.777
 1097SOL     OW 4189   2.722   4.795   3.341
 1097SOL    HW1 4190   2.681   4.885   3.324
 1097SOL    HW2 4191   2.661   4.740   3.398
 1098SOL     OW 4192   4.413   3.534   6.565
 1098SOL    HW1 4193   4.347   3.536   6.639
 1098SOL    HW2 4194   4.501   3.568   6.597
 1099SOL     OW 4195   3.421   1.143   5.785
 1099SOL    HW1 4196   3.504   1.151   5.730
 1099SOL    HW2 4197   3.422   1.211   5.858
 1100SOL     OW 4198   4.424   1.616   4.444
 1100SOL    HW1 4199   4.361   1.547   4.478
 1100SOL    HW2 4200   4.475   1.580   4.366
 1101SOL     OW 4201   5.414   2.782   5.876
 1101SOL    HW1 4202   5.513   2.778   5.889
 1101SOL    HW2 4203   5.382   2.874   5.899
 1102SOL     OW 4204   0.948   0.215   4.838
 1102SOL    HW1 4205   0.991   0.297   4.801
 1102SOL    HW2 4206   0.871   0.189   4.779
 1103SOL     OW 4207   4.121   1.265   0.091
 1103SOL    HW1 4208   4.133   1.251   0.189
 1103SOL    HW2 4209   4.089   1.359   0.074
 1104SOL     OW 4210   1.975   3.267   5.561
 1104SOL    HW1 4211   2.065   3.294   5.593
 1104SOL    HW2 4212   1.975   3.171   5.535
 1105SOL     OW 4213   5.770   3.381   4.753
 1105SOL    HW1 4214   5.851   3.437   4.770
 1105SOL    HW2 4215   5.710   3.383   4.833
 1106SOL     OW 4216   6.981   2.382   0.998
 1106SOL    HW1 4217   6.950   2.463   1.047
 1106SOL    HW2 4218   7.011   2.313   1.063
 1107SOL     OW 4219   0.874   0.721   6.759
 1107SOL    HW1 4220   0.939   0.656   6.721
 1107SOL    HW2 4221   0.827   0.680   6.838
 1108SOL     OW 4222   3.424   6.983   5.390
 1108SOL    HW1 4223   3.515   6.948   5.364
 1108SOL    HW2 4224   3.370   6.908   5.428
 1109SOL     OW 4225   5.614   0.760   3.378
 1109SOL    HW1 4226   5.660   0.672   3.363
 1109SOL    HW2 4227   5.515   0.746   3.380
 1110SOL     OW 4228   4.148   1.923   2.970
 1110SOL    HW1 4229   4.106   1.835   2.992
 1110SOL    HW2 4230   4.212   1.949   3.042
 1111SOL     OW 4231   4.155   5.387   6.842
 1111SOL    HW1 4232   4.095   5.337   6.904
 1111SOL    HW2 4233   4.227   5.327   6.809
 1112SOL     OW 4234   5.535   0.800   2.575
 1112SOL    HW1 4235   5.532   0.811   2.674
 1112SOL    HW2 4236   5.630   0.808   2.544
 1113SOL     OW 4237   5.932   4.119   1.768
 1113SOL    HW1 4238   5.938   4.122   1.668
 1113SOL    HW2 4239   5.931   4.212   1.804
 1114SOL     OW 4240   3.197   1.440   5.829
 1114SOL    HW1 4241   3.287   1.437   5.872
 1114SOL    HW2 4242   3.168   1.535   5.819
 1115SOL     OW 4243   3.819   3.587   5.897
 1115SOL    HW1 4244   3.883   3.514   5.872
 1115SOL    HW2 4245   3.802   3.585   5.995
 1116SOL     OW 4246   4.680   6.525   5.847
 1116SOL    HW1 4247   4.770   6.507   5.887
 1116SOL    HW2 4248   4.622   6.444   5.858
 1117SOL     OW 4249   2.046   2.678   2.246
 1117SOL    HW1 4250   1.986   2.749   2.208
 1117SOL    HW2 4251   2.141   2.700   2.225
 1118SOL     OW 4252   3.269   4.795   0.872
 1118SOL    HW1 4253   3.364   4.826   0.878
 1118SOL    HW2 4254   3.209   4.872   0.849
 1119SOL     OW 4255   4.181   4.582   1.779
 1119SOL    HW1 4256   4.200   4.484   1.768
 1119SOL    HW2 4257   4.124   4.613   1.702
 1120SOL     OW 4258   5.721   6.257   0.548
 1120SOL    HW1 4259   5.804   6.242   0.493
 1120SOL    HW2 4260   5.675   6.340   0.516
 1121SOL     OW 4261   6.571   4.593   4.925
 1121SOL    HW1 4262   6.578   4.691   4.941
 1121SOL    HW2 4263   6.552   4.546   5.012
 1122SOL     OW 4264   4.997   2.455   1.641
 1122SOL    HW1 4265   5.031   2.483   1.552
 1122SOL    HW2 4266   4.981   2.537   1.697
 1123SOL     OW 4267   5.201   2.003   2.593
 1123SOL    HW1 4268   5.173   2.089   2.635
 1123SOL    HW2 4269   5.163   1.926   2.643
 1124SOL     OW 4270   6.952   3.584   5.366
 1124SOL    HW1 4271   7.005   3.505   5.336
 1124SOL    HW2 4272   7.006   3.637   5.431
 1125SOL     OW 4273   2.835   1.776   3.686
 1125SOL    HW1 4274   2.877   1.766   3.777
 1125SOL    HW2 4275   2.753   1.832   3.693
 1126SOL     OW 4276   5.614   5.643   6.960
 1126SOL    HW1 4277   5.530   5.630   6.906
 1126SOL    HW2 4278   5.591   5.691   0.026
 1127SOL     OW 4279   5.384   6.066   4.367
 1127SOL    HW1 4280   5.329   6.029   4.293
 1127SOL    HW2 4281   5.472   6.097   4.331
 1128SOL     OW 4282   6.263   1.499   4.809
 1128SOL    HW1 4283   6.233   1.515   4.715
 1128SOL    HW2 4284   6.345   1.442   4.809
 1129SOL     OW 4285   1.422   0.099   0.713
 1129SOL    HW1 4286   1.502   0.128   0.766
 1129SOL    HW2 4287   1.446   0.019   0.659
 1130SOL     OW 4288   2.275   4.841   0.629
 1130SOL    HW1 4289   2.354   4.887   0.590
 1130SOL    HW2 4290   2.281   4.842   0.729
 1131SOL     OW 4291   1.400   5.959   5.888
 1131SOL    HW1 4292   1.483   6.014   5.900
 1131SOL    HW2 4293   1.327   5.999   5.943
 1132SOL     OW 4294   5.397   0.399   2.720
 1132SOL    HW1 4295   5.321   0.338   2.744
 1132SOL    HW2 4296   5.438   0.436   2.803
 1133SOL     OW 4297   0.759   1.077   0.399
 1133SOL    HW1 4298   0.753   1.061   0.300
 1133SOL    HW2 4299   0.722   0.998   0.447
 1134SOL     OW 4300   5.848   6.954   2.795
 1134SOL    HW1 4301   5.790   6.961   2.876
 1134SOL    HW2 4302   5.796   6.915   2.720
 1135SOL     OW 4303   2.918   6.492   3.877
 1135SOL    HW1 4304   2.995   6.469   3.936
 1135SOL    HW2 4305   2.896   6.589   3.887
 1136SOL     OW 4306   4.369   4.738   3.384
 1136SOL    HW1 4307   4.392   4.641   3.391
 1136SOL    HW2 4308   4.451   4.793   3.402
 1137SOL     OW 4309   1.337   6.160   6.882
 1137SOL    HW1 4310   1.297   6.166   6.790
 1137SOL    HW2 4311   1.419   6.216   6.886
 1138SOL     OW 4312   0.439   0.945   5.713
 1138SOL    HW1 4313   0.526   0.991   5.693
 1138SOL    HW2 4314   0.400   0.984   5.797
 1139SOL     OW 4315   3.375   4.876   2.496
 1139SOL    HW1 4316   3.390   4.863   2.398
 1139SOL    HW2 4317   3.278   4.871   2.516
 1140SOL     OW 4318   2.944   1.188   2.243
 1140SOL    HW1 4319   2.985   1.139   2.165
 1140SOL    HW2 4320   2.943   1.286   2.223
 1141SOL     OW 4321   0.792   6.264   6.736
 1141SOL    HW1 4322   0.817   6.203   6.660
 1141SOL    HW2 4323   0.762   6.209   6.814
 1142SOL     OW 4324   3.572   0.064   3.997
 1142SOL    HW1 4325   3.532   0.010   4.071
 1142SOL    HW2 4326   3.525   0.152   3.990
 1143SOL     OW 4327   2.406   2.550   3.407
 1143SOL    HW1 4328   2.392   2.580   3.502
 1143SOL    HW2 4329   2.361   2.614   3.345
 1144SOL     OW 4330   6.253   4.564   3.821
 1144SOL    HW1 4331   6.178   4.626   3.796
 1144SOL    HW2 4332   6.334   4.617   3.843
 1145SOL     OW 4333   6.494   3.756   1.429
 1145SOL    HW1 4334   6.449   3.673   1.461
 1145SOL    HW2 4335   6.528   3.808   1.507
 1146SOL     OW 4336   6.850   0.775   2.486
 1146SOL    HW1 4337   6.815   0.728   2.405
 1146SOL    HW2 4338   6.921   0.839   2.458
 1147SOL     OW 4339   3.043   5.885   1.540
 1147SOL    HW1 4340   3.113   5.953   1.559
 1147SOL    HW2 4341   3.058   5.805   1.599
 1148SOL     OW 4342   4.504   6.122   0.202
 1148SOL    HW1 4343   4.409   6.135   0.172
 1148SOL    HW2 4344   4.554   6.070   0.132
 1149SOL     OW 4345   6.477   3.114   2.873
 1149SOL    HW1 4346   6.495   3.064   2.957
 1149SOL    HW2 4347   6.448   3.050   2.802
 1150SOL     OW 4348   0.628   3.852   0.271
 1150SOL    HW1 4349   0.595   3.868   0.178
 1150SOL    HW2 4350   0.552   3.866   0.335
 1151SOL     OW 4351   5.700   4.046   5.811
 1151SOL    HW1 4352   5.715   3.950   5.786
 1151SOL    HW2 4353   5.782   4.099   5.788
 1152SOL     OW 4354   4.859   5.223   0.263
 1152SOL    HW1 4355   4.841   5.214   0.165
 1152SOL    HW2 4356   4.802   5.158   0.313
 1153SOL     OW 4357   0.161   0.074   1.860
 1153SOL    HW1 4358   0.141   0.068   1.958
 1153SOL    HW2 4359   0.084   0.118   1.814
 1154SOL     OW 4360   7.010   4.292   1.450
 1154SOL    HW1 4361   0.084   4.276   1.485
 1154SOL    HW2 4362   6.952   4.215   1.475
 1155SOL     OW 4363   2.408   4.921   6.089
 1155SOL    HW1 4364   2.453   4.920   6.178
 1155SOL    HW2 4365   2.403   4.828   6.052
 1156SOL     OW 4366   4.416   2.022   4.965
 1156SOL    HW1 4367   4.349   2.023   4.890
 1156SOL    HW2 4368   4.443   1.928   4.984
 1157SOL     OW 4369   5.188   1.026   6.183
 1157SOL    HW1 4370   5.101   0.996   6.221
 1157SOL    HW2 4371   5.258   0.956   6.202
 1158SOL     OW 4372   6.947   5.048   5.053
 1158SOL    HW1 4373   6.876   5.004   5.108
 1158SOL    HW2 4374   7.019   4.982   5.031
 1159SOL     OW 4375   6.443   0.009   3.701
 1159SOL    HW1 4376   6.467   6.958   3.634
 1159SOL    HW2 4377   6.475   7.000   3.791
 1160SOL     OW 4378   5.298   4.692   0.967
 1160SOL    HW1 4379   5.392   4.700   0.934
 1160SOL    HW2 4380   5.294   4.621   1.038
 1161SOL     OW 4381   6.493   5.170   5.588
 1161SOL    HW1 4382   6.540   5.198   5.671
 1161SOL    HW2 4383   6.540   5.209   5.508
 1162SOL     OW 4384   2.338   2.338   6.961
 1162SOL    HW1 4385   2.415   2.392   6.993
 1162SOL    HW2 4386   2.355   2.308   6.867
 1163SOL     OW 4387   6.832   3.896   1.872
 1163SOL    HW1 4388   6.885   3.823   1.829
 1163SOL    HW2 4389   6.892   3.955   1.926
 1164SOL     OW 4390   5.303   2.651   3.696
 1164SOL    HW1 4391   5.217   2.684   3.734
 1164SOL    HW2 4392   5.374   2.652   3.766
 1165SOL     OW 4393   4.158   5.349   3.710
 1165SOL    HW1 4394   4.189   5.442   3.688
 1165SOL    HW2 4395   4.224   5.283   3.673
 1166SOL     OW 4396   3.341   6.893   0.416
 1166SOL    HW1 4397   3.419   6.943   0.453
 1166SOL    HW2 4398   3.342   6.899   0.316
 1167SOL     OW 4399   4.050   6.742   0.600
 1167SOL    HW1 4400   4.143   6.715   0.624
 1167SOL    HW2 4401   3.992   6.660   0.595
 1168SOL     OW 4402   5.198   2.713   2.047
 1168SOL    HW1 4403   5.291   2.746   2.033
 1168SOL    HW2 4404   5.188   2.622   2.007
 1169SOL     OW 4405   4.763   2.649   5.995
 1169SOL    HW1 4406   4.768   2.588   6.074
 1169SOL    HW2 4407   4.683   2.625   5.939
 1170SOL     OW 4408   5.237   6.958   2.879
 1170SOL    HW1 4409   5.220   0.016   2.817
 1170SOL    HW2 4410   5.261   6.877   2.825
 1171SOL     OW 4411   2.625   6.293   0.063
 1171SOL    HW1 4412   2.618   6.218   7.016
 1171SOL    HW2 4413   2.691   6.361   0.030
 1172SOL     OW 4414   3.414   3.856   1.307
 1172SOL    HW1 4415   3.415   3.944   1.260
 1172SOL    HW2 4416   3.326   3.844   1.354
 1173SOL     OW 4417   3.290   1.543   0.845
 1173SOL    HW1 4418   3.318   1.624   0.898
 1173SOL    HW2 4419   3.371   1.492   0.816
 1174SOL     OW 4420   2.377   4.942   2.116
 1174SOL    HW1 4421   2.329   4.902   2.195
 1174SOL    HW2 4422   2.339   4.904   2.032
 1175SOL     OW 4423   4.432   4.669   6.721
 1175SOL    HW1 4424   4.373   4.615   6.661
 1175SOL    HW2 4425   4.520   4.622   6.733
 1176SOL     OW 4426   5.641   3.513   6.414
 1176SOL    HW1 4427   5.739   3.524   6.429
 1176SOL    HW2 4428   5.591   3.539   6.497
 1177SOL     OW 4429   6.989   3.543   4.601
 1177SOL    HW1 4430   6.948   3.623   4.559
 1177SOL    HW2 4431   0.017   3.569   4.685
 1178SOL     OW 4432   3.848   4.169   0.837
 1178SOL    HW1 4433   3.857   4.100   0.766
 1178SOL    HW2 4434   3.782   4.239   0.809
 1179SOL     OW 4435   1.976   5.977   1.038
 1179SOL    HW1 4436   1.955   5.901   1.100
 1179SOL    HW2 4437   2.000   6.058   1.091
 1180SOL     OW 4438   2.981   5.627   4.253
 1180SOL    HW1 4439   3.008   5.533   4.274
 1180SOL    HW2 4440   2.886   5.629   4.222
 1181SOL     OW 4441   0.285   4.948   5.226
 1181SOL    HW1 4442   0.185   4.945   5.227
 1181SOL    HW2 4443   0.322   4.855   5.222
 1182SOL     OW 4444   4.465   5.281   3.911
 1182SOL    HW1 4445   4.377   5.327   3.910
 1182SOL    HW2 4446   4.501   5.273   3.818
 1183SOL     OW 4447   2.509   4.136   1.640
 1183SOL    HW1 4448   2.515   4.130   1.540
 1183SOL    HW2 4449   2.560   4.060   1.681
 1184SOL     OW 4450   0.114   1.294   5.408
 1184SOL    HW1 4451   0.053   1.223   5.373
 1184SOL    HW2 4452   0.077   1.384   5.387
 1185SOL     OW 4453   0.941   1.098   0.625
 1185SOL    HW1 4454   0.948   1.016   0.681
 1185SOL    HW2 4455   0.892   1.078   0.541
 1186SOL     OW 4456   4.910   6.070   5.570
 1186SOL    HW1 4457   4.844   6.085   5.496
 1186SOL    HW2 4458   5.003   6.076   5.532
 1187SOL     OW 4459   5.349   0.683   4.784
 1187SOL    HW1 4460   5.433   0.738   4.778
 1187SOL    HW2 4461   5.293   0.699   4.704
 1188SOL     OW 4462   2.968   5.524   6.010
 1188SOL    HW1 4463   2.888   5.464   6.010
 1188SOL    HW2 4464   3.051   5.469   6.007
 1189SOL     OW 4465   6.174   2.168   1.443
 1189SOL    HW1 4466   6.236   2.173   1.522
 1189SOL    HW2 4467   6.194   2.085   1.390
 1190SOL     OW 4468   3.732   6.056   3.228
 1190SOL    HW1 4469   3.749   5.983   3.162
 1190SOL    HW2 4470   3.820   6.089   3.264
 1191SOL     OW 4471   4.510   5.052   4.551
 1191SOL    HW1 4472   4.447   5.125   4.575
 1191SOL    HW2 4473   4.459   4.978   4.507
 1192SOL     OW 4474   5.234   4.814   2.931
 1192SOL    HW1 4475   5.198   4.734   2.980
 1192SOL    HW2 4476   5.158   4.863   2.888
 1193SOL     OW 4477   0.448   2.360   5.648
 1193SOL    HW1 4478   0.406   2.289   5.705
 1193SOL    HW2 4479   0.506   2.317   5.579
 1194SOL     OW 4480   5.991   0.916   1.353
 1194SOL    HW1 4481   6.067   0.903   1.417
 1194SOL    HW2 4482   5.911   0.949   1.402
 1195SOL     OW 4483   0.045   3.890   0.695
 1195SOL    HW1 4484   0.049   3.987   0.717
 1195SOL    HW2 4485   0.129   3.845   0.725
 1196SOL     OW 4486   6.496   4.904   3.674
 1196SOL    HW1 4487   6.512   4.838   3.600
 1196SOL    HW2 4488   6.581   4.952   3.695
 1197SOL     OW 4489   4.663   6.935   4.610
 1197SOL    HW1 4490   4.601   6.955   4.534
 1197SOL    HW2 4491   4.610   6.900   4.687
 1198SOL     OW 4492   1.710   3.693   2.764
 1198SOL    HW1 4493   1.747   3.651   2.682
 1198SOL    HW2 4494   1.692   3.623   2.833
 1199SOL     OW 4495   3.686   3.591   2.442
 1199SOL    HW1 4496   3.661   3.502   2.403
 1199SOL    HW2 4497   3.608   3.653   2.435
 1200SOL     OW 4498   3.019   3.919   4.488
 1200SOL    HW1 4499   2.971   3.843   4.531
 1200SOL    HW2 4500   3.102   3.941   4.539
 1201SOL     OW 4501   1.339   1.731   4.367
 1201SOL    HW1 4502   1.392   1.695   4.290
 1201SOL    HW2 4503   1.260   1.672   4.383
 1202SOL     OW 4504   0.239   5.379   4.964
 1202SOL    HW1 4505   0.223   5.376   5.063
 1202SOL    HW2 4506   0.200   5.463   4.927
 1203SOL     OW 4507   0.338   5.376   0.264
 1203SOL    HW1 4508   0.325   5.347   0.359
 1203SOL    HW2 4509   0.377   5.469   0.262
 1204SOL     OW 4510   4.441   0.971   1.561
 1204SOL    HW1 4511   4.428   0.874   1.542
 1204SOL    HW2 4512   4.352   1.015   1.571
 1205SOL     OW 4513   3.943   3.685   0.554
 1205SOL    HW1 4514   3.954   3.585   0.552
 1205SOL    HW2 4515   3.979   3.720   0.640
 1206SOL     OW 4516   2.445   2.602   5.482
 1206SOL    HW1 4517   2.377   2.649   5.539
 1206SOL    HW2 4518   2.457   2.653   5.397
 1207SOL     OW 4519   1.473   0.025   1.016
 1207SOL    HW1 4520   1.423   0.006   0.932
 1207SOL    HW2 4521   1.517   6.961   1.050
 1208SOL     OW 4522   3.451   3.394   1.238
 1208SOL    HW1 4523   3.466   3.306   1.283
 1208SOL    HW2 4524   3.448   3.466   1.308
 1209SOL     OW 4525   5.491   0.299   3.744
 1209SOL    HW1 4526   5.414   0.304   3.681
 1209SOL    HW2 4527   5.543   0.216   3.726
 1210SOL     OW 4528   4.504   6.897   3.554
 1210SOL    HW1 4529   4.472   6.841   3.477
 1210SOL    HW2 4530   4.582   6.852   3.597
 1211SOL     OW 4531   0.900   2.834   2.862
 1211SOL    HW1 4532   0.842   2.767   2.909
 1211SOL    HW2 4533   0.930   2.904   2.926
 1212SOL     OW 4534   6.437   0.335   6.394
 1212SOL    HW1 4535   6.388   0.412   6.435
 1212SOL    HW2 4536   6.511   0.306   6.456
 1213SOL     OW 4537   5.969   2.838   0.673
 1213SOL    HW1 4538   6.031   2.785   0.615
 1213SOL    HW2 4539   5.875   2.812   0.653
 1214SOL     OW 4540   0.593   3.953   7.003
 1214SOL    HW1 4541   0.640   3.987   6.921
 1214SOL    HW2 4542   0.520   3.890   6.976
 1215SOL     OW 4543   1.018   4.398   3.469
 1215SOL    HW1 4544   0.942   4.456   3.499
 1215SOL    HW2 4545   1.048   4.341   3.546
 1216SOL     OW 4546   5.057   0.379   0.630
 1216SOL    HW1 4547   4.958   0.367   0.622
 1216SOL    HW2 4548   5.083   0.466   0.589
 1217SOL     OW 4549   2.723   4.520   0.763
 1217SOL    HW1 4550   2.654   4.502   0.692
 1217SOL    HW2 4551   2.724   4.445   0.828
 1218SOL     OW 4552   1.079   3.211   4.645
 1218SOL    HW1 4553   1.121   3.241   4.730
 1218SOL    HW2 4554   1.140   3.148   4.597
 1219SOL     OW 4555   5.557   6.084   1.875
 1219SOL    HW1 4556   5.479   6.067   1.814
 1219SOL    HW2 4557   5.636   6.113   1.821
 1220SOL     OW 4558   1.129   4.710   3.161
 1220SOL    HW1 4559   1.130   4.694   3.259
 1220SOL    HW2 4560   1.043   4.678   3.122
 1221SOL     OW 4561   4.257   4.557   6.259
 1221SOL    HW1 4562   4.323   4.595   6.195
 1221SOL    HW2 4563   4.199   4.630   6.295
 1222SOL     OW 4564   6.627   1.304   0.024
 1222SOL    HW1 4565   6.667   1.243   6.975
 1222SOL    HW2 4566   6.659   1.398   0.007
 1223SOL     OW 4567   3.708   2.071   0.179
 1223SOL    HW1 4568   3.674   2.165   0.180
 1223SOL    HW2 4569   3.631   2.007   0.184
 1224SOL     OW 4570   3.902   5.652   0.423
 1224SOL    HW1 4571   3.901   5.569   0.479
 1224SOL    HW2 4572   3.997   5.681   0.407
 1225SOL     OW 4573   3.084   3.045   6.578
 1225SOL    HW1 4574   3.137   3.093   6.509
 1225SOL    HW2 4575   3.000   3.096   6.596
 1226SOL     OW 4576   2.125   6.515   1.453
 1226SOL    HW1 4577   2.145   6.423   1.420
 1226SOL    HW2 4578   2.142   6.582   1.381
 1227SOL     OW 4579   5.999   4.441   5.779
 1227SOL    HW1 4580   6.022   4.353   5.821
 1227SOL    HW2 4581   5.933   4.427   5.706
 1228SOL     OW 4582   3.103   1.861   6.134
 1228SOL    HW1 4583   3.158   1.915   6.197
 1228SOL    HW2 4584   3.142   1.867   6.042
 1229SOL     OW 4585   4.047   5.122   6.349
 1229SOL    HW1 4586   4.047   5.041   6.290
 1229SOL    HW2 4587   3.962   5.174   6.334
 1230SOL     OW 4588   5.031   6.874   2.514
 1230SOL    HW1 4589   4.989   6.946   2.570
 1230SOL    HW2 4590   4.962   6.804   2.494
 1231SOL     OW 4591   1.867   2.458   4.738
 1231SOL    HW1 4592   1.841   2.461   4.642
 1231SOL    HW2 4593   1.914   2.371   4.757
 1232SOL     OW 4594   0.024   2.227   5.578
 1232SOL    HW1 4595   0.113   2.265   5.553
 1232SOL    HW2 4596   0.006   2.244   5.675
 1233SOL     OW 4597   1.037   5.240   5.162
 1233SOL    HW1 4598   0.990   5.266   5.247
 1233SOL    HW2 4599   1.135   5.229   5.180
 1234SOL     OW 4600   6.345   2.919   5.919
 1234SOL    HW1 4601   6.378   2.834   5.959
 1234SOL    HW2 4602   6.414   2.990   5.929
 1235SOL     OW 4603   6.721   5.471   2.790
 1235SOL    HW1 4604   6.766   5.560   2.778
 1235SOL    HW2 4605   6.684   5.440   2.703
 1236SOL     OW 4606   5.040   1.285   6.939
 1236SOL    HW1 4607   5.029   1.230   0.003
 1236SOL    HW2 4608   5.120   1.344   6.949
 1237SOL     OW 4609   2.096   4.559   6.485
 1237SOL    HW1 4610   2.156   4.512   6.420
 1237SOL    HW2 4611   2.060   4.642   6.442
 1238SOL     OW 4612   1.339   1.587   0.960
 1238SOL    HW1 4613   1.278   1.509   0.974
 1238SOL    HW2 4614   1.388   1.576   0.873
 1239SOL     OW 4615   6.829   6.618   6.216
 1239SOL    HW1 4616   6.840   6.541   6.280
 1239SOL    HW2 4617   6.794   6.697   6.266
 1240SOL     OW 4618   5.302   6.261   1.420
 1240SOL    HW1 4619   5.370   6.223   1.356
 1240SOL    HW2 4620   5.348   6.293   1.502
 1241SOL     OW 4621   5.710   2.902   4.292
 1241SOL    HW1 4622   5.639   2.852   4.342
 1241SOL    HW2 4623   5.668   2.951   4.216
 1242SOL     OW 4624   0.717   3.520   1.544
 1242SOL    HW1 4625   0.670   3.606   1.563
 1242SOL    HW2 4626   0.654   3.444   1.557
 1243SOL     OW 4627   0.189   6.337   4.828
 1243SOL    HW1 4628   0.113   6.295   4.878
 1243SOL    HW2 4629   0.218   6.420   4.876
 1244SOL     OW 4630   5.834   6.837   4.882
 1244SOL    HW1 4631   5.815   6.933   4.863
 1244SOL    HW2 4632   5.797   6.780   4.809
 1245SOL     OW 4633   5.647   4.988   0.282
 1245SOL    HW1 4634   5.690   4.902   0.310
 1245SOL    HW2 4635   5.600   5.029   0.360
 1246SOL     OW 4636   2.851   6.987   1.004
 1246SOL    HW1 4637   2.758   6.972   1.039
 1246SOL    HW2 4638   2.850   6.977   0.904
 1247SOL     OW 4639   1.318   6.526   6.540
 1247SOL    HW1 4640   1.349   6.543   6.447
 1247SOL    HW2 4641   1.398   6.511   6.600
 1248SOL     OW 4642   2.031   6.877   4.993
 1248SOL    HW1 4643   2.036   6.977   4.997
 1248SOL    HW2 4644   2.008   6.848   4.900
 1249SOL     OW 4645   6.231   1.898   2.446
 1249SOL    HW1 4646   6.275   1.955   2.376
 1249SOL    HW2 4647   6.146   1.942   2.475
 1250SOL     OW 4648   5.587   5.459   4.209
 1250SOL    HW1 4649   5.554   5.409   4.129
 1250SOL    HW2 4650   5.656   5.405   4.257
 1251SOL     OW 4651   2.857   0.724   3.555
 1251SOL    HW1 4652   2.859   0.635   3.508
 1251SOL    HW2 4653   2.832   0.711   3.651
 1252SOL     OW 4654   4.331   3.599   6.294
 1252SOL    HW1 4655   4.328   3.578   6.392
 1252SOL    HW2 4656   4.284   3.527   6.243
 1253SOL     OW 4657   3.067   5.799   2.711
 1253SOL    HW1 4658   2.999   5.806   2.784
 1253SOL    HW2 4659   3.120   5.884   2.706
 1254SOL     OW 4660   1.038   2.697   2.510
 1254SOL    HW1 4661   0.944   2.716   2.481
 1254SOL    HW2 4662   1.037   2.652   2.599
 1255SOL     OW 4663   6.246   1.968   5.547
 1255SOL    HW1 4664   6.338   1.928   5.539
 1255SOL    HW2 4665   6.204   1.971   5.457
 1256SOL     OW 4666   6.950   6.428   3.489
 1256SOL    HW1 4667   0.000   6.494   3.458
 1256SOL    HW2 4668   6.897   6.468   3.564
 1257SOL     OW 4669   0.187   6.070   5.272
 1257SOL    HW1 4670   0.198   6.069   5.173
 1257SOL    HW2 4671   0.090   6.062   5.295
 1258SOL     OW 4672   1.903   4.980   2.674
 1258SOL    HW1 4673   1.841   4.926   2.731
 1258SOL    HW2 4674   1.867   4.987   2.582
 1259SOL     OW 4675   4.424   0.672   4.109
 1259SOL    HW1 4676   4.361   0.747   4.126
 1259SOL    HW2 4677   4.379   0.601   4.056
 1260SOL     OW 4678   1.694   1.376   0.285
 1260SOL    HW1 4679   1.693   1.450   0.352
 1260SOL    HW2 4680   1.623   1.392   0.217
 1261SOL     OW 4681   0.203   5.944   6.470
 1261SOL    HW1 4682   0.163   6.032   6.495
 1261SOL    HW2 4683   0.283   5.960   6.412
 1262SOL     OW 4684   5.343   4.964   1.080
 1262SOL    HW1 4685   5.297   4.887   1.036
 1262SOL    HW2 4686   5.361   4.942   1.176
 1263SOL     OW 4687   0.194   2.238   1.775
 1263SOL    HW1 4688   0.264   2.285   1.721
 1263SOL    HW2 4689   0.200   2.139   1.759
 1264SOL     OW 4690   6.441   4.508   0.627
 1264SOL    HW1 4691   6.443   4.593   0.575
 1264SOL    HW2 4692   6.409   4.527   0.720
 1265SOL     OW 4693   5.688   5.578   4.729
 1265SOL    HW1 4694   5.703   5.482   4.753
 1265SOL    HW2 4695   5.649   5.583   4.637
 1266SOL     OW 4696   0.470   1.372   4.039
 1266SOL    HW1 4697   0.521   1.442   4.089
 1266SOL    HW2 4698   0.534   1.309   3.995
 1267SOL     OW 4699   5.033   1.228   1.151
 1267SOL    HW1 4700   4.933   1.223   1.153
 1267SOL    HW2 4701   5.062   1.317   1.187
 1268SOL     OW 4702   2.836   2.558   0.008
 1268SOL    HW1 4703   2.857   2.596   0.097
 1268SOL    HW2 4704   2.919   2.523   6.984
 1269SOL     OW 4705   6.091   3.727   4.170
 1269SOL    HW1 4706   6.091   3.800   4.102
 1269SOL    HW2 4707   6.019   3.744   4.237
 1270SOL     OW 4708   1.518   3.806   3.361
 1270SOL    HW1 4709   1.506   3.760   3.449
 1270SOL    HW2 4710   1.598   3.770   3.314
 1271SOL     OW 4711   3.033   1.902   2.835
 1271SOL    HW1 4712   2.945   1.948   2.845
 1271SOL    HW2 4713   3.031   1.845   2.753
 1272SOL     OW 4714   5.879   4.508   7.017
 1272SOL    HW1 4715   5.856   4.601   6.989
 1272SOL    HW2 4716   5.799   4.450   7.010
 1273SOL     OW 4717   0.427   3.421   6.865
 1273SOL    HW1 4718   0.500   3.444   6.929
 1273SOL    HW2 4719   0.378   3.341   6.898
 1274SOL     OW 4720   6.940   4.558   1.381
 1274SOL    HW1 4721   7.003   4.592   1.451
 1274SOL    HW2 4722   6.930   4.459   1.391
 1275SOL     OW 4723   4.015   1.248   4.279
 1275SOL    HW1 4724   4.112   1.226   4.283
 1275SOL    HW2 4725   4.004   1.343   4.248
 1276SOL     OW 4726   6.706   4.944   5.167
 1276SOL    HW1 4727   6.639   4.883   5.125
 1276SOL    HW2 4728   6.708   4.928   5.266
 1277SOL     OW 4729   1.776   5.545   5.684
 1277SOL    HW1 4730   1.875   5.557   5.688
 1277SOL    HW2 4731   1.732   5.635   5.676
 1278SOL     OW 4732   0.976   0.179   5.124
 1278SOL    HW1 4733   0.969   0.272   5.161
 1278SOL    HW2 4734   0.945   0.180   5.028
 1279SOL     OW 4735   1.664   4.587   0.554
 1279SOL    HW1 4736   1.575   4.541   0.554
 1279SOL    HW2 4737   1.709   4.571   0.467
 1280SOL     OW 4738   4.675   6.751   4.085
 1280SOL    HW1 4739   4.656   6.848   4.080
 1280SOL    HW2 4740   4.755   6.735   4.145
 1281SOL     OW 4741   2.951   6.339   3.121
 1281SOL    HW1 4742   2.968   6.272   3.194
 1281SOL    HW2 4743   2.982   6.429   3.151
 1282SOL     OW 4744   6.441   2.742   6.891
 1282SOL    HW1 4745   6.523   2.784   6.928
 1282SOL    HW2 4746   6.462   2.651   6.855
 1283SOL     OW 4747   6.751   3.728   5.229
 1283SOL    HW1 4748   6.772   3.728   5.132
 1283SOL    HW2 4749   6.825   3.685   5.280
 1284SOL     OW 4750   4.909   1.826   1.926
 1284SOL    HW1 4751   4.998   1.816   1.970
 1284SOL    HW2 4752   4.852   1.747   1.947
 1285SOL     OW 4753   4.506   1.671   6.151
 1285SOL    HW1 4754   4.549   1.760   6.138
 1285SOL    HW2 4755   4.407   1.680   6.142
 1286SOL     OW 4756   4.181   3.801   1.373
 1286SOL    HW1 4757   4.246   3.725   1.371
 1286SOL    HW2 4758   4.121   3.791   1.452
 1287SOL     OW 4759   5.392   4.838   5.171
 1287SOL    HW1 4760   5.467   4.844   5.106
 1287SOL    HW2 4761   5.379   4.926   5.216
 1288SOL     OW 4762   3.597   3.255   6.339
 1288SOL    HW1 4763   3.543   3.273   6.421
 1288SOL    HW2 4764   3.692   3.234   6.366
 1289SOL     OW 4765   0.147   6.698   0.761
 1289SOL    HW1 4766   0.149   6.798   0.760
 1289SOL    HW2 4767   0.070   6.666   0.706
 1290SOL     OW 4768   1.274   6.323   0.060
 1290SOL    HW1 4769   1.271   6.243   7.019
 1290SOL    HW2 4770   1.354   6.317   0.120
 1291SOL     OW 4771   0.847   4.175   3.790
 1291SOL    HW1 4772   0.864   4.084   3.827
 1291SOL    HW2 4773   0.931   4.212   3.750
 1292SOL     OW 4774   0.599   5.767   2.420
 1292SOL    HW1 4775   0.687   5.782   2.464
 1292SOL    HW2 4776   0.605   5.789   2.323
 1293SOL     OW 4777   2.012   2.583   0.235
 1293SOL    HW1 4778   1.936   2.526   0.205
 1293SOL    HW2 4779   2.087   2.576   0.170
 1294SOL     OW 4780   0.137   3.732   5.836
 1294SOL    HW1 4781   0.103   3.800   5.901
 1294SOL    HW2 4782   0.214   3.682   5.877
 1295SOL     OW 4783   6.936   3.431   1.490
 1295SOL    HW1 4784   6.920   3.362   1.419
 1295SOL    HW2 4785   6.894   3.518   1.462
 1296SOL     OW 4786   3.879   6.583   5.013
 1296SOL    HW1 4787   3.821   6.664   5.005
 1296SOL    HW2 4788   3.890   6.560   5.110
 1297SOL     OW 4789   0.576   0.198   1.245
 1297SOL    HW1 4790   0.614   0.247   1.324
 1297SOL    HW2 4791   0.581   0.100   1.262
 1298SOL     OW 4792   5.022   5.383   3.452
 1298SOL    HW1 4793   4.968   5.301   3.436
 1298SOL    HW2 4794   4.965   5.452   3.498
 1299SOL     OW 4795   2.397   2.692   3.652
 1299SOL    HW1 4796   2.315   2.724   3.700
 1299SOL    HW2 4797   2.463   2.657   3.718
 1300SOL     OW 4798   1.404   3.214   0.521
 1300SOL    HW1 4799   1.364   3.218   0.612
 1300SOL    HW2 4800   1.463   3.133   0.514
 1301SOL     OW 4801   0.597   6.143   1.486
 1301SOL    HW1 4802   0.572   6.057   1.443
 1301SOL    HW2 4803   0.633   6.125   1.578
 1302SOL     OW 4804   4.654   6.596   5.211
 1302SOL    HW1 4805   4.635   6.628   5.118
 1302SOL    HW2 4806   4.744   6.552   5.212
 1303SOL     OW 4807   4.014   1.904   1.740
 1303SOL    HW1 4808   3.984   1.941   1.828
 1303SOL    HW2 4809   3.934   1.891   1.681
 1304SOL     OW 4810   1.498   0.843   0.271
 1304SOL    HW1 4811   1.459   0.908   0.337
 1304SOL    HW2 4812   1.562   0.783   0.318
 1305SOL     OW 4813   5.644   3.763   0.288
 1305SOL    HW1 4814   5.648   3.724   0.196
 1305SOL    HW2 4815   5.710   3.717   0.348
 1306SOL     OW 4816   1.188   5.443   3.993
 1306SOL    HW1 4817   1.116   5.375   4.006
 1306SOL    HW2 4818   1.164   5.501   3.916
 1307SOL     OW 4819   1.667   4.049   3.674
 1307SOL    HW1 4820   1.763   4.043   3.647
 1307SOL    HW2 4821   1.638   3.962   3.714
 1308SOL     OW 4822   6.518   0.094   5.624
 1308SOL    HW1 4823   6.549   0.053   5.538
 1308SOL    HW2 4824   6.472   0.180   5.605
 1309SOL     OW 4825   5.770   4.985   4.880
 1309SOL    HW1 4826   5.708   5.009   4.955
 1309SOL    HW2 4827   5.741   5.031   4.796
 1310SOL     OW 4828   6.623   3.549   3.730
 1310SOL    HW1 4829   6.597   3.606   3.808
 1310SOL    HW2 4830   6.606   3.453   3.751
 1311SOL     OW 4831   6.586   5.598   5.696
 1311SOL    HW1 4832   6.667   5.542   5.715
 1311SOL    HW2 4833   6.565   5.594   5.598
 1312SOL     OW 4834   1.495   6.551   6.814
 1312SOL    HW1 4835   1.506   6.650   6.800
 1312SOL    HW2 4836   1.398   6.528   6.815
 1313SOL     OW 4837   0.030   4.691   2.590
 1313SOL    HW1 4838   0.084   4.632   2.650
 1313SOL    HW2 4839   0.091   4.744   2.531
 1314SOL     OW 4840   4.205   1.498   4.798
 1314SOL    HW1 4841   4.219   1.459   4.707
 1314SOL    HW2 4842   4.108   1.493   4.822
 1315SOL     OW 4843   0.536   1.849   2.275
 1315SOL    HW1 4844   0.616   1.812   2.228
 1315SOL    HW2 4845   0.473   1.775   2.295
 1316SOL     OW 4846   3.276   6.742   5.940
 1316SOL    HW1 4847   3.294   6.734   6.038
 1316SOL    HW2 4848   3.284   6.837   5.912
 1317SOL     OW 4849   2.061   4.113   6.028
 1317SOL    HW1 4850   2.048   4.052   6.106
 1317SOL    HW2 4851   2.069   4.059   5.944
 1318SOL     OW 4852   0.659   2.942   0.955
 1318SOL    HW1 4853   0.742   2.994   0.940
 1318SOL    HW2 4854   0.677   2.844   0.942
 1319SOL     OW 4855   6.669   6.183   0.741
 1319SOL    HW1 4856   6.673   6.241   0.822
 1319SOL    HW2 4857   6.641   6.090   0.767
 1320SOL     OW 4858   3.886   4.779   6.774
 1320SOL    HW1 4859   3.915   4.859   6.826
 1320SOL    HW2 4860   3.921   4.696   6.817
 1321SOL     OW 4861   5.089   2.604   6.690
 1321SOL    HW1 4862   5.179   2.604   6.648
 1321SOL    HW2 4863   5.097   2.580   6.787
 1322SOL     OW 4864   4.028   1.507   4.191
 1322SOL    HW1 4865   3.935   1.510   4.156
 1322SOL    HW2 4866   4.092   1.520   4.116
 1323SOL     OW 4867   4.097   6.905   6.162
 1323SOL    HW1 4868   4.164   6.929   6.091
 1323SOL    HW2 4869   4.031   6.840   6.125
 1324SOL     OW 4870   0.363   3.787   0.015
 1324SOL    HW1 4871   0.396   3.703   0.059
 1324SOL    HW2 4872   0.277   3.816   0.058
 1325SOL     OW 4873   2.658   6.608   4.539
 1325SOL    HW1 4874   2.654   6.659   4.453
 1325SOL    HW2 4875   2.589   6.645   4.602
 1326SOL     OW 4876   5.508   3.283   5.636
 1326SOL    HW1 4877   5.540   3.240   5.552
 1326SOL    HW2 4878   5.586   3.301   5.696
 1327SOL     OW 4879   1.217   6.592   1.184
 1327SOL    HW1 4880   1.223   6.520   1.254
 1327SOL    HW2 4881   1.304   6.598   1.136
 1328SOL     OW 4882   2.670   3.163   1.324
 1328SOL    HW1 4883   2.667   3.162   1.424
 1328SOL    HW2 4884   2.761   3.189   1.293
 1329SOL     OW 4885   0.690   2.162   2.070
 1329SOL    HW1 4886   0.701   2.070   2.034
 1329SOL    HW2 4887   0.637   2.217   2.006
 1330SOL     OW 4888   1.250   1.508   2.041
 1330SOL    HW1 4889   1.348   1.523   2.039
 1330SOL    HW2 4890   1.203   1.596   2.049
 1331SOL     OW 4891   4.861   3.235   2.903
 1331SOL    HW1 4892   4.809   3.267   2.824
 1331SOL    HW2 4893   4.959   3.239   2.881
 1332SOL     OW 4894   2.846   6.915   6.872
 1332SOL    HW1 4895   2.938   6.874   6.869
 1332SOL    HW2 4896   2.854   7.014   6.874
 1333SOL     OW 4897   3.175   3.495   3.709
 1333SOL    HW1 4898   3.234   3.443   3.647
 1333SOL    HW2 4899   3.226   3.572   3.746
 1334SOL     OW 4900   6.222   1.514   3.790
 1334SOL    HW1 4901   6.285   1.483   3.718
 1334SOL    HW2 4902   6.244   1.468   3.875
 1335SOL     OW 4903   2.357   2.184   1.804
 1335SOL    HW1 4904   2.408   2.099   1.793
 1335SOL    HW2 4905   2.392   2.252   1.740
 1336SOL     OW 4906   2.467   1.916   5.132
 1336SOL    HW1 4907   2.563   1.943   5.123
 1336SOL    HW2 4908   2.419   1.982   5.190
 1337SOL     OW 4909   1.449   1.096   3.265
 1337SOL    HW1 4910   1.436   1.053   3.354
 1337SOL    HW2 4911   1.360   1.105   3.220
 1338SOL     OW 4912   6.740   2.410   4.797
 1338SOL    HW1 4913   6.735   2.437   4.701
 1338SOL    HW2 4914   6.739   2.311   4.804
 1339SOL     OW 4915   6.142   2.093   6.796
 1339SOL    HW1 4916   6.235   2.066   6.769
 1339SOL    HW2 4917   6.081   2.015   6.789
 1340SOL     OW 4918   5.915   2.208   2.434
 1340SOL    HW1 4919   5.915   2.236   2.338
 1340SOL    HW2 4920   5.829   2.236   2.477
 1341SOL     OW 4921   4.025   6.467   6.751
 1341SOL    HW1 4922   4.041   6.535   6.823
 1341SOL    HW2 4923   4.028   6.375   6.790
 1342SOL     OW 4924   2.975   5.744   6.231
 1342SOL    HW1 4925   2.937   5.821   6.180
 1342SOL    HW2 4926   2.975   5.663   6.172
 1343SOL     OW 4927   5.387   5.439   2.720
 1343SOL    HW1 4928   5.375   5.356   2.775
 1343SOL    HW2 4929   5.330   5.512   2.758
 1344SOL     OW 4930   0.773   5.764   4.675
 1344SOL    HW1 4931   0.682   5.747   4.637
 1344SOL    HW2 4932   0.836   5.790   4.602
 1345SOL     OW 4933   0.768   6.015   2.875
 1345SOL    HW1 4934   0.670   6.033   2.870
 1345SOL    HW2 4935   0.785   5.918   2.863
 1346SOL     OW 4936   1.089   5.511   4.473
 1346SOL    HW1 4937   1.038   5.445   4.418
 1346SOL    HW2 4938   1.186   5.503   4.453
 1347SOL     OW 4939   0.229   6.823   5.953
 1347SOL    HW1 4940   0.222   6.922   5.967
 1347SOL    HW2 4941   0.138   6.785   5.935
 1348SOL     OW 4942   5.996   6.650   4.270
 1348SOL    HW1 4943   6.006   6.568   4.327
 1348SOL    HW2 4944   5.900   6.663   4.247
 1349SOL     OW 4945   4.751   2.967   5.692
 1349SOL    HW1 4946   4.833   2.957   5.636
 1349SOL    HW2 4947   4.698   3.046   5.660
 1350SOL     OW 4948   5.439   5.327   5.662
 1350SOL    HW1 4949   5.507   5.400   5.656
 1350SOL    HW2 4950   5.464   5.264   5.735
 1351SOL     OW 4951   5.758   1.847   2.824
 1351SOL    HW1 4952   5.686   1.845   2.756
 1351SOL    HW2 4953   5.769   1.940   2.860
 1352SOL     OW 4954   6.646   5.794   3.954
 1352SOL    HW1 4955   6.565   5.742   3.981
 1352SOL    HW2 4956   6.686   5.752   3.872
 1353SOL     OW 4957   0.588   2.782   0.289
 1353SOL    HW1 4958   0.627   2.691   0.300
 1353SOL    HW2 4959   0.653   2.841   0.242
 1354SOL     OW 4960   0.901   3.477   1.781
 1354SOL    HW1 4961   0.843   3.488   1.700
 1354SOL    HW2 4962   0.991   3.443   1.753
 1355SOL     OW 4963   5.822   2.676   4.347
 1355SOL    HW1 4964   5.922   2.681   4.349
 1355SOL    HW2 4965   5.784   2.765   4.321
 1356SOL     OW 4966   3.450   3.508   2.219
 1356SOL    HW1 4967   3.531   3.451   2.207
 1356SOL    HW2 4968   3.383   3.486   2.149
 1357SOL     OW 4969   0.121   4.017   6.577
 1357SOL    HW1 4970   0.111   4.116   6.570
 1357SOL    HW2 4971   0.043   3.972   6.532
 1358SOL     OW 4972   4.497   6.642   6.047
 1358SOL    HW1 4973   4.545   6.578   5.987
 1358SOL    HW2 4974   4.563   6.691   6.103
 1359SOL     OW 4975   5.712   4.822   2.484
 1359SOL    HW1 4976   5.769   4.749   2.444
 1359SOL    HW2 4977   5.771   4.891   2.525
 1360SOL     OW 4978   2.484   3.427   0.374
 1360SOL    HW1 4979   2.435   3.344   0.400
 1360SOL    HW2 4980   2.542   3.457   0.450
 1361SOL     OW 4981   5.962   4.365   5.226
 1361SOL    HW1 4982   6.052   4.368   5.182
 1361SOL    HW2 4983   5.923   4.274   5.214
 1362SOL     OW 4984   3.599   3.688   3.932
 1362SOL    HW1 4985   3.631   3.769   3.982
 1362SOL    HW2 4986   3.672   3.654   3.874
 1363SOL     OW 4987   6.444   5.287   3.366
 1363SOL    HW1 4988   6.520   5.224   3.353
 1363SOL    HW2 4989   6.371   5.241   3.417
 1364SOL     OW 4990   5.510   4.468   1.227
 1364SOL    HW1 4991   5.505   4.528   1.147
 1364SOL    HW2 4992   5.606   4.458   1.255
 1365SOL     OW 4993   0.386   4.354   6.053
 1365SOL    HW1 4994   0.335   4.268   6.062
 1365SOL    HW2 4995   0.467   4.351   6.112
 1366SOL     OW 4996   1.347   5.720   0.247
 1366SOL    HW1 4997   1.378   5.733   0.153
 1366SOL    HW2 4998   1.424   5.736   0.310
 1367SOL     OW 4999   2.051   0.355   3.359
 1367SOL    HW1 5000   2.131   0.295   3.349
 1367SOL    HW2 5001   2.014   0.375   3.268
 1368SOL     OW 5002   5.966   0.269   4.145
 1368SOL    HW1 5003   5.934   0.270   4.050
 1368SOL    HW2 5004   5.900   0.221   4.202
 1369SOL     OW 5005   2.372   6.471   1.918
 1369SOL    HW1 5006   2.394   6.463   1.821
 1369SOL    HW2 5007   2.274   6.488   1.929
 1370SOL     OW 5008   3.738   0.763   1.110
 1370SOL    HW1 5009   3.731   0.730   1.204
 1370SOL    HW2 5010   3.722   0.687   1.046
 1371SOL     OW 5011   5.808   1.815   4.058
 1371SOL    HW1 5012   5.753   1.732   4.067
 1371SOL    HW2 5013   5.823   1.835   3.961
 1372SOL     OW 5014   1.161   3.068   0.181
 1372SOL    HW1 5015   1.233   3.068   0.111
 1372SOL    HW2 5016   1.134   2.974   0.200
 1373SOL     OW 5017   5.528   3.860   6.938
 1373SOL    HW1 5018   5.519   3.910   6.851
 1373SOL    HW2 5019   5.439   3.825   6.966
 1374SOL     OW 5020   4.660   2.344   0.323
 1374SOL    HW1 5021   4.616   2.269   0.372
 1374SOL    HW2 5022   4.700   2.408   0.388
 1375SOL     OW 5023   6.953   4.063   6.250
 1375SOL    HW1 5024   6.938   4.157   6.280
 1375SOL    HW2 5025   0.032   4.043   6.249
 1376SOL     OW 5026   4.922   3.554   4.116
 1376SOL    HW1 5027   4.920   3.486   4.189
 1376SOL    HW2 5028   4.900   3.511   4.029
 1377SOL     OW 5029   6.567   4.102   5.489
 1377SOL    HW1 5030   6.551   4.133   5.583
 1377SOL    HW2 5031   6.486   4.054   5.456
 1378SOL     OW 5032   6.601   1.096   4.915
 1378SOL    HW1 5033   6.611   1.031   4.839
 1378SOL    HW2 5034   6.583   1.046   4.999
 1379SOL     OW 5035   3.171   6.975   2.490
 1379SOL    HW1 5036   3.238   0.029   2.480
 1379SOL    HW2 5037   3.107   6.977   2.413
 1380SOL     OW 5038   0.100   0.027   2.134
 1380SOL    HW1 5039   0.009   0.040   2.174
 1380SOL    HW2 5040   0.169   0.061   2.197
 1381SOL     OW 5041   5.326   2.650   6.576
 1381SOL    HW1 5042   5.372   2.624   6.491
 1381SOL    HW2 5043   5.378   2.722   6.622
 1382SOL     OW 5044   4.811   4.610   0.793
 1382SOL    HW1 5045   4.908   4.634   0.803
 1382SOL    HW2 5046   4.765   4.679   0.738
 1383SOL     OW 5047   0.529   0.247   0.764
 1383SOL    HW1 5048   0.518   0.149   0.781
 1383SOL    HW2 5049   0.555   0.293   0.849
 1384SOL     OW 5050   3.919   0.964   2.577
 1384SOL    HW1 5051   3.968   1.050   2.592
 1384SOL    HW2 5052   3.928   0.906   2.658
 1385SOL     OW 5053   0.858   3.056   2.671
 1385SOL    HW1 5054   0.840   2.962   2.700
 1385SOL    HW2 5055   0.930   3.057   2.602
 1386SOL     OW 5056   2.181   1.223   4.441
 1386SOL    HW1 5057   2.169   1.197   4.345
 1386SOL    HW2 5058   2.193   1.140   4.497
 1387SOL     OW 5059   4.144   6.651   3.423
 1387SOL    HW1 5060   4.227   6.600   3.442
 1387SOL    HW2 5061   4.074   6.590   3.386
 1388SOL     OW 5062   0.598   6.197   3.674
 1388SOL    HW1 5063   0.572   6.101   3.674
 1388SOL    HW2 5064   0.523   6.252   3.710
 1389SOL     OW 5065   0.185   1.284   3.955
 1389SOL    HW1 5066   0.169   1.337   3.872
 1389SOL    HW2 5067   0.280   1.296   3.984
 1390SOL     OW 5068   4.320   2.028   6.180
 1390SOL    HW1 5069   4.404   2.021   6.234
 1390SOL    HW2 5070   4.260   2.097   6.220
 1391SOL     OW 5071   6.506   0.780   5.664
 1391SOL    HW1 5072   6.601   0.774   5.694
 1391SOL    HW2 5073   6.499   0.845   5.589
 1392SOL     OW 5074   5.333   5.139   6.209
 1392SOL    HW1 5075   5.380   5.091   6.134
 1392SOL    HW2 5076   5.280   5.072   6.262
 1393SOL     OW 5077   5.837   3.233   6.908
 1393SOL    HW1 5078   5.766   3.292   6.947
 1393SOL    HW2 5079   5.878   3.277   6.828
 1394SOL     OW 5080   3.769   0.404   3.561
 1394SOL    HW1 5081   3.829   0.329   3.533
 1394SOL    HW2 5082   3.820   0.490   3.557
 1395SOL     OW 5083   1.214   3.829   2.850
 1395SOL    HW1 5084   1.282   3.768   2.890
 1395SOL    HW2 5085   1.143   3.775   2.805
 1396SOL     OW 5086   1.790   6.841   3.674
 1396SOL    HW1 5087   1.698   6.863   3.706
 1396SOL    HW2 5088   1.795   6.744   3.650
 1397SOL     OW 5089   0.743   6.534   4.625
 1397SOL    HW1 5090   0.807   6.464   4.658
 1397SOL    HW2 5091   0.652   6.517   4.664
 1398SOL     OW 5092   0.793   1.860   6.999
 1398SOL    HW1 5093   0.817   1.783   6.940
 1398SOL    HW2 5094   0.874   1.915   7.019
 1399SOL     OW 5095   4.566   0.584   0.448
 1399SOL    HW1 5096   4.553   0.593   0.546
 1399SOL    HW2 5097   4.529   0.665   0.402
 1400SOL     OW 5098   6.248   1.038   4.352
 1400SOL    HW1 5099   6.164   1.062   4.401
 1400SOL    HW2 5100   6.327   1.052   4.413
 1401SOL     OW 5101   6.011   6.514   4.749
 1401SOL    HW1 5102   6.057   6.428   4.770
 1401SOL    HW2 5103   6.079   6.586   4.735
 1402SOL     OW 5104   5.636   4.334   6.996
 1402SOL    HW1 5105   5.560   4.391   0.009
 1402SOL    HW2 5106   5.625   4.316   6.898
 1403SOL     OW 5107   2.145   2.860   0.319
 1403SOL    HW1 5108   2.213   2.815   0.261
 1403SOL    HW2 5109   2.084   2.916   0.262
 1404SOL     OW 5110   4.635   6.910   0.767
 1404SOL    HW1 5111   4.575   6.914   0.687
 1404SOL    HW2 5112   4.592   6.854   0.838
 1405SOL     OW 5113   2.149   3.763   0.616
 1405SOL    HW1 5114   2.221   3.693   0.610
 1405SOL    HW2 5115   2.191   3.854   0.618
 1406SOL     OW 5116   2.383   4.697   1.092
 1406SOL    HW1 5117   2.444   4.646   1.153
 1406SOL    HW2 5118   2.348   4.778   1.139
 1407SOL     OW 5119   1.370   3.749   3.106
 1407SOL    HW1 5120   1.425   3.765   3.187
 1407SOL    HW2 5121   1.358   3.650   3.093
 1408SOL     OW 5122   5.491   6.351   6.660
 1408SOL    HW1 5123   5.508   6.448   6.642
 1408SOL    HW2 5124   5.404   6.324   6.619
 1409SOL     OW 5125   6.837   0.671   5.447
 1409SOL    HW1 5126   6.804   0.725   5.370
 1409SOL    HW2 5127   6.801   0.578   5.440
 1410SOL     OW 5128   2.878   3.723   6.949
 1410SOL    HW1 5129   2.819   3.801   6.930
 1410SOL    HW2 5130   2.974   3.750   6.939
 1411SOL     OW 5131   3.694   5.997   5.986
 1411SOL    HW1 5132   3.632   6.061   6.032
 1411SOL    HW2 5133   3.781   6.043   5.968
 1412SOL     OW 5134   0.840   4.360   1.543
 1412SOL    HW1 5135   0.853   4.262   1.522
 1412SOL    HW2 5136   0.814   4.370   1.639
 1413SOL     OW 5137   1.724   2.093   4.437
 1413SOL    HW1 5138   1.667   2.170   4.467
 1413SOL    HW2 5139   1.820   2.117   4.447
 1414SOL     OW 5140   1.593   2.778   1.571
 1414SOL    HW1 5141   1.689   2.751   1.561
 1414SOL    HW2 5142   1.535   2.696   1.575
 1415SOL     OW 5143   3.049   2.137   4.529
 1415SOL    HW1 5144   3.078   2.138   4.624
 1415SOL    HW2 5145   2.986   2.213   4.512
 1416SOL     OW 5146   4.161   0.573   4.656
 1416SOL    HW1 5147   4.228   0.594   4.585
 1416SOL    HW2 5148   4.103   0.498   4.626
 1417SOL     OW 5149   3.537   2.767   6.228
 1417SOL    HW1 5150   3.580   2.759   6.317
 1417SOL    HW2 5151   3.458   2.829   6.234
 1418SOL     OW 5152   2.895   3.666   0.585
 1418SOL    HW1 5153   2.884   3.573   0.550
 1418SOL    HW2 5154   2.990   3.680   0.614
 1419SOL     OW 5155   1.833   5.451   4.014
 1419SOL    HW1 5156   1.757   5.514   4.027
 1419SOL    HW2 5157   1.798   5.363   3.980
 1420SOL     OW 5158   4.420   5.706   3.013
 1420SOL    HW1 5159   4.334   5.680   2.970
 1420SOL    HW2 5160   4.434   5.652   3.096
 1421SOL     OW 5161   1.397   4.584   4.296
 1421SOL    HW1 5162   1.411   4.677   4.332
 1421SOL    HW2 5163   1.435   4.578   4.204
 1422SOL     OW 5164   2.522   4.608   5.723
 1422SOL    HW1 5165   2.601   4.644   5.772
 1422SOL    HW2 5166   2.472   4.683   5.680
 1423SOL     OW 5167   4.114   1.797   4.872
 1423SOL    HW1 5168   4.098   1.832   4.779
 1423SOL    HW2 5169   4.095   1.699   4.874
 1424SOL     OW 5170   5.846   3.550   6.660
 1424SOL    HW1 5171   5.898   3.635   6.672
 1424SOL    HW2 5172   5.908   3.472   6.666
 1425SOL     OW 5173   2.514   6.351   4.603
 1425SOL    HW1 5174   2.553   6.433   4.562
 1425SOL    HW2 5175   2.583   6.279   4.608
 1426SOL     OW 5176   1.657   2.183   6.265
 1426SOL    HW1 5177   1.728   2.148   6.204
 1426SOL    HW2 5178   1.693   2.262   6.315
 1427SOL     OW 5179   0.498   0.888   3.727
 1427SOL    HW1 5180   0.559   0.815   3.699
 1427SOL    HW2 5181   0.478   0.948   3.649
 1428SOL     OW 5182   6.996   2.056   1.457
 1428SOL    HW1 5183   6.966   2.026   1.547
 1428SOL    HW2 5184   7.007   2.155   1.457
 1429SOL     OW 5185   5.648   1.802   0.078
 1429SOL    HW1 5186   5.637   1.869   0.005
 1429SOL    HW2 5187   5.606   1.716   0.051
 1430SOL     OW 5188   2.179   3.837   4.474
 1430SOL    HW1 5189   2.157   3.829   4.377
 1430SOL    HW2 5190   2.269   3.880   4.485
 1431SOL     OW 5191   2.617   2.548   6.150
 1431SOL    HW1 5192   2.524   2.533   6.183
 1431SOL    HW2 5193   2.682   2.534   6.225
 1432SOL     OW 5194   2.043   1.234   1.463
 1432SOL    HW1 5195   1.955   1.227   1.416
 1432SOL    HW2 5196   2.069   1.144   1.498
 1433SOL     OW 5197   3.269   6.866   3.718
 1433SOL    HW1 5198   3.202   6.939   3.717
 1433SOL    HW2 5199   3.361   6.905   3.718
 1434SOL     OW 5200   6.339   1.705   6.344
 1434SOL    HW1 5201   6.437   1.715   6.325
 1434SOL    HW2 5202   6.300   1.796   6.362
 1435SOL     OW 5203   0.110   0.644   3.836
 1435SOL    HW1 5204   0.019   0.685   3.835
 1435SOL    HW2 5205   0.166   0.687   3.907
 1436SOL     OW 5206   5.651   3.379   0.280
 1436SOL    HW1 5207   5.604   3.371   0.369
 1436SOL    HW2 5208   5.732   3.436   0.290
 1437SOL     OW 5209   3.609   1.116   4.930
 1437SOL    HW1 5210   3.544   1.070   4.869
 1437SOL    HW2 5211   3.620   1.211   4.901
 1438SOL     OW 5212   2.970   1.234   1.501
 1438SOL    HW1 5213   2.991   1.274   1.412
 1438SOL    HW2 5214   3.050   1.185   1.536
 1439SOL     OW 5215   0.941   5.617   0.900
 1439SOL    HW1 5216   0.987   5.645   0.815
 1439SOL    HW2 5217   0.850   5.659   0.904
 1440SOL     OW 5218   3.596   3.285   4.617
 1440SOL    HW1 5219   3.529   3.253   4.550
 1440SOL    HW2 5220   3.609   3.216   4.688
 1441SOL     OW 5221   6.018   3.056   3.525
 1441SOL    HW1 5222   5.930   3.079   3.566
 1441SOL    HW2 5223   6.087   3.045   3.597
 1442SOL     OW 5224   6.011   4.569   0.587
 1442SOL    HW1 5225   6.015   4.579   0.487
 1442SOL    HW2 5226   6.042   4.654   0.630
 1443SOL     OW 5227   0.933   1.369   4.081
 1443SOL    HW1 5228   0.911   1.464   4.104
 1443SOL    HW2 5229   0.951   1.362   3.983
 1444SOL     OW 5230   4.709   6.025   1.661
 1444SOL    HW1 5231   4.796   6.075   1.664
 1444SOL    HW2 5232   4.633   6.090   1.656
 1445SOL     OW 5233   0.407   2.709   2.099
 1445SOL    HW1 5234   0.344   2.708   2.176
 1445SOL    HW2 5235   0.466   2.789   2.104
 1446SOL     OW 5236   5.295   3.123   0.167
 1446SOL    HW1 5237   5.278   3.035   0.212
 1446SOL    HW2 5238   5.393   3.133   0.149
 1447SOL     OW 5239   6.550   0.151   4.970
 1447SOL    HW1 5240   6.597   0.218   4.913
 1447SOL    HW2 5241   6.476   0.108   4.917
 1448SOL     OW 5242   5.696   1.323   0.471
 1448SOL    HW1 5243   5.617   1.287   0.520
 1448SOL    HW2 5244   5.748   1.383   0.531
 1449SOL     OW 5245   6.176   6.568   0.020
 1449SOL    HW1 5246   6.261   6.575   0.073
 1449SOL    HW2 5247   6.197   6.549   6.944
 1450SOL     OW 5248   0.308   2.060   2.003
 1450SOL    HW1 5249   0.344   2.093   2.090
 1450SOL    HW2 5250   0.257   2.133   1.958
 1451SOL     OW 5251   3.127   0.870   2.584
 1451SOL    HW1 5252   3.175   0.833   2.664
 1451SOL    HW2 5253   3.059   0.803   2.553
 1452SOL     OW 5254   5.290   1.938   4.706
 1452SOL    HW1 5255   5.365   1.875   4.689
 1452SOL    HW2 5256   5.274   1.946   4.804
 1453SOL     OW 5257   6.062   3.695   5.128
 1453SOL    HW1 5258   6.024   3.748   5.052
 1453SOL    HW2 5259   5.996   3.627   5.158
 1454SOL     OW 5260   6.233   3.373   2.369
 1454SOL    HW1 5261   6.258   3.465   2.339
 1454SOL    HW2 5262   6.178   3.329   2.299
 1455SOL     OW 5263   1.441   0.168   1.941
 1455SOL    HW1 5264   1.510   0.110   1.985
 1455SOL    HW2 5265   1.479   0.259   1.924
 1456SOL     OW 5266   6.872   6.410   5.286
 1456SOL    HW1 5267   6.889   6.505   5.313
 1456SOL    HW2 5268   6.775   6.389   5.300
 1457SOL     OW 5269   1.792   0.460   1.774
 1457SOL    HW1 5270   1.861   0.438   1.843
 1457SOL    HW2 5271   1.748   0.376   1.742
 1458SOL     OW 5272   5.338   6.445   4.336
 1458SOL    HW1 5273   5.335   6.467   4.434
 1458SOL    HW2 5274   5.406   6.374   4.320
 1459SOL     OW 5275   2.802   4.258   6.751
 1459SOL    HW1 5276   2.849   4.171   6.733
 1459SOL    HW2 5277   2.704   4.240   6.761
 1460SOL     OW 5278   6.833   5.480   5.668
 1460SOL    HW1 5279   6.868   5.500   5.759
 1460SOL    HW2 5280   6.898   5.424   5.618
 1461SOL     OW 5281   0.006   4.579   3.282
 1461SOL    HW1 5282   0.077   4.614   3.220
 1461SOL    HW2 5283   0.013   4.479   3.288
 1462SOL     OW 5284   5.956   1.802   6.630
 1462SOL    HW1 5285   6.054   1.816   6.614
 1462SOL    HW2 5286   5.905   1.839   6.552
 1463SOL     OW 5287   6.972   6.142   6.220
 1463SOL    HW1 5288   6.902   6.206   6.187
 1463SOL    HW2 5289   6.936   6.049   6.218
 1464SOL     OW 5290   6.801   0.077   0.877
 1464SOL    HW1 5291   6.854   7.011   0.880
 1464SOL    HW2 5292   6.825   0.134   0.956
 1465SOL     OW 5293   1.685   1.077   2.733
 1465SOL    HW1 5294   1.760   1.067   2.798
 1465SOL    HW2 5295   1.691   1.168   2.690
 1466SOL     OW 5296   0.979   6.981   2.744
 1466SOL    HW1 5297   0.913   0.031   2.713
 1466SOL    HW2 5298   0.948   6.943   2.832
 1467SOL     OW 5299   2.006   0.009   1.919
 1467SOL    HW1 5300   2.081   6.983   1.870
 1467SOL    HW2 5301   1.996   6.989   2.010
 1468SOL     OW 5302   5.864   6.129   2.863
 1468SOL    HW1 5303   5.897   6.041   2.898
 1468SOL    HW2 5304   5.899   6.203   2.920
 1469SOL     OW 5305   0.516   0.685   3.054
 1469SOL    HW1 5306   0.433   0.631   3.063
 1469SOL    HW2 5307   0.596   0.626   3.062
 1470SOL     OW 5308   0.955   0.639   2.583
 1470SOL    HW1 5309   0.921   0.560   2.532
 1470SOL    HW2 5310   1.026   0.685   2.529
 1471SOL     OW 5311   0.724   0.934   0.123
 1471SOL    HW1 5312   0.812   0.972   0.093
 1471SOL    HW2 5313   0.651   0.968   0.064
 1472SOL     OW 5314   4.023   5.436   4.906
 1472SOL    HW1 5315   4.014   5.437   5.006
 1472SOL    HW2 5316   4.118   5.455   4.882
 1473SOL     OW 5317   5.731   6.270   3.935
 1473SOL    HW1 5318   5.813   6.253   3.879
 1473SOL    HW2 5319   5.667   6.193   3.924
 1474SOL     OW 5320   6.650   6.193   3.708
 1474SOL    HW1 5321   6.744   6.203   3.676
 1474SOL    HW2 5322   6.607   6.283   3.714
 1475SOL     OW 5323   0.023   0.520   1.600
 1475SOL    HW1 5324   0.095   0.458   1.568
 1475SOL    HW2 5325   0.066   0.604   1.634
 1476SOL     OW 5326   1.304   1.217   1.579
 1476SOL    HW1 5327   1.279   1.281   1.652
 1476SOL    HW2 5328   1.341   1.268   1.501
 1477SOL     OW 5329   2.458   0.407   6.464
 1477SOL    HW1 5330   2.526   0.458   6.517
 1477SOL    HW2 5331   2.494   0.317   6.441
 1478SOL     OW 5332   5.416   4.119   0.592
 1478SOL    HW1 5333   5.464   4.115   0.504
 1478SOL    HW2 5334   5.340   4.055   0.592
 1479SOL     OW 5335   1.255   3.854   6.820
 1479SOL    HW1 5336   1.215   3.945   6.805
 1479SOL    HW2 5337   1.246   3.829   6.916
 1480SOL     OW 5338   2.432   0.153   0.129
 1480SOL    HW1 5339   2.381   0.113   0.205
 1480SOL    HW2 5340   2.383   0.233   0.094
 1481SOL     OW 5341   6.434   1.662   4.653
 1481SOL    HW1 5342   6.363   1.592   4.662
 1481SOL    HW2 5343   6.429   1.703   4.561
 1482SOL     OW 5344   5.231   1.821   1.042
 1482SOL    HW1 5345   5.193   1.782   0.958
 1482SOL    HW2 5346   5.317   1.775   1.064
 1483SOL     OW 5347   0.296   2.892   6.085
 1483SOL    HW1 5348   0.271   2.915   5.992
 1483SOL    HW2 5349   0.275   2.968   6.146
 1484SOL     OW 5350   6.268   4.162   3.956
 1484SOL    HW1 5351   6.321   4.193   3.878
 1484SOL    HW2 5352   6.328   4.146   4.034
 1485SOL     OW 5353   4.830   2.134   2.885
 1485SOL    HW1 5354   4.790   2.046   2.910
 1485SOL    HW2 5355   4.838   2.192   2.966
 1486SOL     OW 5356   4.762   2.618   3.209
 1486SOL    HW1 5357   4.767   2.708   3.253
 1486SOL    HW2 5358   4.844   2.565   3.231
 1487SOL     OW 5359   5.636   2.445   6.719
 1487SOL    HW1 5360   5.581   2.404   6.646
 1487SOL    HW2 5361   5.603   2.414   6.808
 1488SOL     OW 5362   6.160   2.258   2.636
 1488SOL    HW1 5363   6.114   2.246   2.548
 1488SOL    HW2 5364   6.185   2.354   2.649
 1489SOL     OW 5365   3.791   4.897   4.728
 1489SOL    HW1 5366   3.723   4.931   4.662
 1489SOL    HW2 5367   3.761   4.921   4.820
 1490SOL     OW 5368   1.265   2.561   1.085
 1490SOL    HW1 5369   1.262   2.567   0.986
 1490SOL    HW2 5370   1.314   2.640   1.122
 1491SOL     OW 5371   6.984   3.540   3.290
 1491SOL    HW1 5372   6.923   3.618   3.308
 1491SOL    HW2 5373   6.989   3.524   3.191
 1492SOL     OW 5374   5.884   1.809   1.629
 1492SOL    HW1 5375   5.794   1.797   1.588
 1492SOL    HW2 5376   5.944   1.858   1.566
 1493SOL     OW 5377   5.035   0.937   4.648
 1493SOL    HW1 5378   5.131   0.962   4.657
 1493SOL    HW2 5379   5.008   0.881   4.726
 1494SOL     OW 5380   4.323   2.404   6.078
 1494SOL    HW1 5381   4.277   2.490   6.100
 1494SOL    HW2 5382   4.272   2.328   6.118
 1495SOL     OW 5383   1.076   3.145   3.377
 1495SOL    HW1 5384   0.984   3.184   3.384
 1495SOL    HW2 5385   1.070   3.046   3.375
 1496SOL     OW 5386   0.843   0.706   2.081
 1496SOL    HW1 5387   0.859   0.741   1.988
 1496SOL    HW2 5388   0.865   0.777   2.147
 1497SOL     OW 5389   0.094   4.186   3.085
 1497SOL    HW1 5390   0.063   4.094   3.108
 1497SOL    HW2 5391   0.065   4.209   2.992
 1498SOL     OW 5392   1.314   4.811   6.501
 1498SOL    HW1 5393   1.293   4.800   6.598
 1498SOL    HW2 5394   1.372   4.736   6.470
 1499SOL     OW 5395   1.030   3.522   5.136
 1499SOL    HW1 5396   0.983   3.436   5.157
 1499SOL    HW2 5397   1.105   3.503   5.072
 1500SOL     OW 5398   5.603   6.619   6.949
 1500SOL    HW1 5399   5.558   6.531   6.961
 1500SOL    HW2 5400   5.689   6.606   6.899
 1501SOL     OW 5401   4.101   0.980   6.379
 1501SOL    HW1 5402   4.009   0.965   6.415
 1501SOL    HW2 5403   4.123   0.909   6.313
 1502SOL     OW 5404   6.361   6.745   0.855
 1502SOL    HW1 5405   6.302   6.818   0.890
 1502SOL    HW2 5406   6.457   6.774   0.862
 1503SOL     OW 5407   2.931   2.232   1.321
 1503SOL    HW1 5408   2.888   2.161   1.376
 1503SOL    HW2 5409   2.868   2.262   1.250
 1504SOL     OW 5410   1.955   0.521   5.161
 1504SOL    HW1 5411   1.871   0.467   5.160
 1504SOL    HW2 5412   2.011   0.497   5.082
 1505SOL     OW 5413   5.655   0.576   6.646
 1505SOL    HW1 5414   5.562   0.614   6.642
 1505SOL    HW2 5415   5.683   0.565   6.741
 1506SOL     OW 5416   1.799   5.572   2.324
 1506SOL    HW1 5417   1.873   5.557   2.259
 1506SOL    HW2 5418   1.713   5.538   2.285
 1507SOL     OW 5419   1.858   2.095   5.029
 1507SOL    HW1 5420   1.854   2.039   5.112
 1507SOL    HW2 5421   1.949   2.134   5.019
 1508SOL     OW 5422   5.584   0.505   0.648
 1508SOL    HW1 5423   5.492   0.468   0.660
 1508SOL    HW2 5424   5.619   0.478   0.559
 1509SOL     OW 5425   3.990   2.446   6.177
 1509SOL    HW1 5426   3.940   2.516   6.228
 1509SOL    HW2 5427   3.927   2.395   6.119
 1510SOL     OW 5428   6.161   1.821   3.573
 1510SOL    HW1 5429   6.167   1.799   3.670
 1510SOL    HW2 5430   6.066   1.813   3.543
 1511SOL     OW 5431   2.215   2.970   0.589
 1511SOL    HW1 5432   2.175   2.879   0.602
 1511SOL    HW2 5433   2.194   3.001   0.496
 1512SOL     OW 5434   0.287   6.833   1.929
 1512SOL    HW1 5435   0.320   6.911   1.875
 1512SOL    HW2 5436   0.194   6.810   1.900
 1513SOL     OW 5437   4.677   0.243   3.779
 1513SOL    HW1 5438   4.736   0.163   3.788
 1513SOL    HW2 5439   4.695   0.287   3.692
 1514SOL     OW 5440   5.562   2.118   4.621
 1514SOL    HW1 5441   5.507   2.059   4.680
 1514SOL    HW2 5442   5.508   2.145   4.541
 1515SOL     OW 5443   6.788   3.272   6.212
 1515SOL    HW1 5444   6.859   3.222   6.262
 1515SOL    HW2 5445   6.820   3.293   6.120
 1516SOL     OW 5446   0.328   0.377   0.641
 1516SOL    HW1 5447   0.420   0.373   0.680
 1516SOL    HW2 5448   0.264   0.330   0.702
 1517SOL     OW 5449   4.872   5.865   3.627
 1517SOL    HW1 5450   4.914   5.866   3.536
 1517SOL    HW2 5451   4.905   5.943   3.680
 1518SOL     OW 5452   6.775   2.630   0.117
 1518SOL    HW1 5453   6.689   2.597   0.156
 1518SOL    HW2 5454   6.841   2.647   0.190
 1519SOL     OW 5455   0.108   4.575   2.117
 1519SOL    HW1 5456   0.069   4.635   2.187
 1519SOL    HW2 5457   0.057   4.489   2.115
 1520SOL     OW 5458   1.609   3.374   2.407
 1520SOL    HW1 5459   1.517   3.351   2.438
 1520SOL    HW2 5460   1.659   3.290   2.384
 1521SOL     OW 5461   1.875   3.416   6.796
 1521SOL    HW1 5462   1.787   3.370   6.786
 1521SOL    HW2 5463   1.949   3.348   6.791
 1522SOL     OW 5464   6.856   1.930   5.279
 1522SOL    HW1 5465   6.915   1.904   5.202
 1522SOL    HW2 5466   6.860   2.029   5.291
 1523SOL     OW 5467   5.007   3.899   6.701
 1523SOL    HW1 5468   4.989   3.951   6.784
 1523SOL    HW2 5469   5.084   3.941   6.652
 1524SOL     OW 5470   0.892   1.771   1.588
 1524SOL    HW1 5471   0.934   1.680   1.578
 1524SOL    HW2 5472   0.961   1.836   1.619
 1525SOL     OW 5473   5.129   2.917   6.739
 1525SOL    HW1 5474   5.187   2.867   6.675
 1525SOL    HW2 5475   5.165   2.909   6.832
 1526SOL     OW 5476   0.974   1.681   0.879
 1526SOL    HW1 5477   0.912   1.748   0.836
 1526SOL    HW2 5478   1.007   1.617   0.810
 1527SOL     OW 5479   3.862   0.920   4.891
 1527SOL    HW1 5480   3.837   0.974   4.971
 1527SOL    HW2 5481   3.824   0.962   4.809
 1528SOL     OW 5482   5.327   6.094   2.913
 1528SOL    HW1 5483   5.340   6.193   2.909
 1528SOL    HW2 5484   5.412   6.049   2.940
 1529SOL     OW 5485   3.810   1.448   6.754
 1529SOL    HW1 5486   3.803   1.476   6.658
 1529SOL    HW2 5487   3.722   1.412   6.785
 1530SOL     OW 5488   3.215   0.629   1.299
 1530SOL    HW1 5489   3.184   0.715   1.340
 1530SOL    HW2 5490   3.284   0.648   1.229
 1531SOL     OW 5491   6.335   1.198   5.017
 1531SOL    HW1 5492   6.299   1.276   5.069
 1531SOL    HW2 5493   6.433   1.210   5.001
 1532SOL     OW 5494   2.532   2.180   5.210
 1532SOL    HW1 5495   2.600   2.122   5.254
 1532SOL    HW2 5496   2.463   2.209   5.277
 1533SOL     OW 5497   0.140   3.237   6.545
 1533SOL    HW1 5498   0.078   3.304   6.587
 1533SOL    HW2 5499   0.183   3.278   6.465
 1534SOL     OW 5500   1.665   5.067   0.101
 1534SOL    HW1 5501   1.742   5.041   0.044
 1534SOL    HW2 5502   1.697   5.083   0.195
 1535SOL     OW 5503   5.426   5.845   4.555
 1535SOL    HW1 5504   5.395   5.938   4.534
 1535SOL    HW2 5505   5.435   5.792   4.470
 1536SOL     OW 5506   3.427   4.720   5.270
 1536SOL    HW1 5507   3.347   4.660   5.281
 1536SOL    HW2 5508   3.396   4.812   5.246
 1537SOL     OW 5509   4.398   6.160   3.354
 1537SOL    HW1 5510   4.436   6.078   3.310
 1537SOL    HW2 5511   4.375   6.227   3.283
 1538SOL     OW 5512   3.081   5.591   5.310
 1538SOL    HW1 5513   3.092   5.492   5.315
 1538SOL    HW2 5514   3.091   5.630   5.402
 1539SOL     OW 5515   3.938   4.331   1.525
 1539SOL    HW1 5516   3.879   4.401   1.566
 1539SOL    HW2 5517   3.992   4.373   1.452
 1540SOL     OW 5518   0.863   6.970   5.523
 1540SOL    HW1 5519   0.945   7.014   5.560
 1540SOL    HW2 5520   0.866   6.872   5.541
 1541SOL     OW 5521   3.300   2.630   1.465
 1541SOL    HW1 5522   3.242   2.549   1.471
 1541SOL    HW2 5523   3.298   2.679   1.552
 1542SOL     OW 5524   6.462   5.671   1.499
 1542SOL    HW1 5525   6.475   5.765   1.467
 1542SOL    HW2 5526   6.501   5.661   1.591
 1543SOL     OW 5527   3.085   3.108   3.954
 1543SOL    HW1 5528   3.052   3.125   4.047
 1543SOL    HW2 5529   3.031   3.161   3.889
 1544SOL     OW 5530   3.211   4.070   2.405
 1544SOL    HW1 5531   3.294   4.121   2.430
 1544SOL    HW2 5532   3.232   3.972   2.404
 1545SOL     OW 5533   5.945   1.187   5.545
 1545SOL    HW1 5534   5.869   1.148   5.493
 1545SOL    HW2 5535   5.955   1.138   5.631
 1546SOL     OW 5536   4.848   0.016   5.997
 1546SOL    HW1 5537   4.941   0.021   6.033
 1546SOL    HW2 5538   4.850   7.005   5.902
 1547SOL     OW 5539   2.194   4.088   2.417
 1547SOL    HW1 5540   2.193   4.016   2.485
 1547SOL    HW2 5541   2.190   4.048   2.325
 1548SOL     OW 5542   4.519   3.848   5.390
 1548SOL    HW1 5543   4.615   3.867   5.371
 1548SOL    HW2 5544   4.499   3.752   5.369
 1549SOL     OW 5545   5.712   0.939   2.131
 1549SOL    HW1 5546   5.726   0.879   2.052
 1549SOL    HW2 5547   5.780   1.012   2.130
 1550SOL     OW 5548   3.028   6.814   6.054
 1550SOL    HW1 5549   3.096   6.791   5.984
 1550SOL    HW2 5550   3.006   6.732   6.107
 1551SOL     OW 5551   1.903   3.436   0.704
 1551SOL    HW1 5552   1.874   3.522   0.662
 1551SOL    HW2 5553   1.822   3.379   0.721
 1552SOL     OW 5554   0.888   0.003   1.430
 1552SOL    HW1 5555   0.809   6.976   1.388
 1552SOL    HW2 5556   0.880   0.000   1.529
 1553SOL     OW 5557   6.620   2.289   6.837
 1553SOL    HW1 5558   6.646   2.301   6.933
 1553SOL    HW2 5559   6.540   2.346   6.817
 1554SOL     OW 5560   3.737   2.024   2.563
 1554SOL    HW1 5561   3.809   2.094   2.560
 1554SOL    HW2 5562   3.693   2.018   2.474
 1555SOL     OW 5563   4.490   2.801   6.163
 1555SOL    HW1 5564   4.496   2.801   6.063
 1555SOL    HW2 5565   4.396   2.824   6.191
 1556SOL     OW 5566   4.379   1.072   0.433
 1556SOL    HW1 5567   4.429   1.128   0.366
 1556SOL    HW2 5568   4.365   0.980   0.396
 1557SOL     OW 5569   2.851   1.762   0.394
 1557SOL    HW1 5570   2.821   1.774   0.299
 1557SOL    HW2 5571   2.898   1.845   0.424
 1558SOL     OW 5572   6.020   1.837   4.530
 1558SOL    HW1 5573   6.039   1.743   4.502
 1558SOL    HW2 5574   6.091   1.898   4.494
 1559SOL     OW 5575   0.458   2.508   1.200
 1559SOL    HW1 5576   0.525   2.579   1.218
 1559SOL    HW2 5577   0.432   2.510   1.103
 1560SOL     OW 5578   2.942   1.168   6.915
 1560SOL    HW1 5579   2.849   1.143   6.942
 1560SOL    HW2 5580   3.004   1.092   6.933
 1561SOL     OW 5581   4.728   5.123   3.574
 1561SOL    HW1 5582   4.690   5.206   3.615
 1561SOL    HW2 5583   4.787   5.147   3.498
 1562SOL     OW 5584   4.063   6.571   2.171
 1562SOL    HW1 5585   4.120   6.590   2.251
 1562SOL    HW2 5586   3.971   6.607   2.185
 1563SOL     OW 5587   2.256   1.985   5.859
 1563SOL    HW1 5588   2.284   2.042   5.783
 1563SOL    HW2 5589   2.293   2.022   5.945
 1564SOL     OW 5590   1.604   2.206   2.612
 1564SOL    HW1 5591   1.661   2.175   2.688
 1564SOL    HW2 5592   1.577   2.128   2.556
 1565SOL     OW 5593   4.344   5.215   4.770
 1565SOL    HW1 5594   4.261   5.172   4.806
 1565SOL    HW2 5595   4.329   5.239   4.674
 1566SOL     OW 5596   6.253   5.158   4.399
 1566SOL    HW1 5597   6.236   5.114   4.311
 1566SOL    HW2 5598   6.332   5.218   4.391
 1567SOL     OW 5599   6.336   4.916   6.727
 1567SOL    HW1 5600   6.423   4.964   6.737
 1567SOL    HW2 5601   6.307   4.881   6.816
 1568SOL     OW 5602   2.757   6.202   3.004
 1568SOL    HW1 5603   2.829   6.256   3.048
 1568SOL    HW2 5604   2.739   6.120   3.059
 1569SOL     OW 5605   3.858   6.772   3.225
 1569SOL    HW1 5606   3.832   6.788   3.320
 1569SOL    HW2 5607   3.794   6.819   3.164
 1570SOL     OW 5608   1.851   6.767   6.498
 1570SOL    HW1 5609   1.931   6.768   6.438
 1570SOL    HW2 5610   1.850   6.849   6.554
 1571SOL     OW 5611   0.689   2.557   3.336
 1571SOL    HW1 5612   0.596   2.529   3.360
 1571SOL    HW2 5613   0.754   2.511   3.397
 1572SOL     OW 5614   2.052   5.319   2.799
 1572SOL    HW1 5615   2.023   5.384   2.729
 1572SOL    HW2 5616   2.087   5.236   2.755
 1573SOL     OW 5617   5.434   5.204   2.423
 1573SOL    HW1 5618   5.532   5.185   2.413
 1573SOL    HW2 5619   5.392   5.132   2.477
 1574SOL     OW 5620   6.694   2.897   2.685
 1574SOL    HW1 5621   6.610   2.889   2.739
 1574SOL    HW2 5622   6.672   2.934   2.594
 1575SOL     OW 5623   2.595   0.709   1.463
 1575SOL    HW1 5624   2.630   0.750   1.547
 1575SOL    HW2 5625   2.667   0.654   1.421
 1576SOL     OW 5626   1.089   6.786   3.106
 1576SOL    HW1 5627   1.176   6.820   3.144
 1576SOL    HW2 5628   1.043   6.730   3.175
 1577SOL     OW 5629   2.438   0.722   5.910
 1577SOL    HW1 5630   2.376   0.779   5.964
 1577SOL    HW2 5631   2.479   0.653   5.970
 1578SOL     OW 5632   4.798   1.307   6.042
 1578SOL    HW1 5633   4.821   1.300   6.139
 1578SOL    HW2 5634   4.737   1.385   6.028
 1579SOL     OW 5635   6.593   2.024   1.440
 1579SOL    HW1 5636   6.528   1.961   1.483
 1579SOL    HW2 5637   6.683   1.979   1.433
 1580SOL     OW 5638   3.389   4.040   3.316
 1580SOL    HW1 5639   3.425   4.104   3.385
 1580SOL    HW2 5640   3.408   3.946   3.345
 1581SOL     OW 5641   0.046   4.211   5.468
 1581SOL    HW1 5642   6.965   4.217   5.464
 1581SOL    HW2 5643   0.073   4.115   5.477
 1582SOL     OW 5644   3.488   6.262   4.724
 1582SOL    HW1 5645   3.538   6.338   4.682
 1582SOL    HW2 5646   3.460   6.197   4.654
 1583SOL     OW 5647   1.104   5.856   4.030
 1583SOL    HW1 5648   1.028   5.817   3.977
 1583SOL    HW2 5649   1.158   5.781   4.069
 1584SOL     OW 5650   0.954   5.023   6.283
 1584SOL    HW1 5651   0.923   4.928   6.291
 1584SOL    HW2 5652   0.879   5.081   6.251
 1585SOL     OW 5653   4.578   1.935   2.868
 1585SOL    HW1 5654   4.515   1.857   2.869
 1585SOL    HW2 5655   4.669   1.904   2.895
 1586SOL     OW 5656   3.527   4.948   3.250
 1586SOL    HW1 5657   3.460   4.972   3.180
 1586SOL    HW2 5658   3.603   4.899   3.208
 1587SOL     OW 5659   2.155   4.808   5.229
 1587SOL    HW1 5660   2.086   4.736   5.231
 1587SOL    HW2 5661   2.112   4.895   5.204
 1588SOL     OW 5662   4.693   0.841   2.199
 1588SOL    HW1 5663   4.599   0.855   2.231
 1588SOL    HW2 5664   4.716   0.744   2.207
 1589SOL     OW 5665   0.283   3.221   2.369
 1589SOL    HW1 5666   0.329   3.260   2.448
 1589SOL    HW2 5667   0.201   3.172   2.399
 1590SOL     OW 5668   5.443   0.930   3.773
 1590SOL    HW1 5669   5.374   0.871   3.816
 1590SOL    HW2 5670   5.534   0.888   3.783
 1591SOL     OW 5671   6.857   6.154   1.123
 1591SOL    HW1 5672   6.882   6.104   1.040
 1591SOL    HW2 5673   6.928   6.221   1.144
 1592SOL     OW 5674   1.751   3.478   0.084
 1592SOL    HW1 5675   1.748   3.390   0.131
 1592SOL    HW2 5676   1.846   3.508   0.077
 1593SOL     OW 5677   0.853   0.067   6.009
 1593SOL    HW1 5678   0.787   0.040   5.939
 1593SOL    HW2 5679   0.944   0.074   5.969
 1594SOL     OW 5680   0.302   6.078   2.118
 1594SOL    HW1 5681   0.393   6.104   2.088
 1594SOL    HW2 5682   0.235   6.142   2.081
 1595SOL     OW 5683   1.157   4.609   0.532
 1595SOL    HW1 5684   1.082   4.608   0.598
 1595SOL    HW2 5685   1.185   4.515   0.512
 1596SOL     OW 5686   6.638   2.982   2.436
 1596SOL    HW1 5687   6.724   3.033   2.439
 1596SOL    HW2 5688   6.561   3.044   2.448
 1597SOL     OW 5689   1.566   6.449   0.871
 1597SOL    HW1 5690   1.559   6.418   0.777
 1597SOL    HW2 5691   1.598   6.374   0.929
 1598SOL     OW 5692   1.232   5.058   6.410
 1598SOL    HW1 5693   1.257   4.963   6.426
 1598SOL    HW2 5694   1.135   5.064   6.389
 1599SOL     OW 5695   5.331   5.070   5.305
 1599SOL    HW1 5696   5.376   5.093   5.390
 1599SOL    HW2 5697   5.238   5.107   5.305
 1600SOL     OW 5698   3.115   1.539   2.737
 1600SOL    HW1 5699   3.204   1.581   2.722
 1600SOL    HW2 5700   3.043   1.597   2.699
 1601SOL     OW 5701   0.510   6.797   4.582
 1601SOL    HW1 5702   0.467   6.715   4.620
 1601SOL    HW2 5703   0.533   6.781   4.486
 1602SOL     OW 5704   4.342   5.300   4.476
 1602SOL    HW1 5705   4.289   5.383   4.495
 1602SOL    HW2 5706   4.297   5.248   4.404
 1603SOL     OW 5707   3.294   5.191   3.582
 1603SOL    HW1 5708   3.244   5.104   3.581
 1603SOL    HW2 5709   3.328   5.210   3.489
 1604SOL     OW 5710   4.202   4.850   1.341
 1604SOL    HW1 5711   4.135   4.879   1.409
 1604SOL    HW2 5712   4.155   4.821   1.257
 1605SOL     OW 5713   6.529   5.504   1.906
 1605SOL    HW1 5714   6.453   5.443   1.926
 1605SOL    HW2 5715   6.549   5.560   1.987
 1606SOL     OW 5716   3.766   5.603   5.379
 1606SOL    HW1 5717   3.811   5.515   5.364
 1606SOL    HW2 5718   3.678   5.604   5.332
 1607SOL     OW 5719   4.434   0.399   0.844
 1607SOL    HW1 5720   4.494   0.321   0.823
 1607SOL    HW2 5721   4.428   0.411   0.943
 1608SOL     OW 5722   6.822   0.713   2.765
 1608SOL    HW1 5723   6.845   0.724   2.668
 1608SOL    HW2 5724   6.899   0.671   2.813
 1609SOL     OW 5725   3.107   6.942   0.641
 1609SOL    HW1 5726   3.198   6.943   0.682
 1609SOL    HW2 5727   3.115   6.921   0.544
 1610SOL     OW 5728   4.867   5.865   0.663
 1610SOL    HW1 5729   4.857   5.788   0.726
 1610SOL    HW2 5730   4.864   5.831   0.569
 1611SOL     OW 5731   2.024   3.863   0.978
 1611SOL    HW1 5732   2.034   3.939   0.914
 1611SOL    HW2 5733   2.104   3.803   0.971
 1612SOL     OW 5734   3.916   6.989   1.391
 1612SOL    HW1 5735   3.929   6.954   1.298
 1612SOL    HW2 5736   4.001   0.013   1.423
 1613SOL     OW 5737   1.361   6.021   1.739
 1613SOL    HW1 5738   1.381   5.935   1.786
 1613SOL    HW2 5739   1.409   6.022   1.651
 1614SOL     OW 5740   5.801   1.896   6.390
 1614SOL    HW1 5741   5.758   1.808   6.369
 1614SOL    HW2 5742   5.852   1.928   6.310
 1615SOL     OW 5743   6.753   6.011   0.032
 1615SOL    HW1 5744   6.852   6.001   0.038
 1615SOL    HW2 5745   6.710   5.927   0.066
 1616SOL     OW 5746   4.407   0.174   3.705
 1616SOL    HW1 5747   4.384   0.271   3.712
 1616SOL    HW2 5748   4.503   0.160   3.732
 1617SOL     OW 5749   5.387   6.350   2.927
 1617SOL    HW1 5750   5.471   6.353   2.872
 1617SOL    HW2 5751   5.405   6.389   3.017
 1618SOL     OW 5752   1.955   6.738   3.354
 1618SOL    HW1 5753   1.961   6.705   3.260
 1618SOL    HW2 5754   1.871   6.790   3.367
 1619SOL     OW 5755   0.096   4.939   6.870
 1619SOL    HW1 5756   0.141   4.961   6.957
 1619SOL    HW2 5757   0.142   4.988   6.796
 1620SOL     OW 5758   3.741   4.518   1.603
 1620SOL    HW1 5759   3.696   4.566   1.678
 1620SOL    HW2 5760   3.672   4.491   1.535
 1621SOL     OW 5761   5.630   0.368   1.384
 1621SOL    HW1 5762   5.610   0.322   1.297
 1621SOL    HW2 5763   5.546   0.378   1.436
 1622SOL     OW 5764   0.767   3.530   5.450
 1622SOL    HW1 5765   0.728   3.577   5.528
 1622SOL    HW2 5766   0.844   3.582   5.413
 1623SOL     OW 5767   0.262   2.861   4.936
 1623SOL    HW1 5768   0.215   2.836   4.851
 1623SOL    HW2 5769   0.269   2.961   4.942
 1624SOL     OW 5770   4.334   1.177   5.596
 1624SOL    HW1 5771   4.358   1.271   5.572
 1624SOL    HW2 5772   4.278   1.137   5.523
 1625SOL     OW 5773   1.892   4.939   6.990
 1625SOL    HW1 5774   1.948   4.905   0.047
 1625SOL    HW2 5775   1.882   4.868   6.921
 1626SOL     OW 5776   3.239   1.173   1.154
 1626SOL    HW1 5777   3.158   1.159   1.098
 1626SOL    HW2 5778   3.280   1.085   1.176
 1627SOL     OW 5779   5.594   2.654   3.551
 1627SOL    HW1 5780   5.502   2.646   3.588
 1627SOL    HW2 5781   5.591   2.649   3.451
 1628SOL     OW 5782   4.539   5.374   7.019
 1628SOL    HW1 5783   4.621   5.327   6.986
 1628SOL    HW2 5784   4.465   5.363   6.951
 1629SOL     OW 5785   2.628   1.093   3.766
 1629SOL    HW1 5786   2.633   1.059   3.860
 1629SOL    HW2 5787   2.707   1.059   3.714
 1630SOL     OW 5788   0.413   3.969   5.553
 1630SOL    HW1 5789   0.464   3.921   5.482
 1630SOL    HW2 5790   0.315   3.960   5.536
 1631SOL     OW 5791   0.415   3.338   0.628
 1631SOL    HW1 5792   0.499   3.323   0.681
 1631SOL    HW2 5793   0.337   3.303   0.678
 1632SOL     OW 5794   4.923   3.304   2.596
 1632SOL    HW1 5795   4.930   3.396   2.635
 1632SOL    HW2 5796   4.953   3.306   2.501
 1633SOL     OW 5797   4.818   3.992   4.670
 1633SOL    HW1 5798   4.760   3.971   4.591
 1633SOL    HW2 5799   4.853   3.906   4.708
 1634SOL     OW 5800   4.825   0.128   4.167
 1634SOL    HW1 5801   4.862   0.144   4.259
 1634SOL    HW2 5802   4.799   0.215   4.126
 1635SOL     OW 5803   0.734   4.858   6.592
 1635SOL    HW1 5804   0.805   4.807   6.542
 1635SOL    HW2 5805   0.650   4.859   6.538
 1636SOL     OW 5806   3.296   5.079   1.601
 1636SOL    HW1 5807   3.320   5.086   1.697
 1636SOL    HW2 5808   3.243   4.995   1.586
 1637SOL     OW 5809   0.206   6.899   4.204
 1637SOL    HW1 5810   0.302   6.919   4.185
 1637SOL    HW2 5811   0.157   6.984   4.220
 1638SOL     OW 5812   0.584   3.398   2.311
 1638SOL    HW1 5813   0.583   3.388   2.411
 1638SOL    HW2 5814   0.561   3.310   2.269
 1639SOL     OW 5815   5.313   5.225   1.679
 1639SOL    HW1 5816   5.321   5.241   1.580
 1639SOL    HW2 5817   5.382   5.159   1.707
 1640SOL     OW 5818   6.067   0.708   0.284
 1640SOL    HW1 5819   6.028   0.631   0.335
 1640SOL    HW2 5820   5.992   0.765   0.249
 1641SOL     OW 5821   6.175   1.837   2.875
 1641SOL    HW1 5822   6.156   1.812   2.970
 1641SOL    HW2 5823   6.254   1.785   2.842
 1642SOL     OW 5824   6.464   3.123   6.701
 1642SOL    HW1 5825   6.482   3.220   6.686
 1642SOL    HW2 5826   6.367   3.110   6.722
 1643SOL     OW 5827   2.984   4.958   3.238
 1643SOL    HW1 5828   2.970   5.049   3.276
 1643SOL    HW2 5829   2.900   4.905   3.245
 1644SOL     OW 5830   5.301   3.763   6.658
 1644SOL    HW1 5831   5.293   3.716   6.746
 1644SOL    HW2 5832   5.220   3.743   6.603
 1645SOL     OW 5833   2.835   5.971   6.074
 1645SOL    HW1 5834   2.835   5.947   5.977
 1645SOL    HW2 5835   2.909   6.035   6.093
 1646SOL     OW 5836   2.526   6.855   0.517
 1646SOL    HW1 5837   2.562   6.833   0.426
 1646SOL    HW2 5838   2.578   6.929   0.558
 1647SOL     OW 5839   6.338   2.262   4.320
 1647SOL    HW1 5840   6.327   2.357   4.349
 1647SOL    HW2 5841   6.366   2.206   4.398
 1648SOL     OW 5842   5.532   6.087   6.982
 1648SOL    HW1 5843   5.472   6.055   0.037
 1648SOL    HW2 5844   5.625   6.056   6.999
 1649SOL     OW 5845   3.525   1.851   4.308
 1649SOL    HW1 5846   3.429   1.834   4.333
 1649SOL    HW2 5847   3.531   1.937   4.258
 1650SOL     OW 5848   0.683   5.290   4.428
 1650SOL    HW1 5849   0.653   5.366   4.486
 1650SOL    HW2 5850   0.697   5.209   4.484
 1651SOL     OW 5851   0.478   2.305   1.905
 1651SOL    HW1 5852   0.452   2.338   1.995
 1651SOL    HW2 5853   0.437   2.363   1.835
 1652SOL     OW 5854   1.341   3.304   2.502
 1652SOL    HW1 5855   1.316   3.304   2.599
 1652SOL    HW2 5856   1.274   3.358   2.451
 1653SOL     OW 5857   0.205   6.414   0.742
 1653SOL    HW1 5858   0.232   6.335   0.798
 1653SOL    HW2 5859   0.176   6.489   0.801
 1654SOL     OW 5860   6.636   3.355   1.424
 1654SOL    HW1 5861   6.548   3.314   1.446
 1654SOL    HW2 5862   6.625   3.454   1.413
 1655SOL     OW 5863   0.476   2.022   4.497
 1655SOL    HW1 5864   0.479   1.944   4.434
 1655SOL    HW2 5865   0.385   2.062   4.497
 1656SOL     OW 5866   1.885   5.323   3.030
 1656SOL    HW1 5867   1.974   5.343   3.071
 1656SOL    HW2 5868   1.899   5.283   2.939
 1657SOL     OW 5869   5.850   0.460   4.511
 1657SOL    HW1 5870   5.837   0.363   4.488
 1657SOL    HW2 5871   5.909   0.467   4.592
 1658SOL     OW 5872   5.973   0.978   1.078
 1658SOL    HW1 5873   5.963   0.914   1.154
 1658SOL    HW2 5874   6.015   1.063   1.111
 1659SOL     OW 5875   3.433   0.299   0.195
 1659SOL    HW1 5876   3.446   0.231   0.124
 1659SOL    HW2 5877   3.338   0.295   0.228
 1660SOL     OW 5878   1.685   6.373   2.407
 1660SOL    HW1 5879   1.662   6.282   2.440
 1660SOL    HW2 5880   1.784   6.385   2.410
 1661SOL     OW 5881   1.778   6.243   1.398
 1661SOL    HW1 5882   1.693   6.281   1.434
 1661SOL    HW2 5883   1.788   6.148   1.429
 1662SOL     OW 5884   0.226   0.783   4.042
 1662SOL    HW1 5885   0.245   0.865   3.988
 1662SOL    HW2 5886   0.195   0.810   4.133
 1663SOL     OW 5887   4.588   5.363   3.638
 1663SOL    HW1 5888   4.555   5.321   3.553
 1663SOL    HW2 5889   4.570   5.461   3.637
 1664SOL     OW 5890   2.532   5.943   5.148
 1664SOL    HW1 5891   2.580   5.952   5.061
 1664SOL    HW2 5892   2.433   5.952   5.133
 1665SOL     OW 5893   6.470   3.691   1.866
 1665SOL    HW1 5894   6.382   3.681   1.821
 1665SOL    HW2 5895   6.506   3.601   1.890
 1666SOL     OW 5896   5.932   0.707   6.977
 1666SOL    HW1 5897   5.887   0.646   6.912
 1666SOL    HW2 5898   5.892   0.799   6.970
 1667SOL     OW 5899   6.991   5.924   1.392
 1667SOL    HW1 5900   6.943   5.934   1.479
 1667SOL    HW2 5901   0.030   6.004   1.376
 1668SOL     OW 5902   4.593   4.873   3.503
 1668SOL    HW1 5903   4.665   4.824   3.454
 1668SOL    HW2 5904   4.621   4.969   3.516
 1669SOL     OW 5905   6.614   4.597   5.783
 1669SOL    HW1 5906   6.694   4.647   5.749
 1669SOL    HW2 5907   6.640   4.503   5.803
 1670SOL     OW 5908   0.398   4.675   5.281
 1670SOL    HW1 5909   0.451   4.750   5.320
 1670SOL    HW2 5910   0.445   4.588   5.298
 1671SOL     OW 5911   5.784   1.535   3.538
 1671SOL    HW1 5912   5.692   1.563   3.512
 1671SOL    HW2 5913   5.806   1.448   3.494
 1672SOL     OW 5914   2.540   3.755   0.982
 1672SOL    HW1 5915   2.601   3.679   0.963
 1672SOL    HW2 5916   2.445   3.725   0.973
 1673SOL     OW 5917   1.257   1.971   4.428
 1673SOL    HW1 5918   1.268   2.032   4.349
 1673SOL    HW2 5919   1.284   1.878   4.403
 1674SOL     OW 5920   0.434   3.134   2.155
 1674SOL    HW1 5921   0.475   3.048   2.186
 1674SOL    HW2 5922   0.357   3.158   2.214
 1675SOL     OW 5923   4.411   0.447   0.286
 1675SOL    HW1 5924   4.336   0.507   0.259
 1675SOL    HW2 5925   4.471   0.495   0.349
 1676SOL     OW 5926   2.316   2.790   2.148
 1676SOL    HW1 5927   2.362   2.730   2.214
 1676SOL    HW2 5928   2.312   2.883   2.184
 1677SOL     OW 5929   3.995   3.904   3.831
 1677SOL    HW1 5930   4.010   3.897   3.929
 1677SOL    HW2 5931   4.068   3.856   3.782
 1678SOL     OW 5932   0.217   5.138   2.047
 1678SOL    HW1 5933   0.210   5.205   2.120
 1678SOL    HW2 5934   0.135   5.081   2.046
 1679SOL     OW 5935   1.936   1.424   4.502
 1679SOL    HW1 5936   2.000   1.347   4.501
 1679SOL    HW2 5937   1.875   1.417   4.423
 1680SOL     OW 5938   6.260   3.701   5.656
 1680SOL    HW1 5939   6.175   3.751   5.639
 1680SOL    HW2 5940   6.286   3.712   5.752
 1681SOL     OW 5941   0.845   5.750   6.316
 1681SOL    HW1 5942   0.921   5.813   6.303
 1681SOL    HW2 5943   0.759   5.796   6.291
 1682SOL     OW 5944   1.306   0.585   5.737
 1682SOL    HW1 5945   1.343   0.615   5.824
 1682SOL    HW2 5946   1.331   0.490   5.721
 1683SOL     OW 5947   5.693   5.383   2.925
 1683SOL    HW1 5948   5.684   5.453   2.854
 1683SOL    HW2 5949   5.762   5.412   2.991
 1684SOL     OW 5950   0.137   6.284   1.994
 1684SOL    HW1 5951   0.043   6.251   1.984
 1684SOL    HW2 5952   0.138   6.384   1.987
 1685SOL     OW 5953   1.770   1.419   5.795
 1685SOL    HW1 5954   1.736   1.505   5.757
 1685SOL    HW2 5955   1.850   1.436   5.852
 1686SOL     OW 5956   2.208   6.278   4.157
 1686SOL    HW1 5957   2.133   6.222   4.122
 1686SOL    HW2 5958   2.295   6.240   4.127
 1687SOL     OW 5959   1.478   2.703   1.981
 1687SOL    HW1 5960   1.492   2.704   2.080
 1687SOL    HW2 5961   1.556   2.659   1.937
 1688SOL     OW 5962   1.807   1.571   3.499
 1688SOL    HW1 5963   1.735   1.585   3.431
 1688SOL    HW2 5964   1.795   1.635   3.575
 1689SOL     OW 5965   6.791   0.991   2.766
 1689SOL    HW1 5966   6.763   1.017   2.674
 1689SOL    HW2 5967   6.803   0.892   2.771
 1690SOL     OW 5968   1.372   2.664   4.764
 1690SOL    HW1 5969   1.440   2.591   4.770
 1690SOL    HW2 5970   1.285   2.626   4.734
 1691SOL     OW 5971   5.894   3.115   3.942
 1691SOL    HW1 5972   5.930   3.154   4.027
 1691SOL    HW2 5973   5.938   3.027   3.924
 1692SOL     OW 5974   3.969   6.224   1.252
 1692SOL    HW1 5975   3.926   6.302   1.206
 1692SOL    HW2 5976   3.992   6.154   1.183
 1693SOL     OW 5977   6.553   1.907   2.961
 1693SOL    HW1 5978   6.562   2.006   2.947
 1693SOL    HW2 5979   6.639   1.862   2.937
 1694SOL     OW 5980   6.721   1.794   3.984
 1694SOL    HW1 5981   6.646   1.831   4.039
 1694SOL    HW2 5982   6.714   1.694   3.980
 1695SOL     OW 5983   3.590   0.819   6.116
 1695SOL    HW1 5984   3.545   0.848   6.032
 1695SOL    HW2 5985   3.526   0.765   6.172
 1696SOL     OW 5986   3.508   6.218   1.159
 1696SOL    HW1 5987   3.582   6.240   1.223
 1696SOL    HW2 5988   3.443   6.157   1.203
 1697SOL     OW 5989   6.434   1.645   0.806
 1697SOL    HW1 5990   6.454   1.698   0.889
 1697SOL    HW2 5991   6.452   1.549   0.823
 1698SOL     OW 5992   3.753   0.133   1.165
 1698SOL    HW1 5993   3.845   0.147   1.200
 1698SOL    HW2 5994   3.757   0.078   1.081
 1699SOL     OW 5995   1.723   1.799   6.220
 1699SOL    HW1 5996   1.670   1.857   6.159
 1699SOL    HW2 5997   1.790   1.855   6.268
 1700SOL     OW 5998   6.329   4.462   3.064
 1700SOL    HW1 5999   6.375   4.483   2.978
 1700SOL    HW2 6000   6.235   4.433   3.045
 1701SOL     OW 6001   5.652   5.829   5.726
 1701SOL    HW1 6002   5.701   5.902   5.772
 1701SOL    HW2 6003   5.675   5.741   5.768
 1702SOL     OW 6004   6.403   1.457   1.027
 1702SOL    HW1 6005   6.311   1.491   1.011
 1702SOL    HW2 6006   6.460   1.531   1.062
 1703SOL     OW 6007   3.560   1.355   6.753
 1703SOL    HW1 6008   3.580   1.259   6.766
 1703SOL    HW2 6009   3.472   1.365   6.706
 1704SOL     OW 6010   0.986   2.467   0.289
 1704SOL    HW1 6011   1.026   2.510   0.370
 1704SOL    HW2 6012   0.886   2.468   0.297
 1705SOL     OW 6013   3.222   2.109   1.678
 1705SOL    HW1 6014   3.244   2.013   1.693
 1705SOL    HW2 6015   3.218   2.156   1.767
 1706SOL     OW 6016   4.301   1.574   2.068
 1706SOL    HW1 6017   4.392   1.550   2.035
 1706SOL    HW2 6018   4.246   1.608   1.992
 1707SOL     OW 6019   4.744   2.806   2.794
 1707SOL    HW1 6020   4.670   2.857   2.749
 1707SOL    HW2 6021   4.797   2.868   2.852
 1708SOL     OW 6022   4.414   5.775   1.705
 1708SOL    HW1 6023   4.508   5.768   1.737
 1708SOL    HW2 6024   4.402   5.860   1.653
 1709SOL     OW 6025   3.630   6.173   2.872
 1709SOL    HW1 6026   3.547   6.156   2.925
 1709SOL    HW2 6027   3.678   6.253   2.908
 1710SOL     OW 6028   4.116   4.718   3.220
 1710SOL    HW1 6029   4.174   4.698   3.141
 1710SOL    HW2 6030   4.168   4.703   3.304
 1711SOL     OW 6031   1.806   5.495   4.543
 1711SOL    HW1 6032   1.741   5.434   4.497
 1711SOL    HW2 6033   1.886   5.508   4.486
 1712SOL     OW 6034   6.746   2.176   5.025
 1712SOL    HW1 6035   6.687   2.111   5.073
 1712SOL    HW2 6036   6.835   2.179   5.071
 1713SOL     OW 6037   4.281   1.534   2.423
 1713SOL    HW1 6038   4.294   1.464   2.494
 1713SOL    HW2 6039   4.355   1.528   2.356
 1714SOL     OW 6040   3.859   1.914   5.784
 1714SOL    HW1 6041   3.812   1.837   5.827
 1714SOL    HW2 6042   3.937   1.941   5.841
 1715SOL     OW 6043   2.319   6.335   3.483
 1715SOL    HW1 6044   2.236   6.298   3.525
 1715SOL    HW2 6045   2.299   6.362   3.389
 1716SOL     OW 6046   4.088   0.122   3.818
 1716SOL    HW1 6047   3.995   0.133   3.852
 1716SOL    HW2 6048   4.116   0.205   3.770
 1717SOL     OW 6049   3.247   5.886   4.827
 1717SOL    HW1 6050   3.194   5.968   4.806
 1717SOL    HW2 6051   3.185   5.810   4.843
 1718SOL     OW 6052   2.664   1.471   2.233
 1718SOL    HW1 6053   2.587   1.467   2.170
 1718SOL    HW2 6054   2.748   1.487   2.182
 1719SOL     OW 6055   2.061   3.498   0.927
 1719SOL    HW1 6056   2.010   3.473   0.845
 1719SOL    HW2 6057   2.138   3.436   0.939
 1720SOL     OW 6058   6.945   3.118   6.403
 1720SOL    HW1 6059   6.853   3.127   6.440
 1720SOL    HW2 6060   7.010   3.164   6.463
 1721SOL     OW 6061   1.888   6.639   1.606
 1721SOL    HW1 6062   1.873   6.701   1.682
 1721SOL    HW2 6063   1.964   6.577   1.628
 1722SOL     OW 6064   4.232   1.418   3.721
 1722SOL    HW1 6065   4.139   1.396   3.751
 1722SOL    HW2 6066   4.235   1.422   3.622
 1723SOL     OW 6067   5.113   2.590   0.027
 1723SOL    HW1 6068   5.196   2.628   7.005
 1723SOL    HW2 6069   5.119   2.491   0.029
 1724SOL     OW 6070   0.103   2.942   2.163
 1724SOL    HW1 6071   0.172   2.880   2.200
 1724SOL    HW2 6072   0.063   2.902   2.081
 1725SOL     OW 6073   1.748   4.775   6.770
 1725SOL    HW1 6074   1.714   4.832   6.695
 1725SOL    HW2 6075   1.793   4.694   6.732
 1726SOL     OW 6076   5.147   3.830   4.540
 1726SOL    HW1 6077   5.089   3.876   4.473
 1726SOL    HW2 6078   5.120   3.734   4.548
 1727SOL     OW 6079   4.137   3.507   3.620
 1727SOL    HW1 6080   4.155   3.426   3.564
 1727SOL    HW2 6081   4.064   3.561   3.578
 1728SOL     OW 6082   5.510   4.737   5.927
 1728SOL    HW1 6083   5.432   4.691   5.885
 1728SOL    HW2 6084   5.593   4.685   5.906
 1729SOL     OW 6085   2.153   3.753   3.132
 1729SOL    HW1 6086   2.245   3.791   3.119
 1729SOL    HW2 6087   2.132   3.750   3.229
 1730SOL     OW 6088   2.493   0.297   4.789
 1730SOL    HW1 6089   2.414   0.270   4.734
 1730SOL    HW2 6090   2.576   0.294   4.733
 1731SOL     OW 6091   0.252   4.259   3.660
 1731SOL    HW1 6092   0.262   4.209   3.746
 1731SOL    HW2 6093   0.228   4.195   3.587
 1732SOL     OW 6094   2.234   4.448   6.286
 1732SOL    HW1 6095   2.200   4.414   6.198
 1732SOL    HW2 6096   2.240   4.372   6.351
 1733SOL     OW 6097   1.688   3.991   1.521
 1733SOL    HW1 6098   1.678   4.060   1.449
 1733SOL    HW2 6099   1.597   3.959   1.548
 1734SOL     OW 6100   5.275   3.077   1.670
 1734SOL    HW1 6101   5.347   3.142   1.645
 1734SOL    HW2 6102   5.204   3.124   1.722
 1735SOL     OW 6103   4.942   5.810   6.620
 1735SOL    HW1 6104   4.936   5.744   6.545
 1735SOL    HW2 6105   4.961   5.762   6.705
 1736SOL     OW 6106   4.099   3.813   0.755
 1736SOL    HW1 6107   4.020   3.832   0.814
 1736SOL    HW2 6108   4.182   3.813   0.809
 1737SOL     OW 6109   5.128   6.737   4.916
 1737SOL    HW1 6110   5.152   6.768   4.824
 1737SOL    HW2 6111   5.209   6.745   4.975
 1738SOL     OW 6112   2.394   2.610   4.419
 1738SOL    HW1 6113   2.490   2.581   4.421
 1738SOL    HW2 6114   2.365   2.623   4.324
 1739SOL     OW 6115   0.342   1.354   4.740
 1739SOL    HW1 6116   0.297   1.343   4.829
 1739SOL    HW2 6117   0.355   1.263   4.698
 1740SOL     OW 6118   0.110   1.998   5.477
 1740SOL    HW1 6119   0.168   2.059   5.424
 1740SOL    HW2 6120   0.057   2.051   5.543
 1741SOL     OW 6121   2.515   0.922   4.859
 1741SOL    HW1 6122   2.601   0.869   4.858
 1741SOL    HW2 6123   2.521   0.994   4.928
 1742SOL     OW 6124   5.583   0.611   5.509
 1742SOL    HW1 6125   5.498   0.647   5.545
 1742SOL    HW2 6126   5.653   0.682   5.510
 1743SOL     OW 6127   0.827   1.049   2.451
 1743SOL    HW1 6128   0.748   0.993   2.477
 1743SOL    HW2 6129   0.910   0.994   2.455
 1744SOL     OW 6130   5.695   3.736   3.413
 1744SOL    HW1 6131   5.773   3.701   3.360
 1744SOL    HW2 6132   5.679   3.676   3.492
 1745SOL     OW 6133   5.640   6.336   2.667
 1745SOL    HW1 6134   5.699   6.265   2.629
 1745SOL    HW2 6135   5.606   6.308   2.756
 1746SOL     OW 6136   1.698   4.533   4.388
 1746SOL    HW1 6137   1.702   4.618   4.336
 1746SOL    HW2 6138   1.655   4.550   4.477
 1747SOL     OW 6139   3.718   1.389   2.702
 1747SOL    HW1 6140   3.708   1.466   2.638
 1747SOL    HW2 6141   3.810   1.391   2.741
 1748SOL     OW 6142   6.853   2.082   4.431
 1748SOL    HW1 6143   6.897   1.992   4.437
 1748SOL    HW2 6144   6.803   2.090   4.345
 1749SOL     OW 6145   1.903   0.121   5.940
 1749SOL    HW1 6146   1.916   0.114   6.039
 1749SOL    HW2 6147   1.938   0.039   5.896
 1750SOL     OW 6148   5.657   0.281   4.012
 1750SOL    HW1 6149   5.727   0.308   3.947
 1750SOL    HW2 6150   5.574   0.254   3.963
 1751SOL     OW 6151   5.334   1.569   4.804
 1751SOL    HW1 6152   5.395   1.620   4.742
 1751SOL    HW2 6153   5.371   1.478   4.820
 1752SOL     OW 6154   5.772   0.613   1.562
 1752SOL    HW1 6155   5.790   0.705   1.526
 1752SOL    HW2 6156   5.766   0.548   1.486
 1753SOL     OW 6157   6.785   0.580   1.417
 1753SOL    HW1 6158   6.781   0.577   1.517
 1753SOL    HW2 6159   6.851   0.649   1.389
 1754SOL     OW 6160   2.061   5.250   6.517
 1754SOL    HW1 6161   2.007   5.167   6.527
 1754SOL    HW2 6162   2.067   5.274   6.420
 1755SOL     OW 6163   0.172   5.628   6.419
 1755SOL    HW1 6164   0.239   5.669   6.481
 1755SOL    HW2 6165   0.094   5.594   6.472
 1756SOL     OW 6166   4.184   5.665   6.478
 1756SOL    HW1 6167   4.280   5.637   6.481
 1756SOL    HW2 6168   4.134   5.622   6.553
 1757SOL     OW 6169   3.671   5.819   4.969
 1757SOL    HW1 6170   3.631   5.888   4.910
 1757SOL    HW2 6171   3.598   5.767   5.014
 1758SOL     OW 6172   1.555   1.261   4.312
 1758SOL    HW1 6173   1.456   1.268   4.323
 1758SOL    HW2 6174   1.588   1.179   4.359
 1759SOL     OW 6175   2.785   6.560   5.634
 1759SOL    HW1 6176   2.749   6.650   5.657
 1759SOL    HW2 6177   2.778   6.499   5.714
 1760SOL     OW 6178   6.247   1.086   3.939
 1760SOL    HW1 6179   6.235   1.073   3.841
 1760SOL    HW2 6180   6.344   1.073   3.963
 1761SOL     OW 6181   0.362   1.104   1.885
 1761SOL    HW1 6182   0.266   1.075   1.883
 1761SOL    HW2 6183   0.371   1.192   1.838
 1762SOL     OW 6184   0.346   1.623   4.686
 1762SOL    HW1 6185   0.416   1.623   4.614
 1762SOL    HW2 6186   0.342   1.533   4.729
 1763SOL     OW 6187   1.296   4.843   4.360
 1763SOL    HW1 6188   1.356   4.921   4.341
 1763SOL    HW2 6189   1.202   4.875   4.371
 1764SOL     OW 6190   1.638   3.277   1.956
 1764SOL    HW1 6191   1.657   3.198   2.014
 1764SOL    HW2 6192   1.662   3.361   2.006
 1765SOL     OW 6193   3.396   1.303   1.488
 1765SOL    HW1 6194   3.347   1.367   1.429
 1765SOL    HW2 6195   3.483   1.345   1.516
 1766SOL     OW 6196   5.451   4.424   4.251
 1766SOL    HW1 6197   5.466   4.348   4.187
 1766SOL    HW2 6198   5.530   4.431   4.312
 1767SOL     OW 6199   1.160   4.565   3.734
 1767SOL    HW1 6200   1.132   4.534   3.825
 1767SOL    HW2 6201   1.207   4.490   3.687
 1768SOL     OW 6202   3.534   1.069   6.784
 1768SOL    HW1 6203   3.590   0.988   6.799
 1768SOL    HW2 6204   3.438   1.042   6.774
 1769SOL     OW 6205   6.129   1.013   6.903
 1769SOL    HW1 6206   6.135   0.925   6.856
 1769SOL    HW2 6207   6.033   1.030   6.928
 1770SOL     OW 6208   0.550   4.814   4.963
 1770SOL    HW1 6209   0.591   4.750   5.028
 1770SOL    HW2 6210   0.618   4.882   4.936
 1771SOL     OW 6211   1.439   5.436   0.567
 1771SOL    HW1 6212   1.447   5.379   0.485
 1771SOL    HW2 6213   1.530   5.462   0.598
 1772SOL     OW 6214   3.622   5.558   4.030
 1772SOL    HW1 6215   3.633   5.588   3.935
 1772SOL    HW2 6216   3.586   5.465   4.031
 1773SOL     OW 6217   2.274   2.297   5.976
 1773SOL    HW1 6218   2.288   2.320   5.880
 1773SOL    HW2 6219   2.331   2.219   6.001
 1774SOL     OW 6220   5.415   6.464   1.580
 1774SOL    HW1 6221   5.501   6.484   1.532
 1774SOL    HW2 6222   5.361   6.547   1.587
 1775SOL     OW 6223   1.961   5.569   5.971
 1775SOL    HW1 6224   1.998   5.618   5.892
 1775SOL    HW2 6225   1.985   5.472   5.965
 1776SOL     OW 6226   4.746   0.619   6.067
 1776SOL    HW1 6227   4.656   0.582   6.044
 1776SOL    HW2 6228   4.810   0.544   6.082
 1777SOL     OW 6229   3.367   0.000   6.487
 1777SOL    HW1 6230   3.364   0.038   6.395
 1777SOL    HW2 6231   3.429   0.054   6.543
 1778SOL     OW 6232   4.973   1.948   4.359
 1778SOL    HW1 6233   5.018   1.892   4.289
 1778SOL    HW2 6234   4.923   1.888   4.422
 1779SOL     OW 6235   4.936   0.419   5.979
 1779SOL    HW1 6236   5.008   0.393   5.916
 1779SOL    HW2 6237   4.859   0.356   5.970
 1780SOL     OW 6238   1.810   3.503   5.518
 1780SOL    HW1 6239   1.892   3.449   5.537
 1780SOL    HW2 6240   1.836   3.588   5.472
 1781SOL     OW 6241   5.438   6.615   5.184
 1781SOL    HW1 6242   5.523   6.656   5.150
 1781SOL    HW2 6243   5.455   6.520   5.210
 1782SOL     OW 6244   2.488   0.963   2.606
 1782SOL    HW1 6245   2.542   1.011   2.537
 1782SOL    HW2 6246   2.442   0.885   2.564
 1783SOL     OW 6247   2.886   4.023   6.639
 1783SOL    HW1 6248   2.834   3.988   6.717
 1783SOL    HW2 6249   2.831   4.013   6.556
 1784SOL     OW 6250   2.202   1.420   1.566
 1784SOL    HW1 6251   2.133   1.355   1.536
 1784SOL    HW2 6252   2.248   1.384   1.647
 1785SOL     OW 6253   6.840   6.937   4.532
 1785SOL    HW1 6254   6.750   6.950   4.491
 1785SOL    HW2 6255   6.903   6.899   4.464
 1786SOL     OW 6256   2.253   5.335   0.308
 1786SOL    HW1 6257   2.201   5.352   0.225
 1786SOL    HW2 6258   2.336   5.284   0.286
 1787SOL     OW 6259   1.809   2.009   5.742
 1787SOL    HW1 6260   1.882   2.063   5.699
 1787SOL    HW2 6261   1.822   1.912   5.720
 1788SOL     OW 6262   4.600   4.121   6.519
 1788SOL    HW1 6263   4.653   4.040   6.544
 1788SOL    HW2 6264   4.519   4.093   6.468
 1789SOL     OW 6265   5.674   3.182   1.672
 1789SOL    HW1 6266   5.588   3.224   1.641
 1789SOL    HW2 6267   5.708   3.233   1.751
 1790SOL     OW 6268   2.801   1.266   4.136
 1790SOL    HW1 6269   2.722   1.314   4.098
 1790SOL    HW2 6270   2.780   1.235   4.229
 1791SOL     OW 6271   0.132   1.364   3.647
 1791SOL    HW1 6272   0.203   1.433   3.638
 1791SOL    HW2 6273   0.071   1.368   3.567
 1792SOL     OW 6274   0.121   1.796   4.718
 1792SOL    HW1 6275   0.126   1.885   4.764
 1792SOL    HW2 6276   0.210   1.750   4.723
 1793SOL     OW 6277   6.501   1.717   4.346
 1793SOL    HW1 6278   6.579   1.676   4.395
 1793SOL    HW2 6279   6.525   1.810   4.318
 1794SOL     OW 6280   5.853   6.720   5.322
 1794SOL    HW1 6281   5.824   6.747   5.414
 1794SOL    HW2 6282   5.886   6.626   5.324
 1795SOL     OW 6283   6.463   5.111   1.337
 1795SOL    HW1 6284   6.448   5.016   1.364
 1795SOL    HW2 6285   6.549   5.144   1.375
 1796SOL     OW 6286   2.130   1.595   5.824
 1796SOL    HW1 6287   2.045   1.565   5.866
 1796SOL    HW2 6288   2.158   1.682   5.865
 1797SOL     OW 6289   1.265   6.951   5.762
 1797SOL    HW1 6290   1.203   0.010   5.772
 1797SOL    HW2 6291   1.329   6.969   5.687
 1798SOL     OW 6292   3.285   2.912   4.863
 1798SOL    HW1 6293   3.296   2.850   4.941
 1798SOL    HW2 6294   3.207   2.972   4.879
 1799SOL     OW 6295   3.903   2.986   6.730
 1799SOL    HW1 6296   3.855   2.941   6.654
 1799SOL    HW2 6297   3.958   2.918   6.779
 1800SOL     OW 6298   4.909   4.802   3.687
 1800SOL    HW1 6299   4.861   4.859   3.754
 1800SOL    HW2 6300   4.899   4.842   3.596
 1801SOL     OW 6301   0.742   1.945   1.880
 1801SOL    HW1 6302   0.645   1.937   1.857
 1801SOL    HW2 6303   0.784   1.854   1.879
 1802SOL     OW 6304   6.331   5.957   3.262
 1802SOL    HW1 6305   6.402   5.957   3.333
 1802SOL    HW2 6306   6.350   6.031   3.197
 1803SOL     OW 6307   6.945   6.711   2.445
 1803SOL    HW1 6308   6.965   6.808   2.454
 1803SOL    HW2 6309   6.908   6.693   2.354
 1804SOL     OW 6310   3.871   3.396   4.974
 1804SOL    HW1 6311   3.834   3.444   4.895
 1804SOL    HW2 6312   3.971   3.392   4.968
 1805SOL     OW 6313   0.978   5.300   5.924
 1805SOL    HW1 6314   0.994   5.265   5.832
 1805SOL    HW2 6315   0.974   5.400   5.922
 1806SOL     OW 6316   0.345   2.720   1.779
 1806SOL    HW1 6317   0.372   2.814   1.800
 1806SOL    HW2 6318   0.305   2.678   1.861
 1807SOL     OW 6319   5.565   3.033   6.942
 1807SOL    HW1 6320   5.583   3.088   0.005
 1807SOL    HW2 6321   5.618   3.069   6.865
 1808SOL     OW 6322   5.851   3.742   4.305
 1808SOL    HW1 6323   5.820   3.750   4.400
 1808SOL    HW2 6324   5.840   3.647   4.275
 1809SOL     OW 6325   3.087   1.249   5.277
 1809SOL    HW1 6326   3.176   1.221   5.242
 1809SOL    HW2 6327   3.045   1.315   5.215
 1810SOL     OW 6328   0.619   0.782   5.309
 1810SOL    HW1 6329   0.650   0.691   5.283
 1810SOL    HW2 6330   0.577   0.779   5.400
 1811SOL     OW 6331   5.347   4.423   1.766
 1811SOL    HW1 6332   5.274   4.364   1.801
 1811SOL    HW2 6333   5.312   4.477   1.690
 1812SOL     OW 6334   3.913   6.757   6.642
 1812SOL    HW1 6335   3.970   6.836   6.665
 1812SOL    HW2 6336   3.938   6.723   6.552
 1813SOL     OW 6337   4.877   4.137   2.167
 1813SOL    HW1 6338   4.908   4.221   2.121
 1813SOL    HW2 6339   4.946   4.065   2.155
 1814SOL     OW 6340   6.243   6.982   0.733
 1814SOL    HW1 6341   6.143   6.980   0.737
 1814SOL    HW2 6342   6.278   0.033   0.794
 1815SOL     OW 6343   6.270   6.855   2.649
 1815SOL    HW1 6344   6.205   6.779   2.647
 1815SOL    HW2 6345   6.324   6.855   2.565
 1816SOL     OW 6346   3.593   5.356   6.176
 1816SOL    HW1 6347   3.679   5.317   6.212
 1816SOL    HW2 6348   3.611   5.400   6.088
 1817SOL     OW 6349   3.565   1.463   3.059
 1817SOL    HW1 6350   3.660   1.443   3.036
 1817SOL    HW2 6351   3.511   1.467   2.975
 1818SOL     OW 6352   1.682   6.697   0.078
 1818SOL    HW1 6353   1.711   6.749   0.159
 1818SOL    HW2 6354   1.598   6.647   0.099
 1819SOL     OW 6355   1.394   4.971   2.346
 1819SOL    HW1 6356   1.315   4.998   2.401
 1819SOL    HW2 6357   1.423   5.048   2.289
 1820SOL     OW 6358   3.553   0.518   2.666
 1820SOL    HW1 6359   3.615   0.597   2.669
 1820SOL    HW2 6360   3.583   0.455   2.594
 1821SOL     OW 6361   3.320   1.240   2.151
 1821SOL    HW1 6362   3.342   1.325   2.199
 1821SOL    HW2 6363   3.402   1.182   2.147
 1822SOL     OW 6364   1.121   3.390   1.654
 1822SOL    HW1 6365   1.220   3.383   1.643
 1822SOL    HW2 6366   1.078   3.395   1.564
 1823SOL     OW 6367   3.525   5.953   3.409
 1823SOL    HW1 6368   3.587   5.986   3.339
 1823SOL    HW2 6369   3.568   5.961   3.499
 1824SOL     OW 6370   3.988   3.866   0.365
 1824SOL    HW1 6371   4.058   3.928   0.399
 1824SOL    HW2 6372   3.976   3.790   0.429
 1825SOL     OW 6373   0.379   3.117   4.818
 1825SOL    HW1 6374   0.284   3.148   4.812
 1825SOL    HW2 6375   0.415   3.101   4.726
 1826SOL     OW 6376   3.472   1.357   0.689
 1826SOL    HW1 6377   3.443   1.347   0.593
 1826SOL    HW2 6378   3.483   1.266   0.730
 1827SOL     OW 6379   4.975   5.731   1.061
 1827SOL    HW1 6380   5.048   5.798   1.074
 1827SOL    HW2 6381   4.934   5.710   1.149
 1828SOL     OW 6382   1.688   3.532   6.585
 1828SOL    HW1 6383   1.725   3.610   6.535
 1828SOL    HW2 6384   1.686   3.553   6.683
 1829SOL     OW 6385   3.673   6.957   3.394
 1829SOL    HW1 6386   3.633   6.871   3.423
 1829SOL    HW2 6387   3.618   6.997   3.321
 1830SOL     OW 6388   5.675   6.713   5.096
 1830SOL    HW1 6389   5.716   6.783   5.038
 1830SOL    HW2 6390   5.715   6.719   5.188
 1831SOL     OW 6391   5.178   6.005   2.695
 1831SOL    HW1 6392   5.194   6.083   2.634
 1831SOL    HW2 6393   5.220   6.023   2.783
 1832SOL     OW 6394   3.068   3.187   0.041
 1832SOL    HW1 6395   3.016   3.143   0.115
 1832SOL    HW2 6396   3.108   3.272   0.075
 1833SOL     OW 6397   5.339   0.482   1.264
 1833SOL    HW1 6398   5.295   0.568   1.239
 1833SOL    HW2 6399   5.349   0.477   1.364
 1834SOL     OW 6400   2.436   3.005   1.295
 1834SOL    HW1 6401   2.517   3.055   1.264
 1834SOL    HW2 6402   2.359   3.069   1.301
 1835SOL     OW 6403   0.944   4.771   1.584
 1835SOL    HW1 6404   0.974   4.866   1.594
 1835SOL    HW2 6405   0.934   4.730   1.674
 1836SOL     OW 6406   5.773   2.781   1.894
 1836SOL    HW1 6407   5.745   2.705   1.952
 1836SOL    HW2 6408   5.866   2.808   1.917
 1837SOL     OW 6409   2.004   0.420   5.583
 1837SOL    HW1 6410   2.015   0.399   5.680
 1837SOL    HW2 6411   1.970   0.339   5.534
 1838SOL     OW 6412   6.458   0.591   6.560
 1838SOL    HW1 6413   6.464   0.684   6.597
 1838SOL    HW2 6414   6.537   0.574   6.501
 1839SOL     OW 6415   6.283   1.371   6.651
 1839SOL    HW1 6416   6.199   1.427   6.652
 1839SOL    HW2 6417   6.350   1.411   6.714
 1840SOL     OW 6418   3.874   0.615   2.513
 1840SOL    HW1 6419   3.949   0.678   2.490
 1840SOL    HW2 6420   3.803   0.665   2.563
 1841SOL     OW 6421   2.248   0.553   3.308
 1841SOL    HW1 6422   2.192   0.473   3.327
 1841SOL    HW2 6423   2.341   0.524   3.285
 1842SOL     OW 6424   1.178   5.355   0.607
 1842SOL    HW1 6425   1.139   5.288   0.544
 1842SOL    HW2 6426   1.269   5.381   0.574
 1843SOL     OW 6427   5.075   0.392   3.830
 1843SOL    HW1 6428   5.141   0.350   3.892
 1843SOL    HW2 6429   4.987   0.345   3.838
 1844SOL     OW 6430   4.791   1.735   5.317
 1844SOL    HW1 6431   4.876   1.764   5.273
 1844SOL    HW2 6432   4.775   1.638   5.298
 1845SOL     OW 6433   3.100   0.078   3.926
 1845SOL    HW1 6434   3.111   0.163   3.978
 1845SOL    HW2 6435   3.102   0.000   3.989
 1846SOL     OW 6436   5.368   1.433   3.248
 1846SOL    HW1 6437   5.309   1.398   3.321
 1846SOL    HW2 6438   5.335   1.400   3.159
 1847SOL     OW 6439   1.465   0.056   5.033
 1847SOL    HW1 6440   1.474   6.976   5.042
 1847SOL    HW2 6441   1.443   0.080   4.939
 1848SOL     OW 6442   1.474   6.501   3.966
 1848SOL    HW1 6443   1.555   6.476   4.018
 1848SOL    HW2 6444   1.453   6.429   3.899
 1849SOL     OW 6445   4.846   2.847   1.574
 1849SOL    HW1 6446   4.851   2.748   1.556
 1849SOL    HW2 6447   4.859   2.863   1.672
 1850SOL     OW 6448   5.649   1.611   2.494
 1850SOL    HW1 6449   5.620   1.692   2.442
 1850SOL    HW2 6450   5.726   1.568   2.446
 1851SOL     OW 6451   0.651   3.431   0.038
 1851SOL    HW1 6452   0.700   3.358   0.086
 1851SOL    HW2 6453   0.716   3.502   0.010
 1852SOL     OW 6454   0.346   4.937   1.696
 1852SOL    HW1 6455   0.247   4.948   1.696
 1852SOL    HW2 6456   0.382   4.957   1.605
 1853SOL     OW 6457   6.942   2.232   3.372
 1853SOL    HW1 6458   6.949   2.325   3.408
 1853SOL    HW2 6459   6.909   2.170   3.443
 1854SOL     OW 6460   1.364   5.287   3.080
 1854SOL    HW1 6461   1.406   5.358   3.136
 1854SOL    HW2 6462   1.266   5.284   3.099
 1855SOL     OW 6463   5.090   3.174   5.252
 1855SOL    HW1 6464   5.079   3.089   5.202
 1855SOL    HW2 6465   5.036   3.170   5.337
 1856SOL     OW 6466   4.024   3.607   6.505
 1856SOL    HW1 6467   3.933   3.615   6.545
 1856SOL    HW2 6468   4.024   3.533   6.438
 1857SOL     OW 6469   4.945   1.012   0.464
 1857SOL    HW1 6470   5.026   0.961   0.495
 1857SOL    HW2 6471   4.929   1.089   0.526
 1858SOL     OW 6472   5.558   2.969   3.112
 1858SOL    HW1 6473   5.477   2.916   3.140
 1858SOL    HW2 6474   5.585   3.030   3.186
 1859SOL     OW 6475   4.896   2.071   3.778
 1859SOL    HW1 6476   4.923   2.120   3.861
 1859SOL    HW2 6477   4.977   2.028   3.737
 1860SOL     OW 6478   0.935   2.019   5.095
 1860SOL    HW1 6479   0.838   2.022   5.120
 1860SOL    HW2 6480   0.946   2.057   5.003
 1861SOL     OW 6481   5.460   0.699   2.922
 1861SOL    HW1 6482   5.405   0.779   2.943
 1861SOL    HW2 6483   5.419   0.618   2.964
 1862SOL     OW 6484   1.287   6.943   0.046
 1862SOL    HW1 6485   1.344   6.984   6.994
 1862SOL    HW2 6486   1.290   7.000   0.128
 1863SOL     OW 6487   6.682   3.173   1.624
 1863SOL    HW1 6488   6.760   3.122   1.588
 1863SOL    HW2 6489   6.682   3.265   1.586
 1864SOL     OW 6490   3.422   5.706   4.215
 1864SOL    HW1 6491   3.394   5.641   4.287
 1864SOL    HW2 6492   3.484   5.660   4.151
 1865SOL     OW 6493   3.482   1.066   1.331
 1865SOL    HW1 6494   3.415   0.994   1.352
 1865SOL    HW2 6495   3.437   1.155   1.335
 1866SOL     OW 6496   6.440   4.735   3.940
 1866SOL    HW1 6497   6.474   4.801   3.874
 1866SOL    HW2 6498   6.466   4.763   4.032
 1867SOL     OW 6499   2.122   3.307   1.213
 1867SOL    HW1 6500   2.069   3.386   1.243
 1867SOL    HW2 6501   2.127   3.306   1.113
 1868SOL     OW 6502   4.911   3.345   5.738
 1868SOL    HW1 6503   4.983   3.359   5.806
 1868SOL    HW2 6504   4.868   3.432   5.716
 1869SOL     OW 6505   5.484   2.660   3.902
 1869SOL    HW1 6506   5.571   2.627   3.864
 1869SOL    HW2 6507   5.454   2.598   3.974
 1870SOL     OW 6508   0.406   3.479   4.638
 1870SOL    HW1 6509   0.492   3.435   4.664
 1870SOL    HW2 6510   0.353   3.418   4.580
 1871SOL     OW 6511   0.007   6.718   0.408
 1871SOL    HW1 6512   7.006   6.724   0.310
 1871SOL    HW2 6513   0.088   6.661   0.422
 1872SOL     OW 6514   3.406   2.234   0.447
 1872SOL    HW1 6515   3.456   2.188   0.520
 1872SOL    HW2 6516   3.309   2.239   0.471
 1873SOL     OW 6517   6.330   1.127   5.719
 1873SOL    HW1 6518   6.295   1.097   5.630
 1873SOL    HW2 6519   6.256   1.126   5.786
 1874SOL     OW 6520   0.883   1.243   0.015
 1874SOL    HW1 6521   0.900   1.239   0.113
 1874SOL    HW2 6522   0.793   1.282   7.017
 1875SOL     OW 6523   6.659   6.248   0.457
 1875SOL    HW1 6524   6.668   6.236   0.556
 1875SOL    HW2 6525   6.750   6.263   0.417
 1876SOL     OW 6526   5.310   6.858   6.067
 1876SOL    HW1 6527   5.377   6.898   6.005
 1876SOL    HW2 6528   5.234   6.922   6.081
 1877SOL     OW 6529   7.005   1.674   3.121
 1877SOL    HW1 6530   6.978   1.651   3.027
 1877SOL    HW2 6531   0.046   1.602   3.156
 1878SOL     OW 6532   0.190   4.126   3.399
 1878SOL    HW1 6533   0.163   4.033   3.425
 1878SOL    HW2 6534   0.271   4.122   3.341
 1879SOL     OW 6535   2.699   5.213   4.005
 1879SOL    HW1 6536   2.723   5.117   3.993
 1879SOL    HW2 6537   2.776   5.262   4.047
 1880SOL     OW 6538   1.089   2.574   3.297
 1880SOL    HW1 6539   1.173   2.573   3.352
 1880SOL    HW2 6540   1.059   2.480   3.280
 1881SOL     OW 6541   0.975   2.162   3.542
 1881SOL    HW1 6542   0.976   2.227   3.466
 1881SOL    HW2 6543   0.880   2.148   3.572
 1882SOL     OW 6544   0.800   5.851   6.675
 1882SOL    HW1 6545   0.891   5.891   6.679
 1882SOL    HW2 6546   0.798   5.781   6.603
 1883SOL     OW 6547   1.298   3.437   3.646
 1883SOL    HW1 6548   1.209   3.394   3.632
 1883SOL    HW2 6549   1.359   3.415   3.570
 1884SOL     OW 6550   5.000   1.295   1.683
 1884SOL    HW1 6551   4.955   1.323   1.597
 1884SOL    HW2 6552   5.075   1.233   1.662
 1885SOL     OW 6553   6.548   1.876   0.732
 1885SOL    HW1 6554   6.477   1.945   0.718
 1885SOL    HW2 6555   6.506   1.786   0.743
 1886SOL     OW 6556   1.947   2.276   6.887
 1886SOL    HW1 6557   1.993   2.222   6.958
 1886SOL    HW2 6558   1.980   2.248   6.797
 1887SOL     OW 6559   0.054   4.197   5.842
 1887SOL    HW1 6560   0.101   4.285   5.850
 1887SOL    HW2 6561   0.121   4.123   5.844
 1888SOL     OW 6562   2.354   1.679   6.336
 1888SOL    HW1 6563   2.270   1.719   6.297
 1888SOL    HW2 6564   2.329   1.616   6.409
 1889SOL     OW 6565   4.379   4.024   6.386
 1889SOL    HW1 6566   4.294   3.987   6.424
 1889SOL    HW2 6567   4.381   4.008   6.287
 1890SOL     OW 6568   1.843   5.373   6.183
 1890SOL    HW1 6569   1.771   5.340   6.244
 1890SOL    HW2 6570   1.835   5.328   6.095
 1891SOL     OW 6571   5.084   2.507   4.576
 1891SOL    HW1 6572   5.175   2.511   4.535
 1891SOL    HW2 6573   5.066   2.589   4.629
 1892SOL     OW 6574   3.590   6.560   1.196
 1892SOL    HW1 6575   3.615   6.592   1.287
 1892SOL    HW2 6576   3.491   6.547   1.192
 1893SOL     OW 6577   3.501   2.052   4.744
 1893SOL    HW1 6578   3.430   2.011   4.687
 1893SOL    HW2 6579   3.576   2.083   4.686
 1894SOL     OW 6580   3.963   3.544   1.485
 1894SOL    HW1 6581   3.972   3.478   1.559
 1894SOL    HW2 6582   3.962   3.636   1.522
 1895SOL     OW 6583   6.433   0.271   2.481
 1895SOL    HW1 6584   6.393   0.222   2.404
 1895SOL    HW2 6585   6.427   0.215   2.564
 1896SOL     OW 6586   6.959   0.968   2.997
 1896SOL    HW1 6587   6.904   0.974   2.913
 1896SOL    HW2 6588   6.959   1.056   3.043
 1897SOL     OW 6589   6.382   5.416   3.131
 1897SOL    HW1 6590   6.419   5.339   3.184
 1897SOL    HW2 6591   6.426   5.501   3.161
 1898SOL     OW 6592   3.734   6.459   1.611
 1898SOL    HW1 6593   3.708   6.515   1.533
 1898SOL    HW2 6594   3.808   6.504   1.661
 1899SOL     OW 6595   1.118   2.963   2.539
 1899SOL    HW1 6596   1.071   2.874   2.535
 1899SOL    HW2 6597   1.205   2.957   2.490
 1900SOL     OW 6598   1.435   0.186   5.912
 1900SOL    HW1 6599   1.506   0.118   5.892
 1900SOL    HW2 6600   1.452   0.269   5.858
 1901SOL     OW 6601   1.816   1.488   0.851
 1901SOL    HW1 6602   1.878   1.482   0.773
 1901SOL    HW2 6603   1.842   1.565   0.909
 1902SOL     OW 6604   1.775   2.712   5.075
 1902SOL    HW1 6605   1.778   2.753   5.167
 1902SOL    HW2 6606   1.845   2.641   5.069
 1903SOL     OW 6607   0.040   3.573   3.624
 1903SOL    HW1 6608   6.988   3.516   3.666
 1903SOL    HW2 6609   0.093   3.517   3.560
 1904SOL     OW 6610   6.914   0.302   4.118
 1904SOL    HW1 6611   6.935   0.395   4.087
 1904SOL    HW2 6612   6.878   0.249   4.042
 1905SOL     OW 6613   0.491   2.458   3.912
 1905SOL    HW1 6614   0.507   2.436   4.008
 1905SOL    HW2 6615   0.457   2.552   3.905
 1906SOL     OW 6616   2.793   0.074   5.600
 1906SOL    HW1 6617   2.877   0.122   5.626
 1906SOL    HW2 6618   2.812   0.011   5.525
 1907SOL     OW 6619   3.491   7.018   3.744
 1907SOL    HW1 6620   3.587   7.007   3.716
 1907SOL    HW2 6621   3.487   0.029   3.839
 1908SOL     OW 6622   4.405   1.119   4.946
 1908SOL    HW1 6623   4.421   1.022   4.928
 1908SOL    HW2 6624   4.472   1.174   4.897
 1909SOL     OW 6625   2.033   3.956   3.787
 1909SOL    HW1 6626   2.024   4.012   3.869
 1909SOL    HW2 6627   1.998   4.005   3.708
 1910SOL     OW 6628   5.596   2.588   6.186
 1910SOL    HW1 6629   5.680   2.614   6.235
 1910SOL    HW2 6630   5.520   2.584   6.250
 1911SOL     OW 6631   6.191   1.778   5.757
 1911SOL    HW1 6632   6.116   1.773   5.823
 1911SOL    HW2 6633   6.208   1.873   5.732
 1912SOL     OW 6634   3.924   6.633   2.492
 1912SOL    HW1 6635   3.878   6.699   2.432
 1912SOL    HW2 6636   4.016   6.617   2.459
 1913SOL     OW 6637   2.061   6.177   5.270
 1913SOL    HW1 6638   1.986   6.228   5.312
 1913SOL    HW2 6639   2.130   6.240   5.235
 1914SOL     OW 6640   2.647   2.667   6.872
 1914SOL    HW1 6641   2.628   2.616   6.789
 1914SOL    HW2 6642   2.728   2.628   6.917
 1915SOL     OW 6643   3.291   1.402   5.123
 1915SOL    HW1 6644   3.381   1.367   5.145
 1915SOL    HW2 6645   3.258   1.458   5.200
 1916SOL     OW 6646   3.733   5.368   0.994
 1916SOL    HW1 6647   3.683   5.294   0.949
 1916SOL    HW2 6648   3.705   5.456   0.954
 1917SOL     OW 6649   4.105   3.786   4.641
 1917SOL    HW1 6650   4.043   3.865   4.642
 1917SOL    HW2 6651   4.092   3.735   4.557
 1918SOL     OW 6652   6.604   6.217   6.259
 1918SOL    HW1 6653   6.624   6.125   6.293
 1918SOL    HW2 6654   6.664   6.237   6.181
 1919SOL     OW 6655   1.119   6.698   2.058
 1919SOL    HW1 6656   1.148   6.617   2.008
 1919SOL    HW2 6657   1.032   6.681   2.103
 1920SOL     OW 6658   0.507   4.889   3.120
 1920SOL    HW1 6659   0.434   4.854   3.062
 1920SOL    HW2 6660   0.470   4.916   3.209
 1921SOL     OW 6661   0.604   4.796   0.357
 1921SOL    HW1 6662   0.648   4.706   0.359
 1921SOL    HW2 6663   0.629   4.844   0.272
 1922SOL     OW 6664   3.702   3.789   1.343
 1922SOL    HW1 6665   3.625   3.847   1.314
 1922SOL    HW2 6666   3.680   3.747   1.431
 1923SOL     OW 6667   2.476   0.692   6.989
 1923SOL    HW1 6668   2.458   0.748   0.051
 1923SOL    HW2 6669   2.568   0.654   6.994
 1924SOL     OW 6670   5.695   5.781   2.817
 1924SOL    HW1 6671   5.770   5.796   2.882
 1924SOL    HW2 6672   5.714   5.698   2.764
 1925SOL     OW 6673   3.022   3.691   1.849
 1925SOL    HW1 6674   2.931   3.722   1.874
 1925SOL    HW2 6675   3.088   3.764   1.868
 1926SOL     OW 6676   1.087   0.084   3.897
 1926SOL    HW1 6677   1.176   0.041   3.911
 1926SOL    HW2 6678   1.081   0.118   3.803
 1927SOL     OW 6679   3.401   4.947   6.597
 1927SOL    HW1 6680   3.463   4.916   6.669
 1927SOL    HW2 6681   3.442   4.930   6.508
 1928SOL     OW 6682   6.513   3.545   6.302
 1928SOL    HW1 6683   6.518   3.561   6.401
 1928SOL    HW2 6684   6.516   3.447   6.284
 1929SOL     OW 6685   0.483   5.583   1.467
 1929SOL    HW1 6686   0.567   5.584   1.413
 1929SOL    HW2 6687   0.442   5.492   1.464
 1930SOL     OW 6688   4.969   4.376   6.765
 1930SOL    HW1 6689   5.004   4.443   6.700
 1930SOL    HW2 6690   5.014   4.388   6.853
 1931SOL     OW 6691   0.067   3.142   3.638
 1931SOL    HW1 6692   6.987   3.136   3.626
 1931SOL    HW2 6693   0.110   3.062   3.598
 1932SOL     OW 6694   4.812   4.286   2.754
 1932SOL    HW1 6695   4.733   4.305   2.695
 1932SOL    HW2 6696   4.878   4.229   2.705
 1933SOL     OW 6697   2.956   4.535   0.624
 1933SOL    HW1 6698   3.008   4.451   0.606
 1933SOL    HW2 6699   2.897   4.522   0.703
 1934SOL     OW 6700   0.230   0.589   5.623
 1934SOL    HW1 6701   0.251   0.541   5.707
 1934SOL    HW2 6702   0.174   0.530   5.564
 1935SOL     OW 6703   3.354   0.360   5.236
 1935SOL    HW1 6704   3.310   0.355   5.146
 1935SOL    HW2 6705   3.451   0.381   5.224
 1936SOL     OW 6706   5.912   4.191   4.158
 1936SOL    HW1 6707   5.875   4.250   4.230
 1936SOL    HW2 6708   5.978   4.243   4.103
 1937SOL     OW 6709   4.383   6.396   1.477
 1937SOL    HW1 6710   4.416   6.348   1.396
 1937SOL    HW2 6711   4.295   6.440   1.457
 1938SOL     OW 6712   4.274   1.278   3.086
 1938SOL    HW1 6713   4.329   1.197   3.065
 1938SOL    HW2 6714   4.234   1.268   3.177
 1939SOL     OW 6715   0.296   6.557   4.520
 1939SOL    HW1 6716   0.327   6.550   4.425
 1939SOL    HW2 6717   0.357   6.504   4.578
 1940SOL     OW 6718   5.009   5.098   5.845
 1940SOL    HW1 6719   4.919   5.065   5.816
 1940SOL    HW2 6720   5.071   5.098   5.767
 1941SOL     OW 6721   0.007   3.940   3.113
 1941SOL    HW1 6722   0.061   3.892   3.182
 1941SOL    HW2 6723   0.020   3.897   3.024
 1942SOL     OW 6724   6.476   0.590   3.204
 1942SOL    HW1 6725   6.431   0.562   3.289
 1942SOL    HW2 6726   6.575   0.584   3.215
 1943SOL     OW 6727   3.353   6.240   2.399
 1943SOL    HW1 6728   3.407   6.214   2.479
 1943SOL    HW2 6729   3.281   6.173   2.384
 1944SOL     OW 6730   4.836   2.457   6.363
 1944SOL    HW1 6731   4.815   2.524   6.435
 1944SOL    HW2 6732   4.751   2.414   6.332
 1945SOL     OW 6733   3.822   5.713   2.443
 1945SOL    HW1 6734   3.765   5.692   2.364
 1945SOL    HW2 6735   3.769   5.763   2.511
 1946SOL     OW 6736   6.901   0.856   0.698
 1946SOL    HW1 6737   6.849   0.783   0.653
 1946SOL    HW2 6738   6.844   0.937   0.709
 1947SOL     OW 6739   5.145   6.539   3.780
 1947SOL    HW1 6740   5.220   6.473   3.780
 1947SOL    HW2 6741   5.083   6.518   3.705
 1948SOL     OW 6742   6.028   5.763   3.392
 1948SOL    HW1 6743   6.078   5.830   3.336
 1948SOL    HW2 6744   6.086   5.735   3.469
 1949SOL     OW 6745   4.447   4.887   5.963
 1949SOL    HW1 6746   4.446   4.906   6.061
 1949SOL    HW2 6747   4.370   4.828   5.940
 1950SOL     OW 6748   3.847   3.873   0.894
 1950SOL    HW1 6749   3.757   3.917   0.886
 1950SOL    HW2 6750   3.842   3.797   0.959
 1951SOL     OW 6751   6.337   3.833   0.532
 1951SOL    HW1 6752   6.364   3.745   0.572
 1951SOL    HW2 6753   6.406   3.861   0.465
 1952SOL     OW 6754   3.518   2.582   6.689
 1952SOL    HW1 6755   3.445   2.599   6.622
 1952SOL    HW2 6756   3.503   2.637   6.770
 1953SOL     OW 6757   6.014   2.585   0.294
 1953SOL    HW1 6758   5.951   2.543   0.229
 1953SOL    HW2 6759   6.102   2.537   0.290
 1954SOL     OW 6760   5.846   1.123   4.096
 1954SOL    HW1 6761   5.784   1.089   4.025
 1954SOL    HW2 6762   5.914   1.053   4.118
 1955SOL     OW 6763   1.195   0.520   2.437
 1955SOL    HW1 6764   1.223   0.427   2.459
 1955SOL    HW2 6765   1.167   0.526   2.341
 1956SOL     OW 6766   6.122   0.587   2.363
 1956SOL    HW1 6767   6.198   0.597   2.427
 1956SOL    HW2 6768   6.080   0.677   2.347
 1957SOL     OW 6769   6.597   5.299   4.604
 1957SOL    HW1 6770   6.562   5.205   4.616
 1957SOL    HW2 6771   6.675   5.313   4.664
 1958SOL     OW 6772   5.705   2.541   3.748
 1958SOL    HW1 6773   5.803   2.543   3.728
 1958SOL    HW2 6774   5.653   2.565   3.666
 1959SOL     OW 6775   0.215   1.815   6.220
 1959SOL    HW1 6776   0.278   1.738   6.212
 1959SOL    HW2 6777   0.121   1.783   6.210
 1960SOL     OW 6778   6.589   4.216   0.341
 1960SOL    HW1 6779   6.615   4.219   0.438
 1960SOL    HW2 6780   6.513   4.279   0.326
 1961SOL     OW 6781   5.896   4.380   4.347
 1961SOL    HW1 6782   5.988   4.418   4.361
 1961SOL    HW2 6783   5.838   4.448   4.304
 1962SOL     OW 6784   3.205   6.351   2.948
 1962SOL    HW1 6785   3.113   6.320   2.924
 1962SOL    HW2 6786   3.199   6.443   2.987
 1963SOL     OW 6787   0.877   0.649   1.119
 1963SOL    HW1 6788   0.823   0.672   1.200
 1963SOL    HW2 6789   0.968   0.619   1.146
 1964SOL     OW 6790   4.354   2.821   1.291
 1964SOL    HW1 6791   4.370   2.813   1.389
 1964SOL    HW2 6792   4.270   2.872   1.275
 1965SOL     OW 6793   1.250   3.367   3.309
 1965SOL    HW1 6794   1.202   3.280   3.323
 1965SOL    HW2 6795   1.191   3.443   3.337
 1966SOL     OW 6796   0.133   5.617   4.884
 1966SOL    HW1 6797   0.183   5.656   4.961
 1966SOL    HW2 6798   0.036   5.607   4.909
 1967SOL     OW 6799   4.997   2.279   4.693
 1967SOL    HW1 6800   5.029   2.209   4.629
 1967SOL    HW2 6801   5.024   2.369   4.660
 1968SOL     OW 6802   3.312   5.557   0.710
 1968SOL    HW1 6803   3.368   5.484   0.670
 1968SOL    HW2 6804   3.245   5.516   0.772
 1969SOL     OW 6805   0.504   1.414   1.326
 1969SOL    HW1 6806   0.406   1.432   1.319
 1969SOL    HW2 6807   0.519   1.320   1.356
 1970SOL     OW 6808   2.327   0.143   6.592
 1970SOL    HW1 6809   2.329   0.236   6.627
 1970SOL    HW2 6810   2.342   0.144   6.493
 1971SOL     OW 6811   6.320   6.840   6.300
 1971SOL    HW1 6812   6.265   6.908   6.348
 1971SOL    HW2 6813   6.397   6.885   6.254
 1972SOL     OW 6814   6.118   2.767   2.766
 1972SOL    HW1 6815   6.097   2.754   2.669
 1972SOL    HW2 6816   6.039   2.807   2.812
 1973SOL     OW 6817   2.246   3.701   0.921
 1973SOL    HW1 6818   2.272   3.711   0.825
 1973SOL    HW2 6819   2.184   3.622   0.929
 1974SOL     OW 6820   6.225   6.222   3.766
 1974SOL    HW1 6821   6.204   6.147   3.702
 1974SOL    HW2 6822   6.200   6.194   3.859
 1975SOL     OW 6823   2.592   1.280   2.862
 1975SOL    HW1 6824   2.590   1.329   2.949
 1975SOL    HW2 6825   2.517   1.312   2.804
 1976SOL     OW 6826   0.469   5.468   6.882
 1976SOL    HW1 6827   0.491   5.485   6.786
 1976SOL    HW2 6828   0.543   5.417   6.925
 1977SOL     OW 6829   1.365   3.048   3.108
 1977SOL    HW1 6830   1.425   2.980   3.066
 1977SOL    HW2 6831   1.317   3.100   3.037
 1978SOL     OW 6832   0.919   1.140   3.770
 1978SOL    HW1 6833   0.953   1.234   3.780
 1978SOL    HW2 6834   0.970   1.094   3.697
 1979SOL     OW 6835   6.768   4.299   4.986
 1979SOL    HW1 6836   6.793   4.340   4.898
 1979SOL    HW2 6837   6.688   4.241   4.974
 1980SOL     OW 6838   2.785   0.759   6.522
 1980SOL    HW1 6839   2.880   0.785   6.539
 1980SOL    HW2 6840   2.776   0.723   6.429
 1981SOL     OW 6841   6.385   2.028   2.222
 1981SOL    HW1 6842   6.463   2.047   2.162
 1981SOL    HW2 6843   6.301   2.035   2.169
 1982SOL     OW 6844   0.599   4.234   5.089
 1982SOL    HW1 6845   0.542   4.300   5.138
 1982SOL    HW2 6846   0.692   4.271   5.082
 1983SOL     OW 6847   0.798   1.859   3.198
 1983SOL    HW1 6848   0.829   1.802   3.122
 1983SOL    HW2 6849   0.810   1.809   3.284
 1984SOL     OW 6850   6.050   1.633   4.371
 1984SOL    HW1 6851   5.961   1.604   4.337
 1984SOL    HW2 6852   6.078   1.717   4.324
 1985SOL     OW 6853   0.796   0.187   2.738
 1985SOL    HW1 6854   0.734   0.185   2.660
 1985SOL    HW2 6855   0.746   0.164   2.821
 1986SOL     OW 6856   1.346   0.612   0.154
 1986SOL    HW1 6857   1.431   0.559   0.163
 1986SOL    HW2 6858   1.367   0.709   0.160
 1987SOL     OW 6859   1.361   3.010   1.086
 1987SOL    HW1 6860   1.327   3.083   1.145
 1987SOL    HW2 6861   1.429   2.955   1.135
 1988SOL     OW 6862   5.000   4.856   1.153
 1988SOL    HW1 6863   4.970   4.869   1.059
 1988SOL    HW2 6864   5.097   4.829   1.154
 1989SOL     OW 6865   2.345   6.641   5.208
 1989SOL    HW1 6866   2.371   6.727   5.164
 1989SOL    HW2 6867   2.418   6.612   5.271
 1990SOL     OW 6868   3.007   6.546   0.919
 1990SOL    HW1 6869   3.023   6.484   0.996
 1990SOL    HW2 6870   2.936   6.508   0.859
 1991SOL     OW 6871   4.527   4.947   6.327
 1991SOL    HW1 6872   4.593   4.884   6.367
 1991SOL    HW2 6873   4.443   4.946   6.381
 1992SOL     OW 6874   0.810   6.966   6.820
 1992SOL    HW1 6875   0.793   6.871   6.794
 1992SOL    HW2 6876   0.906   6.988   6.806
 1993SOL     OW 6877   4.124   3.422   4.934
 1993SOL    HW1 6878   4.137   3.521   4.931
 1993SOL    HW2 6879   4.147   3.382   4.844
 1994SOL     OW 6880   1.118   2.031   0.484
 1994SOL    HW1 6881   1.048   2.006   0.551
 1994SOL    HW2 6882   1.112   1.970   0.405
 1995SOL     OW 6883   6.404   2.380   1.369
 1995SOL    HW1 6884   6.342   2.444   1.416
 1995SOL    HW2 6885   6.350   2.309   1.323
 1996SOL     OW 6886   2.906   3.869   0.910
 1996SOL    HW1 6887   2.857   3.794   0.865
 1996SOL    HW2 6888   2.954   3.833   0.990
 1997SOL     OW 6889   5.037   0.398   5.285
 1997SOL    HW1 6890   5.025   0.449   5.370
 1997SOL    HW2 6891   4.980   0.438   5.213
 1998SOL     OW 6892   2.975   3.621   6.480
 1998SOL    HW1 6893   2.895   3.590   6.530
 1998SOL    HW2 6894   3.034   3.675   6.542
 1999SOL     OW 6895   3.075   6.482   1.495
 1999SOL    HW1 6896   3.163   6.446   1.526
 1999SOL    HW2 6897   3.090   6.564   1.440
 2000SOL     OW 6898   3.976   2.207   5.189
 2000SOL    HW1 6899   4.016   2.285   5.237
 2000SOL    HW2 6900   4.040   2.174   5.119
 2001SOL     OW 6901   3.258   1.860   1.697
 2001SOL    HW1 6902   3.281   1.817   1.784
 2001SOL    HW2 6903   3.191   1.803   1.648
 2002SOL     OW 6904   1.264   5.282   5.994
 2002SOL    HW1 6905   1.287   5.355   5.930
 2002SOL    HW2 6906   1.165   5.274   6.002
 2003SOL     OW 6907   6.366   6.723   3.807
 2003SOL    HW1 6908   6.311   6.771   3.876
 2003SOL    HW2 6909   6.321   6.636   3.784
 2004SOL     OW 6910   5.237   1.387   5.311
 2004SOL    HW1 6911   5.172   1.447   5.356
 2004SOL    HW2 6912   5.262   1.425   5.222
 2005SOL     OW 6913   0.858   5.022   6.769
 2005SOL    HW1 6914   0.798   4.957   6.722
 2005SOL    HW2 6915   0.856   5.003   6.867
 2006SOL     OW 6916   5.380   4.855   4.387
 2006SOL    HW1 6917   5.435   4.875   4.469
 2006SOL    HW2 6918   5.415   4.771   4.344
 2007SOL     OW 6919   3.855   5.050   1.060
 2007SOL    HW1 6920   3.825   5.101   1.141
 2007SOL    HW2 6921   3.925   5.103   1.011
 2008SOL     OW 6922   1.189   6.014   3.057
 2008SOL    HW1 6923   1.110   5.975   3.104
 2008SOL    HW2 6924   1.273   5.985   3.105
 2009SOL     OW 6925   6.106   6.994   1.648
 2009SOL    HW1 6926   6.081   6.903   1.617
 2009SOL    HW2 6927   6.187   0.007   1.598
 2010SOL     OW 6928   1.234   1.388   1.783
 2010SOL    HW1 6929   1.236   1.424   1.876
 2010SOL    HW2 6930   1.297   1.442   1.726
 2011SOL     OW 6931   6.628   1.786   5.261
 2011SOL    HW1 6932   6.646   1.688   5.263
 2011SOL    HW2 6933   6.710   1.836   5.290
 2012SOL     OW 6934   1.214   3.106   1.701
 2012SOL    HW1 6935   1.223   3.141   1.794
 2012SOL    HW2 6936   1.305   3.092   1.662
 2013SOL     OW 6937   6.137   0.681   3.344
 2013SOL    HW1 6938   6.071   0.707   3.414
 2013SOL    HW2 6939   6.153   0.758   3.283
 2014SOL     OW 6940   2.068   5.566   2.996
 2014SOL    HW1 6941   2.032   5.493   2.938
 2014SOL    HW2 6942   2.031   5.654   2.966
 2015SOL     OW 6943   2.200   1.885   0.032
 2015SOL    HW1 6944   2.124   1.852   0.088
 2015SOL    HW2 6945   2.284   1.888   0.087
 2016SOL     OW 6946   1.584   5.197   5.244
 2016SOL    HW1 6947   1.630   5.281   5.272
 2016SOL    HW2 6948   1.618   5.169   5.154
 2017SOL     OW 6949   2.277   6.709   4.330
 2017SOL    HW1 6950   2.234   6.655   4.402
 2017SOL    HW2 6951   2.368   6.737   4.359
 2018SOL     OW 6952   5.955   6.960   6.064
 2018SOL    HW1 6953   5.991   6.890   6.125
 2018SOL    HW2 6954   6.028   6.994   6.005
 2019SOL     OW 6955   4.807   2.324   2.300
 2019SOL    HW1 6956   4.806   2.225   2.318
 2019SOL    HW2 6957   4.873   2.344   2.228
 2020SOL     OW 6958   1.190   5.445   5.334
 2020SOL    HW1 6959   1.207   5.524   5.393
 2020SOL    HW2 6960   1.190   5.474   5.238
 2021SOL     OW 6961   2.417   5.159   3.696
 2021SOL    HW1 6962   2.344   5.211   3.652
 2021SOL    HW2 6963   2.394   5.142   3.791
 2022SOL     OW 6964   1.723   3.339   2.729
 2022SOL    HW1 6965   1.754   3.363   2.637
 2022SOL    HW2 6966   1.770   3.256   2.760
 2023SOL     OW 6967   5.929   1.383   6.786
 2023SOL    HW1 6968   5.877   1.299   6.799
 2023SOL    HW2 6969   5.951   1.394   6.689
 2024SOL     OW 6970   6.951   0.237   2.813
 2024SOL    HW1 6971   6.922   0.183   2.893
 2024SOL    HW2 6972   6.870   0.276   2.769
 2025SOL     OW 6973   2.147   3.056   2.181
 2025SOL    HW1 6974   2.072   2.990   2.185
 2025SOL    HW2 6975   2.150   3.098   2.090
 2026SOL     OW 6976   1.167   2.774   6.263
 2026SOL    HW1 6977   1.094   2.789   6.196
 2026SOL    HW2 6978   1.256   2.796   6.221
 2027SOL     OW 6979   1.088   1.458   1.042
 2027SOL    HW1 6980   1.081   1.393   0.966
 2027SOL    HW2 6981   1.035   1.540   1.021
 2028SOL     OW 6982   3.028   1.091   6.118
 2028SOL    HW1 6983   3.011   1.150   6.039
 2028SOL    HW2 6984   2.978   1.005   6.107
 2029SOL     OW 6985   6.880   0.600   0.937
 2029SOL    HW1 6986   6.964   0.645   0.969
 2029SOL    HW2 6987   6.839   0.654   0.864
 2030SOL     OW 6988   2.553   0.723   3.545
 2030SOL    HW1 6989   2.649   0.728   3.573
 2030SOL    HW2 6990   2.537   0.785   3.468
 2031SOL     OW 6991   5.675   6.116   2.117
 2031SOL    HW1 6992   5.642   6.070   2.199
 2031SOL    HW2 6993   5.624   6.082   2.037
 2032SOL     OW 6994   3.854   6.770   2.232
 2032SOL    HW1 6995   3.889   6.807   2.146
 2032SOL    HW2 6996   3.765   6.811   2.252
 2033SOL     OW 6997   3.654   3.956   6.877
 2033SOL    HW1 6998   3.700   3.870   6.899
 2033SOL    HW2 6999   3.567   3.936   6.830
 2034SOL     OW 7000   3.422   0.006   4.465
 2034SOL    HW1 7001   3.332   6.990   4.492
 2034SOL    HW2 7002   3.494   6.972   4.511
 2035SOL     OW 7003   6.779   0.812   2.019
 2035SOL    HW1 7004   6.852   0.773   1.964
 2035SOL    HW2 7005   6.691   0.777   1.988
 2036SOL     OW 7006   0.991   5.511   2.941
 2036SOL    HW1 7007   0.972   5.417   2.915
 2036SOL    HW2 7008   1.090   5.528   2.938
 2037SOL     OW 7009   0.880   3.123   5.973
 2037SOL    HW1 7010   0.980   3.123   5.974
 2037SOL    HW2 7011   0.848   3.073   5.893
 2038SOL     OW 7012   1.563   2.172   6.570
 2038SOL    HW1 7013   1.617   2.103   6.619
 2038SOL    HW2 7014   1.521   2.131   6.489
 2039SOL     OW 7015   0.094   5.339   2.699
 2039SOL    HW1 7016   0.187   5.366   2.674
 2039SOL    HW2 7017   0.029   5.408   2.666
 2040SOL     OW 7018   3.685   3.692   5.162
 2040SOL    HW1 7019   3.714   3.744   5.082
 2040SOL    HW2 7020   3.636   3.610   5.132
 2041SOL     OW 7021   6.884   5.798   5.382
 2041SOL    HW1 7022   6.945   5.815   5.460
 2041SOL    HW2 7023   6.805   5.860   5.387
 2042SOL     OW 7024   5.522   5.001   6.924
 2042SOL    HW1 7025   5.618   5.005   6.951
 2042SOL    HW2 7026   5.514   5.009   6.825
 2043SOL     OW 7027   6.381   4.513   2.512
 2043SOL    HW1 7028   6.358   4.566   2.593
 2043SOL    HW2 7029   6.463   4.459   2.530
 2044SOL     OW 7030   5.037   0.073   2.147
 2044SOL    HW1 7031   5.116   0.066   2.086
 2044SOL    HW2 7032   5.019   0.169   2.168
 2045SOL     OW 7033   2.718   4.689   4.538
 2045SOL    HW1 7034   2.674   4.633   4.609
 2045SOL    HW2 7035   2.718   4.640   4.451
 2046SOL     OW 7036   0.355   1.231   4.386
 2046SOL    HW1 7037   0.358   1.331   4.388
 2046SOL    HW2 7038   0.448   1.195   4.390
 2047SOL     OW 7039   4.766   1.870   0.315
 2047SOL    HW1 7040   4.737   1.943   0.252
 2047SOL    HW2 7041   4.865   1.874   0.327
 2048SOL     OW 7042   2.177   5.894   0.717
 2048SOL    HW1 7043   2.227   5.825   0.769
 2048SOL    HW2 7044   2.154   5.857   0.627
 2049SOL     OW 7045   4.754   1.667   6.450
 2049SOL    HW1 7046   4.706   1.588   6.414
 2049SOL    HW2 7047   4.689   1.739   6.473
 2050SOL     OW 7048   0.546   2.921   2.727
 2050SOL    HW1 7049   0.574   2.895   2.819
 2050SOL    HW2 7050   0.536   3.020   2.721
 2051SOL     OW 7051   0.350   6.025   1.182
 2051SOL    HW1 7052   0.271   6.049   1.239
 2051SOL    HW2 7053   0.373   6.102   1.123
 2052SOL     OW 7054   0.301   4.493   0.566
 2052SOL    HW1 7055   0.375   4.505   0.500
 2052SOL    HW2 7056   0.321   4.415   0.625
 2053SOL     OW 7057   5.681   0.415   5.361
 2053SOL    HW1 7058   5.631   0.473   5.424
 2053SOL    HW2 7059   5.776   0.447   5.354
 2054SOL     OW 7060   4.052   2.808   1.628
 2054SOL    HW1 7061   4.028   2.717   1.662
 2054SOL    HW2 7062   3.972   2.852   1.589
 2055SOL     OW 7063   6.280   3.281   3.442
 2055SOL    HW1 7064   6.317   3.344   3.374
 2055SOL    HW2 7065   6.219   3.216   3.398
 2056SOL     OW 7066   2.386   0.404   2.977
 2056SOL    HW1 7067   2.423   0.478   2.921
 2056SOL    HW2 7068   2.440   0.397   3.062
 2057SOL     OW 7069   5.378   3.227   3.870
 2057SOL    HW1 7070   5.309   3.218   3.942
 2057SOL    HW2 7071   5.390   3.139   3.824
 2058SOL     OW 7072   1.034   1.929   3.047
 2058SOL    HW1 7073   0.998   1.917   2.955
 2058SOL    HW2 7074   0.968   1.981   3.102
 2059SOL     OW 7075   2.472   6.313   5.986
 2059SOL    HW1 7076   2.373   6.314   5.995
 2059SOL    HW2 7077   2.510   6.236   6.038
 2060SOL     OW 7078   5.616   4.511   0.452
 2060SOL    HW1 7079   5.550   4.573   0.493
 2060SOL    HW2 7080   5.599   4.418   0.485
 2061SOL     OW 7081   0.522   1.853   3.147
 2061SOL    HW1 7082   0.621   1.852   3.156
 2061SOL    HW2 7083   0.496   1.882   3.055
 2062SOL     OW 7084   5.913   6.925   3.992
 2062SOL    HW1 7085   5.907   6.827   3.972
 2062SOL    HW2 7086   5.926   6.975   3.906
 2063SOL     OW 7087   1.726   0.501   6.491
 2063SOL    HW1 7088   1.744   0.549   6.576
 2063SOL    HW2 7089   1.763   0.408   6.496
 2064SOL     OW 7090   1.062   2.518   6.024
 2064SOL    HW1 7091   1.004   2.493   5.947
 2064SOL    HW2 7092   1.147   2.558   5.991
 2065SOL     OW 7093   6.932   2.885   4.186
 2065SOL    HW1 7094   6.837   2.869   4.210
 2065SOL    HW2 7095   6.976   2.941   4.257
 2066SOL     OW 7096   0.391   5.709   3.339
 2066SOL    HW1 7097   0.366   5.758   3.256
 2066SOL    HW2 7098   0.490   5.700   3.344
 2067SOL     OW 7099   6.831   5.602   1.019
 2067SOL    HW1 7100   6.843   5.504   1.003
 2067SOL    HW2 7101   6.746   5.618   1.069
 2068SOL     OW 7102   1.483   2.001   5.702
 2068SOL    HW1 7103   1.570   2.027   5.745
 2068SOL    HW2 7104   1.490   2.012   5.603
 2069SOL     OW 7105   1.078   2.877   3.281
 2069SOL    HW1 7106   1.106   2.782   3.271
 2069SOL    HW2 7107   1.069   2.919   3.191
 2070SOL     OW 7108   1.262   0.754   2.550
 2070SOL    HW1 7109   1.357   0.762   2.579
 2070SOL    HW2 7110   1.243   0.661   2.519
 2071SOL     OW 7111   5.959   5.944   5.242
 2071SOL    HW1 7112   6.011   5.865   5.208
 2071SOL    HW2 7113   5.938   5.932   5.339
 2072SOL     OW 7114   4.330   6.884   2.331
 2072SOL    HW1 7115   4.318   6.924   2.240
 2072SOL    HW2 7116   4.418   6.836   2.335
 2073SOL     OW 7117   4.130   6.852   4.406
 2073SOL    HW1 7118   4.184   6.770   4.423
 2073SOL    HW2 7119   4.191   6.926   4.377
 2074SOL     OW 7120   1.686   3.133   0.277
 2074SOL    HW1 7121   1.611   3.198   0.272
 2074SOL    HW2 7122   1.661   3.058   0.338
 2075SOL     OW 7123   5.307   3.116   1.117
 2075SOL    HW1 7124   5.232   3.183   1.122
 2075SOL    HW2 7125   5.274   3.028   1.150
 2076SOL     OW 7126   5.588   6.764   6.257
 2076SOL    HW1 7127   5.546   6.817   6.331
 2076SOL    HW2 7128   5.672   6.722   6.290
 2077SOL     OW 7129   5.668   2.855   2.155
 2077SOL    HW1 7130   5.718   2.923   2.102
 2077SOL    HW2 7131   5.733   2.804   2.212
 2078SOL     OW 7132   1.590   5.575   6.225
 2078SOL    HW1 7133   1.633   5.486   6.239
 2078SOL    HW2 7134   1.610   5.607   6.132
 2079SOL     OW 7135   5.592   1.718   3.401
 2079SOL    HW1 7136   5.544   1.717   3.314
 2079SOL    HW2 7137   5.619   1.811   3.424
 2080SOL     OW 7138   1.874   0.896   4.718
 2080SOL    HW1 7139   1.783   0.864   4.744
 2080SOL    HW2 7140   1.941   0.866   4.786
 2081SOL     OW 7141   1.658   5.428   4.316
 2081SOL    HW1 7142   1.654   5.483   4.233
 2081SOL    HW2 7143   1.567   5.391   4.336
 2082SOL     OW 7144   7.015   6.968   3.179
 2082SOL    HW1 7145   0.006   6.979   3.278
 2082SOL    HW2 7146   0.051   6.891   3.147
 2083SOL     OW 7147   5.566   5.254   6.293
 2083SOL    HW1 7148   5.479   5.206   6.277
 2083SOL    HW2 7149   5.577   5.325   6.224
 2084SOL     OW 7150   0.984   3.590   4.113
 2084SOL    HW1 7151   1.049   3.664   4.129
 2084SOL    HW2 7152   0.891   3.627   4.117
 2085SOL     OW 7153   4.380   0.623   6.869
 2085SOL    HW1 7154   4.371   0.645   6.772
 2085SOL    HW2 7155   4.341   0.697   6.924
 2086SOL     OW 7156   4.599   6.818   5.794
 2086SOL    HW1 7157   4.654   6.857   5.720
 2086SOL    HW2 7158   4.657   6.794   5.871
 2087SOL     OW 7159   5.210   0.082   1.540
 2087SOL    HW1 7160   5.152   0.026   1.480
 2087SOL    HW2 7161   5.179   0.072   1.634
 2088SOL     OW 7162   3.093   6.294   0.728
 2088SOL    HW1 7163   3.047   6.360   0.668
 2088SOL    HW2 7164   3.125   6.341   0.810
 2089SOL     OW 7165   5.102   2.135   6.221
 2089SOL    HW1 7166   5.132   2.053   6.269
 2089SOL    HW2 7167   5.003   2.130   6.205
 2090SOL     OW 7168   3.402   2.932   5.730
 2090SOL    HW1 7169   3.310   2.970   5.723
 2090SOL    HW2 7170   3.396   2.832   5.729
 2091SOL     OW 7171   6.937   5.634   0.628
 2091SOL    HW1 7172   6.979   5.610   0.716
 2091SOL    HW2 7173   6.969   5.725   0.600
 2092SOL     OW 7174   5.298   4.374   6.825
 2092SOL    HW1 7175   5.373   4.440   6.832
 2092SOL    HW2 7176   5.238   4.382   6.905
 2093SOL     OW 7177   2.438   2.499   1.152
 2093SOL    HW1 7178   2.347   2.520   1.189
 2093SOL    HW2 7179   2.486   2.584   1.132
 2094SOL     OW 7180   5.591   1.612   1.300
 2094SOL    HW1 7181   5.576   1.679   1.373
 2094SOL    HW2 7182   5.670   1.640   1.245
 2095SOL     OW 7183   5.820   0.471   5.017
 2095SOL    HW1 7184   5.835   0.569   5.002
 2095SOL    HW2 7185   5.723   0.456   5.040
 2096SOL     OW 7186   5.068   4.046   3.446
 2096SOL    HW1 7187   5.069   4.048   3.546
 2096SOL    HW2 7188   5.120   3.967   3.414
 2097SOL     OW 7189   2.335   2.972   6.697
 2097SOL    HW1 7190   2.359   3.066   6.677
 2097SOL    HW2 7191   2.311   2.963   6.794
 2098SOL     OW 7192   4.498   5.926   2.719
 2098SOL    HW1 7193   4.424   5.921   2.651
 2098SOL    HW2 7194   4.458   5.928   2.811
 2099SOL     OW 7195   2.961   3.624   5.746
 2099SOL    HW1 7196   3.023   3.550   5.771
 2099SOL    HW2 7197   2.990   3.665   5.660
 2100SOL     OW 7198   4.472   3.098   5.954
 2100SOL    HW1 7199   4.463   2.999   5.942
 2100SOL    HW2 7200   4.553   3.131   5.906
 2101SOL     OW 7201   1.548   6.608   2.445
 2101SOL    HW1 7202   1.580   6.514   2.435
 2101SOL    HW2 7203   1.459   6.609   2.492
 2102SOL     OW 7204   6.161   4.955   1.760
 2102SOL    HW1 7205   6.232   5.019   1.730
 2102SOL    HW2 7206   6.199   4.893   1.829
 2103SOL     OW 7207   3.706   4.422   5.846
 2103SOL    HW1 7208   3.645   4.346   5.826
 2103SOL    HW2 7209   3.798   4.387   5.866
 2104SOL     OW 7210   1.569   3.452   0.831
 2104SOL    HW1 7211   1.612   3.456   0.920
 2104SOL    HW2 7212   1.469   3.451   0.842
 2105SOL     OW 7213   5.352   6.015   5.215
 2105SOL    HW1 7214   5.355   5.918   5.239
 2105SOL    HW2 7215   5.405   6.031   5.132
 2106SOL     OW 7216   4.916   4.025   1.203
 2106SOL    HW1 7217   4.912   3.967   1.122
 2106SOL    HW2 7218   4.832   4.015   1.256
 2107SOL     OW 7219   5.027   2.459   5.399
 2107SOL    HW1 7220   4.984   2.549   5.396
 2107SOL    HW2 7221   5.101   2.456   5.331
 2108SOL     OW 7222   6.579   6.141   5.134
 2108SOL    HW1 7223   6.484   6.119   5.158
 2108SOL    HW2 7224   6.622   6.062   5.092
 2109SOL     OW 7225   4.291   6.307   2.407
 2109SOL    HW1 7226   4.207   6.317   2.355
 2109SOL    HW2 7227   4.308   6.211   2.426
 2110SOL     OW 7228   2.728   1.493   0.049
 2110SOL    HW1 7229   2.751   1.589   0.065
 2110SOL    HW2 7230   2.695   1.452   0.134
 2111SOL     OW 7231   1.206   2.693   0.039
 2111SOL    HW1 7232   1.231   2.729   6.968
 2111SOL    HW2 7233   1.126   2.742   0.074
 2112SOL     OW 7234   4.963   3.236   0.027
 2112SOL    HW1 7235   5.011   3.291   0.096
 2112SOL    HW2 7236   4.964   3.140   0.053
 2113SOL     OW 7237   1.699   1.845   5.140
 2113SOL    HW1 7238   1.614   1.897   5.145
 2113SOL    HW2 7239   1.706   1.801   5.050
 2114SOL     OW 7240   1.424   2.837   0.277
 2114SOL    HW1 7241   1.326   2.847   0.294
 2114SOL    HW2 7242   1.442   2.848   0.179
 2115SOL     OW 7243   2.013   3.543   2.657
 2115SOL    HW1 7244   2.072   3.462   2.652
 2115SOL    HW2 7245   1.948   3.542   2.581
 2116SOL     OW 7246   6.734   4.960   3.061
 2116SOL    HW1 7247   6.690   5.019   2.993
 2116SOL    HW2 7248   6.827   4.938   3.032
 2117SOL     OW 7249   6.716   5.318   1.808
 2117SOL    HW1 7250   6.766   5.301   1.892
 2117SOL    HW2 7251   6.664   5.404   1.816
 2118SOL     OW 7252   5.957   3.819   1.829
 2118SOL    HW1 7253   5.955   3.854   1.735
 2118SOL    HW2 7254   5.931   3.892   1.893
 2119SOL     OW 7255   1.687   6.283   1.061
 2119SOL    HW1 7256   1.751   6.313   1.131
 2119SOL    HW2 7257   1.738   6.241   0.985
 2120SOL     OW 7258   0.040   5.285   3.758
 2120SOL    HW1 7259   0.109   5.343   3.801
 2120SOL    HW2 7260   0.010   5.214   3.823
 2121SOL     OW 7261   1.126   3.770   5.818
 2121SOL    HW1 7262   1.215   3.776   5.863
 2121SOL    HW2 7263   1.139   3.745   5.722
 2122SOL     OW 7264   5.626   4.309   6.011
 2122SOL    HW1 7265   5.602   4.295   5.915
 2122SOL    HW2 7266   5.646   4.220   6.053
 2123SOL     OW 7267   6.591   6.202   2.058
 2123SOL    HW1 7268   6.606   6.193   1.960
 2123SOL    HW2 7269   6.569   6.297   2.080
 2124SOL     OW 7270   2.534   1.967   1.810
 2124SOL    HW1 7271   2.629   1.938   1.823
 2124SOL    HW2 7272   2.474   1.888   1.821
 2125SOL     OW 7273   2.127   0.865   1.972
 2125SOL    HW1 7274   2.221   0.901   1.973
 2125SOL    HW2 7275   2.109   0.822   1.884
 2126SOL     OW 7276   3.522   1.448   6.438
 2126SOL    HW1 7277   3.511   1.363   6.387
 2126SOL    HW2 7278   3.453   1.453   6.511
 2127SOL     OW 7279   0.064   3.364   4.423
 2127SOL    HW1 7280   0.028   3.379   4.331
 2127SOL    HW2 7281   0.020   3.428   4.486
 2128SOL     OW 7282   6.824   2.827   3.726
 2128SOL    HW1 7283   6.907   2.844   3.781
 2128SOL    HW2 7284   6.839   2.859   3.633
 2129SOL     OW 7285   4.118   3.931   5.427
 2129SOL    HW1 7286   4.180   3.871   5.477
 2129SOL    HW2 7287   4.024   3.899   5.439
 2130SOL     OW 7288   3.338   0.971   1.763
 2130SOL    HW1 7289   3.283   0.912   1.822
 2130SOL    HW2 7290   3.404   1.022   1.819
 2131SOL     OW 7291   6.162   0.446   0.980
 2131SOL    HW1 7292   6.148   0.400   0.893
 2131SOL    HW2 7293   6.252   0.489   0.982
 2132SOL     OW 7294   3.223   1.113   1.561
 2132SOL    HW1 7295   3.234   1.089   1.658
 2132SOL    HW2 7296   3.295   1.177   1.534
 2133SOL     OW 7297   3.213   3.166   0.351
 2133SOL    HW1 7298   3.249   3.188   0.260
 2133SOL    HW2 7299   3.119   3.132   0.343
 2134SOL     OW 7300   6.883   2.145   6.851
 2134SOL    HW1 7301   6.917   2.081   6.919
 2134SOL    HW2 7302   6.792   2.115   6.820
 2135SOL     OW 7303   0.896   3.189   4.373
 2135SOL    HW1 7304   0.868   3.280   4.341
 2135SOL    HW2 7305   0.868   3.177   4.468
 2136SOL     OW 7306   1.448   3.339   2.891
 2136SOL    HW1 7307   1.531   3.344   2.835
 2136SOL    HW2 7308   1.467   3.374   2.982
 2137SOL     OW 7309   2.165   5.365   4.884
 2137SOL    HW1 7310   2.193   5.459   4.864
 2137SOL    HW2 7311   2.121   5.326   4.804
 2138SOL     OW 7312   6.593   0.005   3.125
 2138SOL    HW1 7313   6.633   6.948   3.176
 2138SOL    HW2 7314   6.634   0.091   3.157
 2139SOL     OW 7315   4.537   0.638   3.607
 2139SOL    HW1 7316   4.546   0.679   3.698
 2139SOL    HW2 7317   4.455   0.674   3.563
 2140SOL     OW 7318   3.717   6.578   3.824
 2140SOL    HW1 7319   3.713   6.669   3.865
 2140SOL    HW2 7320   3.773   6.518   3.882
 2141SOL     OW 7321   6.515   3.409   1.887
 2141SOL    HW1 7322   6.588   3.424   1.820
 2141SOL    HW2 7323   6.522   3.317   1.924
 2142SOL     OW 7324   1.688   1.367   2.879
 2142SOL    HW1 7325   1.629   1.447   2.870
 2142SOL    HW2 7326   1.701   1.345   2.975
 2143SOL     OW 7327   3.363   4.409   1.452
 2143SOL    HW1 7328   3.371   4.486   1.515
 2143SOL    HW2 7329   3.306   4.435   1.375
 2144SOL     OW 7330   0.947   5.699   3.880
 2144SOL    HW1 7331   0.901   5.651   3.955
 2144SOL    HW2 7332   0.994   5.633   3.822
 2145SOL     OW 7333   4.303   6.270   3.966
 2145SOL    HW1 7334   4.374   6.242   4.031
 2145SOL    HW2 7335   4.295   6.370   3.966
 2146SOL     OW 7336   2.079   3.733   1.394
 2146SOL    HW1 7337   2.088   3.730   1.494
 2146SOL    HW2 7338   2.149   3.795   1.357
 2147SOL     OW 7339   6.738   1.442   5.638
 2147SOL    HW1 7340   6.718   1.504   5.714
 2147SOL    HW2 7341   6.655   1.392   5.614
 2148SOL     OW 7342   6.199   3.274   5.618
 2148SOL    HW1 7343   6.134   3.198   5.625
 2148SOL    HW2 7344   6.292   3.238   5.614
 2149SOL     OW 7345   3.029   1.788   1.148
 2149SOL    HW1 7346   3.031   1.871   1.205
 2149SOL    HW2 7347   3.031   1.707   1.207
 2150SOL     OW 7348   2.453   2.601   2.302
 2150SOL    HW1 7349   2.470   2.543   2.222
 2150SOL    HW2 7350   2.457   2.544   2.385
 2151SOL     OW 7351   1.409   0.008   5.526
 2151SOL    HW1 7352   1.493   6.986   5.491
 2151SOL    HW2 7353   1.384   0.087   5.469
 2152SOL     OW 7354   2.964   5.554   2.006
 2152SOL    HW1 7355   3.044   5.615   2.002
 2152SOL    HW2 7356   2.947   5.528   2.101
 2153SOL     OW 7357   4.488   1.757   3.152
 2153SOL    HW1 7358   4.561   1.723   3.212
 2153SOL    HW2 7359   4.501   1.720   3.060
 2154SOL     OW 7360   5.509   1.336   4.911
 2154SOL    HW1 7361   5.474   1.302   4.998
 2154SOL    HW2 7362   5.609   1.331   4.910
 2155SOL     OW 7363   3.488   6.233   0.654
 2155SOL    HW1 7364   3.412   6.236   0.589
 2155SOL    HW2 7365   3.459   6.276   0.740
 2156SOL     OW 7366   1.456   2.126   4.871
 2156SOL    HW1 7367   1.433   2.069   4.792
 2156SOL    HW2 7368   1.376   2.179   4.898
 2157SOL     OW 7369   6.091   0.187   3.364
 2157SOL    HW1 7370   6.053   0.227   3.281
 2157SOL    HW2 7371   6.122   0.093   3.345
 2158SOL     OW 7372   3.651   5.837   0.745
 2158SOL    HW1 7373   3.689   5.867   0.657
 2158SOL    HW2 7374   3.561   5.879   0.758
 2159SOL     OW 7375   1.505   6.796   5.065
 2159SOL    HW1 7376   1.581   6.735   5.086
 2159SOL    HW2 7377   1.434   6.786   5.135
 2160SOL     OW 7378   4.422   4.055   6.748
 2160SOL    HW1 7379   4.494   4.065   6.679
 2160SOL    HW2 7380   4.343   4.111   6.723
 2161SOL     OW 7381   5.320   4.946   2.303
 2161SOL    HW1 7382   5.224   4.922   2.288
 2161SOL    HW2 7383   5.338   4.953   2.401
 2162SOL     OW 7384   3.054   7.007   2.235
 2162SOL    HW1 7385   3.091   0.002   2.144
 2162SOL    HW2 7386   2.973   0.046   2.248
 2163SOL     OW 7387   1.514   4.610   6.469
 2163SOL    HW1 7388   1.568   4.545   6.416
 2163SOL    HW2 7389   1.565   4.695   6.480
 2164SOL     OW 7390   1.648   2.545   6.224
 2164SOL    HW1 7391   1.551   2.523   6.218
 2164SOL    HW2 7392   1.695   2.475   6.278
 2165SOL     OW 7393   6.843   2.426   3.064
 2165SOL    HW1 7394   6.782   2.474   3.001
 2165SOL    HW2 7395   6.920   2.388   3.013
 2166SOL     OW 7396   1.152   2.529   5.208
 2166SOL    HW1 7397   1.207   2.452   5.176
 2166SOL    HW2 7398   1.195   2.615   5.180
 2167SOL     OW 7399   1.236   2.266   3.160
 2167SOL    HW1 7400   1.244   2.187   3.100
 2167SOL    HW2 7401   1.302   2.336   3.133
 2168SOL     OW 7402   0.690   2.361   3.737
 2168SOL    HW1 7403   0.629   2.403   3.804
 2168SOL    HW2 7404   0.744   2.432   3.692
 2169SOL     OW 7405   5.414   1.886   0.191
 2169SOL    HW1 7406   5.406   1.940   0.275
 2169SOL    HW2 7407   5.511   1.874   0.169
 2170SOL     OW 7408   6.827   3.989   5.159
 2170SOL    HW1 7409   6.787   4.068   5.205
 2170SOL    HW2 7410   6.801   3.906   5.208
 2171SOL     OW 7411   6.921   5.128   1.467
 2171SOL    HW1 7412   6.956   5.149   1.375
 2171SOL    HW2 7413   6.879   5.037   1.466
 2172SOL     OW 7414   1.751   2.383   6.432
 2172SOL    HW1 7415   1.833   2.419   6.477
 2172SOL    HW2 7416   1.680   2.367   6.500
 2173SOL     OW 7417   4.088   0.848   5.024
 2173SOL    HW1 7418   3.994   0.864   4.993
 2173SOL    HW2 7419   4.100   0.750   5.044
 2174SOL     OW 7420   5.592   6.080   4.946
 2174SOL    HW1 7421   5.587   6.006   4.879
 2174SOL    HW2 7422   5.637   6.048   5.029
 2175SOL     OW 7423   2.176   2.572   4.817
 2175SOL    HW1 7424   2.080   2.597   4.818
 2175SOL    HW2 7425   2.232   2.652   4.836
 2176SOL     OW 7426   5.964   1.880   0.482
 2176SOL    HW1 7427   5.879   1.872   0.430
 2176SOL    HW2 7428   6.005   1.970   0.466
 2177SOL     OW 7429   6.932   1.964   3.944
 2177SOL    HW1 7430   6.998   1.909   3.893
 2177SOL    HW2 7431   6.855   1.906   3.973
 2178SOL     OW 7432   2.099   2.130   1.813
 2178SOL    HW1 7433   2.076   2.060   1.881
 2178SOL    HW2 7434   2.198   2.143   1.810
 2179SOL     OW 7435   1.996   5.052   5.133
 2179SOL    HW1 7436   1.916   5.046   5.074
 2179SOL    HW2 7437   2.032   5.145   5.132
 2180SOL     OW 7438   1.756   1.893   2.259
 2180SOL    HW1 7439   1.700   1.916   2.179
 2180SOL    HW2 7440   1.847   1.934   2.248
 2181SOL     OW 7441   5.000   4.540   4.640
 2181SOL    HW1 7442   5.009   4.629   4.595
 2181SOL    HW2 7443   4.986   4.553   4.738
 2182SOL     OW 7444   1.901   4.079   4.305
 2182SOL    HW1 7445   1.886   3.995   4.253
 2182SOL    HW2 7446   1.819   4.136   4.300
 2183SOL     OW 7447   2.462   4.649   6.007
 2183SOL    HW1 7448   2.427   4.558   6.029
 2183SOL    HW2 7449   2.481   4.655   5.909
 2184SOL     OW 7450   3.742   1.160   6.087
 2184SOL    HW1 7451   3.730   1.099   6.008
 2184SOL    HW2 7452   3.839   1.172   6.106
 2185SOL     OW 7453   0.439   0.599   1.459
 2185SOL    HW1 7454   0.489   0.573   1.377
 2185SOL    HW2 7455   0.425   0.519   1.517
 2186SOL     OW 7456   6.887   5.956   1.667
 2186SOL    HW1 7457   6.827   6.030   1.696
 2186SOL    HW2 7458   6.977   5.967   1.710
 2187SOL     OW 7459   6.556   6.218   2.950
 2187SOL    HW1 7460   6.615   6.150   2.907
 2187SOL    HW2 7461   6.513   6.274   2.879
 2188SOL     OW 7462   6.946   5.786   4.035
 2188SOL    HW1 7463   6.888   5.868   4.034
 2188SOL    HW2 7464   6.904   5.714   3.980
 2189SOL     OW 7465   2.025   6.659   0.667
 2189SOL    HW1 7466   2.100   6.616   0.615
 2189SOL    HW2 7467   1.940   6.611   0.649
 2190SOL     OW 7468   0.537   3.256   1.935
 2190SOL    HW1 7469   0.506   3.200   2.011
 2190SOL    HW2 7470   0.616   3.212   1.891
 2191SOL     OW 7471   2.764   1.743   6.881
 2191SOL    HW1 7472   2.793   1.836   6.858
 2191SOL    HW2 7473   2.711   1.705   6.805
 2192SOL     OW 7474   4.788   0.846   2.530
 2192SOL    HW1 7475   4.870   0.849   2.588
 2192SOL    HW2 7476   4.801   0.778   2.458
 2193SOL     OW 7477   5.481   5.744   0.163
 2193SOL    HW1 7478   5.404   5.804   0.140
 2193SOL    HW2 7479   5.460   5.696   0.248
 2194SOL     OW 7480   2.372   4.805   5.620
 2194SOL    HW1 7481   2.352   4.902   5.608
 2194SOL    HW2 7482   2.383   4.762   5.531
 2195SOL     OW 7483   0.087   0.213   4.883
 2195SOL    HW1 7484   0.020   0.201   4.810
 2195SOL    HW2 7485   0.176   0.234   4.844
 2196SOL     OW 7486   3.657   0.210   4.983
 2196SOL    HW1 7487   3.677   0.302   4.949
 2196SOL    HW2 7488   3.741   0.156   4.983
 2197SOL     OW 7489   2.609   3.638   0.517
 2197SOL    HW1 7490   2.560   3.725   0.512
 2197SOL    HW2 7491   2.695   3.651   0.566
 2198SOL     OW 7492   5.444   0.534   0.354
 2198SOL    HW1 7493   5.402   0.460   0.406
 2198SOL    HW2 7494   5.501   0.495   0.282
 2199SOL     OW 7495   5.177   0.362   3.013
 2199SOL    HW1 7496   5.241   0.424   3.059
 2199SOL    HW2 7497   5.088   0.368   3.059
 2200SOL     OW 7498   2.674   1.946   4.390
 2200SOL    HW1 7499   2.740   2.019   4.409
 2200SOL    HW2 7500   2.722   1.858   4.390
 2201SOL     OW 7501   6.916   2.865   2.982
 2201SOL    HW1 7502   6.895   2.808   2.902
 2201SOL    HW2 7503   6.922   2.808   3.063
 2202SOL     OW 7504   2.792   5.630   2.377
 2202SOL    HW1 7505   2.752   5.677   2.298
 2202SOL    HW2 7506   2.846   5.552   2.346
 2203SOL     OW 7507   1.921   2.550   0.600
 2203SOL    HW1 7508   1.996   2.601   0.558
 2203SOL    HW2 7509   1.942   2.452   0.599
 2204SOL     OW 7510   4.452   1.783   1.365
 2204SOL    HW1 7511   4.478   1.686   1.371
 2204SOL    HW2 7512   4.361   1.791   1.324
 2205SOL     OW 7513   0.825   0.207   6.267
 2205SOL    HW1 7514   0.825   0.160   6.179
 2205SOL    HW2 7515   0.730   0.224   6.296
 2206SOL     OW 7516   2.996   4.985   6.097
 2206SOL    HW1 7517   3.062   5.058   6.115
 2206SOL    HW2 7518   3.043   4.897   6.096
 2207SOL     OW 7519   2.969   4.716   6.357
 2207SOL    HW1 7520   2.893   4.722   6.421
 2207SOL    HW2 7521   3.008   4.623   6.360
 2208SOL     OW 7522   1.669   5.829   2.970
 2208SOL    HW1 7523   1.755   5.873   2.997
 2208SOL    HW2 7524   1.684   5.732   2.956
 2209SOL     OW 7525   1.846   6.333   5.348
 2209SOL    HW1 7526   1.764   6.361   5.396
 2209SOL    HW2 7527   1.870   6.402   5.280
 2210SOL     OW 7528   6.944   4.898   4.581
 2210SOL    HW1 7529   6.903   4.892   4.672
 2210SOL    HW2 7530   0.001   4.833   4.574
 2211SOL     OW 7531   6.247   0.144   0.935
 2211SOL    HW1 7532   6.194   0.175   1.014
 2211SOL    HW2 7533   6.343   0.172   0.947
 2212SOL     OW 7534   2.473   5.581   6.771
 2212SOL    HW1 7535   2.559   5.627   6.794
 2212SOL    HW2 7536   2.416   5.642   6.717
 2213SOL     OW 7537   2.961   1.816   5.438
 2213SOL    HW1 7538   2.993   1.843   5.528
 2213SOL    HW2 7539   3.018   1.859   5.368
 2214SOL     OW 7540   3.809   3.431   5.304
 2214SOL    HW1 7541   3.868   3.431   5.224
 2214SOL    HW2 7542   3.717   3.462   5.278
 2215SOL     OW 7543   6.540   0.953   0.177
 2215SOL    HW1 7544   6.504   1.046   0.182
 2215SOL    HW2 7545   6.592   0.941   0.093
 2216SOL     OW 7546   2.017   1.064   6.276
 2216SOL    HW1 7547   1.984   1.117   6.198
 2216SOL    HW2 7548   2.087   1.116   6.324
 2217SOL     OW 7549   3.867   6.808   1.936
 2217SOL    HW1 7550   3.857   6.775   1.842
 2217SOL    HW2 7551   3.930   6.885   1.937
 2218SOL     OW 7552   6.678   5.617   6.742
 2218SOL    HW1 7553   6.774   5.637   6.762
 2218SOL    HW2 7554   6.630   5.702   6.718
 2219SOL     OW 7555   5.022   1.822   1.460
 2219SOL    HW1 7556   5.056   1.757   1.528
 2219SOL    HW2 7557   4.941   1.868   1.495
 2220SOL     OW 7558   1.736   0.357   5.100
 2220SOL    HW1 7559   1.679   0.284   5.137
 2220SOL    HW2 7560   1.709   0.377   5.006
 2221SOL     OW 7561   6.472   1.338   5.611
 2221SOL    HW1 7562   6.442   1.265   5.673
 2221SOL    HW2 7563   6.409   1.343   5.533
 2222SOL     OW 7564   4.908   0.979   0.040
 2222SOL    HW1 7565   4.904   1.069   0.084
 2222SOL    HW2 7566   4.873   0.909   0.103
 2223SOL     OW 7567   6.199   1.406   5.142
 2223SOL    HW1 7568   6.152   1.400   5.230
 2223SOL    HW2 7569   6.137   1.443   5.074
 2224SOL     OW 7570   0.228   3.402   1.035
 2224SOL    HW1 7571   0.238   3.371   1.129
 2224SOL    HW2 7572   0.290   3.351   0.976
 2225SOL     OW 7573   6.625   6.765   3.795
 2225SOL    HW1 7574   6.531   6.741   3.819
 2225SOL    HW2 7575   6.625   6.819   3.711
 2226SOL     OW 7576   3.423   4.808   1.215
 2226SOL    HW1 7577   3.502   4.796   1.155
 2226SOL    HW2 7578   3.436   4.891   1.270
 2227SOL     OW 7579   4.928   3.574   6.793
 2227SOL    HW1 7580   4.969   3.630   6.722
 2227SOL    HW2 7581   4.931   3.622   6.880
 2228SOL     OW 7582   3.647   4.840   1.461
 2228SOL    HW1 7583   3.615   4.908   1.395
 2228SOL    HW2 7584   3.569   4.787   1.494
 2229SOL     OW 7585   4.314   2.986   5.682
 2229SOL    HW1 7586   4.360   2.954   5.599
 2229SOL    HW2 7587   4.330   3.084   5.693
 2230SOL     OW 7588   5.106   6.755   0.061
 2230SOL    HW1 7589   5.106   6.730   6.983
 2230SOL    HW2 7590   5.190   6.723   0.104
 2231SOL     OW 7591   0.473   0.770   1.750
 2231SOL    HW1 7592   0.449   0.724   1.665
 2231SOL    HW2 7593   0.417   0.853   1.760
 2232SOL     OW 7594   0.882   2.831   5.144
 2232SOL    HW1 7595   0.928   2.865   5.063
 2232SOL    HW2 7596   0.860   2.734   5.132
 2233SOL     OW 7597   1.937   3.916   6.868
 2233SOL    HW1 7598   1.957   4.006   6.907
 2233SOL    HW2 7599   1.840   3.894   6.883
 2234SOL     OW 7600   4.211   1.798   1.247
 2234SOL    HW1 7601   4.155   1.831   1.323
 2234SOL    HW2 7602   4.178   1.709   1.218
 2235SOL     OW 7603   2.589   7.016   1.614
 2235SOL    HW1 7604   2.607   7.016   1.516
 2235SOL    HW2 7605   2.550   0.085   1.641
 2236SOL     OW 7606   1.600   4.186   6.465
 2236SOL    HW1 7607   1.631   4.094   6.440
 2236SOL    HW2 7608   1.500   4.188   6.463
 2237SOL     OW 7609   5.721   4.568   4.256
 2237SOL    HW1 7610   5.687   4.639   4.194
 2237SOL    HW2 7611   5.714   4.600   4.350
 2238SOL     OW 7612   4.482   4.485   1.740
 2238SOL    HW1 7613   4.448   4.576   1.761
 2238SOL    HW2 7614   4.452   4.421   1.811
 2239SOL     OW 7615   3.819   5.239   4.167
 2239SOL    HW1 7616   3.783   5.317   4.115
 2239SOL    HW2 7617   3.874   5.182   4.106
 2240SOL     OW 7618   4.567   5.859   3.446
 2240SOL    HW1 7619   4.572   5.953   3.481
 2240SOL    HW2 7620   4.593   5.858   3.350
 2241SOL     OW 7621   0.421   5.332   3.220
 2241SOL    HW1 7622   0.322   5.314   3.223
 2241SOL    HW2 7623   0.450   5.372   3.307
 2242SOL     OW 7624   5.457   3.192   2.697
 2242SOL    HW1 7625   5.448   3.209   2.795
 2242SOL    HW2 7626   5.371   3.212   2.651
 2243SOL     OW 7627   1.984   6.818   6.272
 2243SOL    HW1 7628   2.028   6.732   6.297
 2243SOL    HW2 7629   1.929   6.804   6.189
 2244SOL     OW 7630   1.700   6.404   1.873
 2244SOL    HW1 7631   1.757   6.437   1.949
 2244SOL    HW2 7632   1.754   6.344   1.814
 2245SOL     OW 7633   0.637   2.671   0.926
 2245SOL    HW1 7634   0.539   2.648   0.923
 2245SOL    HW2 7635   0.687   2.597   0.970
 2246SOL     OW 7636   1.169   1.702   4.627
 2246SOL    HW1 7637   1.092   1.639   4.624
 2246SOL    HW2 7638   1.160   1.763   4.706
 2247SOL     OW 7639   3.482   2.882   4.139
 2247SOL    HW1 7640   3.503   2.875   4.236
 2247SOL    HW2 7641   3.565   2.870   4.085
 2248SOL     OW 7642   5.620   3.690   5.535
 2248SOL    HW1 7643   5.535   3.642   5.559
 2248SOL    HW2 7644   5.660   3.648   5.454
 2249SOL     OW 7645   5.713   6.489   2.947
 2249SOL    HW1 7646   5.724   6.401   2.994
 2249SOL    HW2 7647   5.639   6.540   2.990
 2250SOL     OW 7648   4.019   4.116   6.326
 2250SOL    HW1 7649   4.065   4.057   6.393
 2250SOL    HW2 7650   3.965   4.059   6.264
 2251SOL     OW 7651   5.215   0.275   6.420
 2251SOL    HW1 7652   5.264   0.248   6.337
 2251SOL    HW2 7653   5.137   0.332   6.395
 2252SOL     OW 7654   4.771   2.750   2.093
 2252SOL    HW1 7655   4.682   2.724   2.131
 2252SOL    HW2 7656   4.783   2.850   2.100
 2253SOL     OW 7657   0.309   3.662   6.781
 2253SOL    HW1 7658   0.316   3.562   6.788
 2253SOL    HW2 7659   0.347   3.704   6.863
 2254SOL     OW 7660   3.595   2.531   5.636
 2254SOL    HW1 7661   3.559   2.472   5.564
 2254SOL    HW2 7662   3.643   2.608   5.594
 2255SOL     OW 7663   4.513   3.271   6.213
 2255SOL    HW1 7664   4.523   3.359   6.259
 2255SOL    HW2 7665   4.524   3.284   6.114
 2256SOL     OW 7666   5.390   5.893   2.030
 2256SOL    HW1 7667   5.328   5.968   2.051
 2256SOL    HW2 7668   5.476   5.930   1.995
 2257SOL     OW 7669   0.021   2.042   4.823
 2257SOL    HW1 7670   0.003   2.074   4.916
 2257SOL    HW2 7671   7.004   2.108   4.757
 2258SOL     OW 7672   1.416   5.661   5.077
 2258SOL    HW1 7673   1.320   5.635   5.083
 2258SOL    HW2 7674   1.434   5.737   5.139
 2259SOL     OW 7675   5.649   4.098   6.499
 2259SOL    HW1 7676   5.597   4.096   6.414
 2259SOL    HW2 7677   5.735   4.047   6.486
 2260SOL     OW 7678   6.227   4.347   1.766
 2260SOL    HW1 7679   6.196   4.325   1.674
 2260SOL    HW2 7680   6.284   4.273   1.801
 2261SOL     OW 7681   6.503   5.380   0.136
 2261SOL    HW1 7682   6.601   5.382   0.157
 2261SOL    HW2 7683   6.486   5.315   0.062
 2262SOL     OW 7684   6.113   1.050   2.951
 2262SOL    HW1 7685   6.124   0.966   2.898
 2262SOL    HW2 7686   6.191   1.110   2.935
 2263SOL     OW 7687   3.191   6.152   6.673
 2263SOL    HW1 7688   3.229   6.085   6.736
 2263SOL    HW2 7689   3.123   6.208   6.720
 2264SOL     OW 7690   2.282   4.430   0.549
 2264SOL    HW1 7691   2.380   4.452   0.556
 2264SOL    HW2 7692   2.233   4.472   0.625
 2265SOL     OW 7693   0.520   0.869   4.340
 2265SOL    HW1 7694   0.522   0.859   4.240
 2265SOL    HW2 7695   0.457   0.801   4.378
 2266SOL     OW 7696   5.180   1.669   0.001
 2266SOL    HW1 7697   5.250   1.689   0.070
 2266SOL    HW2 7698   5.099   1.724   0.020
 2267SOL     OW 7699   5.122   2.100   4.525
 2267SOL    HW1 7700   5.076   2.054   4.449
 2267SOL    HW2 7701   5.141   2.034   4.598
 2268SOL     OW 7702   6.319   3.329   0.120
 2268SOL    HW1 7703   6.238   3.305   0.066
 2268SOL    HW2 7704   6.401   3.312   0.066
 2269SOL     OW 7705   6.039   5.120   5.038
 2269SOL    HW1 7706   5.990   5.053   5.095
 2269SOL    HW2 7707   6.023   5.212   5.073
 2270SOL     OW 7708   2.980   2.284   6.396
 2270SOL    HW1 7709   3.002   2.209   6.333
 2270SOL    HW2 7710   2.962   2.247   6.487
 2271SOL     OW 7711   5.537   3.767   1.003
 2271SOL    HW1 7712   5.440   3.788   1.015
 2271SOL    HW2 7713   5.555   3.674   1.034
 2272SOL     OW 7714   5.889   3.069   6.496
 2272SOL    HW1 7715   5.793   3.097   6.487
 2272SOL    HW2 7716   5.914   3.012   6.418
 2273SOL     OW 7717   1.557   0.745   2.262
 2273SOL    HW1 7718   1.516   0.828   2.301
 2273SOL    HW2 7719   1.631   0.770   2.200
 2274SOL     OW 7720   6.968   2.281   6.458
 2274SOL    HW1 7721   0.048   2.290   6.473
 2274SOL    HW2 7722   6.918   2.324   6.533
 2275SOL     OW 7723   6.215   7.002   4.338
 2275SOL    HW1 7724   6.214   6.907   4.307
 2275SOL    HW2 7725   6.303   0.025   4.314
 2276SOL     OW 7726   2.578   5.305   0.861
 2276SOL    HW1 7727   2.632   5.382   0.828
 2276SOL    HW2 7728   2.599   5.223   0.808
 2277SOL     OW 7729   3.667   3.974   4.313
 2277SOL    HW1 7730   3.676   3.913   4.392
 2277SOL    HW2 7731   3.580   4.022   4.318
 2278SOL     OW 7732   6.460   4.772   4.606
 2278SOL    HW1 7733   6.398   4.718   4.663
 2278SOL    HW2 7734   6.547   4.724   4.596
 2279SOL     OW 7735   5.484   6.917   5.465
 2279SOL    HW1 7736   5.532   6.969   5.536
 2279SOL    HW2 7737   5.457   6.978   5.391
 2280SOL     OW 7738   6.476   6.722   4.782
 2280SOL    HW1 7739   6.566   6.765   4.784
 2280SOL    HW2 7740   6.483   6.631   4.741
 2281SOL     OW 7741   3.563   1.456   2.318
 2281SOL    HW1 7742   3.605   1.505   2.394
 2281SOL    HW2 7743   3.623   1.383   2.287
 2282SOL     OW 7744   5.395   0.743   4.500
 2282SOL    HW1 7745   5.493   0.726   4.498
 2282SOL    HW2 7746   5.375   0.829   4.453
 2283SOL     OW 7747   0.474   4.831   1.429
 2283SOL    HW1 7748   0.505   4.763   1.495
 2283SOL    HW2 7749   0.416   4.788   1.361
 2284SOL     OW 7750   0.784   2.592   6.748
 2284SOL    HW1 7751   0.822   2.579   6.840
 2284SOL    HW2 7752   0.695   2.636   6.755
 2285SOL     OW 7753   2.377   2.323   0.937
 2285SOL    HW1 7754   2.393   2.373   1.022
 2285SOL    HW2 7755   2.292   2.356   0.895
 2286SOL     OW 7756   0.062   0.106   4.293
 2286SOL    HW1 7757   0.005   0.163   4.234
 2286SOL    HW2 7758   0.131   0.163   4.337
 2287SOL     OW 7759   1.367   0.722   3.400
 2287SOL    HW1 7760   1.410   0.735   3.311
 2287SOL    HW2 7761   1.279   0.675   3.388
 2288SOL     OW 7762   6.046   5.254   4.748
 2288SOL    HW1 7763   6.003   5.255   4.838
 2288SOL    HW2 7764   6.071   5.160   4.724
 2289SOL     OW 7765   0.937   4.658   1.835
 2289SOL    HW1 7766   0.877   4.580   1.852
 2289SOL    HW2 7767   0.890   4.743   1.860
 2290SOL     OW 7768   1.020   4.213   1.121
 2290SOL    HW1 7769   1.020   4.310   1.093
 2290SOL    HW2 7770   1.076   4.202   1.202
 2291SOL     OW 7771   2.939   2.488   6.044
 2291SOL    HW1 7772   2.924   2.394   6.075
 2291SOL    HW2 7773   2.987   2.539   6.115
 2292SOL     OW 7774   6.533   2.004   5.150
 2292SOL    HW1 7775   6.550   1.927   5.212
 2292SOL    HW2 7776   6.441   1.998   5.113
 2293SOL     OW 7777   4.996   6.315   1.214
 2293SOL    HW1 7778   4.898   6.320   1.230
 2293SOL    HW2 7779   5.042   6.391   1.261
 2294SOL     OW 7780   3.017   0.894   6.594
 2294SOL    HW1 7781   3.080   0.906   6.517
 2294SOL    HW2 7782   2.988   0.984   6.627
 2295SOL     OW 7783   0.406   2.658   3.102
 2295SOL    HW1 7784   0.354   2.576   3.078
 2295SOL    HW2 7785   0.485   2.667   3.041
 2296SOL     OW 7786   3.934   5.448   1.134
 2296SOL    HW1 7787   3.999   5.461   1.059
 2296SOL    HW2 7788   3.853   5.400   1.099
 2297SOL     OW 7789   4.280   4.720   5.764
 2297SOL    HW1 7790   4.235   4.799   5.721
 2297SOL    HW2 7791   4.358   4.691   5.709
 2298SOL     OW 7792   4.033   2.997   1.822
 2298SOL    HW1 7793   3.935   2.988   1.805
 2298SOL    HW2 7794   4.082   2.929   1.768
 2299SOL     OW 7795   4.184   5.319   5.625
 2299SOL    HW1 7796   4.227   5.257   5.691
 2299SOL    HW2 7797   4.086   5.299   5.620
 2300SOL     OW 7798   2.341   5.914   1.918
 2300SOL    HW1 7799   2.430   5.957   1.900
 2300SOL    HW2 7800   2.354   5.816   1.930
 2301SOL     OW 7801   3.299   2.876   2.685
 2301SOL    HW1 7802   3.223   2.940   2.691
 2301SOL    HW2 7803   3.263   2.782   2.682
 2302SOL     OW 7804   4.065   0.348   0.991
 2302SOL    HW1 7805   4.146   0.398   1.022
 2302SOL    HW2 7806   4.016   0.403   0.923
 2303SOL     OW 7807   2.706   3.320   6.357
 2303SOL    HW1 7808   2.801   3.300   6.336
 2303SOL    HW2 7809   2.649   3.298   6.278
 2304SOL     OW 7810   4.662   6.562   3.568
 2304SOL    HW1 7811   4.610   6.493   3.619
 2304SOL    HW2 7812   4.664   6.647   3.621
 2305SOL     OW 7813   2.474   6.235   2.507
 2305SOL    HW1 7814   2.428   6.161   2.458
 2305SOL    HW2 7815   2.571   6.236   2.485
 2306SOL     OW 7816   3.071   4.795   2.304
 2306SOL    HW1 7817   3.028   4.813   2.215
 2306SOL    HW2 7818   3.170   4.800   2.295
 2307SOL     OW 7819   6.564   4.232   2.759
 2307SOL    HW1 7820   6.635   4.264   2.696
 2307SOL    HW2 7821   6.545   4.136   2.740
 2308SOL     OW 7822   1.078   5.234   1.490
 2308SOL    HW1 7823   1.048   5.311   1.546
 2308SOL    HW2 7824   1.015   5.221   1.414
 2309SOL     OW 7825   1.657   1.064   6.858
 2309SOL    HW1 7826   1.705   0.995   6.804
 2309SOL    HW2 7827   1.721   1.137   6.882
 2310SOL     OW 7828   4.938   6.395   0.835
 2310SOL    HW1 7829   5.013   6.460   0.846
 2310SOL    HW2 7830   4.970   6.314   0.785
 2311SOL     OW 7831   1.751   6.578   1.387
 2311SOL    HW1 7832   1.819   6.590   1.315
 2311SOL    HW2 7833   1.797   6.580   1.476
 2312SOL     OW 7834   4.014   6.422   3.284
 2312SOL    HW1 7835   4.038   6.421   3.187
 2312SOL    HW2 7836   4.073   6.357   3.333
 2313SOL     OW 7837   5.926   5.919   1.348
 2313SOL    HW1 7838   6.010   5.883   1.389
 2313SOL    HW2 7839   5.948   5.996   1.288
 2314SOL     OW 7840   5.573   6.927   4.537
 2314SOL    HW1 7841   5.610   6.974   4.617
 2314SOL    HW2 7842   5.603   6.831   4.537
 2315SOL     OW 7843   4.859   3.150   6.068
 2315SOL    HW1 7844   4.789   3.212   6.034
 2315SOL    HW2 7845   4.852   3.062   6.020
 2316SOL     OW 7846   3.574   0.966   3.974
 2316SOL    HW1 7847   3.478   0.944   3.988
 2316SOL    HW2 7848   3.582   1.054   3.926
 2317SOL     OW 7849   0.228   5.827   3.542
 2317SOL    HW1 7850   0.288   5.787   3.473
 2317SOL    HW2 7851   0.168   5.755   3.578
 2318SOL     OW 7852   1.861   2.875   4.519
 2318SOL    HW1 7853   1.798   2.949   4.545
 2318SOL    HW2 7854   1.859   2.804   4.588
 2319SOL     OW 7855   2.068   4.804   4.126
 2319SOL    HW1 7856   2.060   4.786   4.028
 2319SOL    HW2 7857   1.979   4.790   4.169
 2320SOL     OW 7858   0.757   2.454   4.889
 2320SOL    HW1 7859   0.739   2.546   4.855
 2320SOL    HW2 7860   0.675   2.398   4.881
 2321SOL     OW 7861   2.291   0.003   0.297
 2321SOL    HW1 7862   2.267   6.979   0.384
 2321SOL    HW2 7863   2.278   6.956   0.223
 2322SOL     OW 7864   2.427   1.730   3.856
 2322SOL    HW1 7865   2.384   1.657   3.804
 2322SOL    HW2 7866   2.508   1.694   3.903
 2323SOL     OW 7867   2.995   5.303   1.912
 2323SOL    HW1 7868   3.074   5.272   1.965
 2323SOL    HW2 7869   2.969   5.395   1.942
 2324SOL     OW 7870   6.624   6.822   0.891
 2324SOL    HW1 7871   6.680   6.778   0.961
 2324SOL    HW2 7872   6.673   6.822   0.804
 2325SOL     OW 7873   1.216   4.749   1.688
 2325SOL    HW1 7874   1.215   4.845   1.661
 2325SOL    HW2 7875   1.134   4.703   1.653
 2326SOL     OW 7876   3.409   5.299   6.363
 2326SOL    HW1 7877   3.383   5.383   6.412
 2326SOL    HW2 7878   3.468   5.323   6.286
 2327SOL     OW 7879   6.767   2.036   3.737
 2327SOL    HW1 7880   6.769   2.132   3.708
 2327SOL    HW2 7881   6.836   2.022   3.809
 2328SOL     OW 7882   2.886   2.051   2.541
 2328SOL    HW1 7883   2.792   2.064   2.512
 2328SOL    HW2 7884   2.891   1.973   2.603
 2329SOL     OW 7885   1.767   3.775   5.245
 2329SOL    HW1 7886   1.812   3.823   5.169
 2329SOL    HW2 7887   1.780   3.827   5.329
 2330SOL     OW 7888   0.744   3.993   1.359
 2330SOL    HW1 7889   0.838   4.003   1.393
 2330SOL    HW2 7890   0.740   4.022   1.263
 2331SOL     OW 7891   4.970   5.230   0.615
 2331SOL    HW1 7892   4.941   5.218   0.710
 2331SOL    HW2 7893   4.898   5.198   0.554
 2332SOL     OW 7894   4.788   1.935   5.032
 2332SOL    HW1 7895   4.703   1.942   5.084
 2332SOL    HW2 7896   4.802   2.019   4.980
 2333SOL     OW 7897   0.704   5.173   2.961
 2333SOL    HW1 7898   0.619   5.200   3.006
 2333SOL    HW2 7899   0.692   5.083   2.920
 2334SOL     OW 7900   2.349   0.433   0.001
 2334SOL    HW1 7901   2.354   0.396   6.927
 2334SOL    HW2 7902   2.361   0.532   7.017
 2335SOL     OW 7903   6.131   0.812   2.826
 2335SOL    HW1 7904   6.149   0.714   2.839
 2335SOL    HW2 7905   6.063   0.824   2.753
 2336SOL     OW 7906   4.538   2.264   4.920
 2336SOL    HW1 7907   4.634   2.253   4.943
 2336SOL    HW2 7908   4.487   2.183   4.949
 2337SOL     OW 7909   4.604   1.159   2.506
 2337SOL    HW1 7910   4.686   1.207   2.538
 2337SOL    HW2 7911   4.617   1.061   2.515
 2338SOL     OW 7912   1.655   2.271   5.611
 2338SOL    HW1 7913   1.751   2.300   5.621
 2338SOL    HW2 7914   1.652   2.175   5.585
 2339SOL     OW 7915   3.980   4.070   5.074
 2339SOL    HW1 7916   4.004   3.973   5.064
 2339SOL    HW2 7917   3.894   4.078   5.123
 2340SOL     OW 7918   5.732   4.739   0.335
 2340SOL    HW1 7919   5.823   4.739   0.295
 2340SOL    HW2 7920   5.710   4.649   0.371
 2341SOL     OW 7921   4.748   4.681   1.541
 2341SOL    HW1 7922   4.680   4.751   1.519
 2341SOL    HW2 7923   4.708   4.590   1.531
 2342SOL     OW 7924   0.582   6.933   5.165
 2342SOL    HW1 7925   0.595   6.855   5.103
 2342SOL    HW2 7926   0.671   6.969   5.192
 2343SOL     OW 7927   2.665   5.971   2.681
 2343SOL    HW1 7928   2.752   6.020   2.669
 2343SOL    HW2 7929   2.684   5.882   2.723
 2344SOL     OW 7930   1.656   0.169   0.864
 2344SOL    HW1 7931   1.740   0.191   0.913
 2344SOL    HW2 7932   1.595   0.117   0.924
 2345SOL     OW 7933   3.596   5.444   5.206
 2345SOL    HW1 7934   3.570   5.456   5.110
 2345SOL    HW2 7935   3.669   5.376   5.212
 2346SOL     OW 7936   4.777   2.498   4.698
 2346SOL    HW1 7937   4.705   2.431   4.678
 2346SOL    HW2 7938   4.759   2.582   4.648
 2347SOL     OW 7939   2.493   3.216   1.721
 2347SOL    HW1 7940   2.421   3.163   1.677
 2347SOL    HW2 7941   2.452   3.291   1.773
 2348SOL     OW 7942   3.790   6.489   3.406
 2348SOL    HW1 7943   3.874   6.439   3.381
 2348SOL    HW2 7944   3.712   6.450   3.358
 2349SOL     OW 7945   0.642   4.441   6.189
 2349SOL    HW1 7946   0.594   4.469   6.272
 2349SOL    HW2 7947   0.724   4.497   6.177
 2350SOL     OW 7948   5.028   6.884   6.400
 2350SOL    HW1 7949   5.052   6.944   6.477
 2350SOL    HW2 7950   4.933   6.854   6.411
 2351SOL     OW 7951   3.656   5.238   2.766
 2351SOL    HW1 7952   3.729   5.255   2.832
 2351SOL    HW2 7953   3.568   5.260   2.808
 2352SOL     OW 7954   0.887   4.547   2.351
 2352SOL    HW1 7955   0.822   4.528   2.425
 2352SOL    HW2 7956   0.885   4.472   2.285
 2353SOL     OW 7957   3.224   4.368   5.463
 2353SOL    HW1 7958   3.217   4.282   5.413
 2353SOL    HW2 7959   3.222   4.444   5.398
 2354SOL     OW 7960   2.427   1.813   6.101
 2354SOL    HW1 7961   2.426   1.764   6.188
 2354SOL    HW2 7962   2.485   1.763   6.036
 2355SOL     OW 7963   1.390   5.748   6.997
 2355SOL    HW1 7964   1.383   5.661   6.948
 2355SOL    HW2 7965   1.484   5.782   6.992
 2356SOL     OW 7966   1.871   4.040   0.586
 2356SOL    HW1 7967   1.872   4.016   0.489
 2356SOL    HW2 7968   1.824   3.969   0.638
 2357SOL     OW 7969   4.642   5.595   4.389
 2357SOL    HW1 7970   4.629   5.510   4.339
 2357SOL    HW2 7971   4.568   5.658   4.368
 2358SOL     OW 7972   3.088   5.308   5.323
 2358SOL    HW1 7973   3.033   5.226   5.305
 2358SOL    HW2 7974   3.172   5.304   5.268
 2359SOL     OW 7975   0.093   1.072   6.005
 2359SOL    HW1 7976   0.026   1.001   5.983
 2359SOL    HW2 7977   0.184   1.042   5.976
 2360SOL     OW 7978   5.259   6.265   6.489
 2360SOL    HW1 7979   5.241   6.319   6.407
 2360SOL    HW2 7980   5.173   6.227   6.524
 2361SOL     OW 7981   2.624   1.126   5.254
 2361SOL    HW1 7982   2.576   1.154   5.171
 2361SOL    HW2 7983   2.625   1.201   5.320
 2362SOL     OW 7984   2.807   0.964   5.157
 2362SOL    HW1 7985   2.753   1.026   5.214
 2362SOL    HW2 7986   2.832   1.009   5.072
 2363SOL     OW 7987   4.241   2.657   5.486
 2363SOL    HW1 7988   4.159   2.668   5.428
 2363SOL    HW2 7989   4.303   2.734   5.470
 2364SOL     OW 7990   0.871   2.138   2.886
 2364SOL    HW1 7991   0.895   2.050   2.843
 2364SOL    HW2 7992   0.794   2.179   2.837
 2365SOL     OW 7993   5.899   2.497   6.856
 2365SOL    HW1 7994   5.807   2.493   6.816
 2365SOL    HW2 7995   5.895   2.472   6.952
 2366SOL     OW 7996   1.680   4.263   6.111
 2366SOL    HW1 7997   1.760   4.298   6.160
 2366SOL    HW2 7998   1.703   4.251   6.014
 2367SOL     OW 7999   3.420   3.517   6.676
 2367SOL    HW1 8000   3.344   3.503   6.739
 2367SOL    HW2 8001   3.396   3.588   6.610
 2368SOL     OW 8002   4.981   0.042   3.089
 2368SOL    HW1 8003   5.036   0.041   3.173
 2368SOL    HW2 8004   4.966   0.136   3.060
 2369SOL     OW 8005   1.818   2.863   5.291
 2369SOL    HW1 8006   1.733   2.917   5.295
 2369SOL    HW2 8007   1.897   2.925   5.298
 2370SOL     OW 8008   5.050   4.344   6.370
 2370SOL    HW1 8009   4.971   4.287   6.391
 2370SOL    HW2 8010   5.050   4.424   6.430
 2371SOL     OW 8011   0.092   6.188   1.559
 2371SOL    HW1 8012   7.019   6.164   1.587
 2371SOL    HW2 8013   0.158   6.126   1.601
 2372SOL     OW 8014   0.246   2.291   1.060
 2372SOL    HW1 8015   0.182   2.270   1.133
 2372SOL    HW2 8016   0.336   2.254   1.082
 2373SOL     OW 8017   0.345   0.060   6.888
 2373SOL    HW1 8018   0.436   0.038   6.920
 2373SOL    HW2 8019   0.310   0.140   6.937
 2374SOL     OW 8020   6.143   0.580   4.187
 2374SOL    HW1 8021   6.174   0.658   4.241
 2374SOL    HW2 8022   6.200   0.500   4.209
 2375SOL     OW 8023   2.074   6.595   3.747
 2375SOL    HW1 8024   1.997   6.531   3.749
 2375SOL    HW2 8025   2.049   6.679   3.794
 2376SOL     OW 8026   5.945   2.286   4.338
 2376SOL    HW1 8027   6.043   2.279   4.355
 2376SOL    HW2 8028   5.898   2.306   4.424
 2377SOL     OW 8029   3.360   4.121   3.042
 2377SOL    HW1 8030   3.332   4.029   3.017
 2377SOL    HW2 8031   3.352   4.133   3.141
 2378SOL     OW 8032   4.757   2.126   0.168
 2378SOL    HW1 8033   4.679   2.143   0.108
 2378SOL    HW2 8034   4.757   2.194   0.242
 2379SOL     OW 8035   6.229   1.749   6.593
 2379SOL    HW1 8036   6.269   1.697   6.669
 2379SOL    HW2 8037   6.251   1.704   6.506
 2380SOL     OW 8038   7.000   0.039   5.634
 2380SOL    HW1 8039   0.021   0.004   5.549
 2380SOL    HW2 8040   6.949   6.984   5.679
 2381SOL     OW 8041   2.247   4.013   4.225
 2381SOL    HW1 8042   2.178   3.943   4.211
 2381SOL    HW2 8043   2.229   4.062   4.310
 2382SOL     OW 8044   2.592   5.025   3.563
 2382SOL    HW1 8045   2.541   5.088   3.621
 2382SOL    HW2 8046   2.570   5.043   3.467
 2383SOL     OW 8047   5.527   6.484   0.199
 2383SOL    HW1 8048   5.610   6.481   0.143
 2383SOL    HW2 8049   5.477   6.398   0.188
 2384SOL     OW 8050   6.734   6.125   2.449
 2384SOL    HW1 8051   6.777   6.200   2.399
 2384SOL    HW2 8052   6.643   6.152   2.479
 2385SOL     OW 8053   6.633   6.655   1.186
 2385SOL    HW1 8054   6.687   6.632   1.267
 2385SOL    HW2 8055   6.547   6.697   1.215
 2386SOL     OW 8056   5.200   5.225   4.630
 2386SOL    HW1 8057   5.191   5.128   4.650
 2386SOL    HW2 8058   5.116   5.259   4.588
 2387SOL     OW 8059   0.592   2.083   3.814
 2387SOL    HW1 8060   0.643   2.169   3.813
 2387SOL    HW2 8061   0.523   2.086   3.886
 2388SOL     OW 8062   1.409   1.951   3.655
 2388SOL    HW1 8063   1.437   2.046   3.672
 2388SOL    HW2 8064   1.311   1.942   3.673
 2389SOL     OW 8065   5.317   3.350   3.462
 2389SOL    HW1 8066   5.265   3.435   3.445
 2389SOL    HW2 8067   5.379   3.365   3.539
 2390SOL     OW 8068   3.352   4.170   3.923
 2390SOL    HW1 8069   3.357   4.093   3.860
 2390SOL    HW2 8070   3.341   4.255   3.872
 2391SOL     OW 8071   4.589   4.526   5.784
 2391SOL    HW1 8072   4.584   4.608   5.727
 2391SOL    HW2 8073   4.544   4.450   5.736
 2392SOL     OW 8074   3.944   0.186   5.001
 2392SOL    HW1 8075   3.954   0.252   4.926
 2392SOL    HW2 8076   3.979   0.227   5.085
 2393SOL     OW 8077   4.280   4.940   6.457
 2393SOL    HW1 8078   4.255   4.999   6.534
 2393SOL    HW2 8079   4.200   4.890   6.425
 2394SOL     OW 8080   2.167   3.463   4.364
 2394SOL    HW1 8081   2.255   3.457   4.411
 2394SOL    HW2 8082   2.108   3.528   4.411
 2395SOL     OW 8083   6.157   2.699   0.552
 2395SOL    HW1 8084   6.140   2.692   0.454
 2395SOL    HW2 8085   6.131   2.613   0.597
 2396SOL     OW 8086   4.065   5.192   0.967
 2396SOL    HW1 8087   4.104   5.284   0.968
 2396SOL    HW2 8088   4.122   5.132   0.910
 2397SOL     OW 8089   7.011   3.882   6.854
 2397SOL    HW1 8090   6.918   3.917   6.867
 2397SOL    HW2 8091   0.058   3.955   6.870
 2398SOL     OW 8092   3.146   4.159   6.572
 2398SOL    HW1 8093   3.140   4.242   6.517
 2398SOL    HW2 8094   3.055   4.117   6.577
 2399SOL     OW 8095   5.215   1.257   2.533
 2399SOL    HW1 8096   5.207   1.157   2.541
 2399SOL    HW2 8097   5.311   1.282   2.525
 2400SOL     OW 8098   3.626   5.545   0.413
 2400SOL    HW1 8099   3.702   5.535   0.349
 2400SOL    HW2 8100   3.658   5.587   0.497
 2401SOL     OW 8101   4.307   6.951   6.556
 2401SOL    HW1 8102   4.229   6.919   6.503
 2401SOL    HW2 8103   4.307   0.032   6.558
 2402SOL     OW 8104   0.979   1.460   4.610
 2402SOL    HW1 8105   1.018   1.443   4.700
 2402SOL    HW2 8106   0.916   1.387   4.586
 2403SOL     OW 8107   2.499   2.602   0.468
 2403SOL    HW1 8108   2.473   2.528   0.530
 2403SOL    HW2 8109   2.517   2.685   0.520
 2404SOL     OW 8110   5.767   0.900   1.538
 2404SOL    HW1 8111   5.673   0.926   1.561
 2404SOL    HW2 8112   5.831   0.949   1.598
 2405SOL     OW 8113   3.423   3.365   3.585
 2405SOL    HW1 8114   3.429   3.339   3.682
 2405SOL    HW2 8115   3.402   3.285   3.530
 2406SOL     OW 8116   2.296   0.260   3.298
 2406SOL    HW1 8117   2.281   0.188   3.230
 2406SOL    HW2 8118   2.391   0.256   3.329
 2407SOL     OW 8119   5.632   2.784   2.942
 2407SOL    HW1 8120   5.632   2.850   3.017
 2407SOL    HW2 8121   5.689   2.819   2.867
 2408SOL     OW 8122   3.883   4.950   3.959
 2408SOL    HW1 8123   3.800   4.963   3.904
 2408SOL    HW2 8124   3.963   4.952   3.898
 2409SOL     OW 8125   1.553   2.833   1.182
 2409SOL    HW1 8126   1.544   2.734   1.187
 2409SOL    HW2 8127   1.642   2.860   1.219
 2410SOL     OW 8128   4.508   2.329   6.592
 2410SOL    HW1 8129   4.454   2.305   6.512
 2410SOL    HW2 8130   4.521   2.428   6.595
 2411SOL     OW 8131   4.691   5.529   5.750
 2411SOL    HW1 8132   4.605   5.485   5.725
 2411SOL    HW2 8133   4.673   5.599   5.819
 2412SOL     OW 8134   3.873   4.587   0.240
 2412SOL    HW1 8135   3.910   4.602   0.148
 2412SOL    HW2 8136   3.828   4.498   0.244
 2413SOL     OW 8137   6.482   2.139   0.185
 2413SOL    HW1 8138   6.400   2.195   0.195
 2413SOL    HW2 8139   6.480   2.064   0.252
 2414SOL     OW 8140   4.893   3.822   1.927
 2414SOL    HW1 8141   4.857   3.913   1.908
 2414SOL    HW2 8142   4.932   3.783   1.843
 2415SOL     OW 8143   0.952   6.593   1.628
 2415SOL    HW1 8144   1.001   6.680   1.623
 2415SOL    HW2 8145   0.879   6.592   1.559
 2416SOL     OW 8146   3.385   2.065   4.990
 2416SOL    HW1 8147   3.325   2.143   5.008
 2416SOL    HW2 8148   3.411   2.064   4.893
 2417SOL     OW 8149   4.206   2.900   6.225
 2417SOL    HW1 8150   4.195   2.802   6.211
 2417SOL    HW2 8151   4.198   2.921   6.322
 2418SOL     OW 8152   2.950   3.649   3.743
 2418SOL    HW1 8153   3.033   3.602   3.773
 2418SOL    HW2 8154   2.974   3.738   3.704
 2419SOL     OW 8155   0.856   6.091   3.667
 2419SOL    HW1 8156   0.886   6.172   3.616
 2419SOL    HW2 8157   0.767   6.109   3.708
 2420SOL     OW 8158   3.770   1.669   1.298
 2420SOL    HW1 8159   3.819   1.591   1.259
 2420SOL    HW2 8160   3.693   1.693   1.239
 2421SOL     OW 8161   2.932   1.144   4.945
 2421SOL    HW1 8162   2.944   1.243   4.957
 2421SOL    HW2 8163   2.880   1.127   4.862
 2422SOL     OW 8164   6.061   0.377   1.855
 2422SOL    HW1 8165   6.158   0.367   1.877
 2422SOL    HW2 8166   6.006   0.341   1.930
 2423SOL     OW 8167   1.503   6.203   3.508
 2423SOL    HW1 8168   1.481   6.206   3.410
 2423SOL    HW2 8169   1.420   6.181   3.560
 2424SOL     OW 8170   5.844   6.259   6.089
 2424SOL    HW1 8171   5.912   6.284   6.019
 2424SOL    HW2 8172   5.846   6.160   6.102
 2425SOL     OW 8173   6.114   0.218   4.511
 2425SOL    HW1 8174   6.132   0.246   4.416
 2425SOL    HW2 8175   6.065   0.130   4.511
 2426SOL     OW 8176   0.818   4.785   4.443
 2426SOL    HW1 8177   0.810   4.685   4.438
 2426SOL    HW2 8178   0.743   4.822   4.498
 2427SOL     OW 8179   5.838   5.389   6.582
 2427SOL    HW1 8180   5.829   5.411   6.679
 2427SOL    HW2 8181   5.782   5.451   6.528
 2428SOL     OW 8182   0.037   0.038   3.421
 2428SOL    HW1 8183   0.056   7.002   3.503
 2428SOL    HW2 8184   0.043   0.135   3.444
 2429SOL     OW 8185   6.494   5.973   4.825
 2429SOL    HW1 8186   6.549   5.977   4.742
 2429SOL    HW2 8187   6.399   5.996   4.803
 2430SOL     OW 8188   6.167   1.580   1.052
 2430SOL    HW1 8189   6.081   1.530   1.043
 2430SOL    HW2 8190   6.160   1.666   1.002
 2431SOL     OW 8191   3.592   0.234   2.172
 2431SOL    HW1 8192   3.583   0.281   2.260
 2431SOL    HW2 8193   3.503   0.197   2.145
 2432SOL     OW 8194   3.472   6.726   3.172
 2432SOL    HW1 8195   3.505   6.640   3.135
 2432SOL    HW2 8196   3.526   6.802   3.134
 2433SOL     OW 8197   3.333   6.568   0.892
 2433SOL    HW1 8198   3.252   6.527   0.934
 2433SOL    HW2 8199   3.363   6.646   0.946
 2434SOL     OW 8200   4.864   1.207   3.770
 2434SOL    HW1 8201   4.819   1.296   3.783
 2434SOL    HW2 8202   4.958   1.212   3.805
 2435SOL     OW 8203   4.628   5.383   6.091
 2435SOL    HW1 8204   4.595   5.477   6.088
 2435SOL    HW2 8205   4.716   5.377   6.043
 2436SOL     OW 8206   2.228   6.257   1.280
 2436SOL    HW1 8207   2.314   6.235   1.233
 2436SOL    HW2 8208   2.244   6.259   1.378
 2437SOL     OW 8209   3.754   6.343   0.801
 2437SOL    HW1 8210   3.657   6.335   0.780
 2437SOL    HW2 8211   3.806   6.276   0.747
 2438SOL     OW 8212   3.644   1.571   5.489
 2438SOL    HW1 8213   3.682   1.564   5.397
 2438SOL    HW2 8214   3.550   1.604   5.484
 2439SOL     OW 8215   0.987   4.309   6.920
 2439SOL    HW1 8216   1.059   4.309   6.990
 2439SOL    HW2 8217   0.931   4.227   6.931
 2440SOL     OW 8218   4.637   6.676   4.969
 2440SOL    HW1 8219   4.623   6.594   4.913
 2440SOL    HW2 8220   4.732   6.708   4.957
 2441SOL     OW 8221   6.811   0.722   6.608
 2441SOL    HW1 8222   6.852   0.630   6.614
 2441SOL    HW2 8223   6.791   0.755   6.700
 2442SOL     OW 8224   6.395   5.674   4.061
 2442SOL    HW1 8225   6.425   5.713   4.149
 2442SOL    HW2 8226   6.313   5.620   4.075
 2443SOL     OW 8227   3.398   6.667   5.691
 2443SOL    HW1 8228   3.348   6.710   5.766
 2443SOL    HW2 8229   3.492   6.650   5.719
 2444SOL     OW 8230   3.698   4.796   5.898
 2444SOL    HW1 8231   3.608   4.822   5.932
 2444SOL    HW2 8232   3.729   4.714   5.946
 2445SOL     OW 8233   0.325   0.505   1.796
 2445SOL    HW1 8234   0.260   0.515   1.871
 2445SOL    HW2 8235   0.352   0.595   1.763
 2446SOL     OW 8236   0.177   3.597   3.894
 2446SOL    HW1 8237   0.103   3.557   3.840
 2446SOL    HW2 8238   0.187   3.547   3.980
 2447SOL     OW 8239   2.616   1.156   0.720
 2447SOL    HW1 8240   2.518   1.176   0.723
 2447SOL    HW2 8241   2.638   1.107   0.635
 2448SOL     OW 8242   0.695   0.385   5.476
 2448SOL    HW1 8243   0.636   0.307   5.497
 2448SOL    HW2 8244   0.688   0.406   5.379
 2449SOL     OW 8245   0.043   4.512   1.703
 2449SOL    HW1 8246   0.074   4.445   1.635
 2449SOL    HW2 8247   0.032   4.601   1.659
 2450SOL     OW 8248   2.937   4.827   4.442
 2450SOL    HW1 8249   3.019   4.856   4.491
 2450SOL    HW2 8250   2.880   4.772   4.503
 2451SOL     OW 8251   0.771   0.186   3.636
 2451SOL    HW1 8252   0.734   0.213   3.547
 2451SOL    HW2 8253   0.764   0.262   3.700
 2452SOL     OW 8254   2.071   2.406   2.970
 2452SOL    HW1 8255   2.046   2.408   2.873
 2452SOL    HW2 8256   2.170   2.389   2.979
 2453SOL     OW 8257   6.689   4.131   1.323
 2453SOL    HW1 8258   6.617   4.180   1.274
 2453SOL    HW2 8259   6.742   4.077   1.258
 2454SOL     OW 8260   3.368   1.308   0.439
 2454SOL    HW1 8261   3.432   1.365   0.387
 2454SOL    HW2 8262   3.338   1.231   0.382
 2455SOL     OW 8263   5.745   6.815   0.631
 2455SOL    HW1 8264   5.776   6.774   0.545
 2455SOL    HW2 8265   5.750   6.747   0.704
 2456SOL     OW 8266   6.014   0.430   0.381
 2456SOL    HW1 8267   6.108   0.411   0.407
 2456SOL    HW2 8268   6.005   0.430   0.281
 2457SOL     OW 8269   6.528   6.374   0.201
 2457SOL    HW1 8270   6.484   6.464   0.211
 2457SOL    HW2 8271   6.604   6.367   0.265
 2458SOL     OW 8272   2.566   5.469   3.998
 2458SOL    HW1 8273   2.595   5.374   3.987
 2458SOL    HW2 8274   2.591   5.521   3.917
 2459SOL     OW 8275   2.706   6.509   0.351
 2459SOL    HW1 8276   2.630   6.558   0.394
 2459SOL    HW2 8277   2.679   6.415   0.332
 2460SOL     OW 8278   2.360   0.628   1.221
 2460SOL    HW1 8279   2.355   0.646   1.123
 2460SOL    HW2 8280   2.294   0.686   1.269
 2461SOL     OW 8281   4.053   0.206   2.912
 2461SOL    HW1 8282   4.041   0.107   2.908
 2461SOL    HW2 8283   4.060   0.235   3.008
 2462SOL     OW 8284   2.444   5.196   0.211
 2462SOL    HW1 8285   2.523   5.158   0.260
 2462SOL    HW2 8286   2.477   5.253   0.135
 2463SOL     OW 8287   6.027   2.387   3.632
 2463SOL    HW1 8288   5.976   2.368   3.548
 2463SOL    HW2 8289   5.979   2.346   3.710
 2464SOL     OW 8290   1.574   4.369   1.646
 2464SOL    HW1 8291   1.534   4.461   1.650
 2464SOL    HW2 8292   1.631   4.353   1.726
 2465SOL     OW 8293   6.812   6.252   1.469
 2465SOL    HW1 8294   6.870   6.279   1.391
 2465SOL    HW2 8295   6.721   6.226   1.435
 2466SOL     OW 8296   3.577   1.438   1.852
 2466SOL    HW1 8297   3.598   1.532   1.877
 2466SOL    HW2 8298   3.550   1.434   1.755
 2467SOL     OW 8299   5.528   1.735   5.299
 2467SOL    HW1 8300   5.569   1.663   5.354
 2467SOL    HW2 8301   5.452   1.777   5.349
 2468SOL     OW 8302   5.681   6.528   2.501
 2468SOL    HW1 8303   5.631   6.506   2.417
 2468SOL    HW2 8304   5.684   6.447   2.560
 2469SOL     OW 8305   3.657   4.675   5.414
 2469SOL    HW1 8306   3.666   4.590   5.467
 2469SOL    HW2 8307   3.575   4.669   5.356
 2470SOL     OW 8308   3.298   4.129   5.907
 2470SOL    HW1 8309   3.214   4.120   5.854
 2470SOL    HW2 8310   3.285   4.196   5.980
 2471SOL     OW 8311   2.270   5.910   1.485
 2471SOL    HW1 8312   2.305   5.924   1.393
 2471SOL    HW2 8313   2.216   5.990   1.513
 2472SOL     OW 8314   4.924   1.430   3.981
 2472SOL    HW1 8315   4.999   1.470   4.035
 2472SOL    HW2 8316   4.901   1.340   4.018
 2473SOL     OW 8317   1.829   3.951   5.508
 2473SOL    HW1 8318   1.787   3.930   5.596
 2473SOL    HW2 8319   1.780   4.027   5.465
 2474SOL     OW 8320   0.218   5.851   0.274
 2474SOL    HW1 8321   0.303   5.812   0.311
 2474SOL    HW2 8322   0.170   5.900   0.346
 2475SOL     OW 8323   4.201   1.299   0.363
 2475SOL    HW1 8324   4.118   1.243   0.363
 2475SOL    HW2 8325   4.272   1.253   0.416
 2476SOL     OW 8326   0.679   2.782   3.974
 2476SOL    HW1 8327   0.777   2.802   3.984
 2476SOL    HW2 8328   0.652   2.797   3.878
 2477SOL     OW 8329   6.655   0.405   2.553
 2477SOL    HW1 8330   6.582   0.344   2.522
 2477SOL    HW2 8331   6.658   0.404   2.653
 2478SOL     OW 8332   5.537   0.021   2.711
 2478SOL    HW1 8333   5.480   6.967   2.673
 2478SOL    HW2 8334   5.526   0.104   2.656
 2479SOL     OW 8335   0.973   3.522   1.426
 2479SOL    HW1 8336   0.995   3.587   1.498
 2479SOL    HW2 8337   0.884   3.480   1.445
 2480SOL     OW 8338   5.686   4.166   1.008
 2480SOL    HW1 8339   5.724   4.075   1.022
 2480SOL    HW2 8340   5.662   4.178   0.912
 2481SOL     OW 8341   2.833   6.680   0.199
 2481SOL    HW1 8342   2.783   6.621   0.262
 2481SOL    HW2 8343   2.790   6.677   0.108
 2482SOL     OW 8344   5.299   2.696   5.640
 2482SOL    HW1 8345   5.200   2.707   5.649
 2482SOL    HW2 8346   5.343   2.718   5.727
 2483SOL     OW 8347   2.355   0.931   6.861
 2483SOL    HW1 8348   2.369   0.894   6.953
 2483SOL    HW2 8349   2.441   0.969   6.827
 2484SOL     OW 8350   2.070   0.602   0.494
 2484SOL    HW1 8351   2.056   0.696   0.524
 2484SOL    HW2 8352   2.139   0.600   0.422
 2485SOL     OW 8353   4.236   4.734   2.042
 2485SOL    HW1 8354   4.226   4.655   1.981
 2485SOL    HW2 8355   4.183   4.811   2.006
 2486SOL     OW 8356   3.498   5.804   2.863
 2486SOL    HW1 8357   3.418   5.862   2.883
 2486SOL    HW2 8358   3.468   5.720   2.819
 2487SOL     OW 8359   3.853   5.098   6.791
 2487SOL    HW1 8360   3.821   5.172   6.731
 2487SOL    HW2 8361   3.872   5.136   6.881
 2488SOL     OW 8362   2.176   4.039   1.681
 2488SOL    HW1 8363   2.162   4.117   1.742
 2488SOL    HW2 8364   2.194   4.072   1.588
 2489SOL     OW 8365   2.402   5.084   4.009
 2489SOL    HW1 8366   2.492   5.125   3.997
 2489SOL    HW2 8367   2.409   5.005   4.069
 2490SOL     OW 8368   6.614   5.321   0.630
 2490SOL    HW1 8369   6.595   5.376   0.712
 2490SOL    HW2 8370   6.543   5.253   0.618
 2491SOL     OW 8371   2.313   5.815   2.646
 2491SOL    HW1 8372   2.371   5.741   2.683
 2491SOL    HW2 8373   2.300   5.885   2.716
 2492SOL     OW 8374   3.777   2.671   6.963
 2492SOL    HW1 8375   3.680   2.680   6.940
 2492SOL    HW2 8376   3.800   2.737   0.016
 2493SOL     OW 8377   5.877   0.470   3.009
 2493SOL    HW1 8378   5.842   0.388   2.964
 2493SOL    HW2 8379   5.963   0.499   2.967
 2494SOL     OW 8380   5.932   3.636   2.645
 2494SOL    HW1 8381   5.845   3.590   2.628
 2494SOL    HW2 8382   6.007   3.579   2.610
 2495SOL     OW 8383   5.363   0.389   4.570
 2495SOL    HW1 8384   5.406   0.480   4.570
 2495SOL    HW2 8385   5.413   0.328   4.509
 2496SOL     OW 8386   1.112   4.984   6.782
 2496SOL    HW1 8387   1.015   4.986   6.757
 2496SOL    HW2 8388   1.160   5.059   6.737
 2497SOL     OW 8389   6.850   1.487   0.741
 2497SOL    HW1 8390   6.793   1.457   0.665
 2497SOL    HW2 8391   6.793   1.522   0.815
 2498SOL     OW 8392   3.587   1.970   3.327
 2498SOL    HW1 8393   3.561   1.877   3.353
 2498SOL    HW2 8394   3.506   2.020   3.297
 2499SOL     OW 8395   5.818   1.526   4.300
 2499SOL    HW1 8396   5.845   1.430   4.302
 2499SOL    HW2 8397   5.747   1.540   4.231
 2500SOL     OW 8398   4.683   3.295   5.908
 2500SOL    HW1 8399   4.647   3.387   5.926
 2500SOL    HW2 8400   4.767   3.303   5.853
 2501SOL     OW 8401   6.936   5.682   6.805
 2501SOL    HW1 8402   6.951   5.628   6.888
 2501SOL    HW2 8403   6.991   5.765   6.810
 2502SOL     OW 8404   2.786   6.097   3.743
 2502SOL    HW1 8405   2.793   6.053   3.833
 2502SOL    HW2 8406   2.775   6.026   3.672
 2503SOL     OW 8407   3.854   5.876   5.410
 2503SOL    HW1 8408   3.829   5.948   5.475
 2503SOL    HW2 8409   3.805   5.792   5.433
 2504SOL     OW 8410   2.862   5.758   5.029
 2504SOL    HW1 8411   2.881   5.743   5.126
 2504SOL    HW2 8412   2.797   5.833   5.019
 2505SOL     OW 8413   1.934   6.500   4.351
 2505SOL    HW1 8414   1.927   6.521   4.253
 2505SOL    HW2 8415   1.906   6.406   4.367
 2506SOL     OW 8416   0.013   2.958   6.188
 2506SOL    HW1 8417   7.017   2.859   6.177
 2506SOL    HW2 8418   6.965   2.994   6.253
 2507SOL     OW 8419   6.377   4.238   0.032
 2507SOL    HW1 8420   6.307   4.251   6.981
 2507SOL    HW2 8421   6.466   4.261   7.013
 2508SOL     OW 8422   2.415   1.762   2.166
 2508SOL    HW1 8423   2.321   1.797   2.167
 2508SOL    HW2 8424   2.477   1.835   2.139
 2509SOL     OW 8425   5.922   3.117   2.597
 2509SOL    HW1 8426   5.832   3.086   2.626
 2509SOL    HW2 8427   5.970   3.157   2.675
 2510SOL     OW 8428   3.220   4.170   0.405
 2510SOL    HW1 8429   3.291   4.149   0.472
 2510SOL    HW2 8430   3.262   4.205   0.321
 2511SOL     OW 8431   1.823   1.758   4.872
 2511SOL    HW1 8432   1.842   1.686   4.805
 2511SOL    HW2 8433   1.769   1.830   4.829
 2512SOL     OW 8434   5.620   4.753   5.033
 2512SOL    HW1 8435   5.710   4.779   4.999
 2512SOL    HW2 8436   5.616   4.654   5.045
 2513SOL     OW 8437   1.434   2.868   6.237
 2513SOL    HW1 8438   1.516   2.908   6.279
 2513SOL    HW2 8439   1.459   2.822   6.152
 2514SOL     OW 8440   0.320   3.131   4.004
 2514SOL    HW1 8441   0.388   3.058   3.999
 2514SOL    HW2 8442   0.249   3.107   4.070
 2515SOL     OW 8443   1.274   6.707   0.836
 2515SOL    HW1 8444   1.237   6.800   0.848
 2515SOL    HW2 8445   1.308   6.674   0.924
 2516SOL     OW 8446   6.340   5.694   2.286
 2516SOL    HW1 8447   6.352   5.791   2.307
 2516SOL    HW2 8448   6.266   5.657   2.342
 2517SOL     OW 8449   2.047   5.318   5.938
 2517SOL    HW1 8450   2.090   5.329   5.848
 2517SOL    HW2 8451   1.964   5.264   5.930
 2518SOL     OW 8452   1.973   3.415   0.338
 2518SOL    HW1 8453   2.061   3.455   0.362
 2518SOL    HW2 8454   1.900   3.482   0.352
 2519SOL     OW 8455   4.810   5.190   4.294
 2519SOL    HW1 8456   4.712   5.205   4.308
 2519SOL    HW2 8457   4.855   5.179   4.383
 2520SOL     OW 8458   1.034   3.046   1.040
 2520SOL    HW1 8459   1.121   3.014   1.079
 2520SOL    HW2 8460   0.992   3.110   1.103
 2521SOL     OW 8461   1.537   6.551   5.215
 2521SOL    HW1 8462   1.444   6.574   5.242
 2521SOL    HW2 8463   1.588   6.520   5.295
 2522SOL     OW 8464   0.822   2.913   5.408
 2522SOL    HW1 8465   0.843   2.886   5.314
 2522SOL    HW2 8466   0.811   3.012   5.412
 2523SOL     OW 8467   0.121   2.822   1.176
 2523SOL    HW1 8468   0.096   2.763   1.099
 2523SOL    HW2 8469   0.089   2.915   1.158
 2524SOL     OW 8470   0.721   6.068   4.409
 2524SOL    HW1 8471   0.796   6.113   4.361
 2524SOL    HW2 8472   0.744   6.060   4.506
 2525SOL     OW 8473   1.648   2.602   4.290
 2525SOL    HW1 8474   1.609   2.682   4.335
 2525SOL    HW2 8475   1.738   2.582   4.328
 2526SOL     OW 8476   0.680   3.832   6.071
 2526SOL    HW1 8477   0.716   3.743   6.099
 2526SOL    HW2 8478   0.649   3.882   6.152
 2527SOL     OW 8479   5.145   0.158   4.912
 2527SOL    HW1 8480   5.124   0.252   4.939
 2527SOL    HW2 8481   5.062   0.114   4.877
 2528SOL     OW 8482   5.989   4.694   1.304
 2528SOL    HW1 8483   6.021   4.744   1.384
 2528SOL    HW2 8484   5.902   4.649   1.326
 2529SOL     OW 8485   5.682   4.800   6.271
 2529SOL    HW1 8486   5.584   4.783   6.281
 2529SOL    HW2 8487   5.731   4.752   6.344
 2530SOL     OW 8488   1.254   6.408   4.947
 2530SOL    HW1 8489   1.297   6.389   5.035
 2530SOL    HW2 8490   1.176   6.347   4.934
 2531SOL     OW 8491   5.370   5.716   4.925
 2531SOL    HW1 8492   5.436   5.791   4.922
 2531SOL    HW2 8493   5.360   5.677   4.834
 2532SOL     OW 8494   0.622   5.876   0.354
 2532SOL    HW1 8495   0.673   5.858   0.438
 2532SOL    HW2 8496   0.554   5.947   0.371
 2533SOL     OW 8497   5.330   6.447   4.926
 2533SOL    HW1 8498   5.332   6.347   4.930
 2533SOL    HW2 8499   5.250   6.481   4.976
 2534SOL     OW 8500   2.616   0.882   2.895
 2534SOL    HW1 8501   2.696   0.938   2.875
 2534SOL    HW2 8502   2.539   0.914   2.840
 2535SOL     OW 8503   2.075   2.255   6.366
 2535SOL    HW1 8504   2.093   2.352   6.355
 2535SOL    HW2 8505   2.022   2.222   6.287
 2536SOL     OW 8506   0.633   2.040   3.552
 2536SOL    HW1 8507   0.608   2.065   3.645
 2536SOL    HW2 8508   0.550   2.029   3.497
 2537SOL     OW 8509   4.971   6.146   0.658
 2537SOL    HW1 8510   4.962   6.156   0.559
 2537SOL    HW2 8511   4.916   6.068   0.689
 2538SOL     OW 8512   2.073   4.124   5.368
 2538SOL    HW1 8513   2.110   4.160   5.283
 2538SOL    HW2 8514   1.986   4.078   5.350
 2539SOL     OW 8515   3.945   6.985   5.501
 2539SOL    HW1 8516   3.918   6.890   5.522
 2539SOL    HW2 8517   3.962   6.993   5.403
 2540SOL     OW 8518   5.249   0.595   1.647
 2540SOL    HW1 8519   5.203   0.682   1.630
 2540SOL    HW2 8520   5.181   0.522   1.651
 2541SOL     OW 8521   1.294   0.673   5.999
 2541SOL    HW1 8522   1.370   0.731   6.030
 2541SOL    HW2 8523   1.249   0.633   6.079
 2542SOL     OW 8524   3.751   2.054   4.580
 2542SOL    HW1 8525   3.764   1.964   4.541
 2542SOL    HW2 8526   3.833   2.109   4.568
 2543SOL     OW 8527   2.118   0.384   2.941
 2543SOL    HW1 8528   2.215   0.407   2.950
 2543SOL    HW2 8529   2.105   0.325   2.861
 2544SOL     OW 8530   0.290   5.340   2.319
 2544SOL    HW1 8531   0.232   5.420   2.304
 2544SOL    HW2 8532   0.379   5.354   2.277
 2545SOL     OW 8533   1.812   0.860   1.851
 2545SOL    HW1 8534   1.733   0.856   1.790
 2545SOL    HW2 8535   1.781   0.870   1.946
 2546SOL     OW 8536   6.211   3.229   1.311
 2546SOL    HW1 8537   6.289   3.187   1.357
 2546SOL    HW2 8538   6.143   3.159   1.288
 2547SOL     OW 8539   5.290   5.944   0.162
 2547SOL    HW1 8540   5.212   5.906   0.113
 2547SOL    HW2 8541   5.262   5.968   0.255
 2548SOL     OW 8542   2.356   0.259   5.014
 2548SOL    HW1 8543   2.265   0.298   5.005
 2548SOL    HW2 8544   2.410   0.280   4.932
 2549SOL     OW 8545   2.251   2.457   1.952
 2549SOL    HW1 8546   2.256   2.379   1.889
 2549SOL    HW2 8547   2.246   2.542   1.900
 2550SOL     OW 8548   5.678   0.946   6.766
 2550SOL    HW1 8549   5.731   0.980   6.844
 2550SOL    HW2 8550   5.581   0.945   6.790
 2551SOL     OW 8551   3.429   5.422   0.170
 2551SOL    HW1 8552   3.336   5.390   0.187
 2551SOL    HW2 8553   3.487   5.397   0.248
 2552SOL     OW 8554   1.923   5.002   6.598
 2552SOL    HW1 8555   2.014   4.990   6.638
 2552SOL    HW2 8556   1.906   4.931   6.530
 2553SOL     OW 8557   3.283   2.899   6.163
 2553SOL    HW1 8558   3.286   2.849   6.077
 2553SOL    HW2 8559   3.275   2.997   6.145
 2554SOL     OW 8560   2.021   5.924   6.677
 2554SOL    HW1 8561   2.060   5.920   6.585
 2554SOL    HW2 8562   2.034   5.835   6.722
 2555SOL     OW 8563   6.085   6.331   6.492
 2555SOL    HW1 8564   5.999   6.288   6.519
 2555SOL    HW2 8565   6.129   6.276   6.422
 2556SOL     OW 8566   4.116   6.135   0.910
 2556SOL    HW1 8567   4.113   6.235   0.899
 2556SOL    HW2 8568   4.126   6.093   0.820
 2557SOL     OW 8569   2.595   0.997   6.742
 2557SOL    HW1 8570   2.648   0.921   6.703
 2557SOL    HW2 8571   2.561   1.055   6.668
 2558SOL     OW 8572   4.164   3.853   5.164
 2558SOL    HW1 8573   4.143   3.888   5.256
 2558SOL    HW2 8574   4.242   3.904   5.127
 2559SOL     OW 8575   5.816   3.146   3.696
 2559SOL    HW1 8576   5.849   3.130   3.789
 2559SOL    HW2 8577   5.716   3.140   3.695
 2560SOL     OW 8578   4.877   3.314   3.620
 2560SOL    HW1 8579   4.922   3.371   3.551
 2560SOL    HW2 8580   4.815   3.371   3.674
 2561SOL     OW 8581   3.831   1.087   3.444
 2561SOL    HW1 8582   3.849   1.185   3.454
 2561SOL    HW2 8583   3.833   1.044   3.534
 2562SOL     OW 8584   2.840   5.444   3.779
 2562SOL    HW1 8585   2.918   5.432   3.717
 2562SOL    HW2 8586   2.758   5.405   3.736
 2563SOL     OW 8587   3.628   1.473   5.735
 2563SOL    HW1 8588   3.688   1.520   5.800
 2563SOL    HW2 8589   3.641   1.513   5.644
 2564SOL     OW 8590   1.707   6.390   6.879
 2564SOL    HW1 8591   1.634   6.453   6.853
 2564SOL    HW2 8592   1.764   6.432   6.949
 2565SOL     OW 8593   0.493   0.183   0.259
 2565SOL    HW1 8594   0.430   0.148   0.189
 2565SOL    HW2 8595   0.482   0.282   0.267
 2566SOL     OW 8596   1.700   6.770   1.066
 2566SOL    HW1 8597   1.779   6.736   1.116
 2566SOL    HW2 8598   1.691   6.720   0.980
 2567SOL     OW 8599   1.606   1.368   1.939
 2567SOL    HW1 8600   1.592   1.314   2.022
 2567SOL    HW2 8601   1.636   1.307   1.865
 2568SOL     OW 8602   3.081   0.198   0.749
 2568SOL    HW1 8603   3.066   0.201   0.848
 2568SOL    HW2 8604   3.069   0.105   0.716
 2569SOL     OW 8605   2.215   1.571   2.291
 2569SOL    HW1 8606   2.243   1.571   2.387
 2569SOL    HW2 8607   2.132   1.626   2.281
 2570SOL     OW 8608   4.349   6.431   6.497
 2570SOL    HW1 8609   4.416   6.376   6.446
 2570SOL    HW2 8610   4.382   6.526   6.502
 2571SOL     OW 8611   3.524   2.883   4.750
 2571SOL    HW1 8612   3.519   2.982   4.755
 2571SOL    HW2 8613   3.436   2.844   4.775
 2572SOL     OW 8614   1.829   6.481   0.694
 2572SOL    HW1 8615   1.764   6.406   0.686
 2572SOL    HW2 8616   1.885   6.468   0.777
 2573SOL     OW 8617   6.300   0.934   2.427
 2573SOL    HW1 8618   6.250   0.924   2.341
 2573SOL    HW2 8619   6.398   0.934   2.409
 2574SOL     OW 8620   5.894   3.578   0.137
 2574SOL    HW1 8621   5.800   3.592   0.107
 2574SOL    HW2 8622   5.902   3.604   0.234
 2575SOL     OW 8623   5.197   3.551   1.764
 2575SOL    HW1 8624   5.181   3.576   1.859
 2575SOL    HW2 8625   5.166   3.457   1.749
 2576SOL     OW 8626   3.744   6.970   3.693
 2576SOL    HW1 8627   3.766   6.914   3.614
 2576SOL    HW2 8628   3.821   0.011   3.714
 2577SOL     OW 8629   5.317   0.670   3.418
 2577SOL    HW1 8630   5.239   0.732   3.408
 2577SOL    HW2 8631   5.322   0.637   3.512
 2578SOL     OW 8632   4.434   2.869   5.445
 2578SOL    HW1 8633   4.459   2.825   5.359
 2578SOL    HW2 8634   4.495   2.837   5.518
 2579SOL     OW 8635   1.052   1.194   5.076
 2579SOL    HW1 8636   1.019   1.258   5.146
 2579SOL    HW2 8637   1.138   1.228   5.038
 2580SOL     OW 8638   1.696   2.962   6.328
 2580SOL    HW1 8639   1.764   2.890   6.341
 2580SOL    HW2 8640   1.699   2.995   6.234
 2581SOL     OW 8641   6.022   4.606   1.661
 2581SOL    HW1 8642   6.076   4.682   1.624
 2581SOL    HW2 8643   6.057   4.582   1.752
 2582SOL     OW 8644   2.208   4.680   2.989
 2582SOL    HW1 8645   2.138   4.729   3.042
 2582SOL    HW2 8646   2.285   4.658   3.048
 2583SOL     OW 8647   1.576   1.116   1.101
 2583SOL    HW1 8648   1.601   1.039   1.042
 2583SOL    HW2 8649   1.638   1.193   1.083
 2584SOL     OW 8650   4.046   5.584   0.068
 2584SOL    HW1 8651   4.077   5.583   6.992
 2584SOL    HW2 8652   3.946   5.592   0.071
 2585SOL     OW 8653   3.530   0.436   0.508
 2585SOL    HW1 8654   3.446   0.382   0.513
 2585SOL    HW2 8655   3.589   0.412   0.585
 2586SOL     OW 8656   4.873   1.582   4.468
 2586SOL    HW1 8657   4.807   1.647   4.505
 2586SOL    HW2 8658   4.960   1.591   4.516
 2587SOL     OW 8659   0.229   1.092   4.594
 2587SOL    HW1 8660   0.291   1.105   4.517
 2587SOL    HW2 8661   0.141   1.057   4.561
 2588SOL     OW 8662   4.599   0.255   0.228
 2588SOL    HW1 8663   4.525   0.319   0.249
 2588SOL    HW2 8664   4.597   0.179   0.292
 2589SOL     OW 8665   0.905   6.621   5.956
 2589SOL    HW1 8666   0.868   6.611   5.864
 2589SOL    HW2 8667   0.847   6.572   6.021
 2590SOL     OW 8668   3.848   6.306   2.608
 2590SOL    HW1 8669   3.870   6.225   2.662
 2590SOL    HW2 8670   3.778   6.360   2.655
 2591SOL     OW 8671   5.850   6.133   2.604
 2591SOL    HW1 8672   5.877   6.140   2.700
 2591SOL    HW2 8673   5.763   6.084   2.597
 2592SOL     OW 8674   2.329   6.814   1.369
 2592SOL    HW1 8675   2.418   6.859   1.372
 2592SOL    HW2 8676   2.274   6.853   1.296
 2593SOL     OW 8677   3.425   6.645   2.271
 2593SOL    HW1 8678   3.518   6.616   2.295
 2593SOL    HW2 8679   3.359   6.590   2.322
 2594SOL     OW 8680   6.976   6.251   5.874
 2594SOL    HW1 8681   6.957   6.307   5.793
 2594SOL    HW2 8682   0.026   6.183   5.851
 2595SOL     OW 8683   6.369   1.571   5.746
 2595SOL    HW1 8684   6.297   1.586   5.815
 2595SOL    HW2 8685   6.390   1.474   5.740
 2596SOL     OW 8686   3.907   2.135   1.919
 2596SOL    HW1 8687   3.940   2.129   2.013
 2596SOL    HW2 8688   3.813   2.168   1.919
 2597SOL     OW 8689   1.658   4.174   0.366
 2597SOL    HW1 8690   1.753   4.202   0.375
 2597SOL    HW2 8691   1.629   4.127   0.449
 2598SOL     OW 8692   6.228   1.471   4.517
 2598SOL    HW1 8693   6.168   1.521   4.454
 2598SOL    HW2 8694   6.303   1.429   4.465
 2599SOL     OW 8695   3.542   5.886   0.263
 2599SOL    HW1 8696   3.485   5.961   0.229
 2599SOL    HW2 8697   3.489   5.801   0.263
 2600SOL     OW 8698   4.911   3.735   4.791
 2600SOL    HW1 8699   4.870   3.707   4.878
 2600SOL    HW2 8700   4.986   3.799   4.809
 2601SOL     OW 8701   3.245   1.800   6.784
 2601SOL    HW1 8702   3.303   1.866   6.736
 2601SOL    HW2 8703   3.302   1.734   6.831
 2602SOL     OW 8704   6.856   4.703   4.190
 2602SOL    HW1 8705   6.772   4.706   4.135
 2602SOL    HW2 8706   6.851   4.626   4.254
 2603SOL     OW 8707   2.365   2.780   1.466
 2603SOL    HW1 8708   2.418   2.752   1.546
 2603SOL    HW2 8709   2.417   2.847   1.413
 2604SOL     OW 8710   5.007   1.413   2.773
 2604SOL    HW1 8711   4.969   1.495   2.730
 2604SOL    HW2 8712   5.106   1.410   2.758
 2605SOL     OW 8713   3.699   5.330   3.777
 2605SOL    HW1 8714   3.738   5.358   3.690
 2605SOL    HW2 8715   3.603   5.358   3.781
 2606SOL     OW 8716   6.340   4.296   0.495
 2606SOL    HW1 8717   6.338   4.351   0.411
 2606SOL    HW2 8718   6.345   4.357   0.574
 2607SOL     OW 8719   0.560   2.010   6.070
 2607SOL    HW1 8720   0.649   2.056   6.077
 2607SOL    HW2 8721   0.542   1.959   6.155
 2608SOL     OW 8722   3.951   6.039   2.687
 2608SOL    HW1 8723   3.875   6.021   2.624
 2608SOL    HW2 8724   4.037   6.012   2.644
 2609SOL     OW 8725   0.226   2.510   1.368
 2609SOL    HW1 8726   0.277   2.520   1.282
 2609SOL    HW2 8727   0.245   2.588   1.427
 2610SOL     OW 8728   6.468   5.436   3.890
 2610SOL    HW1 8729   6.446   5.510   3.954
 2610SOL    HW2 8730   6.514   5.473   3.810
 2611SOL     OW 8731   5.849   6.665   0.821
 2611SOL    HW1 8732   5.887   6.690   0.910
 2611SOL    HW2 8733   5.923   6.638   0.760
 2612SOL     OW 8734   7.014   6.677   6.011
 2612SOL    HW1 8735   0.049   6.594   5.994
 2612SOL    HW2 8736   6.939   6.655   6.073
 2613SOL     OW 8737   2.800   6.495   1.412
 2613SOL    HW1 8738   2.778   6.446   1.328
 2613SOL    HW2 8739   2.897   6.483   1.434
 2614SOL     OW 8740   6.422   6.513   5.969
 2614SOL    HW1 8741   6.488   6.583   5.997
 2614SOL    HW2 8742   6.443   6.483   5.876
 2615SOL     OW 8743   5.835   4.628   2.834
 2615SOL    HW1 8744   5.854   4.723   2.811
 2615SOL    HW2 8745   5.891   4.600   2.912
 2616SOL     OW 8746   3.847   3.580   4.260
 2616SOL    HW1 8747   3.784   3.653   4.232
 2616SOL    HW2 8748   3.796   3.505   4.300
 2617SOL     OW 8749   3.318   6.447   1.176
 2617SOL    HW1 8750   3.346   6.355   1.202
 2617SOL    HW2 8751   3.219   6.450   1.166
 2618SOL     OW 8752   0.646   6.577   3.817
 2618SOL    HW1 8753   0.611   6.630   3.740
 2618SOL    HW2 8754   0.578   6.509   3.844
 2619SOL     OW 8755   3.087   1.473   3.435
 2619SOL    HW1 8756   3.128   1.518   3.356
 2619SOL    HW2 8757   3.127   1.383   3.447
 2620SOL     OW 8758   0.742   5.737   3.321
 2620SOL    HW1 8759   0.788   5.719   3.408
 2620SOL    HW2 8760   0.771   5.670   3.253
 2621SOL     OW 8761   2.193   6.048   3.187
 2621SOL    HW1 8762   2.240   6.003   3.112
 2621SOL    HW2 8763   2.216   6.145   3.188
 2622SOL     OW 8764   2.467   1.990   6.515
 2622SOL    HW1 8765   2.426   1.932   6.584
 2622SOL    HW2 8766   2.407   1.995   6.435
 2623SOL     OW 8767   3.409   1.668   4.741
 2623SOL    HW1 8768   3.458   1.716   4.813
 2623SOL    HW2 8769   3.474   1.624   4.680
 2624SOL     OW 8770   6.752   3.261   4.395
 2624SOL    HW1 8771   6.733   3.167   4.424
 2624SOL    HW2 8772   6.731   3.271   4.298
 2625SOL     OW 8773   2.568   3.013   5.768
 2625SOL    HW1 8774   2.614   2.951   5.832
 2625SOL    HW2 8775   2.637   3.072   5.726
 2626SOL     OW 8776   0.577   0.384   4.516
 2626SOL    HW1 8777   0.495   0.436   4.540
 2626SOL    HW2 8778   0.573   0.359   4.419
 2627SOL     OW 8779   0.507   0.541   4.791
 2627SOL    HW1 8780   0.496   0.583   4.881
 2627SOL    HW2 8781   0.597   0.497   4.785
 2628SOL     OW 8782   3.189   5.669   6.684
 2628SOL    HW1 8783   3.122   5.713   6.625
 2628SOL    HW2 8784   3.145   5.592   6.732
 2629SOL     OW 8785   3.279   4.064   2.130
 2629SOL    HW1 8786   3.361   4.017   2.163
 2629SOL    HW2 8787   3.226   4.096   2.208
 2630SOL     OW 8788   3.189   1.567   3.202
 2630SOL    HW1 8789   3.273   1.610   3.169
 2630SOL    HW2 8790   3.113   1.593   3.144
 2631SOL     OW 8791   4.834   0.559   4.388
 2631SOL    HW1 8792   4.798   0.554   4.481
 2631SOL    HW2 8793   4.927   0.521   4.386
 2632SOL     OW 8794   2.745   1.901   6.393
 2632SOL    HW1 8795   2.827   1.911   6.450
 2632SOL    HW2 8796   2.671   1.958   6.430
 2633SOL     OW 8797   6.430   2.161   5.994
 2633SOL    HW1 8798   6.347   2.187   6.043
 2633SOL    HW2 8799   6.498   2.233   6.002
 2634SOL     OW 8800   2.101   4.243   2.874
 2634SOL    HW1 8801   2.061   4.325   2.833
 2634SOL    HW2 8802   2.066   4.232   2.967
 2635SOL     OW 8803   5.913   6.188   4.605
 2635SOL    HW1 8804   5.845   6.234   4.663
 2635SOL    HW2 8805   6.002   6.232   4.618
 2636SOL     OW 8806   4.404   0.694   6.107
 2636SOL    HW1 8807   4.429   0.598   6.093
 2636SOL    HW2 8808   4.351   0.726   6.029
 2637SOL     OW 8809   6.558   1.219   4.055
 2637SOL    HW1 8810   6.501   1.286   4.104
 2637SOL    HW2 8811   6.654   1.248   4.058
 2638SOL     OW 8812   0.118   6.746   3.085
 2638SOL    HW1 8813   0.082   6.656   3.111
 2638SOL    HW2 8814   0.095   6.763   2.989
 2639SOL     OW 8815   0.347   0.265   2.087
 2639SOL    HW1 8816   0.364   0.209   2.168
 2639SOL    HW2 8817   0.294   0.212   2.021
 2640SOL     OW 8818   6.892   5.968   5.050
 2640SOL    HW1 8819   6.817   5.902   5.042
 2640SOL    HW2 8820   6.884   6.017   5.137
 2641SOL     OW 8821   5.219   3.035   1.981
 2641SOL    HW1 8822   5.288   2.972   1.946
 2641SOL    HW2 8823   5.190   3.006   2.072
 2642SOL     OW 8824   5.128   6.892   4.574
 2642SOL    HW1 8825   5.179   6.903   4.488
 2642SOL    HW2 8826   5.189   6.912   4.651
 2643SOL     OW 8827   1.720   4.479   3.331
 2643SOL    HW1 8828   1.743   4.513   3.240
 2643SOL    HW2 8829   1.622   4.489   3.347
 2644SOL     OW 8830   6.477   4.529   5.539
 2644SOL    HW1 8831   6.503   4.549   5.633
 2644SOL    HW2 8832   6.384   4.490   5.537
 2645SOL     OW 8833   4.573   6.069   4.317
 2645SOL    HW1 8834   4.597   6.027   4.405
 2645SOL    HW2 8835   4.501   6.014   4.274
 2646SOL     OW 8836   5.881   6.781   6.485
 2646SOL    HW1 8837   5.978   6.802   6.494
 2646SOL    HW2 8838   5.868   6.682   6.477
 2647SOL     OW 8839   5.935   0.456   1.361
 2647SOL    HW1 8840   6.003   0.386   1.381
 2647SOL    HW2 8841   5.850   0.412   1.332
 2648SOL     OW 8842   0.297   0.350   3.838
 2648SOL    HW1 8843   0.221   0.292   3.867
 2648SOL    HW2 8844   0.342   0.388   3.919
 2649SOL     OW 8845   4.827   2.906   5.946
 2649SOL    HW1 8846   4.796   2.940   5.857
 2649SOL    HW2 8847   4.811   2.808   5.951
 2650SOL     OW 8848   0.705   3.645   4.041
 2650SOL    HW1 8849   0.688   3.679   3.948
 2650SOL    HW2 8850   0.621   3.649   4.094
 2651SOL     OW 8851   0.301   2.029   0.156
 2651SOL    HW1 8852   0.395   2.001   0.140
 2651SOL    HW2 8853   0.240   1.981   0.093
 2652SOL     OW 8854   2.998   3.279   3.762
 2652SOL    HW1 8855   2.910   3.316   3.735
 2652SOL    HW2 8856   3.066   3.352   3.765
 2653SOL     OW 8857   4.990   6.773   5.227
 2653SOL    HW1 8858   4.903   6.816   5.205
 2653SOL    HW2 8859   5.037   6.826   5.297
 2654SOL     OW 8860   4.485   4.031   1.233
 2654SOL    HW1 8861   4.566   4.013   1.290
 2654SOL    HW2 8862   4.438   4.112   1.267
 2655SOL     OW 8863   5.547   4.901   4.603
 2655SOL    HW1 8864   5.506   4.871   4.689
 2655SOL    HW2 8865   5.575   4.997   4.611
 2656SOL     OW 8866   4.089   5.152   4.809
 2656SOL    HW1 8867   4.033   5.076   4.778
 2656SOL    HW2 8868   4.041   5.238   4.795
 2657SOL     OW 8869   2.554   4.396   6.519
 2657SOL    HW1 8870   2.471   4.402   6.576
 2657SOL    HW2 8871   2.543   4.455   6.439
 2658SOL     OW 8872   4.882   3.860   0.415
 2658SOL    HW1 8873   4.963   3.851   0.357
 2658SOL    HW2 8874   4.902   3.919   0.493
 2659SOL     OW 8875   6.401   2.517   4.482
 2659SOL    HW1 8876   6.382   2.610   4.513
 2659SOL    HW2 8877   6.376   2.452   4.554
 2660SOL     OW 8878   0.597   1.140   1.405
 2660SOL    HW1 8879   0.651   1.158   1.487
 2660SOL    HW2 8880   0.658   1.126   1.327
 2661SOL     OW 8881   2.380   6.741   1.621
 2661SOL    HW1 8882   2.469   6.694   1.614
 2661SOL    HW2 8883   2.352   6.773   1.531
 2662SOL     OW 8884   4.643   0.535   5.448
 2662SOL    HW1 8885   4.705   0.576   5.380
 2662SOL    HW2 8886   4.634   0.598   5.526
 2663SOL     OW 8887   2.800   3.780   1.432
 2663SOL    HW1 8888   2.825   3.683   1.431
 2663SOL    HW2 8889   2.761   3.803   1.521
 2664SOL     OW 8890   3.894   3.966   4.617
 2664SOL    HW1 8891   3.862   4.021   4.694
 2664SOL    HW2 8892   3.823   3.901   4.591
 2665SOL     OW 8893   2.732   2.430   5.295
 2665SOL    HW1 8894   2.692   2.380   5.218
 2665SOL    HW2 8895   2.688   2.401   5.380
 2666SOL     OW 8896   4.765   3.917   1.650
 2666SOL    HW1 8897   4.787   4.010   1.681
 2666SOL    HW2 8898   4.835   3.854   1.681
 2667SOL     OW 8899   1.679   6.022   4.305
 2667SOL    HW1 8900   1.738   5.993   4.230
 2667SOL    HW2 8901   1.711   5.982   4.391
 2668SOL     OW 8902   6.578   3.198   3.205
 2668SOL    HW1 8903   6.547   3.136   3.278
 2668SOL    HW2 8904   6.633   3.147   3.139
 2669SOL     OW 8905   3.195   4.586   5.306
 2669SOL    HW1 8906   3.154   4.639   5.380
 2669SOL    HW2 8907   3.124   4.562   5.240
 2670SOL     OW 8908   5.609   1.706   6.278
 2670SOL    HW1 8909   5.528   1.754   6.244
 2670SOL    HW2 8910   5.656   1.662   6.202
 2671SOL     OW 8911   3.176   5.140   7.006
 2671SOL    HW1 8912   3.205   5.154   6.912
 2671SOL    HW2 8913   3.243   5.084   0.035
 2672SOL     OW 8914   6.877   5.231   6.923
 2672SOL    HW1 8915   6.878   5.175   6.840
 2672SOL    HW2 8916   6.843   5.176   7.000
 2673SOL     OW 8917   5.981   1.750   3.222
 2673SOL    HW1 8918   5.971   1.695   3.139
 2673SOL    HW2 8919   6.037   1.830   3.202
 2674SOL     OW 8920   2.070   3.809   4.230
 2674SOL    HW1 8921   1.999   3.759   4.278
 2674SOL    HW2 8922   2.059   3.797   4.131
 2675SOL     OW 8923   6.997   5.175   4.527
 2675SOL    HW1 8924   0.015   5.224   4.605
 2675SOL    HW2 8925   6.963   5.086   4.556
 2676SOL     OW 8926   4.359   1.245   1.829
 2676SOL    HW1 8927   4.451   1.228   1.793
 2676SOL    HW2 8928   4.317   1.158   1.854
 2677SOL     OW 8929   3.247   4.647   0.186
 2677SOL    HW1 8930   3.294   4.659   0.098
 2677SOL    HW2 8931   3.180   4.573   0.178
 2678SOL     OW 8932   0.026   4.375   1.166
 2678SOL    HW1 8933   6.999   4.457   1.133
 2678SOL    HW2 8934   0.018   4.369   1.265
 2679SOL     OW 8935   3.846   5.064   0.768
 2679SOL    HW1 8936   3.858   4.996   0.695
 2679SOL    HW2 8937   3.857   5.020   0.857
 2680SOL     OW 8938   1.086   1.587   1.395
 2680SOL    HW1 8939   1.161   1.582   1.329
 2680SOL    HW2 8940   1.006   1.629   1.351
 2681SOL     OW 8941   1.434   2.428   4.380
 2681SOL    HW1 8942   1.358   2.487   4.408
 2681SOL    HW2 8943   1.516   2.484   4.370
 2682SOL     OW 8944   5.098   3.677   2.829
 2682SOL    HW1 8945   5.146   3.764   2.812
 2682SOL    HW2 8946   5.042   3.654   2.750
 2683SOL     OW 8947   1.316   4.166   0.265
 2683SOL    HW1 8948   1.230   4.170   0.315
 2683SOL    HW2 8949   1.370   4.088   0.296
 2684SOL     OW 8950   4.484   5.343   2.183
 2684SOL    HW1 8951   4.442   5.424   2.140
 2684SOL    HW2 8952   4.474   5.350   2.282
 2685SOL     OW 8953   6.496   5.640   6.417
 2685SOL    HW1 8954   6.483   5.652   6.318
 2685SOL    HW2 8955   6.588   5.606   6.435
 2686SOL     OW 8956   1.626   1.614   5.699
 2686SOL    HW1 8957   1.579   1.570   5.623
 2686SOL    HW2 8958   1.560   1.662   5.756
 2687SOL     OW 8959   4.524   4.465   3.015
 2687SOL    HW1 8960   4.514   4.515   2.929
 2687SOL    HW2 8961   4.608   4.411   3.012
 2688SOL     OW 8962   4.781   5.582   6.798
 2688SOL    HW1 8963   4.826   5.496   6.774
 2688SOL    HW2 8964   4.728   5.614   6.719
 2689SOL     OW 8965   2.517   2.007   3.354
 2689SOL    HW1 8966   2.595   1.949   3.378
 2689SOL    HW2 8967   2.482   2.052   3.436
 2690SOL     OW 8968   2.919   3.521   4.019
 2690SOL    HW1 8969   2.883   3.561   4.104
 2690SOL    HW2 8970   2.877   3.566   3.941
 2691SOL     OW 8971   0.859   5.731   2.525
 2691SOL    HW1 8972   0.834   5.636   2.506
 2691SOL    HW2 8973   0.909   5.769   2.447
 2692SOL     OW 8974   4.229   4.868   3.602
 2692SOL    HW1 8975   4.276   4.856   3.515
 2692SOL    HW2 8976   4.269   4.806   3.670
 2693SOL     OW 8977   1.952   4.185   3.099
 2693SOL    HW1 8978   1.863   4.225   3.079
 2693SOL    HW2 8979   1.946   4.085   3.095
 2694SOL     OW 8980   3.769   0.050   2.847
 2694SOL    HW1 8981   3.690   0.050   2.787
 2694SOL    HW2 8982   3.788   0.143   2.877
 2695SOL     OW 8983   5.441   1.108   2.681
 2695SOL    HW1 8984   5.354   1.115   2.728
 2695SOL    HW2 8985   5.433   1.041   2.606
 2696SOL     OW 8986   3.605   3.864   4.889
 2696SOL    HW1 8987   3.664   3.783   4.888
 2696SOL    HW2 8988   3.656   3.943   4.854
 2697SOL     OW 8989   4.189   1.207   3.322
 2697SOL    HW1 8990   4.123   1.148   3.369
 2697SOL    HW2 8991   4.201   1.292   3.374
 2698SOL     OW 8992   2.154   5.786   0.455
 2698SOL    HW1 8993   2.071   5.736   0.480
 2698SOL    HW2 8994   2.203   5.736   0.384
 2699SOL     OW 8995   3.653   6.017   0.005
 2699SOL    HW1 8996   3.688   6.023   0.099
 2699SOL    HW2 8997   3.582   6.086   7.011
 2700SOL     OW 8998   1.977   4.129   1.425
 2700SOL    HW1 8999   2.072   4.100   1.413
 2700SOL    HW2 9000   1.919   4.078   1.361
 2701SOL     OW 9001   2.917   0.482   6.547
 2701SOL    HW1 9002   2.841   0.420   6.566
 2701SOL    HW2 9003   2.907   0.521   6.455
 2702SOL     OW 9004   0.235   2.638   2.788
 2702SOL    HW1 9005   0.330   2.609   2.781
 2702SOL    HW2 9006   0.194   2.598   2.870
 2703SOL     OW 9007   2.314   0.472   2.269
 2703SOL    HW1 9008   2.265   0.398   2.315
 2703SOL    HW2 9009   2.412   0.462   2.285
 2704SOL     OW 9010   0.365   5.776   0.949
 2704SOL    HW1 9011   0.283   5.814   0.992
 2704SOL    HW2 9012   0.446   5.816   0.990
 2705SOL     OW 9013   1.528   5.482   4.690
 2705SOL    HW1 9014   1.606   5.434   4.650
 2705SOL    HW2 9015   1.561   5.549   4.757
 2706SOL     OW 9016   0.445   0.734   1.076
 2706SOL    HW1 9017   0.497   0.778   1.003
 2706SOL    HW2 9018   0.432   0.799   1.151
 2707SOL     OW 9019   1.929   0.860   5.127
 2707SOL    HW1 9020   1.854   0.923   5.111
 2707SOL    HW2 9021   1.950   0.857   5.225
 2708SOL     OW 9022   1.463   1.902   1.254
 2708SOL    HW1 9023   1.426   1.837   1.188
 2708SOL    HW2 9024   1.390   1.962   1.287
 2709SOL     OW 9025   5.592   6.473   0.478
 2709SOL    HW1 9026   5.590   6.569   0.506
 2709SOL    HW2 9027   5.558   6.465   0.384
 2710SOL     OW 9028   0.651   3.186   2.551
 2710SOL    HW1 9029   0.731   3.160   2.605
 2710SOL    HW2 9030   0.575   3.208   2.613
 2711SOL     OW 9031   2.823   1.089   2.884
 2711SOL    HW1 9032   2.891   1.161   2.886
 2711SOL    HW2 9033   2.732   1.129   2.871
 2712SOL     OW 9034   3.208   5.303   1.163
 2712SOL    HW1 9035   3.150   5.256   1.229
 2712SOL    HW2 9036   3.292   5.333   1.207
 2713SOL     OW 9037   1.931   2.485   5.023
 2713SOL    HW1 9038   1.860   2.437   4.971
 2713SOL    HW2 9039   2.011   2.426   5.033
 2714SOL     OW 9040   4.572   2.058   6.646
 2714SOL    HW1 9041   4.557   2.157   6.650
 2714SOL    HW2 9042   4.615   2.028   6.730
 2715SOL     OW 9043   5.550   0.808   0.355
 2715SOL    HW1 9044   5.514   0.716   0.371
 2715SOL    HW2 9045   5.564   0.854   0.442
 2716SOL     OW 9046   5.299   4.941   2.575
 2716SOL    HW1 9047   5.200   4.924   2.574
 2716SOL    HW2 9048   5.342   4.882   2.643
 2717SOL     OW 9049   1.848   4.979   1.967
 2717SOL    HW1 9050   1.806   5.069   1.953
 2717SOL    HW2 9051   1.873   4.940   1.878
 2718SOL     OW 9052   1.912   3.868   5.020
 2718SOL    HW1 9053   1.994   3.845   5.072
 2718SOL    HW2 9054   1.924   3.957   4.977
 2719SOL     OW 9055   5.972   5.503   1.586
 2719SOL    HW1 9056   5.971   5.404   1.584
 2719SOL    HW2 9057   6.063   5.537   1.559
 2720SOL     OW 9058   1.853   6.020   2.995
 2720SOL    HW1 9059   1.897   6.094   3.045
 2720SOL    HW2 9060   1.764   6.050   2.962
 2721SOL     OW 9061   3.683   0.587   4.009
 2721SOL    HW1 9062   3.632   0.667   3.977
 2721SOL    HW2 9063   3.688   0.519   3.935
 2722SOL     OW 9064   6.290   5.462   2.070
 2722SOL    HW1 9065   6.333   5.473   2.160
 2722SOL    HW2 9066   6.192   5.481   2.078
 2723SOL     OW 9067   1.453   6.778   5.886
 2723SOL    HW1 9068   1.377   6.839   5.861
 2723SOL    HW2 9069   1.480   6.796   5.981
 2724SOL     OW 9070   2.517   6.788   6.585
 2724SOL    HW1 9071   2.488   6.706   6.635
 2724SOL    HW2 9072   2.545   6.859   6.649
 2725SOL     OW 9073   6.190   4.826   3.959
 2725SOL    HW1 9074   6.196   4.869   3.868
 2725SOL    HW2 9075   6.277   4.782   3.981
 2726SOL     OW 9076   6.841   4.122   0.884
 2726SOL    HW1 9077   6.811   4.202   0.935
 2726SOL    HW2 9078   6.812   4.039   0.932
 2727SOL     OW 9079   0.755   4.826   3.140
 2727SOL    HW1 9080   0.762   4.772   3.224
 2727SOL    HW2 9081   0.662   4.862   3.132
 2728SOL     OW 9082   3.711   0.101   5.699
 2728SOL    HW1 9083   3.800   0.126   5.660
 2728SOL    HW2 9084   3.639   0.118   5.632
 2729SOL     OW 9085   6.148   5.809   1.107
 2729SOL    HW1 9086   6.067   5.777   1.157
 2729SOL    HW2 9087   6.127   5.816   1.010
 2730SOL     OW 9088   1.234   5.432   1.757
 2730SOL    HW1 9089   1.235   5.363   1.829
 2730SOL    HW2 9090   1.140   5.451   1.729
 2731SOL     OW 9091   4.029   3.375   1.719
 2731SOL    HW1 9092   3.933   3.349   1.706
 2731SOL    HW2 9093   4.041   3.418   1.808
 2732SOL     OW 9094   5.146   3.589   2.043
 2732SOL    HW1 9095   5.196   3.675   2.040
 2732SOL    HW2 9096   5.050   3.606   2.064
 2733SOL     OW 9097   0.051   0.073   5.116
 2733SOL    HW1 9098   6.978   0.033   5.113
 2733SOL    HW2 9099   0.064   0.130   5.035
 2734SOL     OW 9100   2.168   5.644   2.289
 2734SOL    HW1 9101   2.150   5.736   2.325
 2734SOL    HW2 9102   2.153   5.645   2.190
 2735SOL     OW 9103   0.858   3.891   2.849
 2735SOL    HW1 9104   0.814   3.920   2.763
 2735SOL    HW2 9105   0.821   3.944   2.925
 2736SOL     OW 9106   4.670   0.482   4.620
 2736SOL    HW1 9107   4.747   0.497   4.682
 2736SOL    HW2 9108   4.647   0.385   4.618
 2737SOL     OW 9109   3.352   3.406   5.514
 2737SOL    HW1 9110   3.314   3.449   5.432
 2737SOL    HW2 9111   3.429   3.459   5.547
 2738SOL     OW 9112   5.450   5.080   4.241
 2738SOL    HW1 9113   5.401   5.072   4.154
 2738SOL    HW2 9114   5.426   5.002   4.300
 2739SOL     OW 9115   6.459   5.125   6.925
 2739SOL    HW1 9116   6.502   5.206   6.886
 2739SOL    HW2 9117   6.528   5.052   6.933
 2740SOL     OW 9118   6.499   4.079   2.396
 2740SOL    HW1 9119   6.474   4.144   2.324
 2740SOL    HW2 9120   6.597   4.087   2.415
 2741SOL     OW 9121   6.766   0.777   5.731
 2741SOL    HW1 9122   6.818   0.717   5.670
 2741SOL    HW2 9123   6.807   0.775   5.822
 2742SOL     OW 9124   1.615   4.714   7.001
 2742SOL    HW1 9125   1.665   4.758   6.926
 2742SOL    HW2 9126   1.568   4.784   0.036
 2743SOL     OW 9127   6.398   5.216   2.022
 2743SOL    HW1 9128   6.352   5.156   2.088
 2743SOL    HW2 9129   6.370   5.311   2.038
 2744SOL     OW 9130   4.654   1.916   6.877
 2744SOL    HW1 9131   4.603   1.868   6.948
 2744SOL    HW2 9132   4.736   1.864   6.854
 2745SOL     OW 9133   1.052   6.358   6.634
 2745SOL    HW1 9134   1.115   6.402   6.698
 2745SOL    HW2 9135   0.958   6.366   6.669
 2746SOL     OW 9136   2.704   1.600   3.965
 2746SOL    HW1 9137   2.782   1.663   3.963
 2746SOL    HW2 9138   2.714   1.533   3.892
 2747SOL     OW 9139   5.274   3.129   5.531
 2747SOL    HW1 9140   5.178   3.157   5.542
 2747SOL    HW2 9141   5.333   3.201   5.566
 2748SOL     OW 9142   4.020   1.691   0.956
 2748SOL    HW1 9143   4.020   1.723   1.051
 2748SOL    HW2 9144   3.951   1.741   0.904
 2749SOL     OW 9145   5.962   4.649   4.089
 2749SOL    HW1 9146   5.896   4.649   4.164
 2749SOL    HW2 9147   5.956   4.564   4.038
 2750SOL     OW 9148   0.686   5.378   1.353
 2750SOL    HW1 9149   0.747   5.327   1.413
 2750SOL    HW2 9150   0.644   5.316   1.287
 2751SOL     OW 9151   1.029   6.445   0.450
 2751SOL    HW1 9152   0.990   6.397   0.371
 2751SOL    HW2 9153   0.960   6.503   0.492
 2752SOL     OW 9154   5.052   4.907   5.333
 2752SOL    HW1 9155   4.970   4.952   5.299
 2752SOL    HW2 9156   5.114   4.888   5.257
 2753SOL     OW 9157   1.564   0.309   6.218
 2753SOL    HW1 9158   1.517   0.396   6.235
 2753SOL    HW2 9159   1.498   0.235   6.216
 2754SOL     OW 9160   6.534   0.744   4.222
 2754SOL    HW1 9161   6.458   0.714   4.280
 2754SOL    HW2 9162   6.545   0.843   4.229
 2755SOL     OW 9163   3.174   6.922   3.229
 2755SOL    HW1 9164   3.120   6.864   3.291
 2755SOL    HW2 9165   3.252   6.959   3.278
 2756SOL     OW 9166   6.317   3.715   5.137
 2756SOL    HW1 9167   6.365   3.706   5.224
 2756SOL    HW2 9168   6.219   3.704   5.151
 2757SOL     OW 9169   2.479   1.307   6.629
 2757SOL    HW1 9170   2.413   1.307   6.705
 2757SOL    HW2 9171   2.472   1.221   6.580
 2758SOL     OW 9172   4.961   6.052   3.792
 2758SOL    HW1 9173   5.044   6.066   3.846
 2758SOL    HW2 9174   4.884   6.098   3.835
 2759SOL     OW 9175   4.448   5.440   5.692
 2759SOL    HW1 9176   4.396   5.525   5.702
 2759SOL    HW2 9177   4.389   5.362   5.713
 2760SOL     OW 9178   6.888   5.129   2.761
 2760SOL    HW1 9179   6.797   5.144   2.723
 2760SOL    HW2 9180   6.943   5.211   2.747
 2761SOL     OW 9181   1.722   4.280   4.329
 2761SOL    HW1 9182   1.703   4.376   4.349
 2761SOL    HW2 9183   1.642   4.224   4.352
 2762SOL     OW 9184   1.683   1.960   6.733
 2762SOL    HW1 9185   1.759   1.897   6.716
 2762SOL    HW2 9186   1.708   2.023   6.807
 2763SOL     OW 9187   4.723   2.239   5.428
 2763SOL    HW1 9188   4.791   2.197   5.369
 2763SOL    HW2 9189   4.693   2.173   5.497
 2764SOL     OW 9190   0.357   5.956   2.384
 2764SOL    HW1 9191   0.352   5.980   2.287
 2764SOL    HW2 9192   0.449   5.922   2.405
 2765SOL     OW 9193   6.931   0.439   0.534
 2765SOL    HW1 9194   6.963   0.345   0.518
 2765SOL    HW2 9195   6.859   0.461   0.469
 2766SOL     OW 9196   3.682   1.771   6.933
 2766SOL    HW1 9197   3.619   1.720   6.875
 2766SOL    HW2 9198   3.773   1.773   6.890
 2767SOL     OW 9199   6.329   5.042   6.293
 2767SOL    HW1 9200   6.356   5.051   6.197
 2767SOL    HW2 9201   6.229   5.054   6.300
 2768SOL     OW 9202   4.560   1.170   0.248
 2768SOL    HW1 9203   4.577   1.072   0.234
 2768SOL    HW2 9204   4.545   1.214   0.160
 2769SOL     OW 9205   2.551   4.845   6.353
 2769SOL    HW1 9206   2.513   4.829   6.444
 2769SOL    HW2 9207   2.639   4.891   6.362
 2770SOL     OW 9208   3.886   5.361   5.849
 2770SOL    HW1 9209   3.874   5.312   5.762
 2770SOL    HW2 9210   3.888   5.459   5.832
 2771SOL     OW 9211   5.986   0.969   5.045
 2771SOL    HW1 9212   6.006   0.987   5.141
 2771SOL    HW2 9213   6.072   0.954   4.995
 2772SOL     OW 9214   2.957   1.513   1.330
 2772SOL    HW1 9215   2.861   1.489   1.311
 2772SOL    HW2 9216   2.961   1.593   1.389
 2773SOL     OW 9217   7.017   2.614   4.422
 2773SOL    HW1 9218   7.015   2.690   4.356
 2773SOL    HW2 9219   0.076   2.625   4.483
 2774SOL     OW 9220   5.219   2.987   2.807
 2774SOL    HW1 9221   5.311   2.978   2.770
 2774SOL    HW2 9222   5.155   3.008   2.732
 2775SOL     OW 9223   6.158   3.060   4.276
 2775SOL    HW1 9224   6.114   3.078   4.364
 2775SOL    HW2 9225   6.142   3.137   4.214
 2776SOL     OW 9226   5.336   4.214   5.770
 2776SOL    HW1 9227   5.303   4.151   5.700
 2776SOL    HW2 9228   5.420   4.258   5.738
 2777SOL     OW 9229   2.164   1.482   0.451
 2777SOL    HW1 9230   2.171   1.472   0.352
 2777SOL    HW2 9231   2.235   1.545   0.483
 2778SOL     OW 9232   1.409   6.071   6.429
 2778SOL    HW1 9233   1.428   5.974   6.443
 2778SOL    HW2 9234   1.485   6.126   6.464
 2779SOL     OW 9235   5.378   6.706   1.790
 2779SOL    HW1 9236   5.419   6.655   1.865
 2779SOL    HW2 9237   5.432   6.789   1.774
 2780SOL     OW 9238   6.838   6.847   5.692
 2780SOL    HW1 9239   6.742   6.834   5.718
 2780SOL    HW2 9240   6.857   6.794   5.610
 2781SOL     OW 9241   5.939   0.497   3.274
 2781SOL    HW1 9242   6.015   0.560   3.292
 2781SOL    HW2 9243   5.924   0.490   3.176
 2782SOL     OW 9244   4.642   1.330   5.056
 2782SOL    HW1 9245   4.587   1.382   4.991
 2782SOL    HW2 9246   4.692   1.259   5.007
 2783SOL     OW 9247   6.884   3.786   1.520
 2783SOL    HW1 9248   6.803   3.764   1.465
 2783SOL    HW2 9249   6.872   3.750   1.612
 2784SOL     OW 9250   3.187   1.406   1.966
 2784SOL    HW1 9251   3.225   1.459   1.891
 2784SOL    HW2 9252   3.262   1.370   2.022
 2785SOL     OW 9253   5.079   2.076   0.558
 2785SOL    HW1 9254   5.072   2.114   0.466
 2785SOL    HW2 9255   5.141   2.131   0.613
 2786SOL     OW 9256   6.417   6.606   1.497
 2786SOL    HW1 9257   6.409   6.689   1.441
 2786SOL    HW2 9258   6.372   6.530   1.450
 2787SOL     OW 9259   6.228   6.107   5.419
 2787SOL    HW1 9260   6.148   6.079   5.473
 2787SOL    HW2 9261   6.308   6.111   5.478
 2788SOL     OW 9262   2.881   6.599   6.184
 2788SOL    HW1 9263   2.845   6.567   6.271
 2788SOL    HW2 9264   2.807   6.602   6.116
 2789SOL     OW 9265   1.698   1.764   3.658
 2789SOL    HW1 9266   1.730   1.841   3.604
 2789SOL    HW2 9267   1.598   1.757   3.650
 2790SOL     OW 9268   3.165   5.401   0.890
 2790SOL    HW1 9269   3.204   5.402   0.982
 2790SOL    HW2 9270   3.102   5.324   0.881
 2791SOL     OW 9271   0.638   4.392   2.345
 2791SOL    HW1 9272   0.585   4.366   2.426
 2791SOL    HW2 9273   0.716   4.330   2.336
 2792SOL     OW 9274   2.981   0.970   4.454
 2792SOL    HW1 9275   2.900   0.947   4.400
 2792SOL    HW2 9276   3.046   1.019   4.397
 2793SOL     OW 9277   5.101   3.961   2.114
 2793SOL    HW1 9278   5.091   3.932   2.019
 2793SOL    HW2 9279   5.198   3.978   2.134
 2794SOL     OW 9280   6.748   2.180   6.082
 2794SOL    HW1 9281   6.734   2.180   5.983
 2794SOL    HW2 9282   6.808   2.104   6.108
 2795SOL     OW 9283   0.347   3.987   1.192
 2795SOL    HW1 9284   0.334   3.979   1.291
 2795SOL    HW2 9285   0.263   4.024   1.151
 2796SOL     OW 9286   0.662   5.512   3.735
 2796SOL    HW1 9287   0.614   5.600   3.734
 2796SOL    HW2 9288   0.698   5.495   3.826
 2797SOL     OW 9289   5.603   5.112   5.466
 2797SOL    HW1 9290   5.621   5.025   5.510
 2797SOL    HW2 9291   5.687   5.166   5.463
 2798SOL     OW 9292   5.900   5.840   2.526
 2798SOL    HW1 9293   5.881   5.938   2.524
 2798SOL    HW2 9294   5.833   5.792   2.469
 2799SOL     OW 9295   5.378   6.016   5.672
 2799SOL    HW1 9296   5.315   6.069   5.729
 2799SOL    HW2 9297   5.335   5.930   5.645
 2800SOL     OW 9298   5.417   0.387   5.927
 2800SOL    HW1 9299   5.477   0.451   5.880
 2800SOL    HW2 9300   5.383   0.429   6.012
 2801SOL     OW 9301   1.013   5.425   6.269
 2801SOL    HW1 9302   1.107   5.455   6.257
 2801SOL    HW2 9303   0.994   5.348   6.208
 2802SOL     OW 9304   6.735   6.011   5.493
 2802SOL    HW1 9305   6.789   5.964   5.563
 2802SOL    HW2 9306   6.650   5.962   5.476
 2803SOL     OW 9307   3.404   4.571   5.800
 2803SOL    HW1 9308   3.333   4.508   5.832
 2803SOL    HW2 9309   3.466   4.593   5.875
 2804SOL     OW 9310   0.342   4.083   4.196
 2804SOL    HW1 9311   0.321   4.170   4.151
 2804SOL    HW2 9312   0.410   4.098   4.267
 2805SOL     OW 9313   5.987   4.105   2.956
 2805SOL    HW1 9314   6.076   4.152   2.949
 2805SOL    HW2 9315   5.917   4.171   2.984
 2806SOL     OW 9316   1.939   4.339   6.209
 2806SOL    HW1 9317   1.975   4.395   6.134
 2806SOL    HW2 9318   1.972   4.245   6.200
 2807SOL     OW 9319   4.150   0.284   3.151
 2807SOL    HW1 9320   4.208   0.211   3.188
 2807SOL    HW2 9321   4.162   0.367   3.206
 2808SOL     OW 9322   6.492   5.779   0.494
 2808SOL    HW1 9323   6.537   5.856   0.448
 2808SOL    HW2 9324   6.549   5.749   0.571
 2809SOL     OW 9325   5.474   2.460   1.251
 2809SOL    HW1 9326   5.511   2.514   1.326
 2809SOL    HW2 9327   5.384   2.495   1.225
 2810SOL     OW 9328   2.579   5.533   3.013
 2810SOL    HW1 9329   2.524   5.560   2.934
 2810SOL    HW2 9330   2.572   5.435   3.026
 2811SOL     OW 9331   0.939   1.500   2.693
 2811SOL    HW1 9332   0.966   1.417   2.740
 2811SOL    HW2 9333   0.850   1.486   2.649
 2812SOL     OW 9334   6.059   3.463   0.490
 2812SOL    HW1 9335   6.124   3.389   0.474
 2812SOL    HW2 9336   6.031   3.463   0.586
 2813SOL     OW 9337   0.860   1.889   0.488
 2813SOL    HW1 9338   0.841   1.885   0.586
 2813SOL    HW2 9339   0.817   1.970   0.449
 2814SOL     OW 9340   2.993   4.329   5.665
 2814SOL    HW1 9341   3.052   4.366   5.593
 2814SOL    HW2 9342   2.902   4.370   5.657
 2815SOL     OW 9343   6.991   5.403   6.135
 2815SOL    HW1 9344   0.063   5.445   6.136
 2815SOL    HW2 9345   6.923   5.470   6.165
 2816SOL     OW 9346   6.489   5.786   4.303
 2816SOL    HW1 9347   6.579   5.746   4.290
 2816SOL    HW2 9348   6.498   5.880   4.334
 2817SOL     OW 9349   3.692   1.108   2.776
 2817SOL    HW1 9350   3.656   1.054   2.700
 2817SOL    HW2 9351   3.700   1.204   2.748
 2818SOL     OW 9352   6.712   1.279   2.304
 2818SOL    HW1 9353   6.687   1.230   2.220
 2818SOL    HW2 9354   6.787   1.343   2.284
 2819SOL     OW 9355   1.468   0.432   1.886
 2819SOL    HW1 9356   1.535   0.506   1.887
 2819SOL    HW2 9357   1.400   0.447   1.958
 2820SOL     OW 9358   0.993   2.118   2.349
 2820SOL    HW1 9359   0.994   2.142   2.252
 2820SOL    HW2 9360   1.074   2.156   2.394
 2821SOL     OW 9361   2.667   5.059   6.104
 2821SOL    HW1 9362   2.594   5.124   6.127
 2821SOL    HW2 9363   2.671   5.048   6.005
 2822SOL     OW 9364   4.304   2.094   6.862
 2822SOL    HW1 9365   4.348   2.036   6.793
 2822SOL    HW2 9366   4.258   2.170   6.817
 2823SOL     OW 9367   6.296   0.754   0.154
 2823SOL    HW1 9368   6.208   0.753   0.202
 2823SOL    HW2 9369   6.341   0.842   0.170
 2824SOL     OW 9370   1.493   2.967   5.607
 2824SOL    HW1 9371   1.474   2.874   5.639
 2824SOL    HW2 9372   1.513   2.965   5.509
 2825SOL     OW 9373   5.170   0.503   6.090
 2825SOL    HW1 9374   5.139   0.546   6.175
 2825SOL    HW2 9375   5.095   0.450   6.050
 2826SOL     OW 9376   2.705   3.285   6.635
 2826SOL    HW1 9377   2.680   3.299   6.539
 2826SOL    HW2 9378   2.635   3.228   6.679
 2827SOL     OW 9379   0.458   0.940   6.610
 2827SOL    HW1 9380   0.428   0.881   6.685
 2827SOL    HW2 9381   0.408   0.916   6.527
 2828SOL     OW 9382   1.977   3.534   1.224
 2828SOL    HW1 9383   2.030   3.612   1.256
 2828SOL    HW2 9384   1.929   3.557   1.140
 2829SOL     OW 9385   3.122   3.111   3.294
 2829SOL    HW1 9386   3.052   3.178   3.271
 2829SOL    HW2 9387   3.133   3.107   3.394
 2830SOL     OW 9388   3.319   4.216   5.174
 2830SOL    HW1 9389   3.329   4.129   5.126
 2830SOL    HW2 9390   3.223   4.237   5.188
 2831SOL     OW 9391   0.621   2.799   2.983
 2831SOL    HW1 9392   0.688   2.740   3.029
 2831SOL    HW2 9393   0.607   2.882   3.037
 2832SOL     OW 9394   1.053   2.982   1.928
 2832SOL    HW1 9395   1.065   2.979   1.829
 2832SOL    HW2 9396   1.069   3.075   1.961
 2833SOL     OW 9397   2.601   1.614   1.872
 2833SOL    HW1 9398   2.659   1.621   1.953
 2833SOL    HW2 9399   2.659   1.604   1.791
 2834SOL     OW 9400   4.550   6.346   4.574
 2834SOL    HW1 9401   4.640   6.334   4.532
 2834SOL    HW2 9402   4.517   6.438   4.557
 2835SOL     OW 9403   0.859   6.608   0.565
 2835SOL    HW1 9404   0.904   6.676   0.622
 2835SOL    HW2 9405   0.813   6.654   0.489
 2836SOL     OW 9406   1.828   6.216   1.722
 2836SOL    HW1 9407   1.849   6.246   1.629
 2836SOL    HW2 9408   1.907   6.233   1.781
 2837SOL     OW 9409   5.606   4.471   2.654
 2837SOL    HW1 9410   5.581   4.457   2.750
 2837SOL    HW2 9411   5.652   4.560   2.645
 2838SOL     OW 9412   4.859   3.601   0.508
 2838SOL    HW1 9413   4.912   3.606   0.594
 2838SOL    HW2 9414   4.853   3.692   0.468
 2839SOL     OW 9415   0.558   2.916   2.218
 2839SOL    HW1 9416   0.511   2.912   2.306
 2839SOL    HW2 9417   0.638   2.976   2.225
 2840SOL     OW 9418   1.568   5.771   2.549
 2840SOL    HW1 9419   1.651   5.757   2.603
 2840SOL    HW2 9420   1.509   5.838   2.594
 2841SOL     OW 9421   6.195   2.324   0.087
 2841SOL    HW1 9422   6.203   2.365   7.015
 2841SOL    HW2 9423   6.134   2.245   0.083
 2842SOL     OW 9424   1.293   5.826   4.860
 2842SOL    HW1 9425   1.329   5.792   4.773
 2842SOL    HW2 9426   1.357   5.803   4.933
 2843SOL     OW 9427   2.458   1.269   2.481
 2843SOL    HW1 9428   2.387   1.318   2.533
 2843SOL    HW2 9429   2.546   1.313   2.496
 2844SOL     OW 9430   5.799   5.284   1.383
 2844SOL    HW1 9431   5.730   5.314   1.449
 2844SOL    HW2 9432   5.765   5.204   1.333
 2845SOL     OW 9433   5.520   3.409   2.375
 2845SOL    HW1 9434   5.483   3.486   2.323
 2845SOL    HW2 9435   5.457   3.331   2.369
 2846SOL     OW 9436   2.939   0.700   0.572
 2846SOL    HW1 9437   2.857   0.747   0.539
 2846SOL    HW2 9438   2.921   0.601   0.576
 2847SOL     OW 9439   4.875   3.656   2.137
 2847SOL    HW1 9440   4.893   3.743   2.092
 2847SOL    HW2 9441   4.777   3.635   2.132
 2848SOL     OW 9442   2.677   2.368   5.582
 2848SOL    HW1 9443   2.600   2.327   5.631
 2848SOL    HW2 9444   2.685   2.465   5.608
 2849SOL     OW 9445   3.632   1.078   1.565
 2849SOL    HW1 9446   3.574   1.070   1.484
 2849SOL    HW2 9447   3.680   1.166   1.563
 2850SOL     OW 9448   2.611   6.844   3.469
 2850SOL    HW1 9449   2.648   6.924   3.422
 2850SOL    HW2 9450   2.538   6.804   3.413
 2851SOL     OW 9451   4.030   3.284   6.676
 2851SOL    HW1 9452   4.096   3.313   6.606
 2851SOL    HW2 9453   4.050   3.190   6.703
 2852SOL     OW 9454   5.980   4.332   0.244
 2852SOL    HW1 9455   5.943   4.370   0.159
 2852SOL    HW2 9456   5.953   4.236   0.252
 2853SOL     OW 9457   1.037   3.724   0.105
 2853SOL    HW1 9458   0.962   3.676   0.060
 2853SOL    HW2 9459   1.086   3.662   0.166
 2854SOL     OW 9460   3.425   0.925   5.930
 2854SOL    HW1 9461   3.416   0.840   5.878
 2854SOL    HW2 9462   3.432   1.002   5.867
 2855SOL     OW 9463   1.008   2.838   4.684
 2855SOL    HW1 9464   1.084   2.902   4.679
 2855SOL    HW2 9465   0.944   2.856   4.609
 2856SOL     OW 9466   1.367   2.933   3.983
 2856SOL    HW1 9467   1.432   2.965   3.915
 2856SOL    HW2 9468   1.380   2.984   4.068
 2857SOL     OW 9469   0.247   3.201   0.812
 2857SOL    HW1 9470   0.195   3.194   0.898
 2857SOL    HW2 9471   0.301   3.119   0.799
 2858SOL     OW 9472   5.378   6.465   2.593
 2858SOL    HW1 9473   5.470   6.441   2.625
 2858SOL    HW2 9474   5.380   6.482   2.495
 2859SOL     OW 9475   5.772   6.201   0.266
 2859SOL    HW1 9476   5.815   6.111   0.278
 2859SOL    HW2 9477   5.767   6.222   0.168
 2860SOL     OW 9478   1.483   6.943   2.230
 2860SOL    HW1 9479   1.487   0.024   2.229
 2860SOL    HW2 9480   1.511   6.908   2.140
 2861SOL     OW 9481   3.395   6.343   5.133
 2861SOL    HW1 9482   3.473   6.281   5.126
 2861SOL    HW2 9483   3.379   6.365   5.229
 2862SOL     OW 9484   4.271   2.295   1.936
 2862SOL    HW1 9485   4.356   2.346   1.923
 2862SOL    HW2 9486   4.293   2.200   1.959
 2863SOL     OW 9487   5.113   1.150   6.711
 2863SOL    HW1 9488   5.084   1.198   6.794
 2863SOL    HW2 9489   5.033   1.120   6.660
 2864SOL     OW 9490   4.356   2.667   1.054
 2864SOL    HW1 9491   4.359   2.717   1.140
 2864SOL    HW2 9492   4.268   2.684   1.009
 2865SOL     OW 9493   4.143   6.872   4.032
 2865SOL    HW1 9494   4.146   6.921   3.944
 2865SOL    HW2 9495   4.171   6.777   4.018
 2866SOL     OW 9496   5.886   4.057   0.276
 2866SOL    HW1 9497   5.809   4.033   0.217
 2866SOL    HW2 9498   5.936   3.974   0.301
 2867SOL     OW 9499   6.049   6.311   2.606
 2867SOL    HW1 9500   6.024   6.345   2.697
 2867SOL    HW2 9501   6.005   6.223   2.591
 2868SOL     OW 9502   1.068   1.726   5.385
 2868SOL    HW1 9503   1.103   1.696   5.297
 2868SOL    HW2 9504   1.136   1.709   5.456
 2869SOL     OW 9505   6.226   0.229   3.891
 2869SOL    HW1 9506   6.249   0.323   3.915
 2869SOL    HW2 9507   6.304   0.169   3.911
 2870SOL     OW 9508   0.546   1.866   6.311
 2870SOL    HW1 9509   0.502   1.796   6.368
 2870SOL    HW2 9510   0.645   1.860   6.322
 2871SOL     OW 9511   6.309   0.517   6.996
 2871SOL    HW1 9512   6.261   0.432   7.017
 2871SOL    HW2 9513   6.324   0.568   0.062
 2872SOL     OW 9514   2.551   1.473   1.098
 2872SOL    HW1 9515   2.591   1.392   1.140
 2872SOL    HW2 9516   2.580   1.478   1.002
 2873SOL     OW 9517   6.524   6.477   2.261
 2873SOL    HW1 9518   6.543   6.546   2.331
 2873SOL    HW2 9519   6.563   6.507   2.174
 2874SOL     OW 9520   4.586   6.725   3.100
 2874SOL    HW1 9521   4.553   6.701   3.191
 2874SOL    HW2 9522   4.630   6.815   3.102
 2875SOL     OW 9523   4.131   6.961   3.054
 2875SOL    HW1 9524   4.132   6.865   3.081
 2875SOL    HW2 9525   4.094   7.016   3.128
 2876SOL     OW 9526   1.097   6.483   2.269
 2876SOL    HW1 9527   1.124   6.388   2.250
 2876SOL    HW2 9528   1.179   6.540   2.276
 2877SOL     OW 9529   2.148   0.673   6.525
 2877SOL    HW1 9530   2.166   0.614   6.447
 2877SOL    HW2 9531   2.233   0.689   6.575
 2878SOL     OW 9532   3.483   3.457   4.795
 2878SOL    HW1 9533   3.519   3.456   4.702
 2878SOL    HW2 9534   3.470   3.363   4.827
 2879SOL     OW 9535   4.762   5.023   5.755
 2879SOL    HW1 9536   4.711   5.020   5.670
 2879SOL    HW2 9537   4.706   5.067   5.826
 2880SOL     OW 9538   0.185   1.863   3.823
 2880SOL    HW1 9539   0.179   1.938   3.757
 2880SOL    HW2 9540   0.257   1.800   3.795
 2881SOL     OW 9541   3.677   5.904   6.607
 2881SOL    HW1 9542   3.610   5.976   6.589
 2881SOL    HW2 9543   3.722   5.920   6.694
 2882SOL     OW 9544   6.386   6.011   1.180
 2882SOL    HW1 9545   6.299   5.977   1.144
 2882SOL    HW2 9546   6.461   5.954   1.148
 2883SOL     OW 9547   5.983   6.657   3.561
 2883SOL    HW1 9548   6.062   6.669   3.501
 2883SOL    HW2 9549   5.955   6.561   3.560
 2884SOL     OW 9550   0.098   6.033   2.493
 2884SOL    HW1 9551   0.167   6.037   2.420
 2884SOL    HW2 9552   0.017   5.986   2.459
 2885SOL     OW 9553   1.136   2.574   4.693
 2885SOL    HW1 9554   1.085   2.660   4.690
 2885SOL    HW2 9555   1.074   2.497   4.682
 2886SOL     OW 9556   1.969   4.211   6.502
 2886SOL    HW1 9557   1.971   4.279   6.429
 2886SOL    HW2 9558   1.906   4.241   6.574
 2887SOL     OW 9559   0.283   5.940   4.435
 2887SOL    HW1 9560   0.242   6.000   4.503
 2887SOL    HW2 9561   0.223   5.932   4.355
 2888SOL     OW 9562   0.246   4.984   0.075
 2888SOL    HW1 9563   0.171   4.972   0.139
 2888SOL    HW2 9564   0.316   4.914   0.092
 2889SOL     OW 9565   3.367   6.419   2.711
 2889SOL    HW1 9566   3.296   6.377   2.767
 2889SOL    HW2 9567   3.426   6.476   2.769
 2890SOL     OW 9568   1.932   5.906   0.781
 2890SOL    HW1 9569   2.025   5.909   0.744
 2890SOL    HW2 9570   1.932   5.946   0.872
 2891SOL     OW 9571   1.537   3.196   3.261
 2891SOL    HW1 9572   1.574   3.257   3.191
 2891SOL    HW2 9573   1.473   3.132   3.218
 2892SOL     OW 9574   5.728   3.262   1.337
 2892SOL    HW1 9575   5.718   3.209   1.422
 2892SOL    HW2 9576   5.744   3.199   1.261
 2893SOL     OW 9577   1.567   5.114   4.695
 2893SOL    HW1 9578   1.654   5.142   4.653
 2893SOL    HW2 9579   1.564   5.014   4.701
 2894SOL     OW 9580   1.550   3.663   1.512
 2894SOL    HW1 9581   1.621   3.677   1.443
 2894SOL    HW2 9582   1.472   3.722   1.492
 2895SOL     OW 9583   4.124   0.510   6.385
 2895SOL    HW1 9584   4.220   0.514   6.413
 2895SOL    HW2 9585   4.065   0.527   6.464
 2896SOL     OW 9586   4.309   0.506   5.499
 2896SOL    HW1 9587   4.211   0.517   5.511
 2896SOL    HW2 9588   4.342   0.433   5.558
 2897SOL     OW 9589   3.963   5.304   2.619
 2897SOL    HW1 9590   3.943   5.275   2.525
 2897SOL    HW2 9591   3.901   5.257   2.681
 2898SOL     OW 9592   5.100   3.990   4.299
 2898SOL    HW1 9593   5.059   3.912   4.253
 2898SOL    HW2 9594   5.068   4.075   4.257
 2899SOL     OW 9595   6.327   2.032   0.648
 2899SOL    HW1 9596   6.309   1.940   0.611
 2899SOL    HW2 9597   6.331   2.097   0.572
 2900SOL     OW 9598   4.073   5.052   6.643
 2900SOL    HW1 9599   3.991   5.077   6.696
 2900SOL    HW2 9600   4.068   5.094   6.552
 2901SOL     OW 9601   2.267   4.563   3.617
 2901SOL    HW1 9602   2.264   4.484   3.677
 2901SOL    HW2 9603   2.200   4.553   3.544
 2902SOL     OW 9604   6.772   5.406   3.671
 2902SOL    HW1 9605   6.865   5.390   3.705
 2902SOL    HW2 9606   6.742   5.328   3.616
 2903SOL     OW 9607   4.283   6.301   0.684
 2903SOL    HW1 9608   4.262   6.322   0.588
 2903SOL    HW2 9609   4.324   6.381   0.728
 2904SOL     OW 9610   3.304   5.264   5.178
 2904SOL    HW1 9611   3.345   5.174   5.196
 2904SOL    HW2 9612   3.301   5.279   5.079
 2905SOL     OW 9613   1.408   3.963   4.242
 2905SOL    HW1 9614   1.456   3.961   4.154
 2905SOL    HW2 9615   1.379   3.870   4.265
 2906SOL     OW 9616   5.632   5.955   2.630
 2906SOL    HW1 9617   5.652   5.885   2.698
 2906SOL    HW2 9618   5.534   5.954   2.608
 2907SOL     OW 9619   0.917   1.889   4.138
 2907SOL    HW1 9620   0.996   1.925   4.089
 2907SOL    HW2 9621   0.934   1.893   4.237
 2908SOL     OW 9622   5.267   6.367   3.413
 2908SOL    HW1 9623   5.207   6.447   3.413
 2908SOL    HW2 9624   5.292   6.345   3.507
 2909SOL     OW 9625   2.177   6.657   3.504
 2909SOL    HW1 9626   2.145   6.614   3.588
 2909SOL    HW2 9627   2.100   6.698   3.456
 2910SOL     OW 9628   6.671   0.756   3.756
 2910SOL    HW1 9629   6.647   0.813   3.678
 2910SOL    HW2 9630   6.596   0.756   3.822
 2911SOL     OW 9631   1.977   5.086   3.861
 2911SOL    HW1 9632   1.885   5.126   3.856
 2911SOL    HW2 9633   2.017   5.109   3.950
 2912SOL     OW 9634   6.492   6.034   6.702
 2912SOL    HW1 9635   6.477   5.935   6.705
 2912SOL    HW2 9636   6.406   6.080   6.681
 2913SOL     OW 9637   3.362   4.861   2.216
 2913SOL    HW1 9638   3.445   4.904   2.181
 2913SOL    HW2 9639   3.304   4.832   2.139
 2914SOL     OW 9640   5.781   5.837   0.731
 2914SOL    HW1 9641   5.702   5.847   0.670
 2914SOL    HW2 9642   5.785   5.743   0.765
 2915SOL     OW 9643   3.513   1.648   3.766
 2915SOL    HW1 9644   3.591   1.709   3.776
 2915SOL    HW2 9645   3.433   1.700   3.737
 2916SOL     OW 9646   1.514   5.272   0.366
 2916SOL    HW1 9647   1.594   5.213   0.366
 2916SOL    HW2 9648   1.524   5.343   0.297
 2917SOL     OW 9649   3.432   0.559   4.359
 2917SOL    HW1 9650   3.375   0.512   4.291
 2917SOL    HW2 9651   3.426   0.511   4.447
 2918SOL     OW 9652   5.886   3.611   6.355
 2918SOL    HW1 9653   5.821   3.684   6.375
 2918SOL    HW2 9654   5.967   3.622   6.412
 2919SOL     OW 9655   6.173   0.380   3.568
 2919SOL    HW1 9656   6.157   0.331   3.482
 2919SOL    HW2 9657   6.086   0.397   3.613
 2920SOL     OW 9658   3.533   0.260   1.582
 2920SOL    HW1 9659   3.622   0.246   1.538
 2920SOL    HW2 9660   3.515   0.358   1.589
 2921SOL     OW 9661   0.623   6.927   5.917
 2921SOL    HW1 9662   0.642   6.854   5.984
 2921SOL    HW2 9663   0.598   6.886   5.830
 2922SOL     OW 9664   4.175   6.108   1.570
 2922SOL    HW1 9665   4.162   6.093   1.668
 2922SOL    HW2 9666   4.125   6.190   1.542
 2923SOL     OW 9667   6.861   5.516   4.397
 2923SOL    HW1 9668   6.933   5.489   4.333
 2923SOL    HW2 9669   6.840   5.440   4.459
 2924SOL     OW 9670   0.580   2.249   4.371
 2924SOL    HW1 9671   0.623   2.216   4.288
 2924SOL    HW2 9672   0.539   2.172   4.421
 2925SOL     OW 9673   5.738   1.860   0.328
 2925SOL    HW1 9674   5.704   1.847   0.235
 2925SOL    HW2 9675   5.704   1.786   0.387
 2926SOL     OW 9676   6.304   1.960   6.307
 2926SOL    HW1 9677   6.239   2.036   6.318
 2926SOL    HW2 9678   6.398   1.996   6.312
 2927SOL     OW 9679   1.613   3.416   0.564
 2927SOL    HW1 9680   1.570   3.338   0.517
 2927SOL    HW2 9681   1.591   3.411   0.662
 2928SOL     OW 9682   6.273   1.168   0.042
 2928SOL    HW1 9683   6.240   1.103   6.992
 2928SOL    HW2 9684   6.216   1.250   0.041
 2929SOL     OW 9685   2.261   2.813   5.588
 2929SOL    HW1 9686   2.268   2.878   5.664
 2929SOL    HW2 9687   2.283   2.859   5.502
 2930SOL     OW 9688   5.115   6.291   5.177
 2930SOL    HW1 9689   5.116   6.390   5.185
 2930SOL    HW2 9690   5.206   6.258   5.153
 2931SOL     OW 9691   4.861   4.895   7.002
 2931SOL    HW1 9692   4.935   4.962   7.009
 2931SOL    HW2 9693   4.773   4.942   6.999
 2932SOL     OW 9694   0.175   5.860   1.749
 2932SOL    HW1 9695   0.197   5.956   1.761
 2932SOL    HW2 9696   0.192   5.833   1.654
 2933SOL     OW 9697   0.680   6.524   1.805
 2933SOL    HW1 9698   0.756   6.584   1.779
 2933SOL    HW2 9699   0.633   6.491   1.723
 2934SOL     OW 9700   5.061   2.780   0.648
 2934SOL    HW1 9701   5.058   2.825   0.559
 2934SOL    HW2 9702   4.973   2.791   0.693
 2935SOL     OW 9703   0.368   2.238   6.278
 2935SOL    HW1 9704   0.332   2.272   6.191
 2935SOL    HW2 9705   0.314   2.276   6.353
 2936SOL     OW 9706   3.929   6.482   0.416
 2936SOL    HW1 9707   3.919   6.446   0.509
 2936SOL    HW2 9708   3.858   6.442   0.357
 2937SOL     OW 9709   4.736   5.346   1.116
 2937SOL    HW1 9710   4.802   5.371   1.187
 2937SOL    HW2 9711   4.669   5.420   1.105
 2938SOL     OW 9712   0.035   4.965   0.256
 2938SOL    HW1 9713   0.038   5.054   0.302
 2938SOL    HW2 9714   0.091   4.900   0.307
 2939SOL     OW 9715   1.975   0.765   1.485
 2939SOL    HW1 9716   2.032   0.804   1.412
 2939SOL    HW2 9717   1.885   0.743   1.448
 2940SOL     OW 9718   6.327   5.465   5.139
 2940SOL    HW1 9719   6.243   5.514   5.115
 2940SOL    HW2 9720   6.311   5.366   5.134
 2941SOL     OW 9721   2.333   1.802   3.025
 2941SOL    HW1 9722   2.307   1.718   3.072
 2941SOL    HW2 9723   2.410   1.784   2.964
 2942SOL     OW 9724   3.872   2.717   0.823
 2942SOL    HW1 9725   3.793   2.710   0.762
 2942SOL    HW2 9726   3.854   2.666   0.907
 2943SOL     OW 9727   5.477   4.469   3.711
 2943SOL    HW1 9728   5.456   4.542   3.776
 2943SOL    HW2 9729   5.515   4.391   3.759
 2944SOL     OW 9730   2.681   6.404   3.970
 2944SOL    HW1 9731   2.759   6.443   3.921
 2944SOL    HW2 9732   2.609   6.381   3.904
 2945SOL     OW 9733   4.678   2.546   1.826
 2945SOL    HW1 9734   4.775   2.563   1.809
 2945SOL    HW2 9735   4.631   2.633   1.842
 2946SOL     OW 9736   2.457   4.211   5.837
 2946SOL    HW1 9737   2.535   4.234   5.778
 2946SOL    HW2 9738   2.428   4.117   5.819
 2947SOL     OW 9739   0.219   5.266   0.929
 2947SOL    HW1 9740   0.233   5.311   0.841
 2947SOL    HW2 9741   0.287   5.299   0.995
 2948SOL     OW 9742   6.675   4.182   3.629
 2948SOL    HW1 9743   6.699   4.276   3.607
 2948SOL    HW2 9744   6.743   4.143   3.691
 2949SOL     OW 9745   0.244   5.396   7.005
 2949SOL    HW1 9746   0.255   5.356   0.078
 2949SOL    HW2 9747   0.332   5.431   6.974
 2950SOL     OW 9748   6.060   6.139   4.003
 2950SOL    HW1 9749   6.042   6.224   4.051
 2950SOL    HW2 9750   6.100   6.072   4.066
 2951SOL     OW 9751   5.610   1.784   2.275
 2951SOL    HW1 9752   5.517   1.760   2.249
 2951SOL    HW2 9753   5.627   1.880   2.255
 2952SOL     OW 9754   0.487   6.805   5.397
 2952SOL    HW1 9755   0.559   6.855   5.350
 2952SOL    HW2 9756   0.399   6.823   5.353
 2953SOL     OW 9757   6.760   4.183   3.242
 2953SOL    HW1 9758   6.697   4.144   3.310
 2953SOL    HW2 9759   6.843   4.213   3.288
 2954SOL     OW 9760   6.967   4.624   0.111
 2954SOL    HW1 9761   6.912   4.642   0.192
 2954SOL    HW2 9762   0.034   4.674   0.117
 2955SOL     OW 9763   0.614   4.508   1.134
 2955SOL    HW1 9764   0.671   4.494   1.054
 2955SOL    HW2 9765   0.563   4.425   1.154
 2956SOL     OW 9766   6.429   5.577   3.489
 2956SOL    HW1 9767   6.435   5.485   3.451
 2956SOL    HW2 9768   6.460   5.643   3.420
 2957SOL     OW 9769   4.667   4.428   1.561
 2957SOL    HW1 9770   4.593   4.445   1.625
 2957SOL    HW2 9771   4.635   4.366   1.489
 2958SOL     OW 9772   2.334   4.757   3.388
 2958SOL    HW1 9773   2.406   4.727   3.450
 2958SOL    HW2 9774   2.254   4.697   3.398
 2959SOL     OW 9775   5.516   2.928   2.370
 2959SOL    HW1 9776   5.551   2.890   2.284
 2959SOL    HW2 9777   5.592   2.962   2.425
 2960SOL     OW 9778   3.603   6.708   6.288
 2960SOL    HW1 9779   3.625   6.677   6.381
 2960SOL    HW2 9780   3.657   6.789   6.266
 2961SOL     OW 9781   5.963   4.767   3.251
 2961SOL    HW1 9782   5.991   4.853   3.293
 2961SOL    HW2 9783   5.991   4.691   3.309
 2962SOL     OW 9784   4.859   6.201   3.549
 2962SOL    HW1 9785   4.837   6.193   3.646
 2962SOL    HW2 9786   4.942   6.149   3.530
 2963SOL     OW 9787   0.640   1.327   6.906
 2963SOL    HW1 9788   0.627   1.302   6.810
 2963SOL    HW2 9789   0.674   1.421   6.912
 2964SOL     OW 9790   0.825   1.922   5.872
 2964SOL    HW1 9791   0.877   1.960   5.796
 2964SOL    HW2 9792   0.730   1.908   5.844
 2965SOL     OW 9793   0.595   1.098   4.440
 2965SOL    HW1 9794   0.588   1.067   4.535
 2965SOL    HW2 9795   0.579   1.021   4.378
 2966SOL     OW 9796   4.897   5.596   3.621
 2966SOL    HW1 9797   4.829   5.551   3.678
 2966SOL    HW2 9798   4.890   5.695   3.633
 2967SOL     OW 9799   6.386   0.812   5.406
 2967SOL    HW1 9800   6.367   0.723   5.447
 2967SOL    HW2 9801   6.333   0.882   5.454
 2968SOL     OW 9802   0.960   2.645   0.810
 2968SOL    HW1 9803   0.886   2.614   0.870
 2968SOL    HW2 9804   1.041   2.588   0.826
 2969SOL     OW 9805   4.578   2.580   4.366
 2969SOL    HW1 9806   4.602   2.628   4.450
 2969SOL    HW2 9807   4.496   2.525   4.381
 2970SOL     OW 9808   2.559   3.041   5.443
 2970SOL    HW1 9809   2.580   2.946   5.466
 2970SOL    HW2 9810   2.542   3.048   5.345
 2971SOL     OW 9811   5.130   4.007   0.527
 2971SOL    HW1 9812   5.150   3.947   0.449
 2971SOL    HW2 9813   5.073   4.083   0.496
 2972SOL     OW 9814   5.780   5.061   6.239
 2972SOL    HW1 9815   5.741   4.969   6.235
 2972SOL    HW2 9816   5.719   5.121   6.290
 2973SOL     OW 9817   4.736   6.675   2.180
 2973SOL    HW1 9818   4.775   6.600   2.234
 2973SOL    HW2 9819   4.670   6.638   2.114
 2974SOL     OW 9820   6.468   4.368   3.415
 2974SOL    HW1 9821   6.466   4.273   3.384
 2974SOL    HW2 9822   6.552   4.412   3.382
 2975SOL     OW 9823   5.350   4.665   4.170
 2975SOL    HW1 9824   5.251   4.657   4.161
 2975SOL    HW2 9825   5.386   4.583   4.214
 2976SOL     OW 9826   5.344   1.832   2.409
 2976SOL    HW1 9827   5.385   1.889   2.337
 2976SOL    HW2 9828   5.300   1.891   2.477
 2977SOL     OW 9829   0.368   0.791   2.470
 2977SOL    HW1 9830   0.355   0.833   2.381
 2977SOL    HW2 9831   0.297   0.722   2.486
 2978SOL     OW 9832   3.838   4.396   7.000
 2978SOL    HW1 9833   3.839   4.299   6.977
 2978SOL    HW2 9834   3.900   4.445   6.939
 2979SOL     OW 9835   3.546   1.490   3.983
 2979SOL    HW1 9836   3.539   1.544   3.899
 2979SOL    HW2 9837   3.612   1.534   4.045
 2980SOL     OW 9838   2.329   5.448   5.944
 2980SOL    HW1 9839   2.391   5.386   5.993
 2980SOL    HW2 9840   2.246   5.398   5.918
 2981SOL     OW 9841   2.178   0.870   0.330
 2981SOL    HW1 9842   2.113   0.848   0.257
 2981SOL    HW2 9843   2.132   0.921   0.402
 2982SOL     OW 9844   2.259   6.259   1.567
 2982SOL    HW1 9845   2.333   6.317   1.600
 2982SOL    HW2 9846   2.222   6.206   1.642
 2983SOL     OW 9847   6.625   2.373   1.513
 2983SOL    HW1 9848   6.532   2.372   1.478
 2983SOL    HW2 9849   6.652   2.467   1.533
 2984SOL     OW 9850   5.409   5.764   5.886
 2984SOL    HW1 9851   5.444   5.824   5.814
 2984SOL    HW2 9852   5.457   5.676   5.881
 2985SOL     OW 9853   1.701   1.895   4.634
 2985SOL    HW1 9854   1.714   1.957   4.557
 2985SOL    HW2 9855   1.633   1.825   4.609
 2986SOL     OW 9856   3.678   3.950   2.559
 2986SOL    HW1 9857   3.622   3.870   2.539
 2986SOL    HW2 9858   3.706   3.948   2.655
 2987SOL     OW 9859   1.675   1.493   4.383
 2987SOL    HW1 9860   1.642   1.407   4.344
 2987SOL    HW2 9861   1.684   1.561   4.310
 2988SOL     OW 9862   1.532   6.807   1.987
 2988SOL    HW1 9863   1.447   6.833   1.940
 2988SOL    HW2 9864   1.604   6.790   1.920
 2989SOL     OW 9865   5.216   4.065   5.561
 2989SOL    HW1 9866   5.159   4.120   5.499
 2989SOL    HW2 9867   5.289   4.021   5.509
 2990SOL     OW 9868   4.649   2.088   4.110
 2990SOL    HW1 9869   4.575   2.142   4.150
 2990SOL    HW2 9870   4.687   2.137   4.032
 2991SOL     OW 9871   6.090   3.026   6.077
 2991SOL    HW1 9872   6.041   2.955   6.026
 2991SOL    HW2 9873   6.025   3.094   6.110
 2992SOL     OW 9874   1.963   4.790   4.923
 2992SOL    HW1 9875   1.903   4.794   5.003
 2992SOL    HW2 9876   2.045   4.737   4.946
 2993SOL     OW 9877   0.477   4.965   0.923
 2993SOL    HW1 9878   0.563   5.007   0.894
 2993SOL    HW2 9879   0.457   4.993   1.017
 2994SOL     OW 9880   3.726   5.922   0.486
 2994SOL    HW1 9881   3.660   5.867   0.434
 2994SOL    HW2 9882   3.818   5.902   0.453
 2995SOL     OW 9883   3.982   0.854   0.155
 2995SOL    HW1 9884   3.926   0.906   0.220
 2995SOL    HW2 9885   4.076   0.850   0.189
 2996SOL     OW 9886   0.918   2.216   4.874
 2996SOL    HW1 9887   0.879   2.308   4.878
 2996SOL    HW2 9888   0.943   2.194   4.780
 2997SOL     OW 9889   5.340   0.503   3.228
 2997SOL    HW1 9890   5.424   0.454   3.249
 2997SOL    HW2 9891   5.334   0.586   3.285
 2998SOL     OW 9892   4.582   6.266   3.550
 2998SOL    HW1 9893   4.673   6.235   3.523
 2998SOL    HW2 9894   4.515   6.236   3.481
 2999SOL     OW 9895   2.606   5.320   5.779
 2999SOL    HW1 9896   2.532   5.260   5.811
 2999SOL    HW2 9897   2.694   5.272   5.788
 3000SOL     OW 9898   2.546   3.950   6.579
 3000SOL    HW1 9899   2.595   3.864   6.592
 3000SOL    HW2 9900   2.546   3.974   6.482
 3001SOL     OW 9901   6.252   1.866   0.262
 3001SOL    HW1 9902   6.262   1.778   0.215
 3001SOL    HW2 9903   6.341   1.898   0.293
 3002SOL     OW 9904   3.399   1.769   0.332
 3002SOL    HW1 9905   3.414   1.867   0.320
 3002SOL    HW2 9906   3.488   1.722   0.336
 3003SOL     OW 9907   0.796   6.687   1.237
 3003SOL    HW1 9908   0.757   6.687   1.145
 3003SOL    HW2 9909   0.886   6.730   1.235
 3004SOL     OW 9910   1.337   4.606   2.805
 3004SOL    HW1 9911   1.257   4.576   2.752
 3004SOL    HW2 9912   1.421   4.578   2.758
 3005SOL     OW 9913   1.413   3.117   6.619
 3005SOL    HW1 9914   1.347   3.090   6.549
 3005SOL    HW2 9915   1.497   3.148   6.575
 3006SOL     OW 9916   5.377   1.517   5.122
 3006SOL    HW1 9917   5.432   1.596   5.150
 3006SOL    HW2 9918   5.360   1.520   5.024
 3007SOL     OW 9919   4.710   4.700   0.522
 3007SOL    HW1 9920   4.633   4.764   0.521
 3007SOL    HW2 9921   4.681   4.613   0.481
 3008SOL     OW 9922   3.184   2.123   6.258
 3008SOL    HW1 9923   3.195   2.174   6.173
 3008SOL    HW2 9924   3.273   2.109   6.301
 3009SOL     OW 9925   6.936   3.087   2.328
 3009SOL    HW1 9926   7.001   3.044   2.266
 3009SOL    HW2 9927   6.981   3.108   2.415
 3010SOL     OW 9928   2.635   5.618   4.223
 3010SOL    HW1 9929   2.656   5.716   4.224
 3010SOL    HW2 9930   2.603   5.592   4.132
 3011SOL     OW 9931   5.759   0.741   1.911
 3011SOL    HW1 9932   5.858   0.736   1.895
 3011SOL    HW2 9933   5.717   0.796   1.839
 3012SOL     OW 9934   2.356   3.184   0.341
 3012SOL    HW1 9935   2.261   3.189   0.310
 3012SOL    HW2 9936   2.417   3.183   0.261
 3013SOL     OW 9937   6.207   4.969   3.729
 3013SOL    HW1 9938   6.303   4.994   3.712
 3013SOL    HW2 9939   6.175   4.909   3.656
 3014SOL     OW 9940   4.584   2.012   6.237
 3014SOL    HW1 9941   4.572   2.111   6.227
 3014SOL    HW2 9942   4.681   1.990   6.226
 3015SOL     OW 9943   1.846   2.003   0.474
 3015SOL    HW1 9944   1.802   2.091   0.458
 3015SOL    HW2 9945   1.937   2.003   0.434
 3016SOL     OW 9946   3.398   6.950   4.187
 3016SOL    HW1 9947   3.391   6.984   4.281
 3016SOL    HW2 9948   3.413   6.852   4.188
 3017SOL     OW 9949   5.494   5.538   2.477
 3017SOL    HW1 9950   5.447   5.486   2.406
 3017SOL    HW2 9951   5.462   5.509   2.567
 3018SOL     OW 9952   3.478   0.209   6.688
 3018SOL    HW1 9953   3.386   0.227   6.724
 3018SOL    HW2 9954   3.546   0.249   6.750
 3019SOL     OW 9955   0.996   0.135   6.648
 3019SOL    HW1 9956   0.936   0.215   6.652
 3019SOL    HW2 9957   1.008   0.107   6.553
 3020SOL     OW 9958   4.020   3.415   0.619
 3020SOL    HW1 9959   4.105   3.369   0.592
 3020SOL    HW2 9960   3.978   3.367   0.695
 3021SOL     OW 9961   2.228   0.185   4.251
 3021SOL    HW1 9962   2.184   0.116   4.309
 3021SOL    HW2 9963   2.268   0.256   4.309
 3022SOL     OW 9964   4.585   5.284   5.303
 3022SOL    HW1 9965   4.520   5.238   5.242
 3022SOL    HW2 9966   4.540   5.363   5.346
 3023SOL     OW 9967   4.454   6.710   3.364
 3023SOL    HW1 9968   4.474   6.628   3.417
 3023SOL    HW2 9969   4.356   6.715   3.345
 3024SOL     OW 9970   5.894   6.449   5.492
 3024SOL    HW1 9971   5.804   6.484   5.516
 3024SOL    HW2 9972   5.885   6.362   5.445
 3025SOL     OW 9973   3.781   5.983   1.872
 3025SOL    HW1 9974   3.821   6.028   1.951
 3025SOL    HW2 9975   3.702   5.928   1.900
 3026SOL     OW 9976   0.509   1.286   5.972
 3026SOL    HW1 9977   0.484   1.383   5.982
 3026SOL    HW2 9978   0.562   1.257   6.051
 3027SOL     OW 9979   3.871   1.638   1.736
 3027SOL    HW1 9980   3.965   1.660   1.761
 3027SOL    HW2 9981   3.853   1.671   1.643
 3028SOL     OW 9982   1.294   4.465   5.961
 3028SOL    HW1 9983   1.312   4.513   6.047
 3028SOL    HW2 9984   1.315   4.368   5.972
 3029SOL     OW 9985   1.078   2.945   3.987
 3029SOL    HW1 9986   1.057   2.857   4.030
 3029SOL    HW2 9987   1.177   2.955   3.978
 3030SOL     OW 9988   1.404   4.119   1.036
 3030SOL    HW1 9989   1.503   4.136   1.035
 3030SOL    HW2 9990   1.387   4.021   1.027
 3031SOL     OW 9991   0.258   4.498   1.036
 3031SOL    HW1 9992   0.299   4.448   0.959
 3031SOL    HW2 9993   0.184   4.444   1.075
 3032SOL     OW 9994   1.915   6.642   1.165
 3032SOL    HW1 9995   1.983   6.597   1.107
 3032SOL    HW2 9996   1.960   6.706   1.227
 3033SOL     OW 9997   6.315   1.171   2.589
 3033SOL    HW1 9998   6.392   1.221   2.549
 3033SOL    HW2 9999   6.295   1.090   2.533
 3034SOL     OW10000   0.287   6.344   3.272
 3034SOL    HW110001   0.221   6.409   3.236
 3034SOL    HW210002   0.380   6.375   3.253
 3035SOL     OW10003   0.884   3.616   5.998
 3035SOL    HW110004   0.840   3.550   6.058
 3035SOL    HW210005   0.982   3.621   6.021
 3036SOL     OW10006   1.614   2.355   5.256
 3036SOL    HW110007   1.569   2.297   5.324
 3036SOL    HW210008   1.627   2.303   5.172
 3037SOL     OW10009   6.473   4.884   5.565
 3037SOL    HW110010   6.419   4.968   5.577
 3037SOL    HW210011   6.444   4.816   5.632
 3038SOL     OW10012   4.769   4.114   5.892
 3038SOL    HW110013   4.675   4.143   5.910
 3038SOL    HW210014   4.819   4.187   5.846
 3039SOL     OW10015   7.001   2.964   0.176
 3039SOL    HW110016   6.990   3.051   0.127
 3039SOL    HW210017   6.958   2.971   0.266
 3040SOL     OW10018   3.294   4.725   5.582
 3040SOL    HW110019   3.236   4.754   5.659
 3040SOL    HW210020   3.349   4.646   5.609
 3041SOL     OW10021   0.945   4.878   6.016
 3041SOL    HW110022   1.032   4.909   6.053
 3041SOL    HW210023   0.890   4.958   5.991
 3042SOL     OW10024   5.986   6.451   2.830
 3042SOL    HW110025   5.906   6.466   2.888
 3042SOL    HW210026   6.018   6.538   2.795
 3043SOL     OW10027   3.231   3.836   1.522
 3043SOL    HW110028   3.190   3.926   1.503
 3043SOL    HW210029   3.171   3.784   1.582
 3044SOL     OW10030   3.138   5.238   5.579
 3044SOL    HW110031   3.206   5.170   5.608
 3044SOL    HW210032   3.118   5.225   5.482
 3045SOL     OW10033   5.033   6.624   3.093
 3045SOL    HW110034   5.053   6.708   3.041
 3045SOL    HW210035   5.028   6.547   3.030
 3046SOL     OW10036   3.268   0.126   6.876
 3046SOL    HW110037   3.256   0.109   6.974
 3046SOL    HW210038   3.210   0.064   6.824
 3047SOL     OW10039   6.080   0.230   1.144
 3047SOL    HW110040   6.083   0.251   1.242
 3047SOL    HW210041   6.134   0.297   1.094
 3048SOL     OW10042   4.814   1.838   0.836
 3048SOL    HW110043   4.755   1.762   0.865
 3048SOL    HW210044   4.828   1.900   0.913
 3049SOL     OW10045   1.576   0.614   3.618
 3049SOL    HW110046   1.532   0.703   3.625
 3049SOL    HW210047   1.663   0.623   3.570
 3050SOL     OW10048   3.088   1.985   1.306
 3050SOL    HW110049   3.042   2.073   1.316
 3050SOL    HW210050   3.182   2.000   1.275
 3051SOL     OW10051   2.141   6.374   6.522
 3051SOL    HW110052   2.169   6.306   6.454
 3051SOL    HW210053   2.086   6.330   6.592
 3052SOL     OW10054   4.929   5.368   2.121
 3052SOL    HW110055   4.911   5.444   2.059
 3052SOL    HW210056   4.986   5.300   2.076
 3053SOL     OW10057   0.151   3.571   1.735
 3053SOL    HW110058   0.170   3.549   1.640
 3053SOL    HW210059   0.235   3.560   1.789
 3054SOL     OW10060   5.508   1.063   2.208
 3054SOL    HW110061   5.437   1.045   2.140
 3054SOL    HW210062   5.593   1.019   2.179
 3055SOL     OW10063   5.159   0.456   4.875
 3055SOL    HW110064   5.182   0.551   4.899
 3055SOL    HW210065   5.208   0.429   4.793
 3056SOL     OW10066   6.684   0.972   5.527
 3056SOL    HW110067   6.718   0.987   5.434
 3056SOL    HW210068   6.726   0.890   5.565
 3057SOL     OW10069   4.965   5.919   4.409
 3057SOL    HW110070   4.925   5.968   4.332
 3057SOL    HW210071   4.932   5.959   4.495
 3058SOL     OW10072   6.097   4.461   0.976
 3058SOL    HW110073   6.077   4.416   0.889
 3058SOL    HW210074   6.145   4.397   1.036
 3059SOL     OW10075   2.685   1.401   3.521
 3059SOL    HW110076   2.726   1.471   3.580
 3059SOL    HW210077   2.755   1.335   3.494
 3060SOL     OW10078   2.040   5.125   0.352
 3060SOL    HW110079   2.051   5.105   0.449
 3060SOL    HW210080   2.123   5.170   0.317
 3061SOL     OW10081   6.174   5.470   5.919
 3061SOL    HW110082   6.125   5.549   5.954
 3061SOL    HW210083   6.110   5.410   5.871
 3062SOL     OW10084   1.998   6.309   0.928
 3062SOL    HW110085   2.061   6.244   0.886
 3062SOL    HW210086   1.985   6.285   1.025
 3063SOL     OW10087   1.362   4.639   1.410
 3063SOL    HW110088   1.377   4.734   1.439
 3063SOL    HW210089   1.403   4.577   1.478
 3064SOL     OW10090   4.431   3.533   0.501
 3064SOL    HW110091   4.378   3.471   0.443
 3064SOL    HW210092   4.451   3.617   0.451
 3065SOL     OW10093   1.247   2.309   6.367
 3065SOL    HW110094   1.249   2.224   6.420
 3065SOL    HW210095   1.162   2.312   6.313
 3066SOL     OW10096   5.399   5.457   6.948
 3066SOL    HW110097   5.366   5.492   0.017
 3066SOL    HW210098   5.497   5.442   6.954
 3067SOL     OW10099   2.849   0.909   0.139
 3067SOL    HW110100   2.786   0.936   0.066
 3067SOL    HW210101   2.818   0.823   0.180
 3068SOL     OW10102   6.664   6.783   1.496
 3068SOL    HW110103   6.683   6.836   1.413
 3068SOL    HW210104   6.744   6.727   1.519
 3069SOL     OW10105   6.345   6.515   3.190
 3069SOL    HW110106   6.257   6.558   3.170
 3069SOL    HW210107   6.418   6.583   3.179
 3070SOL     OW10108   1.900   0.714   6.923
 3070SOL    HW110109   1.949   0.732   7.008
 3070SOL    HW210110   1.875   0.801   6.880
 3071SOL     OW10111   6.302   5.837   3.858
 3071SOL    HW110112   6.371   5.890   3.809
 3071SOL    HW210113   6.347   5.775   3.922
 3072SOL     OW10114   2.310   5.669   6.339
 3072SOL    HW110115   2.390   5.656   6.279
 3072SOL    HW210116   2.227   5.659   6.285
 3073SOL     OW10117   6.990   4.457   2.438
 3073SOL    HW110118   6.901   4.460   2.392
 3073SOL    HW210119   6.999   4.536   2.498
 3074SOL     OW10120   0.341   4.310   0.830
 3074SOL    HW110121   0.439   4.291   0.818
 3074SOL    HW210122   0.289   4.225   0.821
 3075SOL     OW10123   3.072   5.424   3.627
 3075SOL    HW110124   3.010   5.455   3.555
 3075SOL    HW210125   3.130   5.350   3.593
 3076SOL     OW10126   6.936   1.608   4.267
 3076SOL    HW110127   6.987   1.526   4.240
 3076SOL    HW210128   6.970   1.686   4.215
 3077SOL     OW10129   5.958   4.014   2.037
 3077SOL    HW110130   5.876   4.037   2.090
 3077SOL    HW210131   5.961   4.070   1.954
 3078SOL     OW10132   6.478   3.216   2.454
 3078SOL    HW110133   6.524   3.299   2.421
 3078SOL    HW210134   6.398   3.242   2.510
 3079SOL     OW10135   3.364   2.063   3.164
 3079SOL    HW110136   3.301   1.987   3.153
 3079SOL    HW210137   3.412   2.079   3.077
 3080SOL     OW10138   5.345   3.994   2.092
 3080SOL    HW110139   5.389   4.008   2.003
 3080SOL    HW210140   5.360   4.075   2.149
 3081SOL     OW10141   0.200   4.603   5.638
 3081SOL    HW110142   0.222   4.509   5.663
 3081SOL    HW210143   0.176   4.607   5.541
 3082SOL     OW10144   1.606   5.578   4.081
 3082SOL    HW110145   1.528   5.538   4.033
 3082SOL    HW210146   1.582   5.668   4.116
 3083SOL     OW10147   3.416   6.195   3.022
 3083SOL    HW110148   3.387   6.147   3.105
 3083SOL    HW210149   3.343   6.255   2.991
 3084SOL     OW10150   6.665   4.706   3.159
 3084SOL    HW110151   6.701   4.784   3.108
 3084SOL    HW210152   6.647   4.630   3.097
 3085SOL     OW10153   5.789   4.524   0.750
 3085SOL    HW110154   5.844   4.554   0.672
 3085SOL    HW210155   5.815   4.431   0.776
 3086SOL     OW10156   4.890   1.064   6.565
 3086SOL    HW110157   4.828   0.993   6.597
 3086SOL    HW210158   4.947   1.028   6.491
 3087SOL     OW10159   3.351   6.053   3.240
 3087SOL    HW110160   3.259   6.028   3.270
 3087SOL    HW210161   3.417   6.028   3.311
 3088SOL     OW10162   1.786   3.318   5.299
 3088SOL    HW110163   1.811   3.368   5.382
 3088SOL    HW210164   1.805   3.375   5.219
 3089SOL     OW10165   3.987   2.192   4.574
 3089SOL    HW110166   4.059   2.138   4.618
 3089SOL    HW210167   3.959   2.265   4.636
 3090SOL     OW10168   2.160   0.793   2.240
 3090SOL    HW110169   2.203   0.704   2.225
 3090SOL    HW210170   2.148   0.841   2.153
 3091SOL     OW10171   1.178   1.274   0.597
 3091SOL    HW110172   1.115   1.346   0.626
 3091SOL    HW210173   1.131   1.186   0.601
 3092SOL     OW10174   5.261   0.074   0.731
 3092SOL    HW110175   5.265   7.004   0.777
 3092SOL    HW210176   5.196   0.133   0.778
 3093SOL     OW10177   5.492   6.102   6.427
 3093SOL    HW110178   5.402   6.143   6.441
 3093SOL    HW210179   5.561   6.174   6.420
 3094SOL     OW10180   2.577   0.255   4.177
 3094SOL    HW110181   2.521   0.334   4.203
 3094SOL    HW210182   2.518   0.175   4.167
 3095SOL     OW10183   2.511   3.941   5.792
 3095SOL    HW110184   2.477   3.847   5.785
 3095SOL    HW210185   2.611   3.941   5.797
 3096SOL     OW10186   1.313   4.986   5.470
 3096SOL    HW110187   1.235   5.021   5.522
 3096SOL    HW210188   1.284   4.910   5.412
 3097SOL     OW10189   5.349   3.400   0.003
 3097SOL    HW110190   5.316   3.383   6.929
 3097SOL    HW210191   5.272   3.403   0.066
 3098SOL     OW10192   1.732   3.540   1.670
 3098SOL    HW110193   1.812   3.545   1.609
 3098SOL    HW210194   1.654   3.585   1.626
 3099SOL     OW10195   1.071   6.362   3.897
 3099SOL    HW110196   1.134   6.426   3.941
 3099SOL    HW210197   1.088   6.269   3.930
 3100SOL     OW10198   6.517   6.318   3.375
 3100SOL    HW110199   6.460   6.344   3.297
 3100SOL    HW210200   6.609   6.295   3.343
 3101SOL     OW10201   4.918   5.593   6.361
 3101SOL    HW110202   4.917   5.495   6.343
 3101SOL    HW210203   5.002   5.633   6.323
 3102SOL     OW10204   6.369   0.002   1.541
 3102SOL    HW110205   6.389   6.934   1.496
 3102SOL    HW210206   6.371   0.076   1.473
 3103SOL     OW10207   4.395   0.965   1.252
 3103SOL    HW110208   4.448   0.969   1.337
 3103SOL    HW210209   4.302   0.935   1.272
 3104SOL     OW10210   3.568   0.621   5.829
 3104SOL    HW110211   3.659   0.651   5.859
 3104SOL    HW210212   3.519   0.580   5.906
 3105SOL     OW10213   4.583   3.723   1.606
 3105SOL    HW110214   4.613   3.708   1.511
 3105SOL    HW210215   4.628   3.805   1.642
 3106SOL     OW10216   5.485   6.393   5.416
 3106SOL    HW110217   5.561   6.403   5.351
 3106SOL    HW210218   5.446   6.483   5.435
 3107SOL     OW10219   3.815   1.042   4.629
 3107SOL    HW110220   3.854   0.987   4.556
 3107SOL    HW210221   3.887   1.094   4.674
 3108SOL     OW10222   1.887   5.205   4.890
 3108SOL    HW110223   1.881   5.304   4.903
 3108SOL    HW210224   1.929   5.186   4.800
 3109SOL     OW10225   6.302   6.676   4.444
 3109SOL    HW110226   6.296   6.698   4.346
 3109SOL    HW210227   6.392   6.636   4.463
 3110SOL     OW10228   1.852   4.350   3.558
 3110SOL    HW110229   1.878   4.420   3.624
 3110SOL    HW210230   1.811   4.394   3.478
 3111SOL     OW10231   0.256   4.833   3.515
 3111SOL    HW110232   0.171   4.783   3.528
 3111SOL    HW210233   0.306   4.839   3.602
 3112SOL     OW10234   2.847   3.403   0.720
 3112SOL    HW110235   2.901   3.330   0.679
 3112SOL    HW210236   2.750   3.384   0.709
 3113SOL     OW10237   3.122   6.067   2.768
 3113SOL    HW110238   3.192   6.062   2.697
 3113SOL    HW210239   3.037   6.101   2.728
 3114SOL     OW10240   3.908   1.600   0.217
 3114SOL    HW110241   3.853   1.523   0.185
 3114SOL    HW210242   3.975   1.625   0.147
 3115SOL     OW10243   3.993   4.671   5.511
 3115SOL    HW110244   3.893   4.672   5.521
 3115SOL    HW210245   4.025   4.576   5.511
 3116SOL     OW10246   6.873   1.624   0.090
 3116SOL    HW110247   6.842   1.571   0.011
 3116SOL    HW210248   6.824   1.711   0.093
 3117SOL     OW10249   4.250   3.414   5.491
 3117SOL    HW110250   4.183   3.370   5.431
 3117SOL    HW210251   4.327   3.447   5.436
 3118SOL     OW10252   0.867   5.894   2.023
 3118SOL    HW110253   0.904   5.986   2.017
 3118SOL    HW210254   0.903   5.838   1.948
 3119SOL     OW10255   2.387   2.435   6.263
 3119SOL    HW110256   2.444   2.353   6.266
 3119SOL    HW210257   2.308   2.419   6.204
 3120SOL     OW10258   2.878   0.642   5.828
 3120SOL    HW110259   2.966   0.688   5.828
 3120SOL    HW210260   2.887   0.554   5.875
 3121SOL     OW10261   5.981   1.890   4.809
 3121SOL    HW110262   6.037   1.839   4.873
 3121SOL    HW210263   5.997   1.855   4.716
 3122SOL     OW10264   4.782   4.882   4.940
 3122SOL    HW110265   4.791   4.880   5.039
 3122SOL    HW210266   4.720   4.955   4.913
 3123SOL     OW10267   1.918   1.419   2.732
 3123SOL    HW110268   1.969   1.475   2.798
 3123SOL    HW210269   1.825   1.402   2.767
 3124SOL     OW10270   4.567   7.001   4.130
 3124SOL    HW110271   4.654   0.013   4.167
 3124SOL    HW210272   4.529   0.053   4.070
 3125SOL     OW10273   1.549   2.926   5.338
 3125SOL    HW110274   1.539   3.017   5.299
 3125SOL    HW210275   1.460   2.881   5.343
 3126SOL     OW10276   5.273   4.590   5.578
 3126SOL    HW110277   5.367   4.576   5.549
 3126SOL    HW210278   5.211   4.544   5.513
 3127SOL     OW10279   2.022   1.859   5.964
 3127SOL    HW110280   2.088   1.909   5.909
 3127SOL    HW210281   1.950   1.823   5.905
 3128SOL     OW10282   3.341   0.870   0.335
 3128SOL    HW110283   3.360   0.796   0.400
 3128SOL    HW210284   3.392   0.854   0.251
 3129SOL     OW10285   5.168   3.628   1.179
 3129SOL    HW110286   5.078   3.590   1.201
 3129SOL    HW210287   5.237   3.556   1.183
 3130SOL     OW10288   2.129   4.698   1.563
 3130SOL    HW110289   2.159   4.793   1.557
 3130SOL    HW210290   2.204   4.638   1.535
 3131SOL     OW10291   0.620   3.759   2.436
 3131SOL    HW110292   0.582   3.729   2.348
 3131SOL    HW210293   0.589   3.697   2.508
 3132SOL     OW10294   5.109   5.311   6.974
 3132SOL    HW110295   5.151   5.374   0.020
 3132SOL    HW210296   5.170   5.298   6.896
 3133SOL     OW10297   3.803   0.984   3.190
 3133SOL    HW110298   3.807   1.025   3.281
 3133SOL    HW210299   3.714   1.002   3.149
 3134SOL     OW10300   4.287   4.776   0.898
 3134SOL    HW110301   4.371   4.808   0.941
 3134SOL    HW210302   4.240   4.711   0.958
 3135SOL     OW10303   5.347   0.197   5.731
 3135SOL    HW110304   5.395   0.207   5.644
 3135SOL    HW210305   5.388   0.257   5.799
 3136SOL     OW10306   5.474   6.760   2.349
 3136SOL    HW110307   5.573   6.764   2.360
 3136SOL    HW210308   5.449   6.799   2.260
 3137SOL     OW10309   6.856   6.590   3.734
 3137SOL    HW110310   6.924   6.594   3.807
 3137SOL    HW210311   6.778   6.647   3.758
 3138SOL     OW10312   5.780   5.405   3.368
 3138SOL    HW110313   5.710   5.460   3.321
 3138SOL    HW210314   5.812   5.454   3.449
 3139SOL     OW10315   3.769   5.218   1.346
 3139SOL    HW110316   3.734   5.249   1.435
 3139SOL    HW210317   3.868   5.201   1.354
 3140SOL     OW10318   6.522   5.882   5.445
 3140SOL    HW110319   6.532   5.783   5.434
 3140SOL    HW210320   6.493   5.922   5.358
 3141SOL     OW10321   0.576   7.018   6.597
 3141SOL    HW110322   0.525   6.952   6.653
 3141SOL    HW210323   0.674   6.998   6.603
 3142SOL     OW10324   2.854   0.268   2.590
 3142SOL    HW110325   2.894   0.316   2.668
 3142SOL    HW210326   2.757   0.252   2.607
 3143SOL     OW10327   5.834   1.010   6.973
 3143SOL    HW110328   5.776   0.957   0.015
 3143SOL    HW210329   5.855   1.098   7.015
 3144SOL     OW10330   4.597   3.580   0.934
 3144SOL    HW110331   4.521   3.563   0.871
 3144SOL    HW210332   4.580   3.666   0.984
 3145SOL     OW10333   1.793   6.660   2.570
 3145SOL    HW110334   1.703   6.655   2.527
 3145SOL    HW210335   1.864   6.638   2.502
 3146SOL     OW10336   1.231   1.192   4.681
 3146SOL    HW110337   1.143   1.157   4.712
 3146SOL    HW210338   1.279   1.235   4.758
 3147SOL     OW10339   2.835   4.937   0.263
 3147SOL    HW110340   2.920   4.967   0.220
 3147SOL    HW210341   2.831   4.837   0.265
 3148SOL     OW10342   6.884   6.766   4.273
 3148SOL    HW110343   6.881   6.666   4.268
 3148SOL    HW210344   6.979   6.796   4.280
 3149SOL     OW10345   2.865   1.133   6.665
 3149SOL    HW110346   2.918   1.157   6.746
 3149SOL    HW210347   2.774   1.175   6.671
 3150SOL     OW10348   0.297   5.906   4.778
 3150SOL    HW110349   0.352   5.828   4.808
 3150SOL    HW210350   0.210   5.874   4.742
 3151SOL     OW10351   0.250   1.287   5.652
 3151SOL    HW110352   0.203   1.207   5.689
 3151SOL    HW210353   0.264   1.276   5.554
 3152SOL     OW10354   0.566   4.228   0.463
 3152SOL    HW110355   0.644   4.213   0.403
 3152SOL    HW210356   0.533   4.141   0.499
 3153SOL     OW10357   6.202   5.729   0.478
 3153SOL    HW110358   6.286   5.761   0.520
 3153SOL    HW210359   6.161   5.658   0.534
 3154SOL     OW10360   6.733   1.463   0.478
 3154SOL    HW110361   6.703   1.374   0.443
 3154SOL    HW210362   6.814   1.493   0.427
 3155SOL     OW10363   6.349   5.033   0.151
 3155SOL    HW110364   6.431   5.037   0.208
 3155SOL    HW210365   6.367   5.076   0.063
 3156SOL     OW10366   3.442   3.825   1.899
 3156SOL    HW110367   3.474   3.806   1.992
 3156SOL    HW210368   3.459   3.921   1.877
 3157SOL     OW10369   2.073   1.722   5.519
 3157SOL    HW110370   2.109   1.682   5.435
 3157SOL    HW210371   2.145   1.728   5.588
 3158SOL     OW10372   2.423   1.125   4.181
 3158SOL    HW110373   2.484   1.120   4.260
 3158SOL    HW210374   2.349   1.058   4.191
 3159SOL     OW10375   5.905   0.011   6.346
 3159SOL    HW110376   5.882   6.941   6.386
 3159SOL    HW210377   5.897   0.006   6.246
 3160SOL     OW10378   1.761   5.878   5.903
 3160SOL    HW110379   1.798   5.953   5.958
 3160SOL    HW210380   1.832   5.846   5.840
 3161SOL     OW10381   2.307   2.232   2.381
 3161SOL    HW110382   2.388   2.180   2.354
 3161SOL    HW210383   2.288   2.302   2.312
 3162SOL     OW10384   0.947   5.791   1.753
 3162SOL    HW110385   0.907   5.704   1.725
 3162SOL    HW210386   1.012   5.822   1.683
 3163SOL     OW10387   4.151   3.902   6.476
 3163SOL    HW110388   4.172   3.904   6.574
 3163SOL    HW210389   4.133   3.808   6.448
 3164SOL     OW10390   3.483   5.828   1.525
 3164SOL    HW110391   3.426   5.775   1.463
 3164SOL    HW210392   3.441   5.830   1.615
 3165SOL     OW10393   2.116   5.515   1.416
 3165SOL    HW110394   2.022   5.504   1.446
 3165SOL    HW210395   2.121   5.504   1.316
 3166SOL     OW10396   4.327   2.127   3.467
 3166SOL    HW110397   4.330   2.198   3.538
 3166SOL    HW210398   4.420   2.100   3.443
 3167SOL     OW10399   5.381   4.268   0.914
 3167SOL    HW110400   5.451   4.254   0.983
 3167SOL    HW210401   5.404   4.349   0.859
 3168SOL     OW10402   5.283   2.946   6.954
 3168SOL    HW110403   5.377   2.941   6.922
 3168SOL    HW210404   5.266   3.036   6.995
 3169SOL     OW10405   2.254   4.225   3.842
 3169SOL    HW110406   2.278   4.226   3.745
 3169SOL    HW210407   2.160   4.193   3.853
 3170SOL     OW10408   4.028   5.878   2.117
 3170SOL    HW110409   4.075   5.836   2.040
 3170SOL    HW210410   4.039   5.821   2.198
 3171SOL     OW10411   6.813   1.949   2.081
 3171SOL    HW110412   6.839   1.928   2.175
 3171SOL    HW210413   6.752   2.027   2.079
 3172SOL     OW10414   7.008   5.546   6.597
 3172SOL    HW110415   0.030   5.468   6.643
 3172SOL    HW210416   6.974   5.611   6.666
 3173SOL     OW10417   3.213   2.288   6.794
 3173SOL    HW110418   3.196   2.193   6.819
 3173SOL    HW210419   3.310   2.309   6.805
 3174SOL     OW10420   2.933   2.647   6.624
 3174SOL    HW110421   2.994   2.612   6.553
 3174SOL    HW210422   2.846   2.598   6.622
 3175SOL     OW10423   5.473   1.663   1.620
 3175SOL    HW110424   5.453   1.760   1.610
 3175SOL    HW210425   5.553   1.652   1.679
 3176SOL     OW10426   0.962   4.023   5.280
 3176SOL    HW110427   1.042   4.041   5.337
 3176SOL    HW210428   0.983   4.047   5.185
 3177SOL     OW10429   5.303   4.227   4.367
 3177SOL    HW110430   5.311   4.326   4.351
 3177SOL    HW210431   5.209   4.198   4.346
 3178SOL     OW10432   6.282   2.437   0.305
 3178SOL    HW110433   6.323   2.384   0.379
 3178SOL    HW210434   6.233   2.376   0.243
 3179SOL     OW10435   1.285   2.337   2.149
 3179SOL    HW110436   1.306   2.389   2.066
 3179SOL    HW210437   1.369   2.294   2.183
 3180SOL     OW10438   5.744   0.068   0.566
 3180SOL    HW110439   5.753   0.045   0.469
 3180SOL    HW210440   5.733   7.003   0.619
 3181SOL     OW10441   6.367   2.012   3.604
 3181SOL    HW110442   6.418   2.053   3.529
 3181SOL    HW210443   6.311   1.937   3.570
 3182SOL     OW10444   2.524   0.207   6.854
 3182SOL    HW110445   2.439   0.252   6.824
 3182SOL    HW210446   2.512   0.174   6.948
 3183SOL     OW10447   4.546   4.419   2.188
 3183SOL    HW110448   4.522   4.387   2.096
 3183SOL    HW210449   4.494   4.501   2.209
 3184SOL     OW10450   0.319   2.905   3.176
 3184SOL    HW110451   0.353   2.811   3.165
 3184SOL    HW210452   0.396   2.968   3.172
 3185SOL     OW10453   4.136   6.089   6.206
 3185SOL    HW110454   4.087   6.031   6.271
 3185SOL    HW210455   4.202   6.034   6.154
 3186SOL     OW10456   2.905   2.156   0.597
 3186SOL    HW110457   2.971   2.212   0.547
 3186SOL    HW210458   2.868   2.209   0.673
 3187SOL     OW10459   4.311   5.366   0.818
 3187SOL    HW110460   4.262   5.403   0.897
 3187SOL    HW210461   4.276   5.408   0.735
 3188SOL     OW10462   1.211   6.530   4.064
 3188SOL    HW110463   1.299   6.525   4.018
 3188SOL    HW210464   1.219   6.586   4.147
 3189SOL     OW10465   1.459   2.304   1.453
 3189SOL    HW110466   1.507   2.284   1.367
 3189SOL    HW210467   1.416   2.220   1.486
 3190SOL     OW10468   6.899   5.394   0.511
 3190SOL    HW110469   6.927   5.466   0.574
 3190SOL    HW210470   6.802   5.375   0.522
 3191SOL     OW10471   4.807   5.461   1.720
 3191SOL    HW110472   4.756   5.452   1.806
 3191SOL    HW210473   4.745   5.454   1.643
 3192SOL     OW10474   0.857   3.923   1.657
 3192SOL    HW110475   0.879   3.991   1.726
 3192SOL    HW210476   0.768   3.882   1.678
 3193SOL     OW10477   4.041   1.477   5.790
 3193SOL    HW110478   3.988   1.429   5.720
 3193SOL    HW210479   4.100   1.411   5.837
 3194SOL     OW10480   1.672   2.162   5.924
 3194SOL    HW110481   1.694   2.259   5.918
 3194SOL    HW210482   1.719   2.113   5.849
 3195SOL     OW10483   1.669   1.274   2.523
 3195SOL    HW110484   1.695   1.369   2.508
 3195SOL    HW210485   1.578   1.270   2.563
 3196SOL     OW10486   6.960   1.112   6.750
 3196SOL    HW110487   0.027   1.066   6.729
 3196SOL    HW210488   6.929   1.163   6.670
 3197SOL     OW10489   3.009   6.373   4.629
 3197SOL    HW110490   2.996   6.459   4.678
 3197SOL    HW210491   2.962   6.377   4.541
 3198SOL     OW10492   6.400   3.409   3.228
 3198SOL    HW110493   6.402   3.459   3.142
 3198SOL    HW210494   6.474   3.341   3.229
 3199SOL     OW10495   5.127   3.985   2.764
 3199SOL    HW110496   5.033   4.009   2.738
 3199SOL    HW210497   5.180   4.068   2.778
 3200SOL     OW10498   5.995   3.297   2.793
 3200SOL    HW110499   5.926   3.360   2.828
 3200SOL    HW210500   6.063   3.279   2.864
 3201SOL     OW10501   6.541   4.743   3.463
 3201SOL    HW110502   6.495   4.808   3.403
 3201SOL    HW210503   6.626   4.712   3.420
 3202SOL     OW10504   1.278   4.970   1.207
 3202SOL    HW110505   1.296   4.900   1.138
 3202SOL    HW210506   1.191   4.951   1.252
 3203SOL     OW10507   5.683   1.661   0.533
 3203SOL    HW110508   5.618   1.638   0.606
 3203SOL    HW210509   5.777   1.649   0.567
 3204SOL     OW10510   4.087   6.968   3.342
 3204SOL    HW110511   4.067   6.871   3.332
 3204SOL    HW210512   4.006   0.003   3.318
 3205SOL     OW10513   5.261   3.097   6.412
 3205SOL    HW110514   5.255   3.123   6.508
 3205SOL    HW210515   5.171   3.108   6.369
 3206SOL     OW10516   1.834   4.595   1.006
 3206SOL    HW110517   1.749   4.618   1.052
 3206SOL    HW210518   1.890   4.538   1.066
 3207SOL     OW10519   1.450   0.698   6.696
 3207SOL    HW110520   1.453   0.601   6.672
 3207SOL    HW210521   1.355   0.728   6.702
 3208SOL     OW10522   4.983   6.409   6.442
 3208SOL    HW110523   4.905   6.425   6.383
 3208SOL    HW210524   5.068   6.415   6.389
 3209SOL     OW10525   3.558   5.289   4.031
 3209SOL    HW110526   3.519   5.281   3.939
 3209SOL    HW210527   3.489   5.263   4.099
 3210SOL     OW10528   1.263   4.589   1.120
 3210SOL    HW110529   1.259   4.607   1.219
 3210SOL    HW210530   1.327   4.515   1.102
 3211SOL     OW10531   1.561   3.997   0.615
 3211SOL    HW110532   1.465   3.993   0.588
 3211SOL    HW210533   1.587   3.911   0.660
 3212SOL     OW10534   2.845   6.570   1.878
 3212SOL    HW110535   2.860   6.548   1.974
 3212SOL    HW210536   2.933   6.597   1.837
 3213SOL     OW10537   1.671   0.046   0.212
 3213SOL    HW110538   1.593   0.056   0.273
 3213SOL    HW210539   1.641   7.019   0.128
 3214SOL     OW10540   4.569   6.034   1.351
 3214SOL    HW110541   4.597   5.938   1.352
 3214SOL    HW210542   4.532   6.057   1.262
 3215SOL     OW10543   0.189   4.056   0.866
 3215SOL    HW110544   0.119   4.053   0.938
 3215SOL    HW210545   0.237   3.968   0.863
 3216SOL     OW10546   5.773   5.469   0.534
 3216SOL    HW110547   5.849   5.505   0.480
 3216SOL    HW210548   5.698   5.442   0.473
 3217SOL     OW10549   0.037   5.558   2.526
 3217SOL    HW110550   0.114   5.620   2.513
 3217SOL    HW210551   7.001   5.588   2.604
 3218SOL     OW10552   5.384   2.674   2.930
 3218SOL    HW110553   5.480   2.701   2.942
 3218SOL    HW210554   5.327   2.723   2.996
 3219SOL     OW10555   0.639   1.594   3.735
 3219SOL    HW110556   0.647   1.615   3.637
 3219SOL    HW210557   0.707   1.647   3.786
 3220SOL     OW10558   6.986   5.266   5.903
 3220SOL    HW110559   6.928   5.185   5.897
 3220SOL    HW210560   6.990   5.297   5.998
 3221SOL     OW10561   3.764   0.070   2.034
 3221SOL    HW110562   3.693   0.132   2.067
 3221SOL    HW210563   3.727   0.014   1.959
 3222SOL     OW10564   2.644   1.634   2.633
 3222SOL    HW110565   2.695   1.549   2.623
 3222SOL    HW210566   2.575   1.640   2.561
 3223SOL     OW10567   2.746   6.580   6.424
 3223SOL    HW110568   2.733   6.536   6.513
 3223SOL    HW210569   2.698   6.529   6.353
 3224SOL     OW10570   4.632   2.537   5.042
 3224SOL    HW110571   4.579   2.463   5.000
 3224SOL    HW210572   4.727   2.506   5.056
 3225SOL     OW10573   5.001   2.613   5.854
 3225SOL    HW110574   5.080   2.594   5.912
 3225SOL    HW210575   4.918   2.609   5.910
 3226SOL     OW10576   1.951   1.041   2.081
 3226SOL    HW110577   2.017   0.989   2.026
 3226SOL    HW210578   1.999   1.092   2.152
 3227SOL     OW10579   3.266   3.190   6.746
 3227SOL    HW110580   3.309   3.119   6.802
 3227SOL    HW210581   3.190   3.150   6.695
 3228SOL     OW10582   6.823   3.948   1.173
 3228SOL    HW110583   6.745   3.953   1.111
 3228SOL    HW210584   6.841   3.852   1.197
 3229SOL     OW10585   3.786   0.462   5.435
 3229SOL    HW110586   3.777   0.448   5.534
 3229SOL    HW210587   3.727   0.398   5.386
 3230SOL     OW10588   2.115   4.586   5.538
 3230SOL    HW110589   2.043   4.655   5.542
 3230SOL    HW210590   2.194   4.623   5.490
 3231SOL     OW10591   2.740   0.299   1.756
 3231SOL    HW110592   2.646   0.281   1.729
 3231SOL    HW210593   2.774   0.380   1.709
 3232SOL     OW10594   4.526   6.608   4.587
 3232SOL    HW110595   4.509   6.659   4.671
 3232SOL    HW210596   4.624   6.607   4.567
 3233SOL     OW10597   6.398   2.350   0.558
 3233SOL    HW110598   6.476   2.297   0.592
 3233SOL    HW210599   6.400   2.441   0.598
 3234SOL     OW10600   0.746   2.595   0.026
 3234SOL    HW110601   0.833   2.632   0.061
 3234SOL    HW210602   0.677   2.668   0.025
 3235SOL     OW10603   0.047   0.191   1.241
 3235SOL    HW110604   0.040   0.218   1.337
 3235SOL    HW210605   0.142   0.196   1.212
 3236SOL     OW10606   0.858   3.817   0.368
 3236SOL    HW110607   0.925   3.798   0.296
 3236SOL    HW210608   0.767   3.827   0.327
 3237SOL     OW10609   6.158   1.622   2.374
 3237SOL    HW110610   6.196   1.712   2.396
 3237SOL    HW210611   6.139   1.572   2.459
 3238SOL     OW10612   6.743   5.472   0.257
 3238SOL    HW110613   6.800   5.461   0.339
 3238SOL    HW210614   6.747   5.567   0.227
 3239SOL     OW10615   6.987   1.389   2.462
 3239SOL    HW110616   6.976   1.485   2.439
 3239SOL    HW210617   0.000   1.380   2.557
 3240SOL     OW10618   6.653   6.336   6.493
 3240SOL    HW110619   6.634   6.434   6.495
 3240SOL    HW210620   6.639   6.301   6.400
 3241SOL     OW10621   4.582   0.756   5.670
 3241SOL    HW110622   4.561   0.854   5.676
 3241SOL    HW210623   4.654   0.733   5.736
 3242SOL     OW10624   4.732   4.895   6.604
 3242SOL    HW110625   4.805   4.936   6.658
 3242SOL    HW210626   4.730   4.796   6.621
 3243SOL     OW10627   4.343   4.859   0.167
 3243SOL    HW110628   4.427   4.806   0.170
 3243SOL    HW210629   4.360   4.948   0.126
 3244SOL     OW10630   5.044   6.205   0.136
 3244SOL    HW110631   5.101   6.170   0.061
 3244SOL    HW210632   5.000   6.290   0.107
 3245SOL     OW10633   5.545   3.374   4.151
 3245SOL    HW110634   5.510   3.282   4.137
 3245SOL    HW210635   5.540   3.397   4.248
 3246SOL     OW10636   6.690   0.271   3.189
 3246SOL    HW110637   6.643   0.319   3.263
 3246SOL    HW210638   6.689   0.328   3.107
 3247SOL     OW10639   6.003   4.332   2.403
 3247SOL    HW110640   5.998   4.388   2.486
 3247SOL    HW210641   5.935   4.259   2.408
 3248SOL     OW10642   5.444   3.281   1.929
 3248SOL    HW110643   5.428   3.374   1.895
 3248SOL    HW210644   5.358   3.231   1.931
 3249SOL     OW10645   3.729   3.989   3.781
 3249SOL    HW110646   3.698   4.042   3.860
 3249SOL    HW210647   3.820   3.952   3.799
 3250SOL     OW10648   6.132   0.339   2.718
 3250SOL    HW110649   6.099   0.247   2.737
 3250SOL    HW210650   6.175   0.342   2.628
 3251SOL     OW10651   3.659   0.724   3.601
 3251SOL    HW110652   3.691   0.674   3.521
 3251SOL    HW210653   3.738   0.760   3.651
 3252SOL     OW10654   2.784   1.130   2.453
 3252SOL    HW110655   2.841   1.160   2.377
 3252SOL    HW210656   2.723   1.057   2.423
 3253SOL     OW10657   4.657   3.686   1.352
 3253SOL    HW110658   4.557   3.677   1.352
 3253SOL    HW210659   4.697   3.615   1.294
 3254SOL     OW10660   4.443   5.869   6.539
 3254SOL    HW110661   4.533   5.891   6.578
 3254SOL    HW210662   4.437   5.771   6.522
 3255SOL     OW10663   4.260   6.596   0.703
 3255SOL    HW110664   4.346   6.564   0.663
 3255SOL    HW210665   4.280   6.647   0.787
 3256SOL     OW10666   3.832   1.395   1.212
 3256SOL    HW110667   3.871   1.308   1.243
 3256SOL    HW210668   3.738   1.380   1.179
 3257SOL     OW10669   1.245   2.016   2.116
 3257SOL    HW110670   1.177   2.088   2.108
 3257SOL    HW210671   1.300   2.012   2.032
 3258SOL     OW10672   4.753   6.080   2.122
 3258SOL    HW110673   4.722   5.987   2.138
 3258SOL    HW210674   4.824   6.104   2.188
 3259SOL     OW10675   4.701   4.797   5.258
 3259SOL    HW110676   4.708   4.879   5.315
 3259SOL    HW210677   4.618   4.802   5.202
 3260SOL     OW10678   1.563   2.375   0.942
 3260SOL    HW110679   1.585   2.426   0.859
 3260SOL    HW210680   1.647   2.337   0.981
 3261SOL     OW10681   5.463   0.797   1.494
 3261SOL    HW110682   5.388   0.854   1.460
 3261SOL    HW210683   5.432   0.702   1.499
 3262SOL     OW10684   3.267   1.839   2.227
 3262SOL    HW110685   3.182   1.837   2.174
 3262SOL    HW210686   3.336   1.783   2.182
 3263SOL     OW10687   3.023   1.119   2.599
 3263SOL    HW110688   3.064   1.029   2.585
 3263SOL    HW210689   2.925   1.115   2.579
 3264SOL     OW10690   1.624   5.873   1.006
 3264SOL    HW110691   1.533   5.908   1.027
 3264SOL    HW210692   1.620   5.774   0.997
 3265SOL     OW10693   4.388   0.190   6.538
 3265SOL    HW110694   4.487   0.199   6.526
 3265SOL    HW210695   4.354   0.267   6.591
 3266SOL     OW10696   2.177   4.131   0.182
 3266SOL    HW110697   2.267   4.089   0.169
 3266SOL    HW210698   2.145   4.167   0.095
 3267SOL     OW10699   3.075   6.216   1.333
 3267SOL    HW110700   3.027   6.274   1.399
 3267SOL    HW210701   3.126   6.145   1.382
 3268SOL     OW10702   2.187   3.785   1.666
 3268SOL    HW110703   2.128   3.733   1.727
 3268SOL    HW210704   2.193   3.880   1.698
 3269SOL     OW10705   5.385   5.881   2.506
 3269SOL    HW110706   5.367   5.790   2.469
 3269SOL    HW210707   5.319   5.900   2.580
 3270SOL     OW10708   1.346   4.594   6.202
 3270SOL    HW110709   1.393   4.659   6.141
 3270SOL    HW210710   1.390   4.594   6.291
 3271SOL     OW10711   5.520   3.827   1.769
 3271SOL    HW110712   5.448   3.798   1.706
 3271SOL    HW210713   5.606   3.838   1.719
 3272SOL     OW10714   3.037   4.448   6.328
 3272SOL    HW110715   3.016   4.456   6.231
 3272SOL    HW210716   2.965   4.396   6.373
 3273SOL     OW10717   6.287   5.379   0.346
 3273SOL    HW110718   6.378   5.374   0.304
 3273SOL    HW210719   6.237   5.456   0.307
 3274SOL     OW10720   4.885   0.978   0.849
 3274SOL    HW110721   4.908   1.043   0.777
 3274SOL    HW210722   4.953   0.984   0.922
 3275SOL     OW10723   5.389   0.761   0.082
 3275SOL    HW110724   5.362   0.688   0.144
 3275SOL    HW210725   5.382   0.849   0.129
 3276SOL     OW10726   3.783   5.863   6.365
 3276SOL    HW110727   3.788   5.951   6.318
 3276SOL    HW210728   3.736   5.875   6.452
 3277SOL     OW10729   3.707   0.296   0.721
 3277SOL    HW110730   3.673   0.256   0.806
 3277SOL    HW210731   3.802   0.268   0.707
 3278SOL     OW10732   1.006   0.857   5.971
 3278SOL    HW110733   0.940   0.782   5.963
 3278SOL    HW210734   1.036   0.865   6.066
 3279SOL     OW10735   4.887   6.931   0.407
 3279SOL    HW110736   4.887   0.009   0.429
 3279SOL    HW210737   4.872   6.918   0.309
 3280SOL     OW10738   5.024   4.236   4.719
 3280SOL    HW110739   4.966   4.190   4.652
 3280SOL    HW210740   5.114   4.192   4.722
 3281SOL     OW10741   1.447   4.599   1.700
 3281SOL    HW110742   1.516   4.671   1.707
 3281SOL    HW210743   1.356   4.639   1.710
 3282SOL     OW10744   0.324   5.015   4.599
 3282SOL    HW110745   0.287   5.107   4.588
 3282SOL    HW210746   0.307   4.983   4.693
 3283SOL     OW10747   3.389   0.626   1.096
 3283SOL    HW110748   3.473   0.659   1.053
 3283SOL    HW210749   3.342   0.562   1.034
 3284SOL     OW10750   0.838   5.584   6.531
 3284SOL    HW110751   0.899   5.514   6.567
 3284SOL    HW210752   0.875   5.621   6.446
 3285SOL     OW10753   4.130   2.111   3.719
 3285SOL    HW110754   4.198   2.062   3.774
 3285SOL    HW210755   4.165   2.203   3.698
 3286SOL     OW10756   3.563   3.252   2.529
 3286SOL    HW110757   3.661   3.248   2.513
 3286SOL    HW210758   3.531   3.163   2.563
 3287SOL     OW10759   0.922   0.274   0.038
 3287SOL    HW110760   0.986   0.346   0.066
 3287SOL    HW210761   0.972   0.189   0.024
 3288SOL     OW10762   2.042   5.993   7.003
 3288SOL    HW110763   2.128   6.045   6.997
 3288SOL    HW210764   2.016   5.962   6.912
 3289SOL     OW10765   2.927   0.881   5.401
 3289SOL    HW110766   2.886   0.909   5.314
 3289SOL    HW210767   2.875   0.804   5.438
 3290SOL     OW10768   0.085   5.441   1.422
 3290SOL    HW110769   0.040   5.445   1.511
 3290SOL    HW210770   0.084   5.532   1.380
 3291SOL     OW10771   2.006   0.338   6.440
 3291SOL    HW110772   2.079   0.396   6.404
 3291SOL    HW210773   2.012   0.334   6.539
 3292SOL     OW10774   0.297   1.066   0.735
 3292SOL    HW110775   0.278   0.969   0.752
 3292SOL    HW210776   0.242   1.096   0.657
 3293SOL     OW10777   6.490   4.473   1.991
 3293SOL    HW110778   6.421   4.455   1.921
 3293SOL    HW210779   6.569   4.413   1.975
 3294SOL     OW10780   5.987   2.886   6.313
 3294SOL    HW110781   6.055   2.891   6.240
 3294SOL    HW210782   6.024   2.834   6.390
 3295SOL     OW10783   1.533   2.616   2.282
 3295SOL    HW110784   1.608   2.559   2.316
 3295SOL    HW210785   1.446   2.576   2.310
 3296SOL     OW10786   1.183   0.326   2.982
 3296SOL    HW110787   1.230   0.306   2.897
 3296SOL    HW210788   1.159   0.240   3.028
 3297SOL     OW10789   2.842   1.442   5.694
 3297SOL    HW110790   2.907   1.376   5.731
 3297SOL    HW210791   2.880   1.482   5.610
 3298SOL     OW10792   5.908   2.048   5.715
 3298SOL    HW110793   5.839   1.981   5.742
 3298SOL    HW210794   5.983   2.047   5.782
 3299SOL     OW10795   4.289   6.005   2.935
 3299SOL    HW110796   4.280   6.091   2.985
 3299SOL    HW210797   4.200   5.959   2.931
 3300SOL     OW10798   0.267   0.566   5.906
 3300SOL    HW110799   0.344   0.605   5.957
 3300SOL    HW210800   0.245   0.476   5.943
 3301SOL     OW10801   2.196   2.862   3.453
 3301SOL    HW110802   2.243   2.836   3.537
 3301SOL    HW210803   2.130   2.934   3.472
 3302SOL     OW10804   0.454   5.165   5.222
 3302SOL    HW110805   0.386   5.092   5.224
 3302SOL    HW210806   0.464   5.199   5.128
 3303SOL     OW10807   3.255   3.443   0.687
 3303SOL    HW110808   3.254   3.343   0.690
 3303SOL    HW210809   3.331   3.474   0.631
 3304SOL     OW10810   1.634   5.675   4.858
 3304SOL    HW110811   1.599   5.766   4.835
 3304SOL    HW210812   1.612   5.655   4.954
 3305SOL     OW10813   2.430   1.483   2.085
 3305SOL    HW110814   2.434   1.580   2.109
 3305SOL    HW210815   2.342   1.445   2.113
 3306SOL     OW10816   2.407   5.640   4.569
 3306SOL    HW110817   2.381   5.641   4.665
 3306SOL    HW210818   2.496   5.685   4.558
 3307SOL     OW10819   0.416   5.721   6.269
 3307SOL    HW110820   0.460   5.658   6.333
 3307SOL    HW210821   0.335   5.677   6.229
 3308SOL     OW10822   2.620   6.141   1.429
 3308SOL    HW110823   2.703   6.170   1.478
 3308SOL    HW210824   2.585   6.057   1.469
 3309SOL     OW10825   5.984   5.336   3.763
 3309SOL    HW110826   5.967   5.238   3.772
 3309SOL    HW210827   5.920   5.386   3.822
 3310SOL     OW10828   0.194   4.359   5.285
 3310SOL    HW110829   0.151   4.291   5.344
 3310SOL    HW210830   0.146   4.364   5.198
 3311SOL     OW10831   3.963   4.233   0.441
 3311SOL    HW110832   3.915   4.152   0.475
 3311SOL    HW210833   3.926   4.315   0.485
 3312SOL     OW10834   4.124   4.363   5.528
 3312SOL    HW110835   4.091   4.331   5.439
 3312SOL    HW210836   4.071   4.320   5.601
 3313SOL     OW10837   0.965   6.327   3.583
 3313SOL    HW110838   0.976   6.412   3.635
 3313SOL    HW210839   1.040   6.317   3.518
 3314SOL     OW10840   2.008   1.181   2.341
 3314SOL    HW110841   1.923   1.141   2.374
 3314SOL    HW210842   2.022   1.270   2.384
 3315SOL     OW10843   0.117   4.489   4.982
 3315SOL    HW110844   0.100   4.527   4.892
 3315SOL    HW210845   0.213   4.505   5.008
 3316SOL     OW10846   5.153   0.884   5.603
 3316SOL    HW110847   5.064   0.929   5.596
 3316SOL    HW210848   5.225   0.952   5.613
 3317SOL     OW10849   4.985   2.945   1.830
 3317SOL    HW110850   4.920   2.995   1.887
 3317SOL    HW210851   5.077   2.982   1.843
 3318SOL     OW10852   1.870   1.743   1.552
 3318SOL    HW110853   1.835   1.682   1.480
 3318SOL    HW210854   1.970   1.746   1.547
 3319SOL     OW10855   6.139   1.787   3.842
 3319SOL    HW110856   6.104   1.696   3.862
 3319SOL    HW210857   6.239   1.784   3.838
 3320SOL     OW10858   6.798   0.869   5.258
 3320SOL    HW110859   6.706   0.884   5.221
 3320SOL    HW210860   6.866   0.882   5.185
 3321SOL     OW10861   4.769   1.512   0.674
 3321SOL    HW110862   4.721   1.563   0.745
 3321SOL    HW210863   4.795   1.575   0.600
 3322SOL     OW10864   6.467   2.557   0.732
 3322SOL    HW110865   6.511   2.512   0.810
 3322SOL    HW210866   6.528   2.628   0.696
 3323SOL     OW10867   3.115   2.622   0.434
 3323SOL    HW110868   3.150   2.713   0.459
 3323SOL    HW210869   3.035   2.600   0.490
 3324SOL     OW10870   3.893   5.177   0.022
 3324SOL    HW110871   3.817   5.232   0.057
 3324SOL    HW210872   3.879   5.081   0.047
 3325SOL     OW10873   0.175   3.615   6.420
 3325SOL    HW110874   0.122   3.652   6.497
 3325SOL    HW210875   0.163   3.516   6.415
 3326SOL     OW10876   5.102   2.103   2.254
 3326SOL    HW110877   5.067   2.015   2.287
 3326SOL    HW210878   5.104   2.168   2.329
 3327SOL     OW10879   3.022   5.403   1.640
 3327SOL    HW110880   3.080   5.340   1.589
 3327SOL    HW210881   3.031   5.384   1.738
 3328SOL     OW10882   4.572   2.114   0.522
 3328SOL    HW110883   4.658   2.089   0.566
 3328SOL    HW210884   4.501   2.125   0.592
 3329SOL     OW10885   5.854   0.744   4.922
 3329SOL    HW110886   5.898   0.820   4.971
 3329SOL    HW210887   5.755   0.758   4.922
 3330SOL     OW10888   6.564   4.390   1.512
 3330SOL    HW110889   6.500   4.319   1.540
 3330SOL    HW210890   6.650   4.347   1.482
 3331SOL     OW10891   2.206   2.738   1.903
 3331SOL    HW110892   2.292   2.732   1.851
 3331SOL    HW210893   2.226   2.761   1.998
 3332SOL     OW10894   5.855   5.625   6.835
 3332SOL    HW110895   5.760   5.609   6.865
 3332SOL    HW210896   5.859   5.709   6.781
 3333SOL     OW10897   4.530   5.011   6.781
 3333SOL    HW110898   4.609   4.995   6.723
 3333SOL    HW210899   4.453   4.957   6.749
 3334SOL     OW10900   2.745   3.982   1.668
 3334SOL    HW110901   2.709   3.899   1.709
 3334SOL    HW210902   2.839   3.998   1.700
 3335SOL     OW10903   4.885   5.908   5.985
 3335SOL    HW110904   4.957   5.872   5.926
 3335SOL    HW210905   4.827   5.970   5.932
 3336SOL     OW10906   2.711   5.971   4.952
 3336SOL    HW110907   2.759   5.955   4.866
 3336SOL    HW210908   2.744   6.055   4.994
 3337SOL     OW10909   3.097   4.024   2.646
 3337SOL    HW110910   3.003   4.006   2.617
 3337SOL    HW210911   3.152   4.048   2.566
 3338SOL     OW10912   5.660   2.740   1.411
 3338SOL    HW110913   5.670   2.803   1.489
 3338SOL    HW210914   5.563   2.732   1.388
 3339SOL     OW10915   6.543   0.003   6.923
 3339SOL    HW110916   6.482   6.944   6.909
 3339SOL    HW210917   6.633   7.001   6.886
 3340SOL     OW10918   3.761   0.970   2.341
 3340SOL    HW110919   3.676   0.927   2.371
 3340SOL    HW210920   3.826   0.971   2.417
 3341SOL     OW10921   0.981   5.899   3.178
 3341SOL    HW110922   0.933   5.972   3.228
 3341SOL    HW210923   0.927   5.815   3.180
 3342SOL     OW10924   2.589   6.743   4.280
 3342SOL    HW110925   2.555   6.704   4.194
 3342SOL    HW210926   2.631   6.832   4.261
 3343SOL     OW10927   4.525   2.960   0.775
 3343SOL    HW110928   4.599   2.981   0.710
 3343SOL    HW210929   4.528   2.863   0.799
 3344SOL     OW10930   5.848   3.484   4.201
 3344SOL    HW110931   5.837   3.538   4.118
 3344SOL    HW210932   5.763   3.435   4.221
 3345SOL     OW10933   1.438   3.547   6.133
 3345SOL    HW110934   1.486   3.513   6.213
 3345SOL    HW210935   1.431   3.475   6.065
 3346SOL     OW10936   1.709   0.613   0.617
 3346SOL    HW110937   1.790   0.643   0.667
 3346SOL    HW210938   1.722   0.630   0.519
 3347SOL     OW10939   0.906   4.090   4.066
 3347SOL    HW110940   0.969   4.092   4.144
 3347SOL    HW210941   0.841   4.166   4.074
 3348SOL     OW10942   3.132   3.103   3.576
 3348SOL    HW110943   3.083   3.178   3.619
 3348SOL    HW210944   3.224   3.096   3.615
 3349SOL     OW10945   1.158   5.906   3.411
 3349SOL    HW110946   1.140   5.954   3.497
 3349SOL    HW210947   1.076   5.908   3.354
 3350SOL     OW10948   1.665   2.568   5.778
 3350SOL    HW110949   1.595   2.506   5.742
 3350SOL    HW210950   1.685   2.638   5.711
 3351SOL     OW10951   5.127   0.739   2.545
 3351SOL    HW110952   5.214   0.692   2.532
 3351SOL    HW210953   5.054   0.686   2.502
 3352SOL     OW10954   0.395   2.660   0.473
 3352SOL    HW110955   0.376   2.585   0.410
 3352SOL    HW210956   0.452   2.729   0.428
 3353SOL     OW10957   1.417   5.777   1.855
 3353SOL    HW110958   1.479   5.725   1.913
 3353SOL    HW210959   1.444   5.767   1.759
 3354SOL     OW10960   5.162   2.456   4.960
 3354SOL    HW110961   5.174   2.361   4.933
 3354SOL    HW210962   5.244   2.509   4.936
 3355SOL     OW10963   2.158   1.720   0.812
 3355SOL    HW110964   2.101   1.778   0.754
 3355SOL    HW210965   2.219   1.777   0.867
 3356SOL     OW10966   2.323   3.736   6.291
 3356SOL    HW110967   2.366   3.825   6.305
 3356SOL    HW210968   2.386   3.664   6.320
 3357SOL     OW10969   2.546   4.683   1.940
 3357SOL    HW110970   2.643   4.661   1.951
 3357SOL    HW210971   2.494   4.644   2.016
 3358SOL     OW10972   5.155   0.625   0.519
 3358SOL    HW110973   5.145   0.689   0.595
 3358SOL    HW210974   5.252   0.616   0.495
 3359SOL     OW10975   6.966   0.405   3.825
 3359SOL    HW110976   0.019   0.473   3.835
 3359SOL    HW210977   6.879   0.450   3.804
 3360SOL     OW10978   0.463   1.411   6.565
 3360SOL    HW110979   0.486   1.483   6.632
 3360SOL    HW210980   0.524   1.333   6.578
 3361SOL     OW10981   0.366   4.105   3.004
 3361SOL    HW110982   0.432   4.066   3.068
 3361SOL    HW210983   0.287   4.140   3.056
 3362SOL     OW10984   3.771   1.303   3.757
 3362SOL    HW110985   3.688   1.292   3.812
 3362SOL    HW210986   3.824   1.381   3.791
 3363SOL     OW10987   0.235   0.135   0.543
 3363SOL    HW110988   0.145   0.138   0.500
 3363SOL    HW210989   0.265   0.229   0.562
 3364SOL     OW10990   1.487   4.361   4.067
 3364SOL    HW110991   1.472   4.440   4.007
 3364SOL    HW210992   1.534   4.289   4.016
 3365SOL     OW10993   0.694   2.341   5.297
 3365SOL    HW110994   0.614   2.379   5.250
 3365SOL    HW210995   0.772   2.402   5.287
 3366SOL     OW10996   5.790   0.546   6.213
 3366SOL    HW110997   5.830   0.554   6.304
 3366SOL    HW210998   5.704   0.598   6.210
 3367SOL     OW10999   3.647   2.667   1.446
 3367SOL    HW111000   3.687   2.706   1.529
 3367SOL    HW211001   3.549   2.655   1.458
 3368SOL     OW11002   0.467   5.274   6.026
 3368SOL    HW111003   0.440   5.197   6.084
 3368SOL    HW211004   0.564   5.266   6.003
 3369SOL     OW11005   4.174   2.423   5.624
 3369SOL    HW111006   4.124   2.429   5.711
 3369SOL    HW211007   4.192   2.516   5.590
 3370SOL     OW11008   6.665   5.884   5.968
 3370SOL    HW111009   6.701   5.869   5.876
 3370SOL    HW211010   6.578   5.932   5.963
 3371SOL     OW11011   1.674   3.468   2.162
 3371SOL    HW111012   1.622   3.549   2.135
 3371SOL    HW211013   1.635   3.430   2.245
 3372SOL     OW11014   1.048   1.087   1.202
 3372SOL    HW111015   1.117   1.019   1.229
 3372SOL    HW211016   1.078   1.178   1.230
 3373SOL     OW11017   0.022   2.219   2.976
 3373SOL    HW111018   6.992   2.138   3.009
 3373SOL    HW211019   0.094   2.191   2.912
 3374SOL     OW11020   1.897   6.225   4.334
 3374SOL    HW111021   1.973   6.176   4.290
 3374SOL    HW211022   1.823   6.160   4.354
 3375SOL     OW11023   5.827   5.204   6.011
 3375SOL    HW111024   5.846   5.301   6.029
 3375SOL    HW211025   5.833   5.152   6.096
 3376SOL     OW11026   3.921   3.063   3.824
 3376SOL    HW111027   3.866   3.127   3.769
 3376SOL    HW211028   3.989   3.115   3.876
 3377SOL     OW11029   0.468   6.452   4.733
 3377SOL    HW111030   0.389   6.488   4.783
 3377SOL    HW211031   0.455   6.355   4.714
 3378SOL     OW11032   7.018   0.956   0.295
 3378SOL    HW111033   6.968   1.032   0.254
 3378SOL    HW211034   0.043   0.987   0.380
 3379SOL     OW11035   6.956   5.872   6.526
 3379SOL    HW111036   6.903   5.947   6.566
 3379SOL    HW211037   0.013   5.910   6.473
 3380SOL     OW11038   5.556   6.704   5.955
 3380SOL    HW111039   5.650   6.702   5.922
 3380SOL    HW211040   5.556   6.704   6.055
 3381SOL     OW11041   1.315   2.764   1.380
 3381SOL    HW111042   1.329   2.707   1.461
 3381SOL    HW211043   1.400   2.771   1.328
 3382SOL     OW11044   0.842   1.338   0.729
 3382SOL    HW111045   0.875   1.246   0.707
 3382SOL    HW211046   0.802   1.339   0.820
 3383SOL     OW11047   4.345   5.906   1.967
 3383SOL    HW111048   4.363   5.856   1.882
 3383SOL    HW211049   4.408   5.984   1.974
 3384SOL     OW11050   2.375   3.509   5.565
 3384SOL    HW111051   2.453   3.478   5.511
 3384SOL    HW211052   2.347   3.436   5.628
 3385SOL     OW11053   0.002   2.900   3.880
 3385SOL    HW111054   7.002   2.892   3.977
 3385SOL    HW211055   0.070   2.972   3.864
 3386SOL     OW11056   6.548   3.384   6.686
 3386SOL    HW111057   6.629   3.387   6.628
 3386SOL    HW211058   6.559   3.450   6.761
 3387SOL     OW11059   3.260   1.182   3.926
 3387SOL    HW111060   3.166   1.164   3.953
 3387SOL    HW211061   3.265   1.271   3.880
 3388SOL     OW11062   5.159   3.331   2.124
 3388SOL    HW111063   5.108   3.289   2.049
 3388SOL    HW211064   5.157   3.431   2.113
 3389SOL     OW11065   5.194   4.887   5.583
 3389SOL    HW111066   5.233   4.796   5.594
 3389SOL    HW211067   5.169   4.902   5.488
 3390SOL     OW11068   4.983   4.750   5.856
 3390SOL    HW111069   5.036   4.795   5.928
 3390SOL    HW211070   4.885   4.766   5.872
 3391SOL     OW11071   5.146   2.963   5.088
 3391SOL    HW111072   5.145   3.006   4.997
 3391SOL    HW211073   5.225   2.903   5.095
 3392SOL     OW11074   2.857   6.768   3.856
 3392SOL    HW111075   2.863   6.865   3.877
 3392SOL    HW211076   2.778   6.750   3.798
 3393SOL     OW11077   0.358   6.308   0.144
 3393SOL    HW111078   0.435   6.281   0.087
 3393SOL    HW211079   0.363   6.406   0.163
 3394SOL     OW11080   6.080   3.367   1.497
 3394SOL    HW111081   6.111   3.299   1.430
 3394SOL    HW211082   6.133   3.357   1.581
 3395SOL     OW11083   5.662   3.174   3.270
 3395SOL    HW111084   5.594   3.232   3.223
 3395SOL    HW211085   5.753   3.198   3.237
 3396SOL     OW11086   5.365   1.918   3.450
 3396SOL    HW111087   5.360   1.991   3.518
 3396SOL    HW211088   5.383   1.831   3.496
 3397SOL     OW11089   2.615   0.896   5.603
 3397SOL    HW111090   2.688   0.828   5.590
 3397SOL    HW211091   2.561   0.871   5.683
 3398SOL     OW11092   1.193   0.052   4.474
 3398SOL    HW111093   1.116   0.008   4.519
 3398SOL    HW211094   1.277   0.002   4.495
 3399SOL     OW11095   5.676   4.285   4.468
 3399SOL    HW111096   5.763   4.304   4.423
 3399SOL    HW211097   5.677   4.192   4.506
 3400SOL     OW11098   4.512   2.528   5.951
 3400SOL    HW111099   4.592   2.476   5.918
 3400SOL    HW211100   4.439   2.464   5.976
 3401SOL     OW11101   6.971   3.394   1.097
 3401SOL    HW111102   6.962   3.327   1.171
 3401SOL    HW211103   0.048   3.401   1.070
 3402SOL     OW11104   3.683   6.305   6.308
 3402SOL    HW111105   3.753   6.369   6.338
 3402SOL    HW211106   3.602   6.316   6.365
 3403SOL     OW11107   4.263   6.965   4.740
 3403SOL    HW111108   4.194   6.972   4.811
 3403SOL    HW211109   4.238   0.005   4.663
 3404SOL     OW11110   5.190   1.380   0.310
 3404SOL    HW111111   5.092   1.400   0.310
 3404SOL    HW211112   5.221   1.359   0.217
 3405SOL     OW11113   6.804   3.919   4.133
 3405SOL    HW111114   6.716   3.901   4.090
 3405SOL    HW211115   6.872   3.855   4.098
 3406SOL     OW11116   0.971   4.105   2.611
 3406SOL    HW111117   0.969   4.141   2.517
 3406SOL    HW211118   1.057   4.056   2.625
 3407SOL     OW11119   1.616   5.417   0.157
 3407SOL    HW111120   1.688   5.486   0.167
 3407SOL    HW211121   1.561   5.437   0.076
 3408SOL     OW11122   4.968   3.721   5.481
 3408SOL    HW111123   4.924   3.773   5.408
 3408SOL    HW211124   4.955   3.623   5.464
 3409SOL     OW11125   3.477   6.074   6.540
 3409SOL    HW111126   3.461   6.152   6.480
 3409SOL    HW211127   3.423   6.085   6.624
 3410SOL     OW11128   0.134   6.468   0.116
 3410SOL    HW111129   0.181   6.383   0.143
 3410SOL    HW211130   0.038   6.463   0.145
 3411SOL     OW11131   0.331   2.724   1.509
 3411SOL    HW111132   0.271   2.803   1.521
 3411SOL    HW211133   0.351   2.684   1.599
 3412SOL     OW11134   4.018   2.709   6.797
 3412SOL    HW111135   4.068   2.625   6.814
 3412SOL    HW211136   3.920   2.690   6.794
 3413SOL     OW11137   5.646   1.200   1.194
 3413SOL    HW111138   5.639   1.236   1.101
 3413SOL    HW211139   5.740   1.172   1.212
 3414SOL     OW11140   1.997   0.839   6.021
 3414SOL    HW111141   1.924   0.902   6.049
 3414SOL    HW211142   1.957   0.751   5.997
 3415SOL     OW11143   1.608   3.855   4.619
 3415SOL    HW111144   1.698   3.898   4.629
 3415SOL    HW211145   1.619   3.758   4.598
 3416SOL     OW11146   0.038   5.630   0.898
 3416SOL    HW111147   0.116   5.683   0.931
 3416SOL    HW211148   6.974   5.657   0.948
 3417SOL     OW11149   0.407   6.206   3.044
 3417SOL    HW111150   0.374   6.161   3.127
 3417SOL    HW211151   0.433   6.300   3.065
 3418SOL     OW11152   3.398   0.617   4.690
 3418SOL    HW111153   3.366   0.691   4.748
 3418SOL    HW211154   3.493   0.633   4.664
 3419SOL     OW11155   4.410   5.899   5.103
 3419SOL    HW111156   4.455   5.963   5.042
 3419SOL    HW211157   4.321   5.874   5.065
 3420SOL     OW11158   5.496   2.975   3.808
 3420SOL    HW111159   5.508   2.891   3.861
 3420SOL    HW211160   5.528   2.961   3.715
 3421SOL     OW11161   5.526   0.664   6.061
 3421SOL    HW111162   5.525   0.723   6.141
 3421SOL    HW211163   5.544   0.719   5.979
 3422SOL     OW11164   1.918   0.209   1.067
 3422SOL    HW111165   1.959   0.290   1.110
 3422SOL    HW211166   1.873   0.154   1.137
 3423SOL     OW11167   2.067   5.398   6.807
 3423SOL    HW111168   2.118   5.371   6.726
 3423SOL    HW211169   2.028   5.317   6.851
 3424SOL     OW11170   2.774   6.867   2.310
 3424SOL    HW111171   2.775   6.879   2.211
 3424SOL    HW211172   2.799   6.953   2.355
 3425SOL     OW11173   5.111   4.673   2.376
 3425SOL    HW111174   5.202   4.633   2.390
 3425SOL    HW211175   5.044   4.600   2.369
 3426SOL     OW11176   3.737   2.671   0.562
 3426SOL    HW111177   3.779   2.657   0.473
 3426SOL    HW211178   3.719   2.768   0.576
 3427SOL     OW11179   6.503   0.197   0.384
 3427SOL    HW111180   6.513   0.098   0.382
 3427SOL    HW211181   6.450   0.224   0.464
 3428SOL     OW11182   3.068   4.632   0.980
 3428SOL    HW111183   2.996   4.694   0.951
 3428SOL    HW211184   3.157   4.668   0.951
 3429SOL     OW11185   0.592   2.249   0.259
 3429SOL    HW111186   0.617   2.306   0.181
 3429SOL    HW211187   0.535   2.173   0.229
 3430SOL     OW11188   0.195   6.082   4.982
 3430SOL    HW111189   0.169   6.002   4.927
 3430SOL    HW211190   0.255   6.141   4.929
 3431SOL     OW11191   1.175   0.000   1.235
 3431SOL    HW111192   1.117   0.081   1.241
 3431SOL    HW211193   1.255   0.021   1.178
 3432SOL     OW11194   1.774   2.741   0.019
 3432SOL    HW111195   1.681   2.770   0.041
 3432SOL    HW211196   1.773   2.645   7.012
 3433SOL     OW11197   0.977   0.022   6.379
 3433SOL    HW111198   0.915   0.090   6.340
 3433SOL    HW211199   1.058   0.013   6.321
 3434SOL     OW11200   4.409   1.849   0.489
 3434SOL    HW111201   4.422   1.765   0.542
 3434SOL    HW211202   4.498   1.883   0.458
 3435SOL     OW11203   1.163   1.808   0.990
 3435SOL    HW111204   1.080   1.775   0.946
 3435SOL    HW211205   1.233   1.737   0.988
 3436SOL     OW11206   3.444   5.836   5.994
 3436SOL    HW111207   3.466   5.763   6.058
 3436SOL    HW211208   3.521   5.899   5.988
 3437SOL     OW11209   2.294   1.149   6.004
 3437SOL    HW111210   2.348   1.218   6.052
 3437SOL    HW211211   2.321   1.146   5.908
 3438SOL     OW11212   1.070   2.872   0.390
 3438SOL    HW111213   1.111   2.851   0.479
 3438SOL    HW211214   0.979   2.910   0.403
 3439SOL     OW11215   2.298   6.301   5.158
 3439SOL    HW111216   2.396   6.313   5.177
 3439SOL    HW211217   2.262   6.384   5.116
 3440SOL     OW11218   3.784   3.272   1.698
 3440SOL    HW111219   3.696   3.310   1.727
 3440SOL    HW211220   3.779   3.172   1.700
 3441SOL     OW11221   5.253   6.954   4.332
 3441SOL    HW111222   5.351   6.962   4.350
 3441SOL    HW211223   5.238   6.889   4.257
 3442SOL     OW11224   3.419   5.515   2.039
 3442SOL    HW111225   3.481   5.581   2.082
 3442SOL    HW211226   3.340   5.564   2.001
 3443SOL     OW11227   5.070   6.752   2.006
 3443SOL    HW111228   5.106   6.763   2.098
 3443SOL    HW211229   5.069   6.655   1.982
 3444SOL     OW11230   5.378   5.619   0.386
 3444SOL    HW111231   5.279   5.628   0.376
 3444SOL    HW211232   5.402   5.622   0.483
 3445SOL     OW11233   6.177   5.845   4.467
 3445SOL    HW111234   6.095   5.787   4.469
 3445SOL    HW211235   6.196   5.878   4.559
 3446SOL     OW11236   6.152   0.316   2.373
 3446SOL    HW111237   6.148   0.415   2.361
 3446SOL    HW211238   6.068   0.285   2.417
 3447SOL     OW11239   5.164   5.547   0.968
 3447SOL    HW111240   5.085   5.606   0.984
 3447SOL    HW211241   5.176   5.533   0.870
 3448SOL     OW11242   3.046   0.181   1.020
 3448SOL    HW111243   2.972   0.114   1.009
 3448SOL    HW211244   3.129   0.134   1.052
 3449SOL     OW11245   6.611   6.844   4.123
 3449SOL    HW111246   6.670   6.840   4.203
 3449SOL    HW211247   6.599   6.752   4.085
 3450SOL     OW11248   6.836   1.923   6.521
 3450SOL    HW111249   6.855   1.962   6.431
 3450SOL    HW211250   6.913   1.943   6.582
 3451SOL     OW11251   1.989   6.218   1.940
 3451SOL    HW111252   1.997   6.125   1.976
 3451SOL    HW211253   1.993   6.283   2.016
 3452SOL     OW11254   5.918   1.439   6.182
 3452SOL    HW111255   5.995   1.462   6.241
 3452SOL    HW211256   5.891   1.519   6.129
 3453SOL     OW11257   6.752   5.831   5.707
 3453SOL    HW111258   6.687   5.757   5.718
 3453SOL    HW211259   6.845   5.794   5.702
 3454SOL     OW11260   1.257   2.062   6.500
 3454SOL    HW111261   1.322   2.010   6.444
 3454SOL    HW211262   1.288   2.061   6.595
 3455SOL     OW11263   2.433   2.308   4.545
 3455SOL    HW111264   2.362   2.278   4.610
 3455SOL    HW211265   2.515   2.335   4.596
 3456SOL     OW11266   6.000   5.521   2.740
 3456SOL    HW111267   6.022   5.531   2.643
 3456SOL    HW211268   6.085   5.511   2.792
 3457SOL     OW11269   3.273   5.647   3.631
 3457SOL    HW111270   3.306   5.656   3.536
 3457SOL    HW211271   3.176   5.623   3.630
 3458SOL     OW11272   4.858   0.574   0.848
 3458SOL    HW111273   4.860   0.533   0.940
 3458SOL    HW211274   4.848   0.501   0.780
 3459SOL     OW11275   5.616   4.231   2.803
 3459SOL    HW111276   5.664   4.143   2.798
 3459SOL    HW211277   5.517   4.216   2.801
 3460SOL     OW11278   2.648   3.145   0.239
 3460SOL    HW111279   2.661   3.224   0.178
 3460SOL    HW211280   2.683   3.063   0.194
 3461SOL     OW11281   4.795   6.998   5.109
 3461SOL    HW111282   4.848   0.047   5.160
 3461SOL    HW211283   4.701   6.998   5.142
 3462SOL     OW11284   0.580   3.650   2.187
 3462SOL    HW111285   0.580   3.558   2.224
 3462SOL    HW211286   0.630   3.651   2.100
 3463SOL     OW11287   1.063   3.499   3.491
 3463SOL    HW111288   0.968   3.479   3.515
 3463SOL    HW211289   1.076   3.598   3.483
 3464SOL     OW11290   6.918   3.118   6.816
 3464SOL    HW111291   6.909   3.146   6.912
 3464SOL    HW211292   6.974   3.036   6.810
 3465SOL     OW11293   1.588   2.309   2.262
 3465SOL    HW111294   1.542   2.371   2.325
 3465SOL    HW211295   1.670   2.272   2.307
 3466SOL     OW11296   6.766   4.706   6.602
 3466SOL    HW111297   6.827   4.726   6.678
 3466SOL    HW211298   6.788   4.766   6.525
 3467SOL     OW11299   2.107   2.624   0.897
 3467SOL    HW111300   2.110   2.542   0.840
 3467SOL    HW211301   2.052   2.694   0.852
 3468SOL     OW11302   5.809   0.253   2.594
 3468SOL    HW111303   5.855   0.170   2.565
 3468SOL    HW211304   5.714   0.251   2.566
 3469SOL     OW11305   4.688   6.795   3.745
 3469SOL    HW111306   4.646   6.847   3.820
 3469SOL    HW211307   4.785   6.781   3.765
 3470SOL     OW11308   6.730   2.469   1.835
 3470SOL    HW111309   6.689   2.511   1.916
 3470SOL    HW211310   6.739   2.371   1.849
 3471SOL     OW11311   4.980   4.776   4.524
 3471SOL    HW111312   4.884   4.802   4.516
 3471SOL    HW211313   5.029   4.804   4.442
 3472SOL     OW11314   3.157   1.311   3.063
 3472SOL    HW111315   3.174   1.397   3.112
 3472SOL    HW211316   3.114   1.331   2.975
 3473SOL     OW11317   7.000   2.711   1.388
 3473SOL    HW111318   0.040   2.742   1.313
 3473SOL    HW211319   0.036   2.656   1.452
 3474SOL     OW11320   0.944   4.622   2.953
 3474SOL    HW111321   0.974   4.677   2.875
 3474SOL    HW211322   0.919   4.530   2.922
 3475SOL     OW11323   1.404   4.233   4.285
 3475SOL    HW111324   1.376   4.146   4.244
 3475SOL    HW211325   1.439   4.293   4.213
 3476SOL     OW11326   2.161   1.535   2.827
 3476SOL    HW111327   2.087   1.602   2.832
 3476SOL    HW211328   2.189   1.511   2.920
 3477SOL     OW11329   1.685   5.488   0.693
 3477SOL    HW111330   1.778   5.491   0.729
 3477SOL    HW211331   1.635   5.412   0.736
 3478SOL     OW11332   2.449   5.406   5.169
 3478SOL    HW111333   2.484   5.325   5.120
 3478SOL    HW211334   2.511   5.428   5.244
 3479SOL     OW11335   1.149   0.957   3.283
 3479SOL    HW111336   1.218   0.909   3.230
 3479SOL    HW211337   1.066   0.902   3.289
 3480SOL     OW11338   0.437   6.190   4.647
 3480SOL    HW111339   0.484   6.175   4.560
 3480SOL    HW211340   0.373   6.115   4.663
 3481SOL     OW11341   4.854   0.755   0.213
 3481SOL    HW111342   4.793   0.689   0.256
 3481SOL    HW211343   4.949   0.722   0.222
 3482SOL     OW11344   6.503   1.424   2.009
 3482SOL    HW111345   6.477   1.511   1.967
 3482SOL    HW211346   6.442   1.406   2.087
 3483SOL     OW11347   4.673   2.156   2.004
 3483SOL    HW111348   4.769   2.177   2.024
 3483SOL    HW211349   4.668   2.090   1.928
 3484SOL     OW11350   0.982   3.352   0.239
 3484SOL    HW111351   1.008   3.353   0.142
 3484SOL    HW211352   1.048   3.297   0.290
 3485SOL     OW11353   2.040   1.903   4.092
 3485SOL    HW111354   1.955   1.871   4.049
 3485SOL    HW211355   2.024   1.917   4.190
 3486SOL     OW11356   2.841   0.272   4.084
 3486SOL    HW111357   2.748   0.249   4.115
 3486SOL    HW211358   2.884   0.334   4.149
 3487SOL     OW11359   6.185   2.333   6.047
 3487SOL    HW111360   6.229   2.410   6.000
 3487SOL    HW211361   6.087   2.336   6.031
 3488SOL     OW11362   6.484   0.543   4.662
 3488SOL    HW111363   6.440   0.466   4.616
 3488SOL    HW211364   6.442   0.557   4.752
 3489SOL     OW11365   4.188   0.142   1.386
 3489SOL    HW111366   4.133   0.193   1.319
 3489SOL    HW211367   4.259   0.091   1.338
 3490SOL     OW11368   4.202   4.385   0.515
 3490SOL    HW111369   4.115   4.336   0.520
 3490SOL    HW211370   4.232   4.388   0.420
 3491SOL     OW11371   4.228   2.653   5.816
 3491SOL    HW111372   4.281   2.690   5.892
 3491SOL    HW211373   4.288   2.640   5.736
 3492SOL     OW11374   6.718   4.709   1.278
 3492SOL    HW111375   6.700   4.676   1.185
 3492SOL    HW211376   6.800   4.664   1.314
 3493SOL     OW11377   5.038   3.922   5.198
 3493SOL    HW111378   4.980   3.847   5.167
 3493SOL    HW211379   5.035   3.996   5.131
 3494SOL     OW11380   3.375   0.358   1.900
 3494SOL    HW111381   3.368   0.426   1.973
 3494SOL    HW211382   3.447   0.385   1.836
 3495SOL     OW11383   5.574   5.050   1.589
 3495SOL    HW111384   5.533   4.976   1.536
 3495SOL    HW211385   5.673   5.037   1.594
 3496SOL     OW11386   5.941   4.694   1.018
 3496SOL    HW111387   5.969   4.717   1.111
 3496SOL    HW211388   5.984   4.608   0.991
 3497SOL     OW11389   2.539   1.314   4.013
 3497SOL    HW111390   2.509   1.402   4.049
 3497SOL    HW211391   2.486   1.240   4.054
 3498SOL     OW11392   3.175   2.244   1.066
 3498SOL    HW111393   3.217   2.175   1.125
 3498SOL    HW211394   3.093   2.206   1.024
 3499SOL     OW11395   5.187   3.660   3.904
 3499SOL    HW111396   5.142   3.572   3.887
 3499SOL    HW211397   5.272   3.645   3.953
 3500SOL     OW11398   1.835   3.663   4.850
 3500SOL    HW111399   1.832   3.738   4.916
 3500SOL    HW211400   1.925   3.659   4.807
 3501SOL     OW11401   1.595   5.961   4.769
 3501SOL    HW111402   1.660   6.013   4.713
 3501SOL    HW211403   1.629   5.957   4.863
 3502SOL     OW11404   6.509   2.794   2.274
 3502SOL    HW111405   6.460   2.735   2.337
 3502SOL    HW211406   6.554   2.868   2.325
 3503SOL     OW11407   6.290   6.448   4.930
 3503SOL    HW111408   6.389   6.466   4.924
 3503SOL    HW211409   6.261   6.456   5.025
 3504SOL     OW11410   2.422   1.620   1.530
 3504SOL    HW111411   2.463   1.532   1.554
 3504SOL    HW211412   2.410   1.675   1.612
 3505SOL     OW11413   5.596   4.207   5.138
 3505SOL    HW111414   5.520   4.226   5.076
 3505SOL    HW211415   5.565   4.216   5.233
 3506SOL     OW11416   5.147   5.550   5.565
 3506SOL    HW111417   5.047   5.542   5.564
 3506SOL    HW211418   5.183   5.511   5.649
 3507SOL     OW11419   1.904   0.663   0.874
 3507SOL    HW111420   1.806   0.663   0.894
 3507SOL    HW211421   1.955   0.674   0.959
 3508SOL     OW11422   2.441   1.913   5.487
 3508SOL    HW111423   2.433   1.996   5.543
 3508SOL    HW211424   2.538   1.889   5.476
 3509SOL     OW11425   5.309   0.192   6.180
 3509SOL    HW111426   5.395   0.187   6.229
 3509SOL    HW211427   5.323   0.237   6.092
 3510SOL     OW11428   1.329   1.959   2.367
 3510SOL    HW111429   1.261   1.990   2.433
 3510SOL    HW211430   1.303   1.989   2.276
 3511SOL     OW11431   2.718   5.124   0.715
 3511SOL    HW111432   2.754   5.034   0.692
 3511SOL    HW211433   2.752   5.191   0.649
 3512SOL     OW11434   6.740   4.339   1.023
 3512SOL    HW111435   6.784   4.418   0.981
 3512SOL    HW211436   6.684   4.369   1.100
 3513SOL     OW11437   5.483   2.671   0.254
 3513SOL    HW111438   5.556   2.623   0.303
 3513SOL    HW211439   5.519   2.703   0.166
 3514SOL     OW11440   0.232   1.631   1.663
 3514SOL    HW111441   0.202   1.652   1.570
 3514SOL    HW211442   0.182   1.551   1.696
 3515SOL     OW11443   5.254   6.002   3.175
 3515SOL    HW111444   5.233   5.909   3.205
 3515SOL    HW211445   5.294   5.999   3.083
 3516SOL     OW11446   4.890   6.948   0.813
 3516SOL    HW111447   4.793   6.924   0.821
 3516SOL    HW211448   4.931   6.895   0.739
 3517SOL     OW11449   1.647   2.550   0.733
 3517SOL    HW111450   1.718   2.564   0.664
 3517SOL    HW211451   1.588   2.630   0.738
 3518SOL     OW11452   5.919   2.291   3.885
 3518SOL    HW111453   5.830   2.297   3.931
 3518SOL    HW211454   5.955   2.198   3.895
 3519SOL     OW11455   1.717   0.641   6.731
 3519SOL    HW111456   1.775   0.646   6.812
 3519SOL    HW211457   1.623   0.664   6.755
 3520SOL     OW11458   3.148   4.845   6.680
 3520SOL    HW111459   3.094   4.905   6.621
 3520SOL    HW211460   3.245   4.862   6.665
 3521SOL     OW11461   4.952   2.176   6.913
 3521SOL    HW111462   4.900   2.157   6.996
 3521SOL    HW211463   5.043   2.208   6.937
 3522SOL     OW11464   0.357   4.637   1.721
 3522SOL    HW111465   0.309   4.570   1.777
 3522SOL    HW211466   0.374   4.719   1.776
 3523SOL     OW11467   1.797   5.198   5.951
 3523SOL    HW111468   1.762   5.206   5.858
 3523SOL    HW211469   1.794   5.102   5.980
 3524SOL     OW11470   4.567   1.670   1.906
 3524SOL    HW111471   4.612   1.617   1.834
 3524SOL    HW211472   4.623   1.666   1.989
 3525SOL     OW11473   1.635   4.112   3.240
 3525SOL    HW111474   1.700   4.047   3.277
 3525SOL    HW211475   1.570   4.140   3.311
 3526SOL     OW11476   2.198   6.729   4.076
 3526SOL    HW111477   2.216   6.706   4.171
 3526SOL    HW211478   2.256   6.673   4.017
 3527SOL     OW11479   5.895   3.201   6.189
 3527SOL    HW111480   5.839   3.224   6.109
 3527SOL    HW211481   5.951   3.280   6.214
 3528SOL     OW11482   0.953   5.830   5.085
 3528SOL    HW111483   0.910   5.778   5.012
 3528SOL    HW211484   0.897   5.910   5.107
 3529SOL     OW11485   3.897   0.415   0.088
 3529SOL    HW111486   3.962   0.347   0.122
 3529SOL    HW211487   3.890   0.406   7.007
 3530SOL     OW11488   0.294   5.118   2.468
 3530SOL    HW111489   0.353   5.122   2.549
 3530SOL    HW211490   0.334   5.174   2.395
 3531SOL     OW11491   5.190   2.841   0.199
 3531SOL    HW111492   5.222   2.835   0.105
 3531SOL    HW211493   5.241   2.776   0.256
 3532SOL     OW11494   2.942   0.811   1.385
 3532SOL    HW111495   2.913   0.732   1.331
 3532SOL    HW211496   2.923   0.794   1.481
 3533SOL     OW11497   1.911   1.939   2.729
 3533SOL    HW111498   1.986   1.912   2.789
 3533SOL    HW211499   1.838   1.871   2.735
 3534SOL     OW11500   5.937   1.094   6.468
 3534SOL    HW111501   5.879   1.018   6.496
 3534SOL    HW211502   5.987   1.128   6.547
 3535SOL     OW11503   1.706   6.069   0.794
 3535SOL    HW111504   1.777   6.002   0.774
 3535SOL    HW211505   1.631   6.024   0.842
 3536SOL     OW11506   3.085   2.205   3.070
 3536SOL    HW111507   2.998   2.226   3.115
 3536SOL    HW211508   3.158   2.203   3.138
 3537SOL     OW11509   3.126   5.678   1.686
 3537SOL    HW111510   3.077   5.591   1.692
 3537SOL    HW211511   3.224   5.662   1.692
 3538SOL     OW11512   1.387   0.500   6.337
 3538SOL    HW111513   1.301   0.540   6.304
 3538SOL    HW211514   1.458   0.570   6.337
 3539SOL     OW11515   5.564   3.077   5.916
 3539SOL    HW111516   5.581   3.051   6.011
 3539SOL    HW211517   5.504   3.157   5.913
 3540SOL     OW11518   2.592   2.118   5.772
 3540SOL    HW111519   2.634   2.028   5.761
 3540SOL    HW211520   2.497   2.107   5.801
 3541SOL     OW11521   1.806   2.506   6.919
 3541SOL    HW111522   1.876   2.435   6.927
 3541SOL    HW211523   1.801   2.537   6.824
 3542SOL     OW11524   1.445   4.972   2.736
 3542SOL    HW111525   1.392   4.949   2.818
 3542SOL    HW211526   1.383   4.981   2.658
 3543SOL     OW11527   0.524   2.314   4.869
 3543SOL    HW111528   0.479   2.326   4.958
 3543SOL    HW211529   0.487   2.379   4.803
 3544SOL     OW11530   2.774   4.040   6.350
 3544SOL    HW111531   2.728   4.047   6.262
 3544SOL    HW211532   2.824   4.125   6.369
 3545SOL     OW11533   4.054   4.843   0.697
 3545SOL    HW111534   4.097   4.827   0.608
 3545SOL    HW211535   4.079   4.934   0.730
 3546SOL     OW11536   0.861   3.879   3.875
 3546SOL    HW111537   0.885   3.917   3.965
 3546SOL    HW211538   0.762   3.862   3.872
 3547SOL     OW11539   6.719   4.700   4.578
 3547SOL    HW111540   6.734   4.628   4.510
 3547SOL    HW211541   6.798   4.761   4.581
 3548SOL     OW11542   6.015   0.778   5.875
 3548SOL    HW111543   5.947   0.794   5.946
 3548SOL    HW211544   6.106   0.797   5.911
 3549SOL     OW11545   6.819   4.732   5.697
 3549SOL    HW111546   6.858   4.686   5.617
 3549SOL    HW211547   6.842   4.829   5.694
 3550SOL     OW11548   5.931   3.494   3.317
 3550SOL    HW111549   5.849   3.460   3.365
 3550SOL    HW211550   5.994   3.534   3.383
 3551SOL     OW11551   3.903   1.772   2.354
 3551SOL    HW111552   3.944   1.801   2.441
 3551SOL    HW211553   3.969   1.719   2.301
 3552SOL     OW11554   6.116   6.411   1.883
 3552SOL    HW111555   6.151   6.434   1.792
 3552SOL    HW211556   6.141   6.316   1.905
 3553SOL     OW11557   4.461   5.270   1.065
 3553SOL    HW111558   4.435   5.310   0.977
 3553SOL    HW211559   4.560   5.251   1.064
 3554SOL     OW11560   4.473   2.162   1.663
 3554SOL    HW111561   4.449   2.106   1.742
 3554SOL    HW211562   4.410   2.143   1.588
 3555SOL     OW11563   0.807   4.577   3.541
 3555SOL    HW111564   0.791   4.672   3.567
 3555SOL    HW211565   0.732   4.520   3.574
 3556SOL     OW11566   4.101   1.558   4.448
 3556SOL    HW111567   4.121   1.468   4.486
 3556SOL    HW211568   4.071   1.548   4.353
 3557SOL     OW11569   1.563   1.687   4.555
 3557SOL    HW111570   1.591   1.594   4.530
 3557SOL    HW211571   1.484   1.714   4.500
 3558SOL     OW11572   0.858   6.545   2.368
 3558SOL    HW111573   0.949   6.531   2.329
 3558SOL    HW211574   0.821   6.632   2.335
 3559SOL     OW11575   0.772   6.022   5.635
 3559SOL    HW111576   0.756   6.109   5.680
 3559SOL    HW211577   0.870   6.006   5.627
 3560SOL     OW11578   0.967   5.787   2.286
 3560SOL    HW111579   0.929   5.830   2.203
 3560SOL    HW211580   1.067   5.794   2.284
 3561SOL     OW11581   4.376   4.713   4.885
 3561SOL    HW111582   4.298   4.712   4.821
 3561SOL    HW211583   4.365   4.639   4.952
 3562SOL     OW11584   4.665   1.073   3.613
 3562SOL    HW111585   4.742   1.121   3.655
 3562SOL    HW211586   4.639   1.119   3.528
 3563SOL     OW11587   5.844   1.222   0.140
 3563SOL    HW111588   5.766   1.285   0.145
 3563SOL    HW211589   5.857   1.177   0.228
 3564SOL     OW11590   2.261   4.484   3.887
 3564SOL    HW111591   2.285   4.513   3.980
 3564SOL    HW211592   2.252   4.384   3.885
 3565SOL     OW11593   2.494   5.759   4.902
 3565SOL    HW111594   2.535   5.668   4.895
 3565SOL    HW211595   2.566   5.827   4.914
 3566SOL     OW11596   6.684   3.769   6.087
 3566SOL    HW111597   6.656   3.674   6.076
 3566SOL    HW211598   6.783   3.773   6.103
 3567SOL     OW11599   0.216   2.909   0.011
 3567SOL    HW111600   0.204   2.843   6.956
 3567SOL    HW211601   0.137   2.907   0.071
 3568SOL     OW11602   4.562   5.290   4.310
 3568SOL    HW111603   4.504   5.274   4.390
 3568SOL    HW211604   4.507   5.326   4.235
 3569SOL     OW11605   1.872   1.762   5.694
 3569SOL    HW111606   1.795   1.698   5.697
 3569SOL    HW211607   1.936   1.734   5.623
 3570SOL     OW11608   5.567   0.988   5.132
 3570SOL    HW111609   5.566   0.892   5.105
 3570SOL    HW211610   5.595   1.044   5.054
 3571SOL     OW11611   0.836   5.544   5.170
 3571SOL    HW111612   0.859   5.453   5.207
 3571SOL    HW211613   0.857   5.545   5.072
 3572SOL     OW11614   5.904   3.262   3.125
 3572SOL    HW111615   5.974   3.201   3.087
 3572SOL    HW211616   5.947   3.325   3.190
 3573SOL     OW11617   6.920   4.954   3.557
 3573SOL    HW111618   6.910   4.914   3.466
 3573SOL    HW211619   6.985   5.030   3.553
 3574SOL     OW11620   0.298   3.083   0.501
 3574SOL    HW111621   0.372   3.019   0.480
 3574SOL    HW211622   0.332   3.176   0.495
 3575SOL     OW11623   5.705   5.523   2.680
 3575SOL    HW111624   5.662   5.494   2.594
 3575SOL    HW211625   5.804   5.520   2.670
 3576SOL     OW11626   0.567   2.402   6.441
 3576SOL    HW111627   0.554   2.498   6.416
 3576SOL    HW211628   0.500   2.345   6.392
 3577SOL     OW11629   1.455   2.197   0.116
 3577SOL    HW111630   1.499   2.195   0.206
 3577SOL    HW211631   1.447   2.291   0.085
 3578SOL     OW11632   3.826   1.350   0.100
 3578SOL    HW111633   3.732   1.365   0.068
 3578SOL    HW211634   3.860   1.264   0.062
 3579SOL     OW11635   6.707   2.252   3.209
 3579SOL    HW111636   6.777   2.204   3.264
 3579SOL    HW211637   6.750   2.329   3.162
 3580SOL     OW11638   6.236   3.469   1.235
 3580SOL    HW111639   6.147   3.507   1.208
 3580SOL    HW211640   6.227   3.370   1.248
 3581SOL     OW11641   1.573   4.952   3.439
 3581SOL    HW111642   1.541   5.008   3.362
 3581SOL    HW211643   1.507   4.880   3.457
 3582SOL     OW11644   1.207   3.294   6.520
 3582SOL    HW111645   1.140   3.367   6.530
 3582SOL    HW211646   1.298   3.330   6.538
 3583SOL     OW11647   1.329   4.808   6.782
 3583SOL    HW111648   1.257   4.870   6.814
 3583SOL    HW211649   1.348   4.739   6.852
 3584SOL     OW11650   5.866   4.476   6.041
 3584SOL    HW111651   5.892   4.459   5.946
 3584SOL    HW211652   5.773   4.442   6.057
 3585SOL     OW11653   2.922   1.559   4.196
 3585SOL    HW111654   2.988   1.585   4.126
 3585SOL    HW211655   2.874   1.476   4.168
 3586SOL     OW11656   6.480   1.397   4.408
 3586SOL    HW111657   6.550   1.428   4.471
 3586SOL    HW211658   6.496   1.439   4.318
 3587SOL     OW11659   2.201   4.690   5.823
 3587SOL    HW111660   2.198   4.590   5.810
 3587SOL    HW211661   2.257   4.731   5.751
 3588SOL     OW11662   0.837   3.104   5.012
 3588SOL    HW111663   0.877   3.151   5.091
 3588SOL    HW211664   0.905   3.041   4.974
 3589SOL     OW11665   5.320   1.082   5.588
 3589SOL    HW111666   5.406   1.080   5.536
 3589SOL    HW211667   5.332   1.137   5.671
 3590SOL     OW11668   0.688   3.659   0.551
 3590SOL    HW111669   0.763   3.720   0.525
 3590SOL    HW211670   0.687   3.579   0.491
 3591SOL     OW11671   5.359   4.118   6.890
 3591SOL    HW111672   5.394   4.059   6.817
 3591SOL    HW211673   5.327   4.204   6.850
 3592SOL     OW11674   0.398   5.698   1.808
 3592SOL    HW111675   0.475   5.761   1.808
 3592SOL    HW211676   0.320   5.740   1.762
 3593SOL     OW11677   0.941   5.333   5.394
 3593SOL    HW111678   0.902   5.391   5.465
 3593SOL    HW211679   1.039   5.353   5.385
 3594SOL     OW11680   4.844   6.725   3.261
 3594SOL    HW111681   4.803   6.807   3.221
 3594SOL    HW211682   4.907   6.684   3.195
 3595SOL     OW11683   4.365   6.277   6.144
 3595SOL    HW111684   4.271   6.249   6.165
 3595SOL    HW211685   4.413   6.299   6.230
 3596SOL     OW11686   6.139   3.454   2.592
 3596SOL    HW111687   6.070   3.387   2.623
 3596SOL    HW211688   6.162   3.434   2.496
 3597SOL     OW11689   2.045   2.139   5.586
 3597SOL    HW111690   2.015   2.081   5.510
 3597SOL    HW211691   2.012   2.232   5.571
 3598SOL     OW11692   1.166   6.050   6.046
 3598SOL    HW111693   1.067   6.036   6.037
 3598SOL    HW211694   1.183   6.127   6.107
 3599SOL     OW11695   5.209   2.167   6.579
 3599SOL    HW111696   5.232   2.098   6.648
 3599SOL    HW211697   5.112   2.187   6.584
 3600SOL     OW11698   0.757   3.134   1.774
 3600SOL    HW111699   0.710   3.133   1.685
 3600SOL    HW211700   0.734   3.050   1.824
 3601SOL     OW11701   4.840   3.362   6.296
 3601SOL    HW111702   4.790   3.301   6.235
 3601SOL    HW211703   4.776   3.409   6.357
 3602SOL     OW11704   0.865   3.702   0.852
 3602SOL    HW111705   0.782   3.757   0.865
 3602SOL    HW211706   0.851   3.611   0.890
 3603SOL     OW11707   3.567   1.395   4.382
 3603SOL    HW111708   3.597   1.484   4.348
 3603SOL    HW211709   3.638   1.327   4.365
 3604SOL     OW11710   6.761   6.169   3.301
 3604SOL    HW111711   6.793   6.238   3.237
 3604SOL    HW211712   6.839   6.122   3.342
 3605SOL     OW11713   6.862   4.086   3.805
 3605SOL    HW111714   6.825   4.111   3.895
 3605SOL    HW211715   6.880   3.988   3.802
 3606SOL     OW11716   0.568   0.364   4.223
 3606SOL    HW111717   0.502   0.405   4.160
 3606SOL    HW211718   0.648   0.423   4.231
 3607SOL     OW11719   5.323   5.473   1.804
 3607SOL    HW111720   5.333   5.380   1.768
 3607SOL    HW211721   5.394   5.490   1.873
 3608SOL     OW11722   4.517   2.122   4.497
 3608SOL    HW111723   4.463   2.063   4.437
 3608SOL    HW211724   4.609   2.131   4.461
 3609SOL     OW11725   1.243   0.439   3.973
 3609SOL    HW111726   1.246   0.400   3.881
 3609SOL    HW211727   1.234   0.367   4.041
 3610SOL     OW11728   1.640   0.033   5.925
 3610SOL    HW111729   1.739   0.044   5.926
 3610SOL    HW211730   1.615   6.973   5.982
 3611SOL     OW11731   4.628   4.610   4.568
 3611SOL    HW111732   4.598   4.532   4.623
 3611SOL    HW211733   4.630   4.692   4.625
 3612SOL     OW11734   0.306   0.255   0.041
 3612SOL    HW111735   0.318   0.342   7.013
 3612SOL    HW211736   0.248   0.267   0.121
 3613SOL     OW11737   4.775   4.715   2.299
 3613SOL    HW111738   4.819   4.626   2.290
 3613SOL    HW211739   4.729   4.721   2.388
 3614SOL     OW11740   3.467   3.515   0.491
 3614SOL    HW111741   3.533   3.535   0.563
 3614SOL    HW211742   3.512   3.465   0.417
 3615SOL     OW11743   4.926   3.651   6.246
 3615SOL    HW111744   4.994   3.704   6.196
 3615SOL    HW211745   4.961   3.559   6.263
 3616SOL     OW11746   0.194   1.375   6.531
 3616SOL    HW111747   0.291   1.398   6.537
 3616SOL    HW211748   0.166   1.378   6.435
 3617SOL     OW11749   4.644   0.898   6.667
 3617SOL    HW111750   4.550   0.928   6.652
 3617SOL    HW211751   4.649   0.848   6.754
 3618SOL     OW11752   2.270   2.965   5.357
 3618SOL    HW111753   2.351   2.965   5.299
 3618SOL    HW211754   2.207   3.037   5.327
 3619SOL     OW11755   5.780   2.569   5.089
 3619SOL    HW111756   5.825   2.503   5.149
 3619SOL    HW211757   5.764   2.527   5.000
 3620SOL     OW11758   6.465   5.613   5.445
 3620SOL    HW111759   6.366   5.618   5.460
 3620SOL    HW211760   6.483   5.560   5.362
 3621SOL     OW11761   3.479   2.682   5.342
 3621SOL    HW111762   3.522   2.759   5.390
 3621SOL    HW211763   3.415   2.636   5.403
 3622SOL     OW11764   1.039   1.924   6.788
 3622SOL    HW111765   1.113   1.867   6.825
 3622SOL    HW211766   1.033   2.009   6.840
 3623SOL     OW11767   6.977   6.078   4.375
 3623SOL    HW111768   0.020   6.113   4.304
 3623SOL    HW211769   0.005   6.077   4.463
 3624SOL     OW11770   1.499   0.225   2.233
 3624SOL    HW111771   1.580   0.283   2.225
 3624SOL    HW211772   1.419   0.273   2.196
 3625SOL     OW11773   0.129   2.943   6.592
 3625SOL    HW111774   0.139   2.877   6.518
 3625SOL    HW211775   0.083   3.025   6.559
 3626SOL     OW11776   0.968   2.759   5.621
 3626SOL    HW111777   1.019   2.831   5.669
 3626SOL    HW211778   0.930   2.795   5.537
 3627SOL     OW11779   3.703   3.384   1.105
 3627SOL    HW111780   3.625   3.413   1.159
 3627SOL    HW211781   3.786   3.386   1.161
 3628SOL     OW11782   1.009   1.645   2.293
 3628SOL    HW111783   1.085   1.670   2.353
 3628SOL    HW211784   1.005   1.545   2.285
 3629SOL     OW11785   0.688   1.081   5.662
 3629SOL    HW111786   0.782   1.100   5.636
 3629SOL    HW211787   0.628   1.155   5.630
 3630SOL     OW11788   5.208   2.219   4.202
 3630SOL    HW111789   5.203   2.164   4.118
 3630SOL    HW211790   5.127   2.276   4.208
 3631SOL     OW11791   2.315   0.941   3.024
 3631SOL    HW111792   2.336   0.944   2.927
 3631SOL    HW211793   2.233   0.885   3.039
 3632SOL     OW11794   5.145   5.326   1.131
 3632SOL    HW111795   5.074   5.352   1.196
 3632SOL    HW211796   5.178   5.408   1.084
 3633SOL     OW11797   4.116   2.211   5.856
 3633SOL    HW111798   4.209   2.246   5.867
 3633SOL    HW211799   4.053   2.287   5.843
 3634SOL     OW11800   1.710   5.269   5.687
 3634SOL    HW111801   1.740   5.363   5.672
 3634SOL    HW211802   1.628   5.251   5.633
 3635SOL     OW11803   3.267   0.055   1.098
 3635SOL    HW111804   3.230   0.031   1.187
 3635SOL    HW211805   3.360   0.091   1.108
 3636SOL     OW11806   6.590   5.934   0.823
 3636SOL    HW111807   6.614   5.859   0.762
 3636SOL    HW211808   6.597   5.903   0.918
 3637SOL     OW11809   0.388   2.384   2.150
 3637SOL    HW111810   0.433   2.413   2.235
 3637SOL    HW211811   0.289   2.381   2.164
 3638SOL     OW11812   0.089   3.913   2.821
 3638SOL    HW111813   0.059   3.831   2.774
 3638SOL    HW211814   0.187   3.927   2.805
 3639SOL     OW11815   4.197   5.276   0.471
 3639SOL    HW111816   4.110   5.265   0.520
 3639SOL    HW211817   4.181   5.269   0.373
 3640SOL     OW11818   4.708   1.109   6.869
 3640SOL    HW111819   4.793   1.082   6.915
 3640SOL    HW211820   4.702   1.062   6.781
 3641SOL     OW11821   6.103   3.712   2.084
 3641SOL    HW111822   6.026   3.742   2.029
 3641SOL    HW211823   6.077   3.711   2.181
 3642SOL     OW11824   5.156   2.305   0.056
 3642SOL    HW111825   5.212   2.224   0.036
 3642SOL    HW211826   5.131   2.305   0.153
 3643SOL     OW11827   2.546   6.002   4.663
 3643SOL    HW111828   2.559   6.033   4.757
 3643SOL    HW211829   2.614   5.933   4.641
 3644SOL     OW11830   1.829   1.613   2.000
 3644SOL    HW111831   1.905   1.560   1.964
 3644SOL    HW211832   1.771   1.554   2.057
 3645SOL     OW11833   1.816   2.329   3.997
 3645SOL    HW111834   1.723   2.306   3.968
 3645SOL    HW211835   1.841   2.418   3.959
 3646SOL     OW11836   1.313   4.108   5.930
 3646SOL    HW111837   1.384   4.120   5.861
 3646SOL    HW211838   1.356   4.106   6.021
 3647SOL     OW11839   2.449   6.099   6.658
 3647SOL    HW111840   2.533   6.152   6.647
 3647SOL    HW211841   2.383   6.153   6.711
 3648SOL     OW11842   4.579   6.121   2.997
 3648SOL    HW111843   4.647   6.190   3.019
 3648SOL    HW211844   4.501   6.163   2.950
 3649SOL     OW11845   5.942   3.082   1.209
 3649SOL    HW111846   5.850   3.045   1.192
 3649SOL    HW211847   6.006   3.007   1.223
 3650SOL     OW11848   6.369   5.134   1.758
 3650SOL    HW111849   6.382   5.200   1.684
 3650SOL    HW211850   6.399   5.175   1.844
 3651SOL     OW11851   0.861   0.884   3.982
 3651SOL    HW111852   0.875   0.950   3.908
 3651SOL    HW211853   0.947   0.867   4.028
 3652SOL     OW11854   6.232   6.869   3.550
 3652SOL    HW111855   6.266   6.783   3.586
 3652SOL    HW211856   6.271   6.945   3.603
 3653SOL     OW11857   1.329   1.418   2.974
 3653SOL    HW111858   1.269   1.457   3.044
 3653SOL    HW211859   1.396   1.487   2.947
 3654SOL     OW11860   3.795   4.785   0.429
 3654SOL    HW111861   3.698   4.773   0.406
 3654SOL    HW211862   3.851   4.729   0.369
 3655SOL     OW11863   3.388   0.485   3.839
 3655SOL    HW111864   3.339   0.399   3.827
 3655SOL    HW211865   3.422   0.516   3.750
 3656SOL     OW11866   0.413   5.039   1.238
 3656SOL    HW111867   0.442   4.960   1.293
 3656SOL    HW211868   0.315   5.034   1.222
 3657SOL     OW11869   4.960   5.336   5.258
 3657SOL    HW111870   5.039   5.274   5.262
 3657SOL    HW211871   4.917   5.341   5.348
 3658SOL     OW11872   2.748   4.638   6.498
 3658SOL    HW111873   2.675   4.570   6.503
 3658SOL    HW211874   2.763   4.677   6.589
 3659SOL     OW11875   1.812   2.408   5.934
 3659SOL    HW111876   1.834   2.459   6.017
 3659SOL    HW211877   1.760   2.467   5.872
 3660SOL     OW11878   6.047   6.436   4.426
 3660SOL    HW111879   6.117   6.480   4.481
 3660SOL    HW211880   6.075   6.342   4.404
 3661SOL     OW11881   0.152   0.509   4.762
 3661SOL    HW111882   0.126   0.426   4.713
 3661SOL    HW211883   0.140   0.496   4.860
 3662SOL     OW11884   4.220   0.546   4.343
 3662SOL    HW111885   4.241   0.458   4.302
 3662SOL    HW211886   4.299   0.578   4.395
 3663SOL     OW11887   1.856   3.046   0.551
 3663SOL    HW111888   1.800   3.122   0.516
 3663SOL    HW211889   1.825   2.960   0.509
 3664SOL     OW11890   4.456   2.114   2.252
 3664SOL    HW111891   4.420   2.113   2.346
 3664SOL    HW211892   4.473   2.208   2.223
 3665SOL     OW11893   1.036   6.250   4.933
 3665SOL    HW111894   1.006   6.212   5.021
 3665SOL    HW211895   1.061   6.175   4.872
 3666SOL     OW11896   1.111   3.987   3.183
 3666SOL    HW111897   1.105   4.043   3.100
 3666SOL    HW211898   1.083   4.042   3.262
 3667SOL     OW11899   0.384   1.714   3.729
 3667SOL    HW111900   0.481   1.724   3.751
 3667SOL    HW211901   0.369   1.627   3.682
 3668SOL     OW11902   1.249   0.829   1.375
 3668SOL    HW111903   1.261   0.852   1.471
 3668SOL    HW211904   1.236   0.730   1.366
 3669SOL     OW11905   5.927   1.763   3.490
 3669SOL    HW111906   5.946   1.750   3.392
 3669SOL    HW211907   5.875   1.684   3.524
 3670SOL     OW11908   2.461   5.063   6.665
 3670SOL    HW111909   2.519   5.141   6.643
 3670SOL    HW211910   2.366   5.093   6.670
 3671SOL     OW11911   0.222   2.029   4.353
 3671SOL    HW111912   0.188   1.951   4.406
 3671SOL    HW211913   0.225   2.004   4.256
 3672SOL     OW11914   4.776   2.132   2.611
 3672SOL    HW111915   4.680   2.152   2.591
 3672SOL    HW211916   4.788   2.121   2.710
 3673SOL     OW11917   3.742   5.666   6.966
 3673SOL    HW111918   3.786   5.690   0.034
 3673SOL    HW211919   3.643   5.661   6.980
 3674SOL     OW11920   1.990   5.859   5.743
 3674SOL    HW111921   2.011   5.924   5.670
 3674SOL    HW211922   2.013   5.767   5.713
 3675SOL     OW11923   1.593   2.546   4.018
 3675SOL    HW111924   1.642   2.539   4.105
 3675SOL    HW211925   1.597   2.457   3.971
 3676SOL     OW11926   6.068   3.975   2.495
 3676SOL    HW111927   6.030   3.951   2.585
 3676SOL    HW211928   6.161   4.012   2.507
 3677SOL     OW11929   2.992   6.770   4.361
 3677SOL    HW111930   3.029   6.809   4.277
 3677SOL    HW211931   3.003   6.671   4.360
 3678SOL     OW11932   1.363   1.474   4.724
 3678SOL    HW111933   1.368   1.538   4.647
 3678SOL    HW211934   1.437   1.407   4.717
 3679SOL     OW11935   6.957   0.479   3.351
 3679SOL    HW111936   6.930   0.411   3.420
 3679SOL    HW211937   0.003   0.544   3.391
 3680SOL     OW11938   5.187   2.551   4.174
 3680SOL    HW111939   5.120   2.476   4.168
 3680SOL    HW211940   5.279   2.513   4.180
 3681SOL     OW11941   1.028   1.365   6.849
 3681SOL    HW111942   0.967   1.311   6.906
 3681SOL    HW211943   1.122   1.355   6.883
 3682SOL     OW11944   5.552   2.426   7.006
 3682SOL    HW111945   5.537   2.328   6.994
 3682SOL    HW211946   5.465   2.474   7.002
 3683SOL     OW11947   0.394   1.493   4.392
 3683SOL    HW111948   0.339   1.555   4.448
 3683SOL    HW211949   0.486   1.530   4.381
 3684SOL     OW11950   0.688   5.348   0.538
 3684SOL    HW111951   0.782   5.381   0.548
 3684SOL    HW211952   0.686   5.280   0.464
 3685SOL     OW11953   2.037   5.589   5.644
 3685SOL    HW111954   2.129   5.601   5.680
 3685SOL    HW211955   2.040   5.540   5.557
 3686SOL     OW11956   6.461   5.050   4.612
 3686SOL    HW111957   6.391   5.070   4.543
 3686SOL    HW211958   6.481   4.952   4.612
 3687SOL     OW11959   4.393   6.113   4.615
 3687SOL    HW111960   4.361   6.110   4.710
 3687SOL    HW211961   4.445   6.198   4.601
 3688SOL     OW11962   6.722   2.870   6.982
 3688SOL    HW111963   6.781   2.800   0.002
 3688SOL    HW211964   6.743   2.959   0.005
 3689SOL     OW11965   2.257   0.882   6.053
 3689SOL    HW111966   2.271   0.981   6.050
 3689SOL    HW211967   2.160   0.862   6.035
 3690SOL     OW11968   3.797   5.522   0.654
 3690SOL    HW111969   3.829   5.428   0.638
 3690SOL    HW211970   3.719   5.520   0.717
 3691SOL     OW11971   2.592   1.684   0.345
 3691SOL    HW111972   2.688   1.693   0.370
 3691SOL    HW211973   2.581   1.699   0.247
 3692SOL     OW11974   6.400   5.048   5.287
 3692SOL    HW111975   6.361   5.084   5.202
 3692SOL    HW211976   6.349   5.085   5.365
 3693SOL     OW11977   2.519   2.263   3.211
 3693SOL    HW111978   2.437   2.314   3.237
 3693SOL    HW211979   2.504   2.166   3.227
 3694SOL     OW11980   1.729   6.808   2.291
 3694SOL    HW111981   1.646   6.863   2.286
 3694SOL    HW211982   1.706   6.717   2.327
 3695SOL     OW11983   5.095   2.487   1.393
 3695SOL    HW111984   5.042   2.483   1.309
 3695SOL    HW211985   5.178   2.541   1.378
 3696SOL     OW11986   4.364   0.325   4.230
 3696SOL    HW111987   4.451   0.316   4.181
 3696SOL    HW211988   4.291   0.282   4.176
 3697SOL     OW11989   0.233   5.798   2.780
 3697SOL    HW111990   0.203   5.878   2.833
 3697SOL    HW211991   0.328   5.777   2.803
 3698SOL     OW11992   2.525   0.987   3.416
 3698SOL    HW111993   2.515   1.046   3.335
 3698SOL    HW211994   2.461   1.017   3.486
 3699SOL     OW11995   2.017   0.981   3.582
 3699SOL    HW111996   1.970   0.992   3.494
 3699SOL    HW211997   2.102   1.034   3.581
 3700SOL     OW11998   1.760   4.441   4.866
 3700SOL    HW111999   1.669   4.465   4.900
 3700SOL    HW212000   1.792   4.513   4.804
 3701SOL     OW12001   1.502   0.382   3.489
 3701SOL    HW112002   1.536   0.467   3.530
 3701SOL    HW212003   1.550   0.364   3.404
 3702SOL     OW12004   5.449   6.419   3.216
 3702SOL    HW112005   5.509   6.345   3.247
 3702SOL    HW212006   5.365   6.418   3.271
 3703SOL     OW12007   0.298   0.699   6.668
 3703SOL    HW112008   0.335   0.606   6.680
 3703SOL    HW212009   0.262   0.731   6.756
 3704SOL     OW12010   4.098   2.281   1.484
 3704SOL    HW112011   4.015   2.306   1.434
 3704SOL    HW212012   4.080   2.288   1.582
 3705SOL     OW12013   5.659   3.997   4.519
 3705SOL    HW112014   5.560   3.989   4.509
 3705SOL    HW212015   5.699   3.907   4.537
 3706SOL     OW12016   0.359   3.872   6.604
 3706SOL    HW112017   0.329   3.783   6.637
 3706SOL    HW212018   0.280   3.934   6.599
 3707SOL     OW12019   4.863   5.877   4.895
 3707SOL    HW112020   4.953   5.832   4.899
 3707SOL    HW212021   4.839   5.909   4.986
 3708SOL     OW12022   5.266   6.725   1.225
 3708SOL    HW112023   5.269   6.652   1.294
 3708SOL    HW212024   5.237   6.686   1.137
 3709SOL     OW12025   3.361   0.114   1.417
 3709SOL    HW112026   3.425   0.165   1.474
 3709SOL    HW212027   3.412   0.058   1.351
 3710SOL     OW12028   6.772   5.460   5.116
 3710SOL    HW112029   6.752   5.361   5.118
 3710SOL    HW212030   6.803   5.485   5.024
 3711SOL     OW12031   1.468   5.586   5.413
 3711SOL    HW112032   1.434   5.651   5.345
 3711SOL    HW212033   1.491   5.635   5.497
 3712SOL     OW12034   1.135   5.521   6.843
 3712SOL    HW112035   1.054   5.557   6.889
 3712SOL    HW212036   1.163   5.584   6.771
 3713SOL     OW12037   0.190   0.306   5.226
 3713SOL    HW112038   0.144   0.226   5.187
 3713SOL    HW212039   0.284   0.282   5.251
 3714SOL     OW12040   5.851   5.843   6.657
 3714SOL    HW112041   5.816   5.817   6.567
 3714SOL    HW212042   5.777   5.876   6.714
 3715SOL     OW12043   0.985   4.189   2.357
 3715SOL    HW112044   1.042   4.111   2.331
 3715SOL    HW212045   0.977   4.252   2.279
 3716SOL     OW12046   6.181   6.276   4.719
 3716SOL    HW112047   6.224   6.186   4.709
 3716SOL    HW212048   6.226   6.327   4.792
 3717SOL     OW12049   5.524   0.378   6.985
 3717SOL    HW112050   5.560   0.400   0.057
 3717SOL    HW212051   5.449   0.312   6.994
 3718SOL     OW12052   0.183   0.352   0.255
 3718SOL    HW112053   0.265   0.381   0.303
 3718SOL    HW212054   0.131   0.432   0.224
 3719SOL     OW12055   4.592   2.736   0.352
 3719SOL    HW112056   4.525   2.700   0.417
 3719SOL    HW212057   4.554   2.732   0.260
 3720SOL     OW12058   5.222   3.329   0.494
 3720SOL    HW112059   5.158   3.318   0.418
 3720SOL    HW212060   5.222   3.245   0.549
 3721SOL     OW12061   0.069   4.725   0.988
 3721SOL    HW112062   0.098   4.819   1.008
 3721SOL    HW212063   0.134   4.661   1.029
 3722SOL     OW12064   5.511   5.951   1.055
 3722SOL    HW112065   5.480   5.970   0.961
 3722SOL    HW212066   5.610   5.939   1.054
 3723SOL     OW12067   4.530   4.908   0.576
 3723SOL    HW112068   4.493   5.001   0.582
 3723SOL    HW212069   4.481   4.848   0.638
 3724SOL     OW12070   1.937   4.424   5.752
 3724SOL    HW112071   1.958   4.522   5.754
 3724SOL    HW212072   1.981   4.382   5.673
 3725SOL     OW12073   0.411   5.526   6.606
 3725SOL    HW112074   0.481   5.543   6.537
 3725SOL    HW212075   0.372   5.613   6.635
 3726SOL     OW12076   5.244   3.219   5.881
 3726SOL    HW112077   5.234   3.138   5.938
 3726SOL    HW212078   5.301   3.197   5.802
 3727SOL     OW12079   6.948   2.629   5.457
 3727SOL    HW112080   0.016   2.632   5.406
 3727SOL    HW212081   6.901   2.543   5.437
 3728SOL     OW12082   1.196   3.251   6.790
 3728SOL    HW112083   1.281   3.266   6.841
 3728SOL    HW212084   1.215   3.255   6.692
 3729SOL     OW12085   1.762   1.693   4.168
 3729SOL    HW112086   1.739   1.754   4.092
 3729SOL    HW212087   1.807   1.746   4.240
 3730SOL     OW12088   3.771   6.314   5.478
 3730SOL    HW112089   3.747   6.290   5.384
 3730SOL    HW212090   3.796   6.231   5.528
 3731SOL     OW12091   0.204   1.353   0.649
 3731SOL    HW112092   0.244   1.290   0.715
 3731SOL    HW212093   0.111   1.376   0.677
 3732SOL     OW12094   2.375   1.664   0.511
 3732SOL    HW112095   2.360   1.736   0.578
 3732SOL    HW212096   2.452   1.688   0.452
 3733SOL     OW12097   2.274   2.708   3.245
 3733SOL    HW112098   2.202   2.639   3.239
 3733SOL    HW212099   2.242   2.786   3.298
 3734SOL     OW12100   4.894   0.152   1.273
 3734SOL    HW112101   4.925   0.246   1.285
 3734SOL    HW212102   4.861   0.116   1.361
 3735SOL     OW12103   2.960   0.649   2.580
 3735SOL    HW112104   2.973   0.598   2.495
 3735SOL    HW212105   2.993   0.595   2.657
 3736SOL     OW12106   0.305   1.221   1.086
 3736SOL    HW112107   0.383   1.180   1.039
 3736SOL    HW212108   0.271   1.299   1.034
 3737SOL     OW12109   5.663   1.216   3.654
 3737SOL    HW112110   5.676   1.127   3.611
 3737SOL    HW212111   5.731   1.229   3.726
 3738SOL     OW12112   6.173   0.655   1.592
 3738SOL    HW112113   6.202   0.750   1.607
 3738SOL    HW212114   6.081   0.643   1.628
 3739SOL     OW12115   2.511   4.596   1.314
 3739SOL    HW112116   2.465   4.572   1.400
 3739SOL    HW212117   2.601   4.634   1.333
 3740SOL     OW12118   6.535   6.645   0.499
 3740SOL    HW112119   6.439   6.626   0.478
 3740SOL    HW212120   6.553   6.628   0.596
 3741SOL     OW12121   5.075   2.788   6.244
 3741SOL    HW112122   4.990   2.839   6.236
 3741SOL    HW212123   5.102   2.783   6.340
 3742SOL     OW12124   3.788   0.779   0.474
 3742SOL    HW112125   3.783   0.815   0.381
 3742SOL    HW212126   3.874   0.729   0.486
 3743SOL     OW12127   5.526   3.364   0.546
 3743SOL    HW112128   5.433   3.355   0.510
 3743SOL    HW212129   5.535   3.451   0.594
 3744SOL     OW12130   1.157   5.986   1.510
 3744SOL    HW112131   1.135   6.047   1.587
 3744SOL    HW212132   1.243   5.939   1.530
 3745SOL     OW12133   5.141   4.054   3.138
 3745SOL    HW112134   5.088   4.048   3.223
 3745SOL    HW212135   5.141   3.965   3.093
 3746SOL     OW12136   6.741   0.204   3.698
 3746SOL    HW112137   6.670   0.161   3.642
 3746SOL    HW212138   6.732   0.304   3.693
 3747SOL     OW12139   4.430   5.802   5.348
 3747SOL    HW112140   4.332   5.785   5.358
 3747SOL    HW212141   4.445   5.856   5.265
 3748SOL     OW12142   5.552   1.379   1.882
 3748SOL    HW112143   5.521   1.371   1.977
 3748SOL    HW212144   5.476   1.405   1.824
 3749SOL     OW12145   2.743   4.985   2.870
 3749SOL    HW112146   2.766   4.903   2.923
 3749SOL    HW212147   2.653   5.018   2.898
 3750SOL     OW12148   6.369   4.556   0.881
 3750SOL    HW112149   6.431   4.484   0.911
 3750SOL    HW212150   6.274   4.525   0.887
 3751SOL     OW12151   6.725   3.372   0.994
 3751SOL    HW112152   6.813   3.396   1.036
 3751SOL    HW212153   6.653   3.380   1.063
 3752SOL     OW12154   0.257   6.864   7.012
 3752SOL    HW112155   0.317   6.866   0.072
 3752SOL    HW212156   0.293   6.925   6.941
 3753SOL     OW12157   6.903   1.245   3.977
 3753SOL    HW112158   6.954   1.198   3.904
 3753SOL    HW212159   6.900   1.343   3.958
 3754SOL     OW12160   3.900   6.535   1.263
 3754SOL    HW112161   3.858   6.478   1.191
 3754SOL    HW212162   3.842   6.533   1.344
 3755SOL     OW12163   5.915   5.753   4.422
 3755SOL    HW112164   5.915   5.755   4.522
 3755SOL    HW212165   5.879   5.840   4.387
 3756SOL     OW12166   2.401   6.597   6.004
 3756SOL    HW112167   2.455   6.532   5.951
 3756SOL    HW212168   2.324   6.630   5.949
 3757SOL     OW12169   3.858   6.510   6.333
 3757SOL    HW112170   3.886   6.579   6.266
 3757SOL    HW212171   3.939   6.472   6.378
 3758SOL     OW12172   1.833   1.514   4.751
 3758SOL    HW112173   1.756   1.452   4.734
 3758SOL    HW212174   1.899   1.506   4.676
 3759SOL     OW12175   4.454   5.677   6.097
 3759SOL    HW112176   4.524   5.703   6.163
 3759SOL    HW212177   4.368   5.658   6.145
 3760SOL     OW12178   1.892   2.458   4.409
 3760SOL    HW112179   1.924   2.386   4.347
 3760SOL    HW212180   1.966   2.482   4.472
 3761SOL     OW12181   0.708   0.581   5.702
 3761SOL    HW112182   0.638   0.542   5.763
 3761SOL    HW212183   0.684   0.559   5.607
 3762SOL     OW12184   0.902   4.902   0.013
 3762SOL    HW112185   0.862   4.834   0.075
 3762SOL    HW212186   1.000   4.886   0.004
 3763SOL     OW12187   6.972   4.364   0.112
 3763SOL    HW112188   0.048   4.335   0.128
 3763SOL    HW212189   6.966   4.463   0.122
 3764SOL     OW12190   1.882   0.001   3.918
 3764SOL    HW112191   1.951   0.065   3.883
 3764SOL    HW212192   1.793   0.026   3.881
 3765SOL     OW12193   4.758   1.193   1.182
 3765SOL    HW112194   4.667   1.195   1.143
 3765SOL    HW212195   4.755   1.149   1.272
 3766SOL     OW12196   0.864   1.469   3.549
 3766SOL    HW112197   0.924   1.543   3.520
 3766SOL    HW212198   0.778   1.474   3.499
 3767SOL     OW12199   2.161   4.728   0.401
 3767SOL    HW112200   2.188   4.736   0.497
 3767SOL    HW212201   2.223   4.783   0.345
 3768SOL     OW12202   2.062   5.813   4.917
 3768SOL    HW112203   2.044   5.911   4.918
 3768SOL    HW212204   1.997   5.767   4.856
 3769SOL     OW12205   5.916   5.932   5.520
 3769SOL    HW112206   5.955   6.003   5.579
 3769SOL    HW212207   5.828   5.903   5.557
 3770SOL     OW12208   1.718   0.051   6.601
 3770SOL    HW112209   1.810   0.038   6.639
 3770SOL    HW212210   1.722   0.115   6.525
 3771SOL     OW12211   6.206   3.080   6.870
 3771SOL    HW112212   6.225   3.109   6.964
 3771SOL    HW212213   6.124   3.023   6.869
 3772SOL     OW12214   0.056   0.644   0.320
 3772SOL    HW112215   6.993   0.606   0.364
 3772SOL    HW212216   0.131   0.647   0.386
 3773SOL     OW12217   6.683   2.938   6.230
 3773SOL    HW112218   6.690   2.841   6.256
 3773SOL    HW212219   6.718   2.995   6.304
 3774SOL     OW12220   0.343   6.029   0.060
 3774SOL    HW112221   0.324   5.952   0.121
 3774SOL    HW212222   0.300   6.111   0.096
 3775SOL     OW12223   4.886   4.949   1.981
 3775SOL    HW112224   4.943   4.991   1.911
 3775SOL    HW212225   4.873   4.852   1.959
 3776SOL     OW12226   4.077   1.568   1.216
 3776SOL    HW112227   4.137   1.507   1.269
 3776SOL    HW212228   3.982   1.537   1.225
 3777SOL     OW12229   3.295   4.903   4.813
 3777SOL    HW112230   3.239   4.857   4.882
 3777SOL    HW212231   3.237   4.941   4.742
 3778SOL     OW12232   3.465   4.937   2.756
 3778SOL    HW112233   3.428   4.871   2.690
 3778SOL    HW212234   3.479   5.025   2.711
 3779SOL     OW12235   2.249   4.993   1.090
 3779SOL    HW112236   2.303   4.992   1.005
 3779SOL    HW212237   2.311   4.995   1.168
 3780SOL     OW12238   5.084   5.775   5.855
 3780SOL    HW112239   5.035   5.770   5.768
 3780SOL    HW212240   5.093   5.683   5.894
 3781SOL     OW12241   1.222   0.219   4.253
 3781SOL    HW112242   1.312   0.195   4.218
 3781SOL    HW212243   1.198   0.158   4.328
 3782SOL     OW12244   2.763   0.956   4.256
 3782SOL    HW112245   2.737   0.967   4.161
 3782SOL    HW212246   2.698   1.004   4.315
 3783SOL     OW12247   5.412   5.732   4.294
 3783SOL    HW112248   5.353   5.771   4.222
 3783SOL    HW212249   5.461   5.653   4.258
 3784SOL     OW12250   4.885   2.780   2.443
 3784SOL    HW112251   4.880   2.864   2.497
 3784SOL    HW212252   4.797   2.732   2.449
 3785SOL     OW12253   1.117   1.644   6.831
 3785SOL    HW112254   1.216   1.655   6.839
 3785SOL    HW212255   1.095   1.548   6.810
 3786SOL     OW12256   2.379   6.756   3.335
 3786SOL    HW112257   2.388   6.684   3.266
 3786SOL    HW212258   2.315   6.727   3.405
 3787SOL     OW12259   5.924   0.036   2.484
 3787SOL    HW112260   5.882   6.965   2.477
 3787SOL    HW212261   6.002   0.033   2.546
 3788SOL     OW12262   1.089   3.966   4.278
 3788SOL    HW112263   1.139   3.883   4.304
 3788SOL    HW212264   1.090   4.031   4.353
 3789SOL     OW12265   0.072   3.380   5.129
 3789SOL    HW112266   7.000   3.406   5.095
 3789SOL    HW212267   0.141   3.441   5.091
 3790SOL     OW12268   1.667   4.551   5.633
 3790SOL    HW112269   1.725   4.470   5.643
 3790SOL    HW212270   1.599   4.535   5.563
 3791SOL     OW12271   6.251   0.409   0.498
 3791SOL    HW112272   6.207   0.380   0.583
 3791SOL    HW212273   6.346   0.436   0.516
 3792SOL     OW12274   0.954   1.064   4.737
 3792SOL    HW112275   0.957   1.062   4.637
 3792SOL    HW212276   0.877   1.122   4.766
 3793SOL     OW12277   4.424   0.084   2.699
 3793SOL    HW112278   4.378   7.014   2.704
 3793SOL    HW212279   4.470   0.102   2.786
 3794SOL     OW12280   2.283   4.271   1.025
 3794SOL    HW112281   2.345   4.296   1.099
 3794SOL    HW212282   2.330   4.279   0.937
 3795SOL     OW12283   3.631   5.897   5.703
 3795SOL    HW112284   3.561   5.959   5.738
 3795SOL    HW212285   3.694   5.872   5.776
 3796SOL     OW12286   2.672   1.430   0.840
 3796SOL    HW112287   2.714   1.481   0.766
 3796SOL    HW212288   2.641   1.341   0.806
 3797SOL     OW12289   6.965   4.370   2.815
 3797SOL    HW112290   6.899   4.301   2.845
 3797SOL    HW212291   6.919   4.438   2.758
 3798SOL     OW12292   3.992   6.147   2.948
 3798SOL    HW112293   3.963   6.121   2.856
 3798SOL    HW212294   3.983   6.069   3.009
 3799SOL     OW12295   0.938   2.422   4.182
 3799SOL    HW112296   0.945   2.374   4.095
 3799SOL    HW212297   0.858   2.482   4.181
 3800SOL     OW12298   5.779   3.115   4.441
 3800SOL    HW112299   5.701   3.171   4.469
 3800SOL    HW212300   5.746   3.036   4.388
 3801SOL     OW12301   5.736   6.274   3.136
 3801SOL    HW112302   5.827   6.233   3.126
 3801SOL    HW212303   5.726   6.310   3.229
 3802SOL     OW12304   0.974   2.440   2.933
 3802SOL    HW112305   1.054   2.380   2.936
 3802SOL    HW212306   0.895   2.387   2.900
 3803SOL     OW12307   3.765   1.956   0.985
 3803SOL    HW112308   3.788   1.912   0.898
 3803SOL    HW212309   3.842   1.949   1.048
 3804SOL     OW12310   5.382   1.669   3.556
 3804SOL    HW112311   5.468   1.670   3.504
 3804SOL    HW212312   5.387   1.600   3.628
 3805SOL     OW12313   2.976   3.399   1.950
 3805SOL    HW112314   2.996   3.495   1.928
 3805SOL    HW212315   3.013   3.340   1.879
 3806SOL     OW12316   3.322   3.981   6.733
 3806SOL    HW112317   3.266   3.941   6.806
 3806SOL    HW212318   3.288   4.073   6.712
 3807SOL     OW12319   2.382   6.635   3.704
 3807SOL    HW112320   2.328   6.603   3.781
 3807SOL    HW212321   2.322   6.655   3.626
 3808SOL     OW12322   4.716   0.251   1.020
 3808SOL    HW112323   4.667   0.251   1.107
 3808SOL    HW212324   4.807   0.213   1.033
 3809SOL     OW12325   5.429   2.674   0.722
 3809SOL    HW112326   5.362   2.713   0.786
 3809SOL    HW212327   5.447   2.579   0.747
 3810SOL     OW12328   4.818   2.219   4.925
 3810SOL    HW112329   4.858   2.243   4.837
 3810SOL    HW212330   4.877   2.252   4.999
 3811SOL     OW12331   1.220   4.214   3.960
 3811SOL    HW112332   1.302   4.271   3.954
 3811SOL    HW212333   1.178   4.225   4.050
 3812SOL     OW12334   4.953   0.145   5.274
 3812SOL    HW112335   4.984   0.240   5.280
 3812SOL    HW212336   4.997   0.091   5.345
 3813SOL     OW12337   4.641   4.012   0.312
 3813SOL    HW112338   4.592   4.088   0.268
 3813SOL    HW212339   4.657   4.034   0.408
 3814SOL     OW12340   0.168   6.964   0.733
 3814SOL    HW112341   0.220   6.985   0.816
 3814SOL    HW212342   0.199   0.005   0.659
 3815SOL     OW12343   4.306   2.901   0.399
 3815SOL    HW112344   4.286   2.804   0.408
 3815SOL    HW212345   4.334   2.922   0.306
 3816SOL     OW12346   0.441   6.099   0.357
 3816SOL    HW112347   0.407   6.128   0.446
 3816SOL    HW212348   0.451   6.178   0.297
 3817SOL     OW12349   5.255   3.851   3.315
 3817SOL    HW112350   5.243   3.822   3.220
 3817SOL    HW212351   5.319   3.928   3.319
 3818SOL     OW12352   5.358   0.207   0.159
 3818SOL    HW112353   5.264   0.233   0.179
 3818SOL    HW212354   5.403   0.178   0.243
 3819SOL     OW12355   4.954   5.449   1.306
 3819SOL    HW112356   4.998   5.474   1.393
 3819SOL    HW212357   4.894   5.524   1.276
 3820SOL     OW12358   6.590   6.705   3.125
 3820SOL    HW112359   6.608   6.642   3.049
 3820SOL    HW212360   6.636   6.672   3.207
 3821SOL     OW12361   2.625   2.238   0.865
 3821SOL    HW112362   2.536   2.264   0.901
 3821SOL    HW212363   2.630   2.139   0.855
 3822SOL     OW12364   1.609   6.121   2.905
 3822SOL    HW112365   1.511   6.124   2.887
 3822SOL    HW212366   1.650   6.210   2.882
 3823SOL     OW12367   3.244   2.644   5.933
 3823SOL    HW112368   3.168   2.584   5.912
 3823SOL    HW212369   3.262   2.705   5.856
 3824SOL     OW12370   5.591   1.960   6.885
 3824SOL    HW112371   5.684   1.977   6.851
 3824SOL    HW212372   5.526   1.978   6.812
 3825SOL     OW12373   0.219   6.554   0.458
 3825SOL    HW112374   0.305   6.550   0.407
 3825SOL    HW212375   0.231   6.509   0.547
 3826SOL     OW12376   0.262   3.309   0.156
 3826SOL    HW112377   0.265   3.280   0.060
 3826SOL    HW212378   0.171   3.345   0.177
 3827SOL     OW12379   2.967   2.662   1.288
 3827SOL    HW112380   3.046   2.723   1.284
 3827SOL    HW212381   2.994   2.576   1.332
 3828SOL     OW12382   3.760   2.201   1.627
 3828SOL    HW112383   3.859   2.214   1.632
 3828SOL    HW212384   3.719   2.220   1.717
 3829SOL     OW12385   2.211   4.218   4.744
 3829SOL    HW112386   2.206   4.119   4.752
 3829SOL    HW212387   2.118   4.256   4.742
 3830SOL     OW12388   0.719   0.205   4.667
 3830SOL    HW112389   0.688   0.241   4.579
 3830SOL    HW212390   0.650   0.144   4.705
 3831SOL     OW12391   4.840   1.573   2.541
 3831SOL    HW112392   4.753   1.527   2.556
 3831SOL    HW212393   4.835   1.667   2.574
 3832SOL     OW12394   5.746   0.589   2.363
 3832SOL    HW112395   5.811   0.565   2.434
 3832SOL    HW212396   5.743   0.518   2.293
 3833SOL     OW12397   0.730   5.427   6.185
 3833SOL    HW112398   0.819   5.454   6.221
 3833SOL    HW212399   0.726   5.448   6.088
 3834SOL     OW12400   3.769   2.604   1.045
 3834SOL    HW112401   3.836   2.591   1.118
 3834SOL    HW212402   3.681   2.565   1.072
 3835SOL     OW12403   2.868   5.225   5.127
 3835SOL    HW112404   2.861   5.316   5.169
 3835SOL    HW212405   2.777   5.192   5.105
 3836SOL     OW12406   1.541   4.137   5.731
 3836SOL    HW112407   1.619   4.176   5.780
 3836SOL    HW212408   1.558   4.040   5.712
 3837SOL     OW12409   4.786   3.872   0.079
 3837SOL    HW112410   4.825   3.781   0.093
 3837SOL    HW212411   4.724   3.894   0.155
 3838SOL     OW12412   6.928   3.600   4.216
 3838SOL    HW112413   6.934   3.651   4.130
 3838SOL    HW212414   6.915   3.503   4.196
 3839SOL     OW12415   4.016   0.730   4.278
 3839SOL    HW112416   4.086   0.674   4.321
 3839SOL    HW212417   3.985   0.687   4.193
 3840SOL     OW12418   1.891   1.244   5.163
 3840SOL    HW112419   1.892   1.332   5.115
 3840SOL    HW212420   1.984   1.207   5.166
 3841SOL     OW12421   0.130   3.141   5.281
 3841SOL    HW112422   0.077   3.179   5.205
 3841SOL    HW212423   0.180   3.213   5.327
 3842SOL     OW12424   0.875   4.022   6.660
 3842SOL    HW112425   0.882   4.054   6.566
 3842SOL    HW212426   0.779   4.011   6.685
 3843SOL     OW12427   6.784   4.676   1.806
 3843SOL    HW112428   6.848   4.749   1.829
 3843SOL    HW212429   6.808   4.639   1.716
 3844SOL     OW12430   6.973   3.702   6.140
 3844SOL    HW112431   7.003   3.613   6.103
 3844SOL    HW212432   6.957   3.693   6.238
 3845SOL     OW12433   3.705   2.902   2.786
 3845SOL    HW112434   3.710   2.941   2.878
 3845SOL    HW212435   3.678   2.806   2.791
 3846SOL     OW12436   0.672   4.613   4.073
 3846SOL    HW112437   0.730   4.550   4.125
 3846SOL    HW212438   0.644   4.569   3.988
 3847SOL     OW12439   6.013   1.024   5.292
 3847SOL    HW112440   6.013   1.115   5.251
 3847SOL    HW212441   5.918   0.993   5.303
 3848SOL     OW12442   3.218   5.571   2.520
 3848SOL    HW112443   3.217   5.597   2.616
 3848SOL    HW212444   3.176   5.481   2.509
 3849SOL     OW12445   0.926   1.673   5.123
 3849SOL    HW112446   0.866   1.593   5.121
 3849SOL    HW212447   0.995   1.664   5.052
 3850SOL     OW12448   2.605   3.439   1.267
 3850SOL    HW112449   2.587   3.345   1.298
 3850SOL    HW212450   2.528   3.497   1.292
 3851SOL     OW12451   1.391   4.271   3.186
 3851SOL    HW112452   1.417   4.174   3.188
 3851SOL    HW212453   1.421   4.312   3.100
 3852SOL     OW12454   4.883   6.714   4.251
 3852SOL    HW112455   4.872   6.726   4.350
 3852SOL    HW212456   4.876   6.617   4.228
 3853SOL     OW12457   1.734   3.039   2.595
 3853SOL    HW112458   1.659   2.975   2.612
 3853SOL    HW212459   1.798   3.037   2.672
 3854SOL     OW12460   1.320   3.536   2.747
 3854SOL    HW112461   1.369   3.455   2.779
 3854SOL    HW212462   1.223   3.517   2.741
 3855SOL     OW12463   4.443   5.903   6.841
 3855SOL    HW112464   4.510   5.851   6.788
 3855SOL    HW212465   4.354   5.898   6.795
 3856SOL     OW12466   6.896   6.121   5.283
 3856SOL    HW112467   6.835   6.099   5.360
 3856SOL    HW212468   6.919   6.218   5.286
 3857SOL     OW12469   1.005   5.566   5.917
 3857SOL    HW112470   1.096   5.587   5.950
 3857SOL    HW212471   0.999   5.588   5.819
 3858SOL     OW12472   1.533   6.149   5.587
 3858SOL    HW112473   1.543   6.172   5.490
 3858SOL    HW212474   1.621   6.119   5.623
 3859SOL     OW12475   6.631   2.158   2.714
 3859SOL    HW112476   6.573   2.199   2.644
 3859SOL    HW212477   6.591   2.174   2.804
 3860SOL     OW12478   1.154   0.350   5.610
 3860SOL    HW112479   1.098   0.410   5.553
 3860SOL    HW212480   1.250   0.357   5.582
 3861SOL     OW12481   5.196   4.273   1.911
 3861SOL    HW112482   5.110   4.308   1.947
 3861SOL    HW212483   5.262   4.262   1.986
 3862SOL     OW12484   0.655   6.471   5.052
 3862SOL    HW112485   0.702   6.477   4.965
 3862SOL    HW212486   0.691   6.541   5.115
 3863SOL     OW12487   3.790   4.149   6.459
 3863SOL    HW112488   3.881   4.138   6.419
 3863SOL    HW212489   3.753   4.060   6.484
 3864SOL     OW12490   3.940   1.759   5.491
 3864SOL    HW112491   3.852   1.745   5.535
 3864SOL    HW212492   3.937   1.844   5.438
 3865SOL     OW12493   3.810   0.496   1.507
 3865SOL    HW112494   3.827   0.534   1.598
 3865SOL    HW212495   3.828   0.398   1.508
 3866SOL     OW12496   4.177   0.906   0.923
 3866SOL    HW112497   4.277   0.912   0.923
 3866SOL    HW212498   4.138   0.995   0.901
 3867SOL     OW12499   1.551   3.282   4.132
 3867SOL    HW112500   1.517   3.285   4.038
 3867SOL    HW212501   1.532   3.369   4.177
 3868SOL     OW12502   2.181   6.602   1.710
 3868SOL    HW112503   2.262   6.661   1.705
 3868SOL    HW212504   2.163   6.562   1.620
 3869SOL     OW12505   6.749   3.188   4.761
 3869SOL    HW112506   6.694   3.130   4.700
 3869SOL    HW212507   6.764   3.276   4.717
 3870SOL     OW12508   4.508   4.496   0.597
 3870SOL    HW112509   4.475   4.472   0.505
 3870SOL    HW212510   4.523   4.413   0.649
 3871SOL     OW12511   3.512   0.850   2.321
 3871SOL    HW112512   3.417   0.852   2.353
 3871SOL    HW212513   3.525   0.919   2.250
 3872SOL     OW12514   3.308   3.067   1.876
 3872SOL    HW112515   3.395   3.091   1.921
 3872SOL    HW212516   3.251   3.016   1.941
 3873SOL     OW12517   5.896   5.715   1.163
 3873SOL    HW112518   5.833   5.638   1.167
 3873SOL    HW212519   5.884   5.771   1.245
 3874SOL     OW12520   3.948   6.158   6.852
 3874SOL    HW112521   4.029   6.105   6.826
 3874SOL    HW212522   3.866   6.103   6.833
 3875SOL     OW12523   1.098   3.138   2.313
 3875SOL    HW112524   1.149   3.097   2.237
 3875SOL    HW212525   1.126   3.095   2.399
 3876SOL     OW12526   5.878   5.464   6.068
 3876SOL    HW112527   5.944   5.450   6.142
 3876SOL    HW212528   5.857   5.561   6.060
 3877SOL     OW12529   6.571   1.663   0.253
 3877SOL    HW112530   6.504   1.591   0.270
 3877SOL    HW212531   6.641   1.661   0.324
 3878SOL     OW12532   2.575   6.339   5.718
 3878SOL    HW112533   2.497   6.325   5.657
 3878SOL    HW212534   2.549   6.315   5.811
 3879SOL     OW12535   4.058   6.333   1.481
 3879SOL    HW112536   4.005   6.296   1.404
 3879SOL    HW212537   4.100   6.420   1.455
 3880SOL     OW12538   5.951   4.320   3.194
 3880SOL    HW112539   5.881   4.262   3.235
 3880SOL    HW212540   5.926   4.340   3.099
 3881SOL     OW12541   1.274   5.257   0.845
 3881SOL    HW112542   1.360   5.306   0.859
 3881SOL    HW212543   1.236   5.279   0.755
 3882SOL     OW12544   6.493   1.376   4.829
 3882SOL    HW112545   6.526   1.292   4.873
 3882SOL    HW212546   6.537   1.387   4.740
 3883SOL     OW12547   4.665   1.122   3.975
 3883SOL    HW112548   4.733   1.073   3.920
 3883SOL    HW212549   4.593   1.158   3.915
 3884SOL     OW12550   1.398   5.911   4.518
 3884SOL    HW112551   1.455   5.978   4.565
 3884SOL    HW212552   1.455   5.833   4.491
 3885SOL     OW12553   6.587   0.947   4.684
 3885SOL    HW112554   6.686   0.945   4.668
 3885SOL    HW212555   6.542   0.990   4.607
 3886SOL     OW12556   6.258   0.268   5.652
 3886SOL    HW112557   6.215   0.358   5.664
 3886SOL    HW212558   6.193   0.196   5.676
 3887SOL     OW12559   5.637   2.141   5.759
 3887SOL    HW112560   5.622   2.237   5.781
 3887SOL    HW212561   5.622   2.085   5.841
 3888SOL     OW12562   0.111   0.427   6.226
 3888SOL    HW112563   0.122   0.488   6.305
 3888SOL    HW212564   0.019   0.438   6.188
 3889SOL     OW12565   7.000   4.351   6.850
 3889SOL    HW112566   6.961   4.365   6.941
 3889SOL    HW212567   6.926   4.348   6.782
 3890SOL     OW12568   6.646   6.510   2.934
 3890SOL    HW112569   6.649   6.412   2.952
 3890SOL    HW212570   6.589   6.528   2.855
 3891SOL     OW12571   5.454   4.412   4.820
 3891SOL    HW112572   5.449   4.456   4.731
 3891SOL    HW212573   5.362   4.395   4.855
 3892SOL     OW12574   0.919   0.146   2.238
 3892SOL    HW112575   0.913   0.201   2.321
 3892SOL    HW212576   0.990   0.076   2.250
 3893SOL     OW12577   3.687   5.829   2.650
 3893SOL    HW112578   3.624   5.826   2.727
 3893SOL    HW212579   3.676   5.916   2.602
 3894SOL     OW12580   3.500   2.450   0.972
 3894SOL    HW112581   3.516   2.453   1.070
 3894SOL    HW212582   3.551   2.374   0.932
 3895SOL     OW12583   0.685   0.870   5.860
 3895SOL    HW112584   0.683   0.945   5.794
 3895SOL    HW212585   0.669   0.784   5.813
 3896SOL     OW12586   0.764   2.544   6.167
 3896SOL    HW112587   0.822   2.520   6.090
 3896SOL    HW212588   0.668   2.541   6.139
 3897SOL     OW12589   3.179   6.495   2.420
 3897SOL    HW112590   3.260   6.447   2.456
 3897SOL    HW212591   3.105   6.490   2.487
 3898SOL     OW12592   3.336   2.950   3.250
 3898SOL    HW112593   3.327   2.863   3.200
 3898SOL    HW212594   3.247   2.995   3.252
 3899SOL     OW12595   5.271   1.049   4.744
 3899SOL    HW112596   5.272   1.054   4.844
 3899SOL    HW212597   5.363   1.064   4.709
 3900SOL     OW12598   5.851   2.850   3.118
 3900SOL    HW112599   5.802   2.912   3.180
 3900SOL    HW212600   5.894   2.777   3.171
 3901SOL     OW12601   1.772   6.063   5.656
 3901SOL    HW112602   1.859   6.110   5.673
 3901SOL    HW212603   1.769   5.978   5.707
 3902SOL     OW12604   4.748   4.296   3.022
 3902SOL    HW112605   4.755   4.298   2.922
 3902SOL    HW212606   4.840   4.296   3.062
 3903SOL     OW12607   4.241   4.246   6.661
 3903SOL    HW112608   4.283   4.320   6.608
 3903SOL    HW212609   4.142   4.256   6.660
 3904SOL     OW12610   1.061   6.854   6.852
 3904SOL    HW112611   1.106   6.792   6.916
 3904SOL    HW212612   1.096   6.838   6.759
 3905SOL     OW12613   6.142   6.621   6.513
 3905SOL    HW112614   6.190   6.649   6.430
 3905SOL    HW212615   6.095   6.534   6.496
 3906SOL     OW12616   1.891   4.626   4.700
 3906SOL    HW112617   1.919   4.682   4.778
 3906SOL    HW212618   1.932   4.663   4.616
 3907SOL     OW12619   0.721   0.833   4.738
 3907SOL    HW112620   0.808   0.881   4.736
 3907SOL    HW212621   0.710   0.786   4.825
 3908SOL     OW12622   0.788   0.397   5.990
 3908SOL    HW112623   0.787   0.302   5.959
 3908SOL    HW212624   0.699   0.439   5.972
 3909SOL     OW12625   5.076   3.871   6.386
 3909SOL    HW112626   5.154   3.834   6.335
 3909SOL    HW212627   5.109   3.943   6.448
 3910SOL     OW12628   3.707   4.000   1.963
 3910SOL    HW112629   3.743   4.002   2.056
 3910SOL    HW212630   3.618   4.046   1.960
 3911SOL     OW12631   5.351   0.362   0.576
 3911SOL    HW112632   5.392   0.277   0.540
 3911SOL    HW212633   5.256   0.345   0.602
 3912SOL     OW12634   3.148   1.036   5.752
 3912SOL    HW112635   3.236   1.083   5.756
 3912SOL    HW212636   3.105   1.053   5.663
 3913SOL     OW12637   3.803   5.901   6.828
 3913SOL    HW112638   3.834   5.810   6.857
 3913SOL    HW212639   3.753   5.944   6.903
 3914SOL     OW12640   5.366   1.948   1.571
 3914SOL    HW112641   5.366   2.048   1.566
 3914SOL    HW212642   5.360   1.910   1.479
 3915SOL     OW12643   3.113   6.565   0.132
 3915SOL    HW112644   3.024   6.595   0.166
 3915SOL    HW212645   3.158   6.509   0.201
 3916SOL     OW12646   3.016   0.118   3.127
 3916SOL    HW112647   3.057   0.208   3.143
 3916SOL    HW212648   3.086   0.048   3.140
 3917SOL     OW12649   2.658   5.127   0.345
 3917SOL    HW112650   2.736   5.072   0.315
 3917SOL    HW212651   2.689   5.197   0.409
 3918SOL     OW12652   4.700   1.264   0.505
 3918SOL    HW112653   4.671   1.246   0.411
 3918SOL    HW212654   4.696   1.362   0.524
 3919SOL     OW12655   3.914   1.139   1.316
 3919SOL    HW112656   3.915   1.066   1.384
 3919SOL    HW212657   3.897   1.101   1.226
 3920SOL     OW12658   2.383   1.228   6.916
 3920SOL    HW112659   2.323   1.165   6.867
 3920SOL    HW212660   2.391   1.199   7.012
 3921SOL     OW12661   6.682   2.929   6.710
 3921SOL    HW112662   6.711   2.928   6.805
 3921SOL    HW212663   6.589   2.965   6.704
 3922SOL     OW12664   4.622   4.888   2.134
 3922SOL    HW112665   4.633   4.832   2.051
 3922SOL    HW212666   4.552   4.958   2.117
 3923SOL     OW12667   6.095   1.198   1.194
 3923SOL    HW112668   6.021   1.200   1.261
 3923SOL    HW212669   6.179   1.167   1.239
 3924SOL     OW12670   7.013   4.291   3.311
 3924SOL    HW112671   0.063   4.263   3.378
 3924SOL    HW212672   0.031   4.280   3.218
 3925SOL     OW12673   4.647   4.303   0.775
 3925SOL    HW112674   4.619   4.210   0.802
 3925SOL    HW212675   4.696   4.298   0.688
 3926SOL     OW12676   1.106   0.168   5.817
 3926SOL    HW112677   1.106   0.221   5.732
 3926SOL    HW212678   1.164   0.215   5.884
 3927SOL     OW12679   0.710   3.361   4.036
 3927SOL    HW112680   0.750   3.443   3.996
 3927SOL    HW212681   0.673   3.382   4.126
 3928SOL     OW12682   3.196   6.601   3.023
 3928SOL    HW112683   3.100   6.628   3.037
 3928SOL    HW212684   3.256   6.670   3.064
 3929SOL     OW12685   6.665   1.702   6.673
 3929SOL    HW112686   6.579   1.741   6.640
 3929SOL    HW212687   6.742   1.754   6.634
 3930SOL     OW12688   1.152   2.227   3.748
 3930SOL    HW112689   1.209   2.310   3.745
 3930SOL    HW212690   1.103   2.217   3.662
 3931SOL     OW12691   1.673   1.925   1.990
 3931SOL    HW112692   1.602   1.995   1.981
 3931SOL    HW212693   1.629   1.835   1.996
 3932SOL     OW12694   2.194   5.693   3.650
 3932SOL    HW112695   2.126   5.687   3.723
 3932SOL    HW212696   2.164   5.760   3.582
 3933SOL     OW12697   0.924   5.478   0.612
 3933SOL    HW112698   0.962   5.557   0.563
 3933SOL    HW212699   0.995   5.410   0.627
 3934SOL     OW12700   0.291   2.107   2.917
 3934SOL    HW112701   0.384   2.071   2.912
 3934SOL    HW212702   0.240   2.057   2.987
 3935SOL     OW12703   6.277   2.835   6.687
 3935SOL    HW112704   6.329   2.812   6.770
 3935SOL    HW212705   6.214   2.910   6.706
 3936SOL     OW12706   0.019   5.926   4.831
 3936SOL    HW112707   6.995   5.952   4.918
 3936SOL    HW212708   6.984   5.856   4.786
 3937SOL     OW12709   0.443   5.201   2.691
 3937SOL    HW112710   0.413   5.292   2.660
 3937SOL    HW212711   0.442   5.198   2.791
 3938SOL     OW12712   6.939   3.550   4.925
 3938SOL    HW112713   6.860   3.610   4.941
 3938SOL    HW212714   7.012   3.603   4.881
 3939SOL     OW12715   1.237   1.152   2.383
 3939SOL    HW112716   1.313   1.108   2.335
 3939SOL    HW212717   1.203   1.229   2.328
 3940SOL     OW12718   3.052   4.772   1.822
 3940SOL    HW112719   2.998   4.856   1.811
 3940SOL    HW212720   2.995   4.700   1.861
 3941SOL     OW12721   5.820   6.740   4.585
 3941SOL    HW112722   5.759   6.687   4.526
 3941SOL    HW212723   5.867   6.679   4.649
 3942SOL     OW12724   1.601   6.171   5.962
 3942SOL    HW112725   1.530   6.164   6.032
 3942SOL    HW212726   1.682   6.119   5.991
 3943SOL     OW12727   1.232   3.819   1.778
 3943SOL    HW112728   1.312   3.879   1.788
 3943SOL    HW212729   1.244   3.738   1.835
 3944SOL     OW12730   5.365   3.231   6.681
 3944SOL    HW112731   5.270   3.241   6.710
 3944SOL    HW212732   5.399   3.319   6.647
 3945SOL     OW12733   0.830   2.134   3.154
 3945SOL    HW112734   0.843   2.140   3.055
 3945SOL    HW212735   0.799   2.043   3.179
 3946SOL     OW12736   6.827   3.562   0.443
 3946SOL    HW112737   6.740   3.592   0.403
 3946SOL    HW212738   6.880   3.642   0.471
 3947SOL     OW12739   5.920   5.815   0.025
 3947SOL    HW112740   5.875   5.737   7.001
 3947SOL    HW212741   5.970   5.784   0.106
 3948SOL     OW12742   1.967   3.159   6.911
 3948SOL    HW112743   1.944   3.080   6.967
 3948SOL    HW212744   2.006   3.231   6.968
 3949SOL     OW12745   6.601   6.796   2.658
 3949SOL    HW112746   6.616   6.753   2.569
 3949SOL    HW212747   6.650   6.883   2.662
 3950SOL     OW12748   4.190   4.007   1.746
 3950SOL    HW112749   4.152   3.990   1.837
 3950SOL    HW212750   4.281   4.047   1.755
 3951SOL     OW12751   0.445   2.581   5.831
 3951SOL    HW112752   0.531   2.630   5.818
 3951SOL    HW212753   0.444   2.500   5.772
 3952SOL     OW12754   5.729   2.481   4.830
 3952SOL    HW112755   5.644   2.428   4.837
 3952SOL    HW212756   5.734   2.524   4.740
 3953SOL     OW12757   3.200   3.715   6.142
 3953SOL    HW112758   3.143   3.643   6.103
 3953SOL    HW212759   3.144   3.795   6.161
 3954SOL     OW12760   6.342   3.948   5.421
 3954SOL    HW112761   6.294   3.985   5.342
 3954SOL    HW212762   6.405   3.877   5.391
 3955SOL     OW12763   4.945   6.435   0.393
 3955SOL    HW112764   4.902   6.354   0.354
 3955SOL    HW212765   4.899   6.459   0.478
 3956SOL     OW12766   0.861   3.052   5.707
 3956SOL    HW112767   0.835   3.137   5.662
 3956SOL    HW212768   0.946   3.018   5.667
 3957SOL     OW12769   3.100   6.886   4.152
 3957SOL    HW112770   3.126   6.818   4.082
 3957SOL    HW212771   3.182   6.916   4.201
 3958SOL     OW12772   6.412   6.628   0.186
 3958SOL    HW112773   6.490   6.691   0.185
 3958SOL    HW212774   6.367   6.633   0.276
 3959SOL     OW12775   2.819   5.493   1.027
 3959SOL    HW112776   2.879   5.537   1.093
 3959SOL    HW212777   2.844   5.522   0.934
 3960SOL     OW12778   4.437   2.422   6.896
 3960SOL    HW112779   4.491   2.350   6.853
 3960SOL    HW212780   4.423   2.400   6.992
 3961SOL     OW12781   5.298   2.312   2.163
 3961SOL    HW112782   5.254   2.296   2.251
 3961SOL    HW212783   5.367   2.384   2.173
 3962SOL     OW12784   0.779   5.810   0.125
 3962SOL    HW112785   0.715   5.872   0.172
 3962SOL    HW212786   0.807   5.738   0.188
 3963SOL     OW12787   5.206   5.430   3.239
 3963SOL    HW112788   5.247   5.339   3.241
 3963SOL    HW212789   5.128   5.433   3.301
 3964SOL     OW12790   5.055   5.938   5.143
 3964SOL    HW112791   5.144   5.964   5.183
 3964SOL    HW212792   5.068   5.865   5.077
 3965SOL     OW12793   3.325   4.710   6.959
 3965SOL    HW112794   3.227   4.712   6.939
 3965SOL    HW212795   3.369   4.639   6.903
 3966SOL     OW12796   6.322   4.156   6.259
 3966SOL    HW112797   6.363   4.066   6.275
 3966SOL    HW212798   6.379   4.226   6.303
 3967SOL     OW12799   0.909   5.103   3.734
 3967SOL    HW112800   0.873   5.028   3.789
 3967SOL    HW212801   0.835   5.145   3.682
 3968SOL     OW12802   5.528   0.397   2.970
 3968SOL    HW112803   5.480   0.345   3.040
 3968SOL    HW212804   5.609   0.346   2.941
 3969SOL     OW12805   1.513   4.829   3.019
 3969SOL    HW112806   1.438   4.858   2.960
 3969SOL    HW212807   1.501   4.732   3.043
 3970SOL     OW12808   4.718   4.886   4.470
 3970SOL    HW112809   4.740   4.906   4.374
 3970SOL    HW212810   4.641   4.943   4.499
 3971SOL     OW12811   3.180   5.505   2.986
 3971SOL    HW112812   3.240   5.447   3.042
 3971SOL    HW212813   3.086   5.473   2.993
 3972SOL     OW12814   0.265   6.178   0.886
 3972SOL    HW112815   0.291   6.095   0.837
 3972SOL    HW212816   0.348   6.228   0.913
 3973SOL     OW12817   3.128   3.090   5.128
 3973SOL    HW112818   3.097   3.049   5.043
 3973SOL    HW212819   3.170   3.019   5.185
 3974SOL     OW12820   0.380   1.598   6.190
 3974SOL    HW112821   0.366   1.510   6.237
 3974SOL    HW212822   0.450   1.586   6.119
 3975SOL     OW12823   6.481   0.402   5.882
 3975SOL    HW112824   6.388   0.401   5.847
 3975SOL    HW212825   6.482   0.443   5.973
 3976SOL     OW12826   0.571   4.177   1.173
 3976SOL    HW112827   0.533   4.251   1.228
 3976SOL    HW212828   0.498   4.115   1.145
 3977SOL     OW12829   2.686   6.068   5.513
 3977SOL    HW112830   2.669   6.157   5.554
 3977SOL    HW212831   2.768   6.072   5.455
 3978SOL     OW12832   5.919   1.526   5.784
 3978SOL    HW112833   5.840   1.472   5.756
 3978SOL    HW212834   5.986   1.528   5.710
 3979SOL     OW12835   2.135   0.296   1.550
 3979SOL    HW112836   2.195   0.235   1.498
 3979SOL    HW212837   2.132   0.386   1.506
 3980SOL     OW12838   5.602   3.232   4.596
 3980SOL    HW112839   5.527   3.208   4.657
 3980SOL    HW212840   5.677   3.272   4.649
 3981SOL     OW12841   6.931   2.070   6.302
 3981SOL    HW112842   0.009   2.048   6.301
 3981SOL    HW212843   6.913   2.141   6.370
 3982SOL     OW12844   2.095   1.085   4.971
 3982SOL    HW112845   2.051   1.002   4.936
 3982SOL    HW212846   2.110   1.077   5.069
 3983SOL     OW12847   3.540   6.733   4.788
 3983SOL    HW112848   3.520   6.683   4.872
 3983SOL    HW212849   3.462   6.726   4.725
 3984SOL     OW12850   1.891   6.682   2.054
 3984SOL    HW112851   1.801   6.641   2.067
 3984SOL    HW212852   1.905   6.756   2.119
 3985SOL     OW12853   1.785   4.254   6.769
 3985SOL    HW112854   1.750   4.345   6.746
 3985SOL    HW212855   1.729   4.214   6.841
 3986SOL     OW12856   0.477   1.937   1.809
 3986SOL    HW112857   0.466   1.838   1.799
 3986SOL    HW212858   0.413   1.971   1.879
 3987SOL     OW12859   1.447   5.846   5.247
 3987SOL    HW112860   1.376   5.910   5.220
 3987SOL    HW212861   1.514   5.892   5.304
 3988SOL     OW12862   3.559   1.752   6.554
 3988SOL    HW112863   3.648   1.713   6.532
 3988SOL    HW212864   3.504   1.759   6.471
 3989SOL     OW12865   6.144   6.876   6.620
 3989SOL    HW112866   6.187   6.954   6.573
 3989SOL    HW212867   6.161   6.792   6.568
 3990SOL     OW12868   6.771   2.565   5.035
 3990SOL    HW112869   6.687   2.609   5.064
 3990SOL    HW212870   6.749   2.478   4.990
 3991SOL     OW12871   0.194   2.502   3.583
 3991SOL    HW112872   0.243   2.431   3.633
 3991SOL    HW212873   0.181   2.581   3.642
 3992SOL     OW12874   3.703   3.202   6.795
 3992SOL    HW112875   3.669   3.253   6.715
 3992SOL    HW212876   3.755   3.123   6.763
 3993SOL     OW12877   2.731   2.180   2.774
 3993SOL    HW112878   2.722   2.159   2.677
 3993SOL    HW212879   2.817   2.230   2.790
 3994SOL     OW12880   2.205   2.522   5.134
 3994SOL    HW112881   2.157   2.587   5.075
 3994SOL    HW212882   2.303   2.525   5.113
 3995SOL     OW12883   2.296   4.271   3.552
 3995SOL    HW112884   2.357   4.331   3.502
 3995SOL    HW212885   2.285   4.185   3.503
 3996SOL     OW12886   1.923   1.426   4.127
 3996SOL    HW112887   1.999   1.487   4.109
 3996SOL    HW212888   1.837   1.473   4.109
 3997SOL     OW12889   4.966   3.462   3.427
 3997SOL    HW112890   4.951   3.412   3.341
 3997SOL    HW212891   5.051   3.514   3.420
 3998SOL     OW12892   6.034   2.032   1.783
 3998SOL    HW112893   6.012   2.104   1.849
 3998SOL    HW212894   5.984   2.048   1.698
 3999SOL     OW12895   6.223   4.065   3.462
 3999SOL    HW112896   6.213   4.113   3.549
 3999SOL    HW212897   6.200   3.969   3.474
 4000SOL     OW12898   3.282   5.961   2.949
 4000SOL    HW112899   3.222   6.016   2.891
 4000SOL    HW212900   3.318   6.019   3.022
 4001SOL     OW12901   2.433   4.365   6.056
 4001SOL    HW112902   2.463   4.307   5.980
 4001SOL    HW212903   2.333   4.366   6.060
 4002SOL     OW12904   3.748   2.925   4.559
 4002SOL    HW112905   3.680   2.871   4.610
 4002SOL    HW212906   3.810   2.970   4.622
 4003SOL     OW12907   1.918   1.494   6.005
 4003SOL    HW112908   1.957   1.403   6.016
 4003SOL    HW212909   1.856   1.514   6.081
 4004SOL     OW12910   6.620   3.279   3.850
 4004SOL    HW112911   6.674   3.232   3.920
 4004SOL    HW212912   6.523   3.271   3.872
 4005SOL     OW12913   4.051   4.577   0.748
 4005SOL    HW112914   4.118   4.566   0.674
 4005SOL    HW212915   4.054   4.672   0.781
 4006SOL     OW12916   5.353   4.654   1.977
 4006SOL    HW112917   5.444   4.685   2.005
 4006SOL    HW212918   5.360   4.605   1.890
 4007SOL     OW12919   0.298   2.435   3.043
 4007SOL    HW112920   0.292   2.398   2.950
 4007SOL    HW212921   0.303   2.359   3.108
 4008SOL     OW12922   3.371   0.642   6.584
 4008SOL    HW112923   3.370   0.659   6.485
 4008SOL    HW212924   3.278   0.645   6.619
 4009SOL     OW12925   4.710   1.855   1.486
 4009SOL    HW112926   4.705   1.872   1.584
 4009SOL    HW212927   4.629   1.805   1.456
 4010SOL     OW12928   3.306   3.420   1.813
 4010SOL    HW112929   3.234   3.372   1.762
 4010SOL    HW212930   3.317   3.377   1.903
 4011SOL     OW12931   6.661   6.129   1.786
 4011SOL    HW112932   6.587   6.070   1.753
 4011SOL    HW212933   6.667   6.210   1.728
 4012SOL     OW12934   4.549   6.775   2.689
 4012SOL    HW112935   4.465   6.830   2.696
 4012SOL    HW212936   4.529   6.691   2.638
 4013SOL     OW12937   2.043   0.430   1.193
 4013SOL    HW112938   2.039   0.519   1.147
 4013SOL    HW212939   2.100   0.368   1.140
 4014SOL     OW12940   3.331   6.138   4.114
 4014SOL    HW112941   3.366   6.049   4.083
 4014SOL    HW212942   3.283   6.182   4.038
 4015SOL     OW12943   4.585   5.328   6.572
 4015SOL    HW112944   4.594   5.422   6.540
 4015SOL    HW212945   4.616   5.265   6.501
 4016SOL     OW12946   3.117   5.683   0.003
 4016SOL    HW112947   3.214   5.707   0.008
 4016SOL    HW212948   3.104   5.611   6.954
 4017SOL     OW12949   0.172   5.438   5.221
 4017SOL    HW112950   0.114   5.477   5.292
 4017SOL    HW212951   0.268   5.444   5.250
 4018SOL     OW12952   4.305   0.185   1.911
 4018SOL    HW112953   4.381   0.171   1.974
 4018SOL    HW212954   4.274   0.280   1.916
 4019SOL     OW12955   5.502   3.772   2.764
 4019SOL    HW112956   5.507   3.788   2.666
 4019SOL    HW212957   5.517   3.675   2.783
 4020SOL     OW12958   6.635   2.736   5.633
 4020SOL    HW112959   6.716   2.706   5.583
 4020SOL    HW212960   6.660   2.751   5.729
 4021SOL     OW12961   3.547   4.234   5.355
 4021SOL    HW112962   3.565   4.297   5.431
 4021SOL    HW212963   3.468   4.266   5.303
 4022SOL     OW12964   3.424   6.295   6.384
 4022SOL    HW112965   3.401   6.380   6.431
 4022SOL    HW212966   3.343   6.260   6.337
 4023SOL     OW12967   6.852   0.603   5.120
 4023SOL    HW112968   6.796   0.649   5.051
 4023SOL    HW212969   6.922   0.666   5.153
 4024SOL     OW12970   2.432   4.488   4.142
 4024SOL    HW112971   2.351   4.520   4.190
 4024SOL    HW212972   2.430   4.388   4.137
 4025SOL     OW12973   0.520   6.260   4.371
 4025SOL    HW112974   0.536   6.358   4.354
 4025SOL    HW212975   0.605   6.210   4.358
 4026SOL     OW12976   6.328   6.550   4.050
 4026SOL    HW112977   6.279   6.528   3.966
 4026SOL    HW212978   6.356   6.465   4.095
 4027SOL     OW12979   2.513   2.846   0.039
 4027SOL    HW112980   2.417   2.867   0.021
 4027SOL    HW212981   2.552   2.797   6.979
 4028SOL     OW12982   4.661   1.490   3.857
 4028SOL    HW112983   4.634   1.509   3.762
 4028SOL    HW212984   4.749   1.536   3.875
 4029SOL     OW12985   2.747   4.059   5.712
 4029SOL    HW112986   2.752   4.158   5.693
 4029SOL    HW212987   2.800   4.038   5.793
 4030SOL     OW12988   6.752   1.094   2.034
 4030SOL    HW112989   6.795   1.004   2.033
 4030SOL    HW212990   6.654   1.084   2.047
 4031SOL     OW12991   5.523   6.071   3.308
 4031SOL    HW112992   5.493   6.009   3.380
 4031SOL    HW212993   5.454   6.074   3.236
 4032SOL     OW12994   6.831   6.676   2.202
 4032SOL    HW112995   6.771   6.711   2.130
 4032SOL    HW212996   6.885   6.600   2.167
 4033SOL     OW12997   2.363   3.315   1.339
 4033SOL    HW112998   2.274   3.316   1.293
 4033SOL    HW212999   2.377   3.401   1.388
 4034SOL     OW13000   5.881   2.111   4.987
 4034SOL    HW113001   5.906   2.029   4.935
 4034SOL    HW213002   5.945   2.122   5.064
 4035SOL     OW13003   5.947   1.227   0.673
 4035SOL    HW113004   6.033   1.227   0.623
 4035SOL    HW213005   5.897   1.142   0.655
 4036SOL     OW13006   4.021   4.771   2.257
 4036SOL    HW113007   3.939   4.824   2.235
 4036SOL    HW213008   4.072   4.751   2.173
 4037SOL     OW13009   1.945   1.787   0.154
 4037SOL    HW113010   1.890   1.759   0.075
 4037SOL    HW213011   1.920   1.880   0.181
 4038SOL     OW13012   4.158   2.994   1.344
 4038SOL    HW113013   4.173   3.048   1.261
 4038SOL    HW213014   4.143   3.055   1.421
 4039SOL     OW13015   5.776   5.574   1.438
 4039SOL    HW113016   5.772   5.482   1.397
 4039SOL    HW213017   5.849   5.577   1.506
 4040SOL     OW13018   3.703   6.820   5.054
 4040SOL    HW113019   3.621   6.790   5.005
 4040SOL    HW213020   3.677   6.860   5.142
 4041SOL     OW13021   1.290   4.980   0.865
 4041SOL    HW113022   1.219   4.956   0.798
 4041SOL    HW213023   1.293   5.079   0.876
 4042SOL     OW13024   6.110   6.037   4.282
 4042SOL    HW113025   6.012   6.053   4.296
 4042SOL    HW213026   6.141   5.963   4.341
 4043SOL     OW13027   6.869   2.413   6.218
 4043SOL    HW113028   6.896   2.365   6.301
 4043SOL    HW213029   6.822   2.351   6.156
 4044SOL     OW13030   4.627   6.478   3.937
 4044SOL    HW113031   4.646   6.571   3.967
 4044SOL    HW213032   4.550   6.478   3.874
 4045SOL     OW13033   3.989   5.740   5.854
 4045SOL    HW113034   3.946   5.685   5.783
 4045SOL    HW213035   3.923   5.757   5.927
 4046SOL     OW13036   1.400   1.703   3.522
 4046SOL    HW113037   1.336   1.641   3.568
 4046SOL    HW213038   1.387   1.796   3.558
 4047SOL     OW13039   2.388   2.685   0.230
 4047SOL    HW113040   2.441   2.642   0.302
 4047SOL    HW213041   2.447   2.748   0.179
 4048SOL     OW13042   5.417   1.789   2.050
 4048SOL    HW113043   5.500   1.762   2.001
 4048SOL    HW213044   5.384   1.876   2.015
 4049SOL     OW13045   5.165   4.944   6.333
 4049SOL    HW113046   5.194   4.906   6.421
 4049SOL    HW213047   5.108   4.877   6.285
 4050SOL     OW13048   1.220   6.526   1.761
 4050SOL    HW113049   1.279   6.445   1.767
 4050SOL    HW213050   1.126   6.497   1.743
 4051SOL     OW13051   4.081   1.338   6.565
 4051SOL    HW113052   3.997   1.310   6.519
 4051SOL    HW213053   4.150   1.266   6.554
 4052SOL     OW13054   6.148   1.201   2.224
 4052SOL    HW113055   6.230   1.251   2.251
 4052SOL    HW213056   6.086   1.263   2.176
 4053SOL     OW13057   3.064   6.504   4.321
 4053SOL    HW113058   2.975   6.463   4.343
 4053SOL    HW213059   3.135   6.459   4.376
 4054SOL     OW13060   5.779   3.913   1.063
 4054SOL    HW113061   5.743   3.906   1.156
 4054SOL    HW213062   5.725   3.855   1.002
 4055SOL     OW13063   2.965   3.449   0.393
 4055SOL    HW113064   2.948   3.393   0.312
 4055SOL    HW213065   2.940   3.398   0.475
 4056SOL     OW13066   5.167   3.884   0.812
 4056SOL    HW113067   5.245   3.901   0.752
 4056SOL    HW213068   5.119   3.971   0.830
 4057SOL     OW13069   6.596   2.216   0.670
 4057SOL    HW113070   6.656   2.275   0.724
 4057SOL    HW213071   6.631   2.123   0.670
 4058SOL     OW13072   2.324   0.037   5.195
 4058SOL    HW113073   2.341   0.090   5.112
 4058SOL    HW213074   2.247   0.078   5.245
 4059SOL     OW13075   0.828   1.692   2.972
 4059SOL    HW113076   0.796   1.688   2.877
 4059SOL    HW213077   0.853   1.601   3.002
 4060SOL     OW13078   5.635   5.620   5.012
 4060SOL    HW113079   5.650   5.607   4.914
 4060SOL    HW213080   5.722   5.635   5.058
 4061SOL     OW13081   2.598   4.853   2.514
 4061SOL    HW113082   2.690   4.818   2.497
 4061SOL    HW213083   2.597   4.952   2.499
 4062SOL     OW13084   2.598   1.050   1.616
 4062SOL    HW113085   2.644   1.128   1.657
 4062SOL    HW213086   2.613   1.049   1.518
 4063SOL     OW13087   5.898   6.512   0.146
 4063SOL    HW113088   5.898   6.413   0.160
 4063SOL    HW213089   5.966   6.536   0.077
 4064SOL     OW13090   2.517   0.475   3.673
 4064SOL    HW113091   2.426   0.462   3.634
 4064SOL    HW213092   2.552   0.565   3.646
 4065SOL     OW13093   1.357   6.797   1.765
 4065SOL    HW113094   1.442   6.775   1.718
 4065SOL    HW213095   1.295   6.719   1.760
 4066SOL     OW13096   6.137   4.777   3.565
 4066SOL    HW113097   6.037   4.766   3.561
 4066SOL    HW213098   6.180   4.687   3.559
 4067SOL     OW13099   6.008   3.934   3.176
 4067SOL    HW113100   6.004   4.004   3.104
 4067SOL    HW213101   6.102   3.904   3.188
 4068SOL     OW13102   1.546   1.322   5.039
 4068SOL    HW113103   1.544   1.240   4.982
 4068SOL    HW213104   1.552   1.296   5.135
 4069SOL     OW13105   2.884   5.381   6.338
 4069SOL    HW113106   2.976   5.419   6.338
 4069SOL    HW213107   2.868   5.331   6.253
 4070SOL     OW13108   0.696   3.712   1.895
 4070SOL    HW113109   0.782   3.760   1.910
 4070SOL    HW213110   0.708   3.644   1.822
 4071SOL     OW13111   1.196   1.068   5.388
 4071SOL    HW113112   1.104   1.030   5.390
 4071SOL    HW213113   1.191   1.168   5.392
 4072SOL     OW13114   0.795   5.601   4.314
 4072SOL    HW113115   0.860   5.674   4.336
 4072SOL    HW213116   0.703   5.628   4.343
 4073SOL     OW13117   3.248   5.994   5.910
 4073SOL    HW113118   3.325   5.947   5.952
 4073SOL    HW213119   3.189   6.032   5.981
 4074SOL     OW13120   6.967   4.088   2.007
 4074SOL    HW113121   6.955   4.166   1.945
 4074SOL    HW213122   0.045   4.071   2.022
 4075SOL     OW13123   4.453   1.925   1.854
 4075SOL    HW113124   4.474   1.829   1.876
 4075SOL    HW213125   4.404   1.967   1.930
 4076SOL     OW13126   3.071   2.870   5.538
 4076SOL    HW113127   3.042   2.783   5.578
 4076SOL    HW213128   3.059   2.943   5.605
 4077SOL     OW13129   3.243   1.496   6.985
 4077SOL    HW113130   3.291   1.408   6.983
 4077SOL    HW213131   3.147   1.481   6.962
 4078SOL     OW13132   0.360   5.327   1.429
 4078SOL    HW113133   0.287   5.375   1.382
 4078SOL    HW213134   0.379   5.240   1.384
 4079SOL     OW13135   1.566   0.890   3.754
 4079SOL    HW113136   1.647   0.838   3.782
 4079SOL    HW213137   1.540   0.953   3.826
 4080SOL     OW13138   4.253   4.329   6.088
 4080SOL    HW113139   4.271   4.397   6.159
 4080SOL    HW213140   4.220   4.375   6.005
 4081SOL     OW13141   2.079   2.726   4.342
 4081SOL    HW113142   2.129   2.652   4.387
 4081SOL    HW213143   2.000   2.750   4.399
 4082SOL     OW13144   0.403   3.910   0.439
 4082SOL    HW113145   0.380   3.819   0.474
 4082SOL    HW213146   0.321   3.967   0.439
 4083SOL     OW13147   6.772   4.039   2.190
 4083SOL    HW113148   6.708   4.104   2.149
 4083SOL    HW213149   6.853   4.030   2.131
 4084SOL     OW13150   5.719   1.958   3.505
 4084SOL    HW113151   5.757   2.033   3.451
 4084SOL    HW213152   5.788   1.887   3.519
 4085SOL     OW13153   2.822   5.731   1.559
 4085SOL    HW113154   2.864   5.821   1.552
 4085SOL    HW213155   2.795   5.713   1.654
 4086SOL     OW13156   1.018   5.500   2.019
 4086SOL    HW113157   1.070   5.585   2.007
 4086SOL    HW213158   1.081   5.423   2.024
 4087SOL     OW13159   1.726   1.866   3.335
 4087SOL    HW113160   1.791   1.880   3.260
 4087SOL    HW213161   1.772   1.821   3.411
 4088SOL     OW13162   6.690   1.150   6.802
 4088SOL    HW113163   6.783   1.166   6.768
 4088SOL    HW213164   6.624   1.172   6.730
 4089SOL     OW13165   6.238   6.228   4.433
 4089SOL    HW113166   6.192   6.157   4.380
 4089SOL    HW213167   6.194   6.236   4.523
 4090SOL     OW13168   1.514   4.983   5.700
 4090SOL    HW113169   1.521   5.073   5.656
 4090SOL    HW213170   1.471   4.918   5.637
 4091SOL     OW13171   6.845   6.381   6.779
 4091SOL    HW113172   6.863   6.323   6.858
 4091SOL    HW213173   6.781   6.336   6.717
 4092SOL     OW13174   6.564   2.480   5.811
 4092SOL    HW113175   6.478   2.519   5.780
 4092SOL    HW213176   6.628   2.553   5.834
 4093SOL     OW13177   4.535   6.688   2.372
 4093SOL    HW113178   4.526   6.592   2.399
 4093SOL    HW213179   4.614   6.700   2.313
 4094SOL     OW13180   2.267   5.634   4.854
 4094SOL    HW113181   2.181   5.675   4.886
 4094SOL    HW213182   2.344   5.689   4.887
 4095SOL     OW13183   0.325   3.613   0.415
 4095SOL    HW113184   0.378   3.589   0.334
 4095SOL    HW213185   0.237   3.566   0.413
 4096SOL     OW13186   4.653   5.730   5.921
 4096SOL    HW113187   4.725   5.780   5.969
 4096SOL    HW213188   4.574   5.720   5.981
 4097SOL     OW13189   3.771   4.539   5.617
 4097SOL    HW113190   3.803   4.462   5.562
 4097SOL    HW213191   3.730   4.505   5.702
 4098SOL     OW13192   6.883   2.041   1.727
 4098SOL    HW113193   6.921   1.954   1.759
 4098SOL    HW213194   6.910   2.114   1.791
 4099SOL     OW13195   2.908   5.024   1.836
 4099SOL    HW113196   2.813   4.996   1.852
 4099SOL    HW213197   2.921   5.118   1.867
 4100SOL     OW13198   0.135   6.089   4.601
 4100SOL    HW113199   0.073   6.078   4.679
 4100SOL    HW213200   0.193   6.169   4.615
 4101SOL     OW13201   6.181   1.197   0.456
 4101SOL    HW113202   6.165   1.291   0.423
 4101SOL    HW213203   6.116   1.135   0.411
 4102SOL     OW13204   6.414   0.496   0.982
 4102SOL    HW113205   6.466   0.551   1.048
 4102SOL    HW213206   6.477   0.443   0.926
 4103SOL     OW13207   0.281   0.514   6.972
 4103SOL    HW113208   0.200   0.553   6.928
 4103SOL    HW213209   0.331   0.587   0.000
 4104SOL     OW13210   0.770   4.888   2.862
 4104SOL    HW113211   0.852   4.857   2.814
 4104SOL    HW213212   0.761   4.839   2.949
 4105SOL     OW13213   4.855   0.025   1.499
 4105SOL    HW113214   4.871   6.947   1.521
 4105SOL    HW213215   4.791   0.063   1.566
 4106SOL     OW13216   6.246   2.706   2.979
 4106SOL    HW113217   6.344   2.714   2.961
 4106SOL    HW213218   6.195   2.731   2.897
 4107SOL     OW13219   1.273   5.722   1.185
 4107SOL    HW113220   1.353   5.702   1.243
 4107SOL    HW213221   1.258   5.646   1.122
 4108SOL     OW13222   6.213   4.070   5.241
 4108SOL    HW113223   6.236   4.165   5.218
 4108SOL    HW213224   6.141   4.037   5.181
 4109SOL     OW13225   6.401   6.988   4.818
 4109SOL    HW113226   6.303   6.977   4.836
 4109SOL    HW213227   6.441   6.899   4.797
 4110SOL     OW13228   3.808   3.923   6.242
 4110SOL    HW113229   3.727   3.954   6.191
 4110SOL    HW213230   3.814   3.824   6.238
 4111SOL     OW13231   4.266   3.342   6.878
 4111SOL    HW113232   4.364   3.364   6.886
 4111SOL    HW213233   4.222   3.409   6.817
 4112SOL     OW13234   4.914   6.481   4.923
 4112SOL    HW113235   4.866   6.526   4.847
 4112SOL    HW213236   4.979   6.545   4.964
 4113SOL     OW13237   4.790   6.009   4.667
 4113SOL    HW113238   4.770   6.102   4.696
 4113SOL    HW213239   4.806   5.951   4.747
 4114SOL     OW13240   3.719   2.160   3.819
 4114SOL    HW113241   3.645   2.201   3.873
 4114SOL    HW213242   3.682   2.125   3.733
 4115SOL     OW13243   3.574   5.005   2.093
 4115SOL    HW113244   3.572   4.938   2.020
 4115SOL    HW213245   3.566   5.097   2.055
 4116SOL     OW13246   3.472   1.618   2.110
 4116SOL    HW113247   3.495   1.550   2.180
 4116SOL    HW213248   3.552   1.633   2.051
 4117SOL     OW13249   1.514   4.540   2.370
 4117SOL    HW113250   1.575   4.466   2.341
 4117SOL    HW213251   1.456   4.567   2.294
 4118SOL     OW13252   2.905   6.465   0.545
 4118SOL    HW113253   2.977   6.534   0.553
 4118SOL    HW213254   2.864   6.469   0.454
 4119SOL     OW13255   3.662   1.874   3.830
 4119SOL    HW113256   3.570   1.900   3.858
 4119SOL    HW213257   3.694   1.938   3.759
 4120SOL     OW13258   3.636   0.485   0.106
 4120SOL    HW113259   3.574   0.431   0.163
 4120SOL    HW213260   3.730   0.475   0.138
 4121SOL     OW13261   6.186   0.668   4.610
 4121SOL    HW113262   6.109   0.621   4.654
 4121SOL    HW213263   6.262   0.676   4.675
 4122SOL     OW13264   1.239   6.002   5.115
 4122SOL    HW113265   1.156   5.982   5.166
 4122SOL    HW213266   1.226   5.979   5.019
 4123SOL     OW13267   4.332   5.199   5.807
 4123SOL    HW113268   4.295   5.142   5.881
 4123SOL    HW213269   4.431   5.207   5.817
 4124SOL     OW13270   6.235   5.608   6.470
 4124SOL    HW113271   6.226   5.530   6.531
 4124SOL    HW213272   6.331   5.637   6.468
 4125SOL     OW13273   4.345   1.401   2.667
 4125SOL    HW113274   4.311   1.430   2.756
 4125SOL    HW213275   4.338   1.302   2.659
 4126SOL     OW13276   1.068   3.480   4.601
 4126SOL    HW113277   1.161   3.495   4.633
 4126SOL    HW213278   1.038   3.388   4.625
 4127SOL     OW13279   4.514   4.963   4.880
 4127SOL    HW113280   4.489   5.020   4.802
 4127SOL    HW213281   4.463   4.877   4.877
 4128SOL     OW13282   1.471   3.026   1.664
 4128SOL    HW113283   1.510   2.945   1.621
 4128SOL    HW213284   1.504   3.033   1.758
 4129SOL     OW13285   3.809   1.316   6.472
 4129SOL    HW113286   3.713   1.293   6.483
 4129SOL    HW213287   3.835   1.308   6.375
 4130SOL     OW13288   6.565   3.055   6.020
 4130SOL    HW113289   6.618   3.133   5.985
 4130SOL    HW213290   6.620   3.007   6.088
 4131SOL     OW13291   1.569   0.210   3.017
 4131SOL    HW113292   1.634   0.146   3.059
 4131SOL    HW213293   1.492   0.225   3.078
 4132SOL     OW13294   5.072   4.555   3.878
 4132SOL    HW113295   5.027   4.489   3.818
 4132SOL    HW213296   5.009   4.582   3.951
 4133SOL     OW13297   3.178   6.065   0.918
 4133SOL    HW113298   3.100   6.118   0.884
 4133SOL    HW213299   3.159   5.967   0.909
 4134SOL     OW13300   2.632   2.970   0.845
 4134SOL    HW113301   2.599   2.892   0.790
 4134SOL    HW213302   2.596   2.962   0.938
 4135SOL     OW13303   0.911   1.487   3.182
 4135SOL    HW113304   0.964   1.403   3.198
 4135SOL    HW213305   0.840   1.496   3.252
 4136SOL     OW13306   1.261   2.073   2.965
 4136SOL    HW113307   1.185   2.010   2.981
 4136SOL    HW213308   1.343   2.020   2.941
 4137SOL     OW13309   0.421   4.751   0.717
 4137SOL    HW113310   0.322   4.741   0.724
 4137SOL    HW213311   0.454   4.814   0.787
 4138SOL     OW13312   4.533   5.277   3.394
 4138SOL    HW113313   4.606   5.310   3.334
 4138SOL    HW213314   4.475   5.213   3.343
 4139SOL     OW13315   1.983   2.007   5.314
 4139SOL    HW113316   2.083   2.011   5.315
 4139SOL    HW213317   1.953   1.914   5.294
 4140SOL     OW13318   2.926   0.488   5.308
 4140SOL    HW113319   2.829   0.474   5.328
 4140SOL    HW213320   2.938   0.576   5.261
 4141SOL     OW13321   6.022   6.137   1.221
 4141SOL    HW113322   6.088   6.141   1.146
 4141SOL    HW213323   5.930   6.156   1.186
 4142SOL     OW13324   6.148   5.442   1.102
 4142SOL    HW113325   6.199   5.521   1.067
 4142SOL    HW213326   6.052   5.468   1.116
 4143SOL     OW13327   6.794   2.285   1.312
 4143SOL    HW113328   6.723   2.293   1.382
 4143SOL    HW213329   6.796   2.368   1.257
 4144SOL     OW13330   4.865   3.964   6.215
 4144SOL    HW113331   4.932   3.931   6.282
 4144SOL    HW213332   4.886   3.925   6.126
 4145SOL     OW13333   6.673   6.300   0.988
 4145SOL    HW113334   6.576   6.278   1.005
 4145SOL    HW213335   6.730   6.252   1.055
 4146SOL     OW13336   0.032   0.806   4.814
 4146SOL    HW113337   7.016   0.713   4.811
 4146SOL    HW213338   0.132   0.804   4.804
 4147SOL     OW13339   4.647   3.834   5.880
 4147SOL    HW113340   4.569   3.785   5.919
 4147SOL    HW213341   4.673   3.909   5.941
 4148SOL     OW13342   1.073   0.498   4.602
 4148SOL    HW113343   1.011   0.465   4.530
 4148SOL    HW213344   1.156   0.443   4.602
 4149SOL     OW13345   6.841   2.690   0.788
 4149SOL    HW113346   6.810   2.784   0.800
 4149SOL    HW213347   6.838   2.666   0.691
 4150SOL     OW13348   0.779   0.672   6.340
 4150SOL    HW113349   0.831   0.595   6.303
 4150SOL    HW213350   0.699   0.637   6.389
 4151SOL     OW13351   3.444   5.587   5.370
 4151SOL    HW113352   3.375   5.534   5.420
 4151SOL    HW213353   3.476   5.534   5.292
 4152SOL     OW13354   3.772   6.321   1.850
 4152SOL    HW113355   3.862   6.279   1.858
 4152SOL    HW213356   3.764   6.366   1.761
 4153SOL     OW13357   4.320   5.118   0.061
 4153SOL    HW113358   4.256   5.180   0.106
 4153SOL    HW213359   4.277   5.078   6.999
 4154SOL     OW13360   0.533   4.683   4.289
 4154SOL    HW113361   0.574   4.652   4.204
 4154SOL    HW213362   0.440   4.717   4.271
 4155SOL     OW13363   0.099   1.030   1.832
 4155SOL    HW113364   0.087   0.935   1.804
 4155SOL    HW213365   0.021   1.084   1.802
 4156SOL     OW13366   6.063   6.147   5.078
 4156SOL    HW113367   6.027   6.073   5.135
 4156SOL    HW213368   6.041   6.129   4.982
 4157SOL     OW13369   4.859   5.606   4.702
 4157SOL    HW113370   4.811   5.693   4.709
 4157SOL    HW213371   4.823   5.542   4.770
 4158SOL     OW13372   2.027   4.506   2.843
 4158SOL    HW113373   1.955   4.548   2.788
 4158SOL    HW213374   2.053   4.568   2.917
 4159SOL     OW13375   1.880   3.660   4.350
 4159SOL    HW113376   1.826   3.668   4.434
 4159SOL    HW213377   1.858   3.574   4.304
 4160SOL     OW13378   5.930   0.617   0.617
 4160SOL    HW113379   5.846   0.565   0.597
 4160SOL    HW213380   6.004   0.553   0.636
 4161SOL     OW13381   0.813   0.682   0.171
 4161SOL    HW113382   0.831   0.674   0.269
 4161SOL    HW213383   0.788   0.776   0.149
 4162SOL     OW13384   6.053   6.761   6.205
 4162SOL    HW113385   6.025   6.666   6.217
 4162SOL    HW213386   6.146   6.773   6.240
 4163SOL     OW13387   5.998   6.383   3.551
 4163SOL    HW113388   5.994   6.300   3.606
 4163SOL    HW213389   6.022   6.360   3.457
 4164SOL     OW13390   1.719   6.540   6.408
 4164SOL    HW113391   1.757   6.465   6.463
 4164SOL    HW213392   1.748   6.627   6.447
 4165SOL     OW13393   3.788   0.135   0.011
 4165SOL    HW113394   3.865   0.152   0.072
 4165SOL    HW213395   3.822   0.115   6.938
 4166SOL     OW13396   6.433   4.128   0.986
 4166SOL    HW113397   6.405   4.159   1.077
 4166SOL    HW213398   6.445   4.207   0.925
 4167SOL     OW13399   1.016   4.035   1.394
 4167SOL    HW113400   1.051   3.942   1.380
 4167SOL    HW213401   1.077   4.101   1.350
 4168SOL     OW13402   6.758   4.860   0.972
 4168SOL    HW113403   6.663   4.837   0.992
 4168SOL    HW213404   6.805   4.883   1.057
 4169SOL     OW13405   6.132   3.924   3.959
 4169SOL    HW113406   6.043   3.938   3.915
 4169SOL    HW213407   6.181   4.011   3.965
 4170SOL     OW13408   3.533   3.982   5.511
 4170SOL    HW113409   3.590   3.988   5.593
 4170SOL    HW213410   3.543   4.066   5.458
 4171SOL     OW13411   5.695   5.497   1.144
 4171SOL    HW113412   5.659   5.446   1.222
 4171SOL    HW213413   5.621   5.517   1.080
 4172SOL     OW13414   0.668   2.258   6.177
 4172SOL    HW113415   0.599   2.193   6.210
 4172SOL    HW213416   0.629   2.314   6.105
 4173SOL     OW13417   4.802   3.609   5.795
 4173SOL    HW113418   4.770   3.698   5.826
 4173SOL    HW213419   4.741   3.537   5.829
 4174SOL     OW13420   5.291   0.979   3.284
 4174SOL    HW113421   5.197   0.986   3.250
 4174SOL    HW213422   5.332   1.071   3.285
 4175SOL     OW13423   2.033   6.274   4.656
 4175SOL    HW113424   2.080   6.192   4.689
 4175SOL    HW213425   2.032   6.274   4.556
 4176SOL     OW13426   3.094   6.706   2.197
 4176SOL    HW113427   3.083   6.659   2.285
 4176SOL    HW213428   3.082   6.805   2.211
 4177SOL     OW13429   6.542   4.357   4.747
 4177SOL    HW113430   6.566   4.441   4.795
 4177SOL    HW213431   6.620   4.326   4.693
 4178SOL     OW13432   4.871   0.431   4.034
 4178SOL    HW113433   4.875   0.480   3.947
 4178SOL    HW213434   4.793   0.463   4.088
 4179SOL     OW13435   5.477   2.421   3.107
 4179SOL    HW113436   5.440   2.340   3.151
 4179SOL    HW213437   5.402   2.483   3.084
 4180SOL     OW13438   5.043   4.140   1.598
 4180SOL    HW113439   5.038   4.076   1.521
 4180SOL    HW213440   5.116   4.112   1.660
 4181SOL     OW13441   2.302   2.154   0.278
 4181SOL    HW113442   2.393   2.139   0.241
 4181SOL    HW213443   2.281   2.251   0.279
 4182SOL     OW13444   0.342   6.694   3.208
 4182SOL    HW113445   0.263   6.709   3.149
 4182SOL    HW213446   0.420   6.747   3.174
 4183SOL     OW13447   4.681   0.743   6.912
 4183SOL    HW113448   4.772   0.722   6.874
 4183SOL    HW213449   4.665   0.686   6.993
 4184SOL     OW13450   4.249   5.015   1.680
 4184SOL    HW113451   4.229   4.998   1.584
 4184SOL    HW213452   4.303   5.099   1.689
 4185SOL     OW13453   0.528   5.628   2.621
 4185SOL    HW113454   0.560   5.651   2.529
 4185SOL    HW213455   0.504   5.531   2.624
 4186SOL     OW13456   2.374   4.854   0.869
 4186SOL    HW113457   2.396   4.804   0.953
 4186SOL    HW213458   2.456   4.899   0.834
 4187SOL     OW13459   3.522   3.606   5.969
 4187SOL    HW113460   3.453   3.647   5.909
 4187SOL    HW213461   3.591   3.560   5.914
 4188SOL     OW13462   5.132   0.414   4.198
 4188SOL    HW113463   5.050   0.425   4.140
 4188SOL    HW213464   5.209   0.387   4.141
 4189SOL     OW13465   3.799   0.650   5.079
 4189SOL    HW113466   3.897   0.650   5.099
 4189SOL    HW213467   3.783   0.604   4.991
 4190SOL     OW13468   0.393   0.755   0.082
 4190SOL    HW113469   0.297   0.781   0.076
 4190SOL    HW213470   0.437   0.807   0.155
 4191SOL     OW13471   5.452   3.333   3.212
 4191SOL    HW113472   5.400   3.277   3.148
 4191SOL    HW213473   5.405   3.334   3.300
 4192SOL     OW13474   0.647   1.183   3.900
 4192SOL    HW113475   0.661   1.122   3.978
 4192SOL    HW213476   0.722   1.174   3.835
 4193SOL     OW13477   2.041   6.867   2.902
 4193SOL    HW113478   2.079   6.879   2.810
 4193SOL    HW213479   2.060   6.949   2.956
 4194SOL     OW13480   5.792   0.805   5.568
 4194SOL    HW113481   5.783   0.868   5.645
 4194SOL    HW213482   5.878   0.756   5.574
 4195SOL     OW13483   4.281   0.264   2.235
 4195SOL    HW113484   4.208   0.200   2.258
 4195SOL    HW213485   4.357   0.215   2.193
 4196SOL     OW13486   5.922   2.076   3.350
 4196SOL    HW113487   5.924   1.977   3.334
 4196SOL    HW213488   6.016   2.111   3.352
 4197SOL     OW13489   5.075   5.738   4.939
 4197SOL    HW113490   5.062   5.648   4.981
 4197SOL    HW213491   5.167   5.744   4.900
 4198SOL     OW13492   5.500   2.928   6.391
 4198SOL    HW113493   5.414   2.980   6.398
 4198SOL    HW213494   5.566   2.979   6.338
 4199SOL     OW13495   1.776   3.753   6.426
 4199SOL    HW113496   1.833   3.733   6.347
 4199SOL    HW213497   1.822   3.820   6.484
 4200SOL     OW13498   3.055   6.142   5.095
 4200SOL    HW113499   3.101   6.053   5.088
 4200SOL    HW213500   3.114   6.213   5.056
 4201SOL     OW13501   5.921   6.180   3.763
 4201SOL    HW113502   5.970   6.157   3.847
 4201SOL    HW213503   5.881   6.097   3.723
 4202SOL     OW13504   4.228   5.567   5.942
 4202SOL    HW113505   4.173   5.650   5.940
 4202SOL    HW213506   4.311   5.583   5.995
 4203SOL     OW13507   4.777   5.661   1.251
 4203SOL    HW113508   4.762   5.707   1.339
 4203SOL    HW213509   4.699   5.678   1.191
 4204SOL     OW13510   3.681   2.893   2.357
 4204SOL    HW113511   3.626   2.885   2.440
 4204SOL    HW213512   3.748   2.819   2.354
 4205SOL     OW13513   3.628   4.874   4.236
 4205SOL    HW113514   3.634   4.971   4.259
 4205SOL    HW213515   3.708   4.826   4.270
 4206SOL     OW13516   6.064   0.711   5.605
 4206SOL    HW113517   6.075   0.732   5.702
 4206SOL    HW213518   6.129   0.641   5.578
 4207SOL     OW13519   2.099   1.660   1.819
 4207SOL    HW113520   2.063   1.671   1.726
 4207SOL    HW213521   2.096   1.563   1.845
 4208SOL     OW13522   0.952   3.371   6.893
 4208SOL    HW113523   0.934   3.277   6.925
 4208SOL    HW213524   1.002   3.368   6.807
 4209SOL     OW13525   0.515   1.749   5.261
 4209SOL    HW113526   0.520   1.657   5.300
 4209SOL    HW213527   0.607   1.784   5.245
 4210SOL     OW13528   3.242   3.681   2.119
 4210SOL    HW113529   3.218   3.694   2.022
 4210SOL    HW213530   3.170   3.629   2.164
 4211SOL     OW13531   3.892   5.377   5.275
 4211SOL    HW113532   3.951   5.453   5.250
 4211SOL    HW213533   3.916   5.297   5.221
 4212SOL     OW13534   6.567   2.614   2.050
 4212SOL    HW113535   6.551   2.697   2.104
 4212SOL    HW213536   6.484   2.591   2.000
 4213SOL     OW13537   2.678   0.920   2.328
 4213SOL    HW113538   2.612   0.954   2.261
 4213SOL    HW213539   2.646   0.831   2.363
 4214SOL     OW13540   0.884   3.885   5.883
 4214SOL    HW113541   0.829   3.831   5.947
 4214SOL    HW213542   0.972   3.839   5.869
 4215SOL     OW13543   6.782   5.905   4.469
 4215SOL    HW113544   6.847   5.957   4.413
 4215SOL    HW213545   6.748   5.827   4.416
 4216SOL     OW13546   1.463   1.830   3.192
 4216SOL    HW113547   1.559   1.845   3.214
 4216SOL    HW213548   1.448   1.846   3.094
 4217SOL     OW13549   6.630   0.040   2.845
 4217SOL    HW113550   6.598   0.049   2.939
 4217SOL    HW213551   6.552   0.037   2.783
 4218SOL     OW13552   5.402   0.419   1.523
 4218SOL    HW113553   5.359   0.488   1.582
 4218SOL    HW213554   5.354   0.332   1.534
 4219SOL     OW13555   2.974   5.425   4.060
 4219SOL    HW113556   3.061   5.474   4.052
 4219SOL    HW213557   2.930   5.421   3.970
 4220SOL     OW13558   5.815   2.514   3.152
 4220SOL    HW113559   5.909   2.524   3.120
 4220SOL    HW213560   5.755   2.494   3.074
 4221SOL     OW13561   6.059   5.452   6.286
 4221SOL    HW113562   6.146   5.501   6.278
 4221SOL    HW213563   6.064   5.389   6.364
 4222SOL     OW13564   5.999   2.570   2.583
 4222SOL    HW113565   6.061   2.538   2.512
 4222SOL    HW213566   5.966   2.662   2.560
 4223SOL     OW13567   2.895   3.410   4.961
 4223SOL    HW113568   2.851   3.334   5.008
 4223SOL    HW213569   2.833   3.488   4.956
 4224SOL     OW13570   5.072   2.896   3.726
 4224SOL    HW113571   4.985   2.856   3.697
 4224SOL    HW213572   5.130   2.913   3.646
 4225SOL     OW13573   4.289   0.281   6.011
 4225SOL    HW113574   4.196   0.258   5.981
 4225SOL    HW213575   4.300   0.255   6.107
 4226SOL     OW13576   0.801   0.186   3.045
 4226SOL    HW113577   0.799   0.283   3.020
 4226SOL    HW213578   0.860   0.173   3.125
 4227SOL     OW13579   3.586   4.873   6.783
 4227SOL    HW113580   3.678   4.899   6.754
 4227SOL    HW213581   3.592   4.804   6.856
 4228SOL     OW13582   0.621   3.518   3.306
 4228SOL    HW113583   0.581   3.427   3.306
 4228SOL    HW213584   0.690   3.525   3.234
 4229SOL     OW13585   4.589   5.125   5.941
 4229SOL    HW113586   4.584   5.210   5.994
 4229SOL    HW213587   4.528   5.057   5.983
 4230SOL     OW13588   2.343   0.825   4.415
 4230SOL    HW113589   2.303   0.890   4.480
 4230SOL    HW213590   2.324   0.856   4.322
 4231SOL     OW13591   5.229   6.173   4.569
 4231SOL    HW113592   5.285   6.142   4.492
 4231SOL    HW213593   5.239   6.272   4.579
 4232SOL     OW13594   6.863   4.465   2.022
 4232SOL    HW113595   6.834   4.381   1.976
 4232SOL    HW213596   6.850   4.543   1.962
 4233SOL     OW13597   0.055   0.645   6.883
 4233SOL    HW113598   6.982   0.653   6.842
 4233SOL    HW213599   0.064   0.712   6.957
 4234SOL     OW13600   1.643   0.190   5.629
 4234SOL    HW113601   1.673   0.104   5.670
 4234SOL    HW213602   1.698   0.209   5.547
 4235SOL     OW13603   5.557   3.601   5.207
 4235SOL    HW113604   5.485   3.627   5.271
 4235SOL    HW213605   5.515   3.573   5.121
 4236SOL     OW13606   0.456   3.675   3.085
 4236SOL    HW113607   0.368   3.629   3.078
 4236SOL    HW213608   0.489   3.672   3.179
 4237SOL     OW13609   6.385   4.780   4.327
 4237SOL    HW113610   6.292   4.771   4.292
 4237SOL    HW213611   6.383   4.775   4.427
 4238SOL     OW13612   3.948   4.872   3.577
 4238SOL    HW113613   4.048   4.872   3.583
 4238SOL    HW213614   3.912   4.790   3.622
 4239SOL     OW13615   6.200   1.212   3.277
 4239SOL    HW113616   6.207   1.276   3.201
 4239SOL    HW213617   6.106   1.179   3.285
 4240SOL     OW13618   1.916   6.929   0.060
 4240SOL    HW113619   1.825   6.924   0.019
 4240SOL    HW213620   1.913   6.886   0.151
 4241SOL     OW13621   5.275   1.320   1.481
 4241SOL    HW113622   5.342   1.327   1.408
 4241SOL    HW213623   5.278   1.228   1.521
 4242SOL     OW13624   2.120   0.748   3.139
 4242SOL    HW113625   2.035   0.696   3.128
 4242SOL    HW213626   2.187   0.692   3.187
 4243SOL     OW13627   0.651   3.856   3.255
 4243SOL    HW113628   0.668   3.952   3.275
 4243SOL    HW213629   0.710   3.826   3.180
 4244SOL     OW13630   4.551   5.384   0.745
 4244SOL    HW113631   4.455   5.384   0.772
 4244SOL    HW213632   4.572   5.468   0.695
 4245SOL     OW13633   6.320   1.199   6.170
 4245SOL    HW113634   6.375   1.134   6.222
 4245SOL    HW213635   6.373   1.236   6.094
 4246SOL     OW13636   5.730   2.191   3.145
 4246SOL    HW113637   5.815   2.146   3.174
 4246SOL    HW213638   5.667   2.194   3.223
 4247SOL     OW13639   2.107   5.059   3.634
 4247SOL    HW113640   2.170   4.982   3.639
 4247SOL    HW213641   2.064   5.073   3.723
 4248SOL     OW13642   1.234   1.141   3.926
 4248SOL    HW113643   1.254   1.180   3.836
 4248SOL    HW213644   1.241   1.213   3.996
 4249SOL     OW13645   5.938   1.135   3.361
 4249SOL    HW113646   5.882   1.081   3.298
 4249SOL    HW213647   5.920   1.232   3.346
 4250SOL     OW13648   6.585   6.045   4.112
 4250SOL    HW113649   6.627   5.955   4.096
 4250SOL    HW213650   6.562   6.054   4.209
 4251SOL     OW13651   6.443   2.969   0.880
 4251SOL    HW113652   6.414   3.027   0.804
 4251SOL    HW213653   6.372   2.902   0.900
 4252SOL     OW13654   5.141   6.002   6.623
 4252SOL    HW113655   5.066   5.940   6.601
 4252SOL    HW213656   5.222   5.949   6.646
 4253SOL     OW13657   3.295   6.594   2.021
 4253SOL    HW113658   3.223   6.639   2.074
 4253SOL    HW213659   3.376   6.582   2.079
 4254SOL     OW13660   2.103   4.261   1.860
 4254SOL    HW113661   2.038   4.260   1.784
 4254SOL    HW213662   2.060   4.223   1.942
 4255SOL     OW13663   0.427   3.639   3.464
 4255SOL    HW113664   0.419   3.570   3.536
 4255SOL    HW213665   0.511   3.623   3.412
 4256SOL     OW13666   0.970   6.058   1.288
 4256SOL    HW113667   1.035   6.106   1.229
 4256SOL    HW213668   1.007   6.051   1.380
 4257SOL     OW13669   5.031   1.157   4.150
 4257SOL    HW113670   5.066   1.065   4.162
 4257SOL    HW213671   4.948   1.168   4.205
 4258SOL     OW13672   3.446   5.987   1.006
 4258SOL    HW113673   3.512   6.058   1.033
 4258SOL    HW213674   3.357   6.030   0.989
 4259SOL     OW13675   1.616   6.295   0.645
 4259SOL    HW113676   1.653   6.211   0.685
 4259SOL    HW213677   1.558   6.273   0.567
 4260SOL     OW13678   5.665   0.538   3.739
 4260SOL    HW113679   5.720   0.512   3.660
 4260SOL    HW213680   5.582   0.482   3.742
 4261SOL     OW13681   1.764   0.141   2.785
 4261SOL    HW113682   1.699   0.134   2.861
 4261SOL    HW213683   1.728   0.094   2.705
 4262SOL     OW13684   0.830   4.472   5.839
 4262SOL    HW113685   0.778   4.388   5.855
 4262SOL    HW213686   0.904   4.453   5.774
 4263SOL     OW13687   2.243   1.088   3.511
 4263SOL    HW113688   2.239   1.083   3.411
 4263SOL    HW213689   2.279   1.176   3.539
 4264SOL     OW13690   6.244   1.975   4.449
 4264SOL    HW113691   6.335   2.013   4.461
 4264SOL    HW213692   6.227   1.960   4.351
 4265SOL     OW13693   3.640   1.021   1.099
 4265SOL    HW113694   3.693   0.936   1.101
 4265SOL    HW213695   3.593   1.033   1.186
 4266SOL     OW13696   1.814   6.339   6.607
 4266SOL    HW113697   1.792   6.369   6.700
 4266SOL    HW213698   1.893   6.278   6.610
 4267SOL     OW13699   2.147   3.323   4.123
 4267SOL    HW113700   2.077   3.376   4.076
 4267SOL    HW213701   2.154   3.353   4.218
 4268SOL     OW13702   2.299   5.320   6.658
 4268SOL    HW113703   2.370   5.372   6.612
 4268SOL    HW213704   2.225   5.300   6.594
 4269SOL     OW13705   2.768   0.994   3.520
 4269SOL    HW113706   2.815   0.907   3.536
 4269SOL    HW213707   2.678   0.976   3.479
 4270SOL     OW13708   3.105   2.972   2.142
 4270SOL    HW113709   3.040   2.902   2.114
 4270SOL    HW213710   3.154   2.942   2.224
 4271SOL     OW13711   0.046   1.402   6.997
 4271SOL    HW113712   6.971   1.393   0.012
 4271SOL    HW213713   0.095   1.316   7.013
 4272SOL     OW13714   7.002   2.571   4.806
 4272SOL    HW113715   7.018   2.609   4.897
 4272SOL    HW213716   6.908   2.538   4.800
 4273SOL     OW13717   4.859   6.371   5.178
 4273SOL    HW113718   4.845   6.397   5.083
 4273SOL    HW213719   4.953   6.337   5.190
 4274SOL     OW13720   1.001   0.165   1.944
 4274SOL    HW113721   0.969   0.166   2.039
 4274SOL    HW213722   1.044   0.076   1.925
 4275SOL     OW13723   0.408   2.094   3.994
 4275SOL    HW113724   0.345   2.163   3.958
 4275SOL    HW213725   0.359   2.033   4.057
 4276SOL     OW13726   3.272   4.946   3.868
 4276SOL    HW113727   3.302   4.928   3.774
 4276SOL    HW213728   3.345   4.921   3.932
 4277SOL     OW13729   0.322   4.529   2.325
 4277SOL    HW113730   0.342   4.477   2.408
 4277SOL    HW213731   0.229   4.508   2.294
 4278SOL     OW13732   0.685   6.714   4.061
 4278SOL    HW113733   0.738   6.795   4.036
 4278SOL    HW213734   0.654   6.668   3.979
 4279SOL     OW13735   1.405   1.202   2.604
 4279SOL    HW113736   1.381   1.188   2.700
 4279SOL    HW213737   1.325   1.237   2.555
 4280SOL     OW13738   6.489   0.041   6.145
 4280SOL    HW113739   6.428   0.116   6.172
 4280SOL    HW213740   6.526   0.061   6.054
 4281SOL     OW13741   5.450   4.866   3.189
 4281SOL    HW113742   5.402   4.851   3.102
 4281SOL    HW213743   5.547   4.885   3.171
 4282SOL     OW13744   3.124   4.749   0.602
 4282SOL    HW113745   3.053   4.678   0.611
 4282SOL    HW213746   3.193   4.735   0.672
 4283SOL     OW13747   3.868   1.390   3.486
 4283SOL    HW113748   3.850   1.363   3.580
 4283SOL    HW213749   3.832   1.482   3.470
 4284SOL     OW13750   4.283   5.499   0.582
 4284SOL    HW113751   4.249   5.424   0.526
 4284SOL    HW213752   4.351   5.551   0.531
 4285SOL     OW13753   2.184   1.376   5.629
 4285SOL    HW113754   2.167   1.457   5.684
 4285SOL    HW213755   2.233   1.308   5.684
 4286SOL     OW13756   5.608   0.052   5.631
 4286SOL    HW113757   5.662   0.135   5.649
 4286SOL    HW213758   5.577   0.013   5.717
 4287SOL     OW13759   4.791   0.958   5.502
 4287SOL    HW113760   4.778   1.038   5.444
 4287SOL    HW213761   4.812   0.987   5.595
 4288SOL     OW13762   0.804   5.526   3.148
 4288SOL    HW113763   0.710   5.507   3.120
 4288SOL    HW213764   0.862   5.534   3.066
 4289SOL     OW13765   0.886   2.527   6.497
 4289SOL    HW113766   0.853   2.568   6.582
 4289SOL    HW213767   0.985   2.536   6.492
 4290SOL     OW13768   0.619   6.145   4.847
 4290SOL    HW113769   0.625   6.047   4.869
 4290SOL    HW213770   0.554   6.158   4.773
 4291SOL     OW13771   5.244   4.171   6.320
 4291SOL    HW113772   5.218   4.111   6.245
 4291SOL    HW213773   5.180   4.248   6.325
 4292SOL     OW13774   5.949   2.960   6.900
 4292SOL    HW113775   5.869   3.019   6.895
 4292SOL    HW213776   5.965   2.932   6.995
 4293SOL     OW13777   3.462   4.283   6.849
 4293SOL    HW113778   3.516   4.225   6.910
 4293SOL    HW213779   3.470   4.248   6.755
 4294SOL     OW13780   2.134   1.798   6.231
 4294SOL    HW113781   2.121   1.835   6.139
 4294SOL    HW213782   2.056   1.824   6.288
 4295SOL     OW13783   4.399   5.941   3.817
 4295SOL    HW113784   4.309   5.903   3.794
 4295SOL    HW213785   4.451   5.873   3.868
 4296SOL     OW13786   3.017   6.810   0.328
 4296SOL    HW113787   3.019   6.909   0.314
 4296SOL    HW213788   2.937   6.772   0.281
 4297SOL     OW13789   6.268   6.549   2.267
 4297SOL    HW113790   6.343   6.483   2.259
 4297SOL    HW213791   6.248   6.587   2.177
 4298SOL     OW13792   3.319   6.361   1.569
 4298SOL    HW113793   3.316   6.384   1.667
 4298SOL    HW213794   3.397   6.302   1.550
 4299SOL     OW13795   0.794   3.042   6.865
 4299SOL    HW113796   0.892   3.045   6.884
 4299SOL    HW213797   0.776   3.086   6.777
 4300SOL     OW13798   2.638   6.860   0.276
 4300SOL    HW113799   2.717   6.805   0.251
 4300SOL    HW213800   2.569   6.855   0.204
 4301SOL     OW13801   4.767   0.498   1.978
 4301SOL    HW113802   4.843   0.559   1.998
 4301SOL    HW213803   4.682   0.539   2.010
 4302SOL     OW13804   6.659   0.254   6.232
 4302SOL    HW113805   6.624   0.161   6.241
 4302SOL    HW213806   6.584   0.320   6.239
 4303SOL     OW13807   0.078   4.623   3.525
 4303SOL    HW113808   0.040   4.605   3.434
 4303SOL    HW213809   0.177   4.606   3.523
 4304SOL     OW13810   3.470   3.754   2.501
 4304SOL    HW113811   3.379   3.781   2.468
 4304SOL    HW213812   3.461   3.710   2.590
 4305SOL     OW13813   0.330   6.560   6.310
 4305SOL    HW113814   0.377   6.603   6.233
 4305SOL    HW213815   0.264   6.493   6.276
 4306SOL     OW13816   4.915   5.104   4.540
 4306SOL    HW113817   4.958   5.019   4.570
 4306SOL    HW213818   4.869   5.147   4.618
 4307SOL     OW13819   5.506   3.247   5.048
 4307SOL    HW113820   5.429   3.272   5.106
 4307SOL    HW213821   5.507   3.148   5.036
 4308SOL     OW13822   5.529   5.387   1.369
 4308SOL    HW113823   5.468   5.460   1.400
 4308SOL    HW213824   5.480   5.300   1.371
 4309SOL     OW13825   1.572   2.204   0.362
 4309SOL    HW113826   1.660   2.231   0.401
 4309SOL    HW213827   1.499   2.223   0.427
 4310SOL     OW13828   1.851   2.397   1.463
 4310SOL    HW113829   1.912   2.373   1.539
 4310SOL    HW213830   1.857   2.495   1.445
 4311SOL     OW13831   0.671   6.181   2.290
 4311SOL    HW113832   0.682   6.155   2.386
 4311SOL    HW213833   0.592   6.242   2.280
 4312SOL     OW13834   1.693   5.572   3.148
 4312SOL    HW113835   1.732   5.481   3.140
 4312SOL    HW213836   1.734   5.620   3.226
 4313SOL     OW13837   4.238   1.723   0.145
 4313SOL    HW113838   4.203   1.814   0.167
 4313SOL    HW213839   4.263   1.675   0.229
 4314SOL     OW13840   6.614   1.556   5.006
 4314SOL    HW113841   6.546   1.506   4.952
 4314SOL    HW213842   6.621   1.650   4.973
 4315SOL     OW13843   2.489   1.117   3.143
 4315SOL    HW113844   2.549   1.153   3.072
 4315SOL    HW213845   2.429   1.047   3.105
 4316SOL     OW13846   5.392   0.307   2.351
 4316SOL    HW113847   5.401   0.281   2.255
 4316SOL    HW213848   5.304   0.276   2.386
 4317SOL     OW13849   4.959   1.460   5.783
 4317SOL    HW113850   4.907   1.464   5.698
 4317SOL    HW213851   4.917   1.393   5.844
 4318SOL     OW13852   1.031   1.446   4.887
 4318SOL    HW113853   0.949   1.414   4.936
 4318SOL    HW213854   1.110   1.393   4.917
 4319SOL     OW13855   1.099   2.193   1.364
 4319SOL    HW113856   1.172   2.140   1.407
 4319SOL    HW213857   1.129   2.288   1.352
 4320SOL     OW13858   3.550   5.256   1.173
 4320SOL    HW113859   3.585   5.317   1.102
 4320SOL    HW213860   3.618   5.247   1.246
 4321SOL     OW13861   6.790   4.435   3.600
 4321SOL    HW113862   6.764   4.486   3.518
 4321SOL    HW213863   6.889   4.444   3.615
 4322SOL     OW13864   6.514   3.271   6.275
 4322SOL    HW113865   6.439   3.227   6.224
 4322SOL    HW213866   6.599   3.223   6.256
 4323SOL     OW13867   5.205   4.852   0.464
 4323SOL    HW113868   5.115   4.871   0.503
 4323SOL    HW213869   5.246   4.937   0.430
 4324SOL     OW13870   6.371   3.763   5.896
 4324SOL    HW113871   6.386   3.690   5.963
 4324SOL    HW213872   6.344   3.847   5.943
 4325SOL     OW13873   2.846   1.677   2.023
 4325SOL    HW113874   2.938   1.711   2.006
 4325SOL    HW213875   2.787   1.751   2.054
 4326SOL     OW13876   5.355   4.296   2.152
 4326SOL    HW113877   5.425   4.363   2.174
 4326SOL    HW213878   5.265   4.332   2.177
 4327SOL     OW13879   4.660   6.026   2.522
 4327SOL    HW113880   4.754   5.993   2.533
 4327SOL    HW213881   4.607   6.001   2.603
 4328SOL     OW13882   5.478   4.338   5.570
 4328SOL    HW113883   5.409   4.400   5.533
 4328SOL    HW213884   5.479   4.254   5.516
 4329SOL     OW13885   5.796   2.451   5.595
 4329SOL    HW113886   5.849   2.397   5.660
 4329SOL    HW213887   5.823   2.547   5.599
 4330SOL     OW13888   1.706   6.848   4.289
 4330SOL    HW113889   1.749   6.921   4.236
 4330SOL    HW213890   1.771   6.815   4.358
 4331SOL     OW13891   6.099   0.899   1.902
 4331SOL    HW113892   6.078   0.834   1.828
 4331SOL    HW213893   6.133   0.984   1.863
 4332SOL     OW13894   6.511   2.869   3.058
 4332SOL    HW113895   6.563   2.785   3.040
 4332SOL    HW213896   6.460   2.859   3.143
 4333SOL     OW13897   4.578   1.751   4.930
 4333SOL    HW113898   4.587   1.737   4.832
 4333SOL    HW213899   4.665   1.783   4.968
 4334SOL     OW13900   1.629   2.868   2.256
 4334SOL    HW113901   1.545   2.895   2.209
 4334SOL    HW213902   1.619   2.776   2.292
 4335SOL     OW13903   3.730   2.781   1.742
 4335SOL    HW113904   3.743   2.682   1.741
 4335SOL    HW213905   3.733   2.814   1.837
 4336SOL     OW13906   2.533   5.539   5.628
 4336SOL    HW113907   2.582   5.463   5.670
 4336SOL    HW213908   2.544   5.535   5.529
 4337SOL     OW13909   2.481   4.823   1.579
 4337SOL    HW113910   2.574   4.859   1.574
 4337SOL    HW213911   2.483   4.732   1.619
 4338SOL     OW13912   6.276   0.238   6.214
 4338SOL    HW113913   6.194   0.293   6.198
 4338SOL    HW213914   6.328   0.277   6.290
 4339SOL     OW13915   3.696   2.387   6.445
 4339SOL    HW113916   3.701   2.445   6.364
 4339SOL    HW213917   3.785   2.386   6.491
 4340SOL     OW13918   6.031   3.829   0.985
 4340SOL    HW113919   6.083   3.911   0.962
 4340SOL    HW213920   5.943   3.855   1.024
 4341SOL     OW13921   1.271   5.247   1.120
 4341SOL    HW113922   1.282   5.151   1.144
 4341SOL    HW213923   1.282   5.258   1.021
 4342SOL     OW13924   5.430   3.598   3.047
 4342SOL    HW113925   5.486   3.671   3.086
 4342SOL    HW213926   5.469   3.509   3.072
 4343SOL     OW13927   3.272   6.338   4.891
 4343SOL    HW113928   3.338   6.330   4.816
 4343SOL    HW213929   3.319   6.323   4.978
 4344SOL     OW13930   1.150   3.277   2.949
 4344SOL    HW113931   1.086   3.326   2.889
 4344SOL    HW213932   1.220   3.339   2.982
 4345SOL     OW13933   3.028   3.086   4.849
 4345SOL    HW113934   2.933   3.064   4.828
 4345SOL    HW213935   3.063   3.150   4.780
 4346SOL     OW13936   2.129   2.557   2.501
 4346SOL    HW113937   2.220   2.584   2.529
 4346SOL    HW213938   2.103   2.607   2.418
 4347SOL     OW13939   5.847   6.782   2.534
 4347SOL    HW113940   5.817   6.748   2.445
 4347SOL    HW213941   5.786   6.748   2.606
 4348SOL     OW13942   0.613   5.936   4.125
 4348SOL    HW113943   0.709   5.952   4.100
 4348SOL    HW213944   0.607   5.858   4.186
 4349SOL     OW13945   6.632   2.817   4.216
 4349SOL    HW113946   6.544   2.849   4.250
 4349SOL    HW213947   6.634   2.717   4.218
 4350SOL     OW13948   4.693   1.860   4.278
 4350SOL    HW113949   4.737   1.889   4.363
 4350SOL    HW213950   4.678   1.940   4.220
 4351SOL     OW13951   1.146   6.235   1.129
 4351SOL    HW113952   1.194   6.153   1.161
 4351SOL    HW213953   1.187   6.316   1.170
 4352SOL     OW13954   6.402   4.174   1.555
 4352SOL    HW113955   6.305   4.197   1.550
 4352SOL    HW213956   6.412   4.082   1.593
 4353SOL     OW13957   3.380   3.806   0.374
 4353SOL    HW113958   3.321   3.726   0.378
 4353SOL    HW213959   3.470   3.780   0.340
 4354SOL     OW13960   1.465   1.670   6.493
 4354SOL    HW113961   1.439   1.701   6.584
 4354SOL    HW213962   1.544   1.608   6.499
 4355SOL     OW13963   1.733   6.980   2.590
 4355SOL    HW113964   1.738   6.891   2.636
 4355SOL    HW213965   1.825   7.013   2.572
 4356SOL     OW13966   4.580   3.447   5.546
 4356SOL    HW113967   4.553   3.486   5.634
 4356SOL    HW213968   4.559   3.512   5.473
 4357SOL     OW13969   6.694   1.129   1.333
 4357SOL    HW113970   6.620   1.193   1.315
 4357SOL    HW213971   6.725   1.089   1.246
 4358SOL     OW13972   6.785   0.271   0.339
 4358SOL    HW113973   6.770   0.336   0.264
 4358SOL    HW213974   6.710   0.278   0.405
 4359SOL     OW13975   1.259   1.339   0.008
 4359SOL    HW113976   1.338   1.295   0.052
 4359SOL    HW213977   1.179   1.330   0.067
 4360SOL     OW13978   0.704   2.704   4.724
 4360SOL    HW113979   0.609   2.725   4.699
 4360SOL    HW213980   0.751   2.665   4.645
 4361SOL     OW13981   1.725   3.730   1.310
 4361SOL    HW113982   1.769   3.814   1.279
 4361SOL    HW213983   1.795   3.661   1.329
 4362SOL     OW13984   0.159   5.667   3.889
 4362SOL    HW113985   0.128   5.621   3.805
 4362SOL    HW213986   0.086   5.665   3.957
 4363SOL     OW13987   4.703   1.381   1.799
 4363SOL    HW113988   4.760   1.374   1.881
 4363SOL    HW213989   4.653   1.295   1.786
 4364SOL     OW13990   3.128   3.980   3.402
 4364SOL    HW113991   3.079   4.000   3.317
 4364SOL    HW213992   3.219   4.021   3.398
 4365SOL     OW13993   2.848   0.804   2.104
 4365SOL    HW113994   2.831   0.833   2.198
 4365SOL    HW213995   2.883   0.710   2.103
 4366SOL     OW13996   6.286   5.994   6.436
 4366SOL    HW113997   6.275   6.089   6.408
 4366SOL    HW213998   6.244   5.933   6.368
 4367SOL     OW13999   2.889   5.006   3.522
 4367SOL    HW114000   2.789   5.005   3.529
 4367SOL    HW214001   2.928   4.962   3.603
 4368SOL     OW14002   3.976   5.686   1.741
 4368SOL    HW114003   3.908   5.625   1.702
 4368SOL    HW214004   3.954   5.781   1.718
 4369SOL     OW14005   4.846   5.157   3.325
 4369SOL    HW114006   4.767   5.207   3.291
 4369SOL    HW214007   4.858   5.074   3.270
 4370SOL     OW14008   3.483   3.968   1.576
 4370SOL    HW114009   3.569   3.946   1.622
 4370SOL    HW214010   3.419   3.892   1.588
 4371SOL     OW14011   2.268   1.526   3.093
 4371SOL    HW114012   2.265   1.432   3.126
 4371SOL    HW214013   2.200   1.581   3.141
 4372SOL     OW14014   2.403   2.652   4.122
 4372SOL    HW114015   2.378   2.749   4.123
 4372SOL    HW214016   2.361   2.609   4.042
 4373SOL     OW14017   4.344   0.678   6.605
 4373SOL    HW114018   4.289   0.754   6.572
 4373SOL    HW214019   4.396   0.638   6.529
 4374SOL     OW14020   2.180   1.823   1.581
 4374SOL    HW114021   2.236   1.842   1.662
 4374SOL    HW214022   2.200   1.730   1.549
 4375SOL     OW14023   4.200   6.325   2.694
 4375SOL    HW114024   4.230   6.342   2.600
 4375SOL    HW214025   4.102   6.307   2.695
 4376SOL     OW14026   6.414   0.667   1.921
 4376SOL    HW114027   6.422   0.766   1.905
 4376SOL    HW214028   6.341   0.651   1.989
 4377SOL     OW14029   5.980   5.520   0.360
 4377SOL    HW114030   5.992   5.618   0.343
 4377SOL    HW214031   6.047   5.490   0.427
 4378SOL     OW14032   1.466   4.126   2.853
 4378SOL    HW114033   1.435   4.137   2.759
 4378SOL    HW214034   1.486   4.029   2.870
 4379SOL     OW14035   2.385   1.036   1.887
 4379SOL    HW114036   2.391   0.998   1.795
 4379SOL    HW214037   2.350   1.129   1.883
 4380SOL     OW14038   1.727   6.232   3.970
 4380SOL    HW114039   1.694   6.313   4.018
 4380SOL    HW214040   1.649   6.181   3.932
 4381SOL     OW14041   2.145   3.963   4.814
 4381SOL    HW114042   2.106   3.874   4.789
 4381SOL    HW214043   2.176   3.960   4.909
 4382SOL     OW14044   5.884   3.842   6.083
 4382SOL    HW114045   5.817   3.769   6.072
 4382SOL    HW214046   5.927   3.862   5.995
 4383SOL     OW14047   0.437   2.597   5.476
 4383SOL    HW114048   0.429   2.524   5.544
 4383SOL    HW214049   0.519   2.652   5.496
 4384SOL     OW14050   5.452   0.814   6.859
 4384SOL    HW114051   5.399   0.891   6.825
 4384SOL    HW214052   5.430   0.798   6.955
 4385SOL     OW14053   6.740   2.808   4.586
 4385SOL    HW114054   6.768   2.728   4.533
 4385SOL    HW214055   6.673   2.780   4.654
 4386SOL     OW14056   0.856   3.721   6.709
 4386SOL    HW114057   0.933   3.667   6.675
 4386SOL    HW214058   0.865   3.815   6.677
 4387SOL     OW14059   0.928   2.060   1.671
 4387SOL    HW114060   0.904   2.035   1.577
 4387SOL    HW214061   0.857   2.028   1.733
 4388SOL     OW14062   5.226   0.871   6.543
 4388SOL    HW114063   5.154   0.863   6.612
 4388SOL    HW214064   5.299   0.929   6.578
 4389SOL     OW14065   5.258   1.509   0.562
 4389SOL    HW114066   5.184   1.577   0.570
 4389SOL    HW214067   5.249   1.460   0.475
 4390SOL     OW14068   3.715   1.911   2.062
 4390SOL    HW114069   3.647   1.884   2.131
 4390SOL    HW214070   3.702   2.007   2.039
 4391SOL     OW14071   1.640   5.312   6.371
 4391SOL    HW114072   1.573   5.255   6.323
 4391SOL    HW214073   1.660   5.271   6.460
 4392SOL     OW14074   6.301   3.591   4.846
 4392SOL    HW114075   6.369   3.526   4.812
 4392SOL    HW214076   6.318   3.610   4.943
 4393SOL     OW14077   5.365   6.711   2.777
 4393SOL    HW114078   5.335   6.651   2.703
 4393SOL    HW214079   5.401   6.656   2.852
 4394SOL     OW14080   6.271   5.402   2.640
 4394SOL    HW114081   6.315   5.360   2.561
 4394SOL    HW214082   6.285   5.501   2.637
 4395SOL     OW14083   4.210   1.682   1.842
 4395SOL    HW114084   4.277   1.682   1.767
 4395SOL    HW214085   4.161   1.770   1.843
 4396SOL     OW14086   2.501   2.081   4.153
 4396SOL    HW114087   2.411   2.089   4.195
 4396SOL    HW214088   2.526   1.984   4.145
 4397SOL     OW14089   0.620   1.431   4.711
 4397SOL    HW114090   0.527   1.398   4.696
 4397SOL    HW214091   0.620   1.500   4.784
 4398SOL     OW14092   1.487   4.451   4.884
 4398SOL    HW114093   1.401   4.415   4.921
 4398SOL    HW214094   1.466   4.522   4.816
 4399SOL     OW14095   1.894   0.274   1.947
 4399SOL    HW114096   1.932   0.189   1.908
 4399SOL    HW214097   1.954   0.307   2.020
 4400SOL     OW14098   2.083   6.718   4.678
 4400SOL    HW114099   2.113   6.630   4.642
 4400SOL    HW214100   2.157   6.759   4.731
 4401SOL     OW14101   5.466   6.642   6.594
 4401SOL    HW114102   5.459   6.708   6.668
 4401SOL    HW214103   5.419   6.678   6.513
 4402SOL     OW14104   1.942   6.459   2.414
 4402SOL    HW114105   2.031   6.469   2.370
 4402SOL    HW214106   1.954   6.419   2.505
 4403SOL     OW14107   0.211   6.995   3.680
 4403SOL    HW114108   0.300   0.019   3.690
 4403SOL    HW214109   0.140   0.038   3.714
 4404SOL     OW14110   0.924   3.929   5.582
 4404SOL    HW114111   0.874   4.016   5.578
 4404SOL    HW214112   0.894   3.876   5.661
 4405SOL     OW14113   2.805   3.867   0.337
 4405SOL    HW114114   2.895   3.873   0.381
 4405SOL    HW214115   2.788   3.772   0.311
 4406SOL     OW14116   5.765   4.486   1.657
 4406SOL    HW114117   5.696   4.555   1.633
 4406SOL    HW214118   5.852   4.531   1.676
 4407SOL     OW14119   0.150   4.679   0.711
 4407SOL    HW114120   0.133   4.631   0.797
 4407SOL    HW214121   0.199   4.618   0.648
 4408SOL     OW14122   4.663   0.756   1.266
 4408SOL    HW114123   4.723   0.810   1.325
 4408SOL    HW214124   4.701   0.664   1.255
 4409SOL     OW14125   4.141   0.687   2.411
 4409SOL    HW114126   4.204   0.609   2.411
 4409SOL    HW214127   4.062   0.666   2.354
 4410SOL     OW14128   1.759   4.996   0.646
 4410SOL    HW114129   1.733   4.906   0.680
 4410SOL    HW214130   1.789   5.053   0.723
 4411SOL     OW14131   4.032   3.200   4.048
 4411SOL    HW114132   4.067   3.274   4.106
 4411SOL    HW214133   4.010   3.121   4.105
 4412SOL     OW14134   3.336   1.338   4.218
 4412SOL    HW114135   3.318   1.240   4.207
 4412SOL    HW214136   3.425   1.350   4.262
 4413SOL     OW14137   4.541   6.155   4.873
 4413SOL    HW114138   4.629   6.183   4.835
 4413SOL    HW214139   4.533   6.055   4.869
 4414SOL     OW14140   4.094   4.944   1.905
 4414SOL    HW114141   4.152   4.961   1.826
 4414SOL    HW214142   4.062   5.031   1.943
 4415SOL     OW14143   3.902   4.377   6.247
 4415SOL    HW114144   3.944   4.307   6.305
 4415SOL    HW214145   3.940   4.466   6.271
 4416SOL     OW14146   3.107   0.701   4.125
 4416SOL    HW114147   3.181   0.768   4.117
 4416SOL    HW214148   3.079   0.670   4.035
 4417SOL     OW14149   6.624   4.398   3.162
 4417SOL    HW114150   6.668   4.313   3.192
 4417SOL    HW214151   6.532   4.377   3.129
 4418SOL     OW14152   5.684   0.760   3.885
 4418SOL    HW114153   5.681   0.671   3.841
 4418SOL    HW214154   5.748   0.757   3.963
 4419SOL     OW14155   5.872   5.972   0.320
 4419SOL    HW114156   5.835   5.886   0.283
 4419SOL    HW214157   5.936   5.952   0.394
 4420SOL     OW14158   4.944   1.706   1.224
 4420SOL    HW114159   4.970   1.756   1.306
 4420SOL    HW214160   4.969   1.760   1.143
 4421SOL     OW14161   1.940   0.963   3.300
 4421SOL    HW114162   1.862   0.998   3.247
 4421SOL    HW214163   1.998   0.908   3.241
 4422SOL     OW14164   2.280   3.739   6.006
 4422SOL    HW114165   2.201   3.683   5.981
 4422SOL    HW214166   2.280   3.754   6.105
 4423SOL     OW14167   1.477   2.793   5.927
 4423SOL    HW114168   1.425   2.879   5.928
 4423SOL    HW214169   1.484   2.760   5.833
 4424SOL     OW14170   5.348   6.384   3.750
 4424SOL    HW114171   5.361   6.383   3.849
 4424SOL    HW214172   5.433   6.360   3.704
 4425SOL     OW14173   3.286   5.458   5.566
 4425SOL    HW114174   3.221   5.531   5.589
 4425SOL    HW214175   3.242   5.369   5.577
 4426SOL     OW14176   0.203   1.908   5.050
 4426SOL    HW114177   0.131   1.839   5.047
 4426SOL    HW214178   0.288   1.869   5.014
 4427SOL     OW14179   6.925   6.610   2.898
 4427SOL    HW114180   6.892   6.703   2.909
 4427SOL    HW214181   6.848   6.546   2.907
 4428SOL     OW14182   3.171   5.197   2.088
 4428SOL    HW114183   3.248   5.224   2.146
 4428SOL    HW214184   3.186   5.104   2.055
 4429SOL     OW14185   2.764   0.666   3.790
 4429SOL    HW114186   2.822   0.585   3.789
 4429SOL    HW214187   2.705   0.663   3.871
 4430SOL     OW14188   5.616   3.098   4.040
 4430SOL    HW114189   5.560   3.087   3.958
 4430SOL    HW214190   5.713   3.094   4.015
 4431SOL     OW14191   1.404   1.011   2.172
 4431SOL    HW114192   1.374   1.092   2.121
 4431SOL    HW214193   1.423   0.937   2.109
 4432SOL     OW14194   3.407   3.963   3.733
 4432SOL    HW114195   3.398   4.004   3.643
 4432SOL    HW214196   3.503   3.940   3.750
 4433SOL     OW14197   6.005   0.492   4.756
 4433SOL    HW114198   5.953   0.511   4.838
 4433SOL    HW214199   6.075   0.423   4.775
 4434SOL     OW14200   4.155   2.174   3.242
 4434SOL    HW114201   4.215   2.153   3.320
 4434SOL    HW214202   4.189   2.127   3.161
 4435SOL     OW14203   4.299   3.869   0.932
 4435SOL    HW114204   4.247   3.901   1.011
 4435SOL    HW214205   4.360   3.795   0.960
 4436SOL     OW14206   3.248   2.111   0.787
 4436SOL    HW114207   3.322   2.097   0.722
 4436SOL    HW214208   3.234   2.209   0.799
 4437SOL     OW14209   5.533   1.432   3.765
 4437SOL    HW114210   5.548   1.354   3.704
 4437SOL    HW214211   5.620   1.480   3.778
 4438SOL     OW14212   3.958   1.215   6.869
 4438SOL    HW114213   4.030   1.233   6.936
 4438SOL    HW214214   3.942   1.297   6.814
 4439SOL     OW14215   0.101   6.127   1.309
 4439SOL    HW114216   0.103   6.150   1.406
 4439SOL    HW214217   0.076   6.209   1.256
 4440SOL     OW14218   1.912   4.478   0.663
 4440SOL    HW114219   1.901   4.406   0.594
 4440SOL    HW214220   1.840   4.547   0.651
 4441SOL     OW14221   6.402   1.728   2.791
 4441SOL    HW114222   6.439   1.787   2.863
 4441SOL    HW214223   6.441   1.754   2.703
 4442SOL     OW14224   2.945   6.056   4.252
 4442SOL    HW114225   2.951   5.989   4.325
 4442SOL    HW214226   2.979   6.016   4.167
 4443SOL     OW14227   0.022   3.080   0.547
 4443SOL    HW114228   0.118   3.070   0.521
 4443SOL    HW214229   7.010   2.995   0.590
 4444SOL     OW14230   3.473   5.613   6.166
 4444SOL    HW114231   3.383   5.586   6.199
 4444SOL    HW214232   3.501   5.554   6.090
 4445SOL     OW14233   7.017   0.401   0.804
 4445SOL    HW114234   6.992   0.393   0.707
 4445SOL    HW214235   6.976   0.484   0.842
 4446SOL     OW14236   6.132   1.515   1.873
 4446SOL    HW114237   6.074   1.593   1.897
 4446SOL    HW214238   6.225   1.547   1.852
 4447SOL     OW14239   5.772   3.330   5.996
 4447SOL    HW114240   5.674   3.314   5.982
 4447SOL    HW214241   5.818   3.337   5.908
 4448SOL     OW14242   3.598   3.850   1.026
 4448SOL    HW114243   3.498   3.852   1.027
 4448SOL    HW214244   3.629   3.756   1.010
 4449SOL     OW14245   4.166   0.741   6.251
 4449SOL    HW114246   4.265   0.733   6.233
 4449SOL    HW214247   4.132   0.656   6.289
 4450SOL     OW14248   4.084   3.614   4.394
 4450SOL    HW114249   4.156   3.652   4.335
 4450SOL    HW214250   4.000   3.602   4.340
 4451SOL     OW14251   5.818   4.330   2.943
 4451SOL    HW114252   5.743   4.298   2.885
 4451SOL    HW214253   5.793   4.416   2.986
 4452SOL     OW14254   5.574   6.562   4.893
 4452SOL    HW114255   5.475   6.553   4.900
 4452SOL    HW214256   5.608   6.622   4.965
 4453SOL     OW14257   6.573   2.682   1.282
 4453SOL    HW114258   6.512   2.653   1.355
 4453SOL    HW214259   6.556   2.778   1.259
 4454SOL     OW14260   5.219   1.943   6.742
 4454SOL    HW114261   5.305   1.930   6.693
 4454SOL    HW214262   5.168   1.856   6.745
 4455SOL     OW14263   3.882   0.343   6.118
 4455SOL    HW114264   3.824   0.407   6.168
 4455SOL    HW214265   3.948   0.302   6.181
 4456SOL     OW14266   2.876   5.393   2.702
 4456SOL    HW114267   2.958   5.420   2.653
 4456SOL    HW214268   2.896   5.388   2.800
 4457SOL     OW14269   4.240   2.071   0.507
 4457SOL    HW114270   4.193   2.126   0.438
 4457SOL    HW214271   4.293   1.999   0.463
 4458SOL     OW14272   1.087   4.002   0.105
 4458SOL    HW114273   1.118   4.032   0.014
 4458SOL    HW214274   1.082   3.902   0.106
 4459SOL     OW14275   5.054   0.786   3.460
 4459SOL    HW114276   4.993   0.707   3.458
 4459SOL    HW214277   5.020   0.852   3.528
 4460SOL     OW14278   2.966   3.196   5.481
 4460SOL    HW114279   3.046   3.254   5.492
 4460SOL    HW214280   2.943   3.189   5.384
 4461SOL     OW14281   0.699   0.660   2.733
 4461SOL    HW114282   0.788   0.668   2.688
 4461SOL    HW214283   0.712   0.652   2.832
 4462SOL     OW14284   0.046   3.453   1.969
 4462SOL    HW114285   0.111   3.512   1.921
 4462SOL    HW214286   0.067   3.455   2.067
 4463SOL     OW14287   2.859   3.057   6.755
 4463SOL    HW114288   2.769   3.076   6.795
 4463SOL    HW214289   2.914   3.004   6.819
 4464SOL     OW14290   6.122   4.536   6.885
 4464SOL    HW114291   6.036   4.526   6.935
 4464SOL    HW214292   6.108   4.594   6.804
 4465SOL     OW14293   2.227   5.327   3.561
 4465SOL    HW114294   2.171   5.275   3.626
 4465SOL    HW214295   2.168   5.366   3.490
 4466SOL     OW14296   1.134   0.513   2.165
 4466SOL    HW114297   1.034   0.508   2.168
 4466SOL    HW214298   1.170   0.424   2.138
 4467SOL     OW14299   1.276   6.730   3.374
 4467SOL    HW114300   1.196   6.670   3.372
 4467SOL    HW214301   1.318   6.726   3.465
 4468SOL     OW14302   1.209   2.517   0.809
 4468SOL    HW114303   1.172   2.424   0.808
 4468SOL    HW214304   1.293   2.520   0.755
 4469SOL     OW14305   3.801   0.200   1.528
 4469SOL    HW114306   3.801   0.129   1.457
 4469SOL    HW214307   3.804   0.157   1.618
 4470SOL     OW14308   6.319   3.864   2.050
 4470SOL    HW114309   6.238   3.807   2.058
 4470SOL    HW214310   6.393   3.811   2.008
 4471SOL     OW14311   6.960   1.515   0.334
 4471SOL    HW114312   0.005   1.585   0.366
 4471SOL    HW214313   6.926   1.540   0.244
 4472SOL     OW14314   2.002   3.078   3.509
 4472SOL    HW114315   1.922   3.089   3.450
 4472SOL    HW214316   1.973   3.040   3.597
 4473SOL     OW14317   6.428   1.937   3.209
 4473SOL    HW114318   6.481   1.952   3.126
 4473SOL    HW214319   6.456   2.004   3.279
 4474SOL     OW14320   3.575   0.740   1.905
 4474SOL    HW114321   3.495   0.799   1.919
 4474SOL    HW214322   3.558   0.650   1.945
 4475SOL     OW14323   1.614   3.825   2.510
 4475SOL    HW114324   1.663   3.842   2.425
 4475SOL    HW214325   1.670   3.768   2.570
 4476SOL     OW14326   4.818   6.447   4.149
 4476SOL    HW114327   4.913   6.471   4.126
 4476SOL    HW214328   4.766   6.435   4.064
 4477SOL     OW14329   1.437   0.371   5.598
 4477SOL    HW114330   1.484   0.449   5.557
 4477SOL    HW214331   1.503   0.298   5.616
 4478SOL     OW14332   3.077   6.088   2.381
 4478SOL    HW114333   3.030   6.132   2.304
 4478SOL    HW214334   3.020   6.013   2.416
 4479SOL     OW14335   0.564   0.555   1.225
 4479SOL    HW114336   0.531   0.630   1.168
 4479SOL    HW214337   0.586   0.476   1.167
 4480SOL     OW14338   1.539   3.501   5.502
 4480SOL    HW114339   1.632   3.476   5.530
 4480SOL    HW214340   1.543   3.576   5.437
 4481SOL     OW14341   2.690   6.987   4.917
 4481SOL    HW114342   2.771   6.931   4.935
 4481SOL    HW214343   2.718   0.063   4.904
 4482SOL     OW14344   0.672   4.230   4.207
 4482SOL    HW114345   0.609   4.299   4.243
 4482SOL    HW214346   0.633   4.139   4.221
 4483SOL     OW14347   5.490   3.507   1.784
 4483SOL    HW114348   5.579   3.548   1.800
 4483SOL    HW214349   5.423   3.578   1.765
 4484SOL     OW14350   3.255   2.562   5.452
 4484SOL    HW114351   3.184   2.625   5.485
 4484SOL    HW214352   3.211   2.483   5.410
 4485SOL     OW14353   5.550   1.993   5.977
 4485SOL    HW114354   5.491   2.045   6.039
 4485SOL    HW214355   5.500   1.914   5.942
 4486SOL     OW14356   5.196   3.546   4.585
 4486SOL    HW114357   5.247   3.573   4.503
 4486SOL    HW214358   5.259   3.506   4.652
 4487SOL     OW14359   2.444   3.127   6.478
 4487SOL    HW114360   2.390   3.199   6.433
 4487SOL    HW214361   2.511   3.091   6.414
 4488SOL     OW14362   5.948   3.460   5.246
 4488SOL    HW114363   6.003   3.399   5.188
 4488SOL    HW214364   5.968   3.441   5.342
 4489SOL     OW14365   5.327   5.498   4.713
 4489SOL    HW114366   5.244   5.483   4.660
 4489SOL    HW214367   5.406   5.504   4.650
 4490SOL     OW14368   6.208   2.468   2.396
 4490SOL    HW114369   6.292   2.415   2.404
 4490SOL    HW214370   6.229   2.566   2.394
 4491SOL     OW14371   0.193   3.046   4.255
 4491SOL    HW114372   0.290   3.069   4.260
 4491SOL    HW214373   0.142   3.102   4.321
 4492SOL     OW14374   5.189   3.328   0.891
 4492SOL    HW114375   5.259   3.370   0.949
 4492SOL    HW214376   5.101   3.374   0.905
 4493SOL     OW14377   4.949   5.795   5.608
 4493SOL    HW114378   4.900   5.749   5.533
 4493SOL    HW214379   4.942   5.894   5.597
 4494SOL     OW14380   6.778   1.768   5.560
 4494SOL    HW114381   6.844   1.760   5.485
 4494SOL    HW214382   6.827   1.767   5.647
 4495SOL     OW14383   4.754   5.877   4.072
 4495SOL    HW114384   4.831   5.839   4.021
 4495SOL    HW214385   4.786   5.952   4.130
 4496SOL     OW14386   3.977   5.989   1.114
 4496SOL    HW114387   3.898   5.935   1.084
 4496SOL    HW214388   4.014   6.039   1.037
 4497SOL     OW14389   4.905   0.424   6.653
 4497SOL    HW114390   4.988   0.398   6.702
 4497SOL    HW214391   4.852   0.342   6.631
 4498SOL     OW14392   0.213   2.782   6.368
 4498SOL    HW114393   0.145   2.710   6.357
 4498SOL    HW214394   0.232   2.823   6.279
 4499SOL     OW14395   0.386   3.470   3.709
 4499SOL    HW114396   0.320   3.401   3.741
 4499SOL    HW214397   0.384   3.549   3.770
 4500SOL     OW14398   2.957   3.259   4.162
 4500SOL    HW114399   2.871   3.301   4.134
 4500SOL    HW214400   3.015   3.328   4.206
 4501SOL     OW14401   0.130   2.984   5.745
 4501SOL    HW114402   0.073   2.933   5.682
 4501SOL    HW214403   0.212   2.931   5.767
 4502SOL     OW14404   1.828   2.029   0.156
 4502SOL    HW114405   1.764   2.065   0.089
 4502SOL    HW214406   1.787   2.032   0.247
 4503SOL     OW14407   3.496   0.071   2.726
 4503SOL    HW114408   3.429   0.142   2.749
 4503SOL    HW214409   3.472   7.006   2.774
 4504SOL     OW14410   6.884   1.205   4.656
 4504SOL    HW114411   6.964   1.209   4.716
 4504SOL    HW214412   6.857   1.109   4.643
 4505SOL     OW14413   6.611   5.748   3.279
 4505SOL    HW114414   6.610   5.750   3.179
 4505SOL    HW214415   6.583   5.837   3.314
 4506SOL     OW14416   4.363   2.429   4.166
 4506SOL    HW114417   4.322   2.340   4.144
 4506SOL    HW214418   4.317   2.468   4.246
 4507SOL     OW14419   5.375   4.630   2.398
 4507SOL    HW114420   5.412   4.717   2.366
 4507SOL    HW214421   5.362   4.634   2.497
 4508SOL     OW14422   0.778   5.073   5.931
 4508SOL    HW114423   0.817   5.165   5.933
 4508SOL    HW214424   0.726   5.061   5.847
 4509SOL     OW14425   5.403   2.111   3.617
 4509SOL    HW114426   5.337   2.187   3.621
 4509SOL    HW214427   5.490   2.140   3.657
 4510SOL     OW14428   4.871   0.487   5.099
 4510SOL    HW114429   4.813   0.567   5.113
 4510SOL    HW214430   4.816   0.411   5.065
 4511SOL     OW14431   6.557   3.684   6.544
 4511SOL    HW114432   6.500   3.709   6.622
 4511SOL    HW214433   6.637   3.744   6.542
 4512SOL     OW14434   2.523   6.750   5.778
 4512SOL    HW114435   2.512   6.846   5.754
 4512SOL    HW214436   2.461   6.727   5.853
 4513SOL     OW14437   4.940   6.773   0.622
 4513SOL    HW114438   4.868   6.709   0.595
 4513SOL    HW214439   4.948   6.845   0.553
 4514SOL     OW14440   5.020   0.984   5.119
 4514SOL    HW114441   5.060   0.893   5.130
 4514SOL    HW214442   5.061   1.048   5.184
 4515SOL     OW14443   0.064   3.694   5.584
 4515SOL    HW114444   0.106   3.699   5.675
 4515SOL    HW214445   6.992   3.735   5.587
 4516SOL     OW14446   1.747   0.903   6.226
 4516SOL    HW114447   1.714   0.996   6.213
 4516SOL    HW214448   1.843   0.905   6.253
 4517SOL     OW14449   1.639   0.534   0.017
 4517SOL    HW114450   1.622   0.620   6.989
 4517SOL    HW214451   1.720   0.543   0.075
 4518SOL     OW14452   6.591   1.199   3.500
 4518SOL    HW114453   6.637   1.193   3.411
 4518SOL    HW214454   6.501   1.243   3.488
 4519SOL     OW14455   5.634   0.057   2.151
 4519SOL    HW114456   5.622   6.982   2.184
 4519SOL    HW214457   5.545   0.097   2.130
 4520SOL     OW14458   5.598   5.649   3.525
 4520SOL    HW114459   5.564   5.583   3.458
 4520SOL    HW214460   5.651   5.720   3.479
 4521SOL     OW14461   5.268   1.951   4.313
 4521SOL    HW114462   5.365   1.972   4.322
 4521SOL    HW214463   5.220   2.031   4.277
 4522SOL     OW14464   5.657   6.673   3.762
 4522SOL    HW114465   5.737   6.648   3.817
 4522SOL    HW214466   5.684   6.738   3.691
 4523SOL     OW14467   1.197   4.353   0.077
 4523SOL    HW114468   1.235   4.283   0.138
 4523SOL    HW214469   1.228   4.443   0.106
 4524SOL     OW14470   5.349   2.209   4.442
 4524SOL    HW114471   5.321   2.223   4.347
 4524SOL    HW214472   5.273   2.168   4.493
 4525SOL     OW14473   5.830   1.192   2.965
 4525SOL    HW114474   5.915   1.140   2.963
 4525SOL    HW214475   5.821   1.244   2.880
 4526SOL     OW14476   5.076   0.723   0.845
 4526SOL    HW114477   4.997   0.662   0.839
 4526SOL    HW214478   5.058   0.794   0.913
 4527SOL     OW14479   4.502   0.786   3.832
 4527SOL    HW114480   4.477   0.755   3.924
 4527SOL    HW214481   4.581   0.848   3.838
 4528SOL     OW14482   4.345   6.775   7.000
 4528SOL    HW114483   4.323   6.683   6.968
 4528SOL    HW214484   4.386   6.828   6.926
 4529SOL     OW14485   3.277   1.798   4.363
 4529SOL    HW114486   3.255   1.742   4.284
 4529SOL    HW214487   3.193   1.827   4.409
 4530SOL     OW14488   0.087   3.424   5.636
 4530SOL    HW114489   0.053   3.517   5.622
 4530SOL    HW214490   0.021   3.358   5.599
 4531SOL     OW14491   0.541   3.286   3.576
 4531SOL    HW114492   0.495   3.368   3.610
 4531SOL    HW214493   0.608   3.255   3.643
 4532SOL     OW14494   6.751   1.321   2.764
 4532SOL    HW114495   6.768   1.258   2.688
 4532SOL    HW214496   6.661   1.363   2.753
 4533SOL     OW14497   0.987   0.204   2.515
 4533SOL    HW114498   0.920   0.196   2.589
 4533SOL    HW214499   1.078   0.181   2.550
 4534SOL     OW14500   5.704   4.153   4.812
 4534SOL    HW114501   5.647   4.235   4.803
 4534SOL    HW214502   5.783   4.162   4.752
 4535SOL     OW14503   4.875   1.846   2.609
 4535SOL    HW114504   4.917   1.858   2.519
 4535SOL    HW214505   4.809   1.919   2.624
 4536SOL     OW14506   4.607   2.034   3.697
 4536SOL    HW114507   4.706   2.037   3.713
 4536SOL    HW214508   4.587   2.060   3.603
 4537SOL     OW14509   3.908   3.111   5.896
 4537SOL    HW114510   3.951   3.147   5.979
 4537SOL    HW214511   3.979   3.097   5.826
 4538SOL     OW14512   2.706   0.690   4.224
 4538SOL    HW114513   2.748   0.776   4.255
 4538SOL    HW214514   2.777   0.625   4.198
 4539SOL     OW14515   2.218   0.964   4.208
 4539SOL    HW114516   2.145   1.032   4.208
 4539SOL    HW214517   2.216   0.913   4.122
 4540SOL     OW14518   3.283   2.908   4.543
 4540SOL    HW114519   3.277   2.875   4.637
 4540SOL    HW214520   3.191   2.920   4.506
 4541SOL     OW14521   5.513   1.158   0.632
 4541SOL    HW114522   5.420   1.153   0.670
 4541SOL    HW214523   5.546   1.066   0.613
 4542SOL     OW14524   6.382   7.011   1.975
 4542SOL    HW114525   6.354   0.070   2.032
 4542SOL    HW214526   6.349   0.006   1.881
 4543SOL     OW14527   5.085   1.783   0.799
 4543SOL    HW114528   4.990   1.808   0.818
 4543SOL    HW214529   5.095   1.684   0.805
 4544SOL     OW14530   3.079   6.328   5.838
 4544SOL    HW114531   3.117   6.247   5.793
 4544SOL    HW214532   3.153   6.382   5.877
 4545SOL     OW14533   6.117   2.536   4.769
 4545SOL    HW114534   6.066   2.514   4.852
 4545SOL    HW214535   6.213   2.551   4.792
 4546SOL     OW14536   1.390   1.328   6.621
 4546SOL    HW114537   1.354   1.335   6.528
 4546SOL    HW214538   1.417   1.233   6.640
 4547SOL     OW14539   6.646   2.837   3.378
 4547SOL    HW114540   6.644   2.744   3.414
 4547SOL    HW214541   6.560   2.883   3.397
 4548SOL     OW14542   1.293   4.227   4.728
 4548SOL    HW114543   1.330   4.277   4.650
 4548SOL    HW214544   1.323   4.272   4.813
 4549SOL     OW14545   5.827   3.725   2.194
 4549SOL    HW114546   5.889   3.722   2.272
 4549SOL    HW214547   5.796   3.819   2.180
 4550SOL     OW14548   0.668   6.172   2.611
 4550SOL    HW114549   0.569   6.179   2.617
 4550SOL    HW214550   0.700   6.105   2.679
 4551SOL     OW14551   6.211   1.862   6.054
 4551SOL    HW114552   6.243   1.884   6.146
 4551SOL    HW214553   6.288   1.835   5.996
 4552SOL     OW14554   6.607   2.761   0.596
 4552SOL    HW114555   6.620   2.809   0.683
 4552SOL    HW214556   6.659   2.808   0.524
 4553SOL     OW14557   3.830   4.119   6.964
 4553SOL    HW114558   3.750   4.061   6.947
 4553SOL    HW214559   3.912   4.062   6.968
 4554SOL     OW14560   4.519   0.629   1.700
 4554SOL    HW114561   4.439   0.640   1.758
 4554SOL    HW214562   4.497   0.657   1.606
 4555SOL     OW14563   3.390   1.645   5.548
 4555SOL    HW114564   3.353   1.736   5.568
 4555SOL    HW214565   3.408   1.597   5.633
 4556SOL     OW14566   4.761   2.313   3.501
 4556SOL    HW114567   4.680   2.370   3.490
 4556SOL    HW214568   4.753   2.232   3.443
 4557SOL     OW14569   5.339   7.006   5.005
 4557SOL    HW114570   5.261   0.047   4.994
 4557SOL    HW214571   5.402   0.025   5.073
 4558SOL     OW14572   6.708   3.508   5.716
 4558SOL    HW114573   6.689   3.506   5.814
 4558SOL    HW214574   6.679   3.596   5.678
 4559SOL     OW14575   0.565   4.581   1.554
 4559SOL    HW114576   0.657   4.553   1.581
 4559SOL    HW214577   0.502   4.564   1.630
 4560SOL     OW14578   4.659   4.571   3.653
 4560SOL    HW114579   4.617   4.538   3.568
 4560SOL    HW214580   4.642   4.669   3.663
 4561SOL     OW14581   2.978   0.373   1.226
 4561SOL    HW114582   3.008   0.451   1.170
 4561SOL    HW214583   2.981   0.290   1.171
 4562SOL     OW14584   3.290   6.315   5.418
 4562SOL    HW114585   3.386   6.337   5.435
 4562SOL    HW214586   3.273   6.219   5.440
 4563SOL     OW14587   0.200   4.286   0.224
 4563SOL    HW114588   0.165   4.208   0.276
 4563SOL    HW214589   0.252   4.346   0.285
 4564SOL     OW14590   0.519   6.873   1.059
 4564SOL    HW114591   0.530   6.780   1.025
 4564SOL    HW214592   0.588   6.932   1.017
 4565SOL     OW14593   0.500   1.244   5.538
 4565SOL    HW114594   0.431   1.249   5.610
 4565SOL    HW214595   0.469   1.180   5.467
 4566SOL     OW14596   6.727   1.539   1.016
 4566SOL    HW114597   6.730   1.441   1.034
 4566SOL    HW214598   6.820   1.576   1.019
 4567SOL     OW14599   0.139   1.114   6.975
 4567SOL    HW114600   0.148   1.105   6.876
 4567SOL    HW214601   0.043   1.104   7.001
 4568SOL     OW14602   0.940   4.930   5.115
 4568SOL    HW114603   0.980   4.840   5.134
 4568SOL    HW214604   0.914   4.974   5.201
 4569SOL     OW14605   1.944   1.066   2.956
 4569SOL    HW114606   1.904   0.974   2.957
 4569SOL    HW214607   1.886   1.128   3.008
 4570SOL     OW14608   0.439   5.187   2.986
 4570SOL    HW114609   0.427   5.233   3.074
 4570SOL    HW214610   0.352   5.146   2.958
 4571SOL     OW14611   3.175   3.479   5.797
 4571SOL    HW114612   3.255   3.534   5.773
 4571SOL    HW214613   3.196   3.382   5.783
 4572SOL     OW14614   1.178   6.762   6.616
 4572SOL    HW114615   1.210   6.668   6.624
 4572SOL    HW214616   1.134   6.776   6.528
 4573SOL     OW14617   6.271   6.137   0.525
 4573SOL    HW114618   6.274   6.114   0.428
 4573SOL    HW214619   6.313   6.226   0.540
 4574SOL     OW14620   6.370   4.128   1.281
 4574SOL    HW114621   6.331   4.040   1.254
 4574SOL    HW214622   6.380   4.131   1.381
 4575SOL     OW14623   6.589   2.025   6.856
 4575SOL    HW114624   6.597   2.125   6.856
 4575SOL    HW214625   6.496   1.999   6.834
 4576SOL     OW14626   2.023   6.186   6.697
 4576SOL    HW114627   2.108   6.202   6.748
 4576SOL    HW214628   2.005   6.087   6.693
 4577SOL     OW14629   0.887   2.249   3.954
 4577SOL    HW114630   0.834   2.313   3.899
 4577SOL    HW214631   0.948   2.197   3.895
 4578SOL     OW14632   0.847   2.974   4.219
 4578SOL    HW114633   0.854   3.071   4.245
 4578SOL    HW214634   0.904   2.957   4.139
 4579SOL     OW14635   5.417   2.255   2.539
 4579SOL    HW114636   5.510   2.284   2.516
 4579SOL    HW214637   5.413   2.233   2.637
 4580SOL     OW14638   5.090   5.614   0.410
 4580SOL    HW114639   5.021   5.545   0.387
 4580SOL    HW214640   5.053   5.705   0.391
 4581SOL     OW14641   3.253   5.721   3.127
 4581SOL    HW114642   3.254   5.802   3.069
 4581SOL    HW214643   3.249   5.639   3.069
 4582SOL     OW14644   5.327   6.179   4.921
 4582SOL    HW114645   5.422   6.174   4.949
 4582SOL    HW214646   5.307   6.104   4.858
 4583SOL     OW14647   2.807   1.033   4.715
 4583SOL    HW114648   2.779   0.937   4.708
 4583SOL    HW214649   2.844   1.063   4.627
 4584SOL     OW14650   0.211   5.210   5.443
 4584SOL    HW114651   0.290   5.185   5.499
 4584SOL    HW214652   0.239   5.219   5.348
 4585SOL     OW14653   3.531   6.202   2.627
 4585SOL    HW114654   3.578   6.178   2.711
 4585SOL    HW214655   3.516   6.301   2.624
 4586SOL     OW14656   3.805   5.194   0.361
 4586SOL    HW114657   3.712   5.157   0.349
 4586SOL    HW214658   3.870   5.118   0.367
 4587SOL     OW14659   3.950   3.506   2.245
 4587SOL    HW114660   3.941   3.586   2.305
 4587SOL    HW214661   4.032   3.454   2.271
 4588SOL     OW14662   3.738   3.995   5.689
 4588SOL    HW114663   3.829   4.020   5.722
 4588SOL    HW214664   3.733   3.896   5.678
 4589SOL     OW14665   5.944   1.052   1.702
 4589SOL    HW114666   6.041   1.075   1.712
 4589SOL    HW214667   5.890   1.109   1.765
 4590SOL     OW14668   5.165   5.702   1.429
 4590SOL    HW114669   5.131   5.749   1.348
 4590SOL    HW214670   5.088   5.668   1.483
 4591SOL     OW14671   0.476   6.021   5.264
 4591SOL    HW114672   0.486   6.090   5.192
 4591SOL    HW214673   0.392   5.968   5.248
 4592SOL     OW14674   4.025   2.126   2.189
 4592SOL    HW114675   4.020   2.061   2.265
 4592SOL    HW214676   4.011   2.219   2.223
 4593SOL     OW14677   3.651   5.579   4.532
 4593SOL    HW114678   3.558   5.592   4.500
 4593SOL    HW214679   3.708   5.542   4.458
 4594SOL     OW14680   3.070   1.771   1.470
 4594SOL    HW114681   3.075   1.854   1.414
 4594SOL    HW214682   3.162   1.732   1.479
 4595SOL     OW14683   3.646   2.523   6.216
 4595SOL    HW114684   3.571   2.465   6.183
 4595SOL    HW214685   3.616   2.618   6.217
 4596SOL     OW14686   5.935   6.497   2.441
 4596SOL    HW114687   5.969   6.434   2.511
 4596SOL    HW214688   5.864   6.555   2.481
 4597SOL     OW14689   5.208   4.737   6.824
 4597SOL    HW114690   5.259   4.652   6.822
 4597SOL    HW214691   5.116   4.720   6.861
 4598SOL     OW14692   2.280   4.953   0.232
 4598SOL    HW114693   2.228   4.947   0.146
 4598SOL    HW214694   2.348   5.026   0.224
 4599SOL     OW14695   1.659   4.770   0.737
 4599SOL    HW114696   1.652   4.693   0.673
 4599SOL    HW214697   1.601   4.752   0.816
 4600SOL     OW14698   1.555   4.949   5.390
 4600SOL    HW114699   1.462   4.958   5.427
 4600SOL    HW214700   1.572   5.021   5.324
 4601SOL     OW14701   1.630   0.126   5.240
 4601SOL    HW114702   1.581   0.088   5.162
 4601SOL    HW214703   1.639   0.056   5.311
 4602SOL     OW14704   0.948   5.990   0.976
 4602SOL    HW114705   0.880   6.063   0.983
 4602SOL    HW214706   1.030   6.016   1.028
 4603SOL     OW14707   3.387   6.612   1.470
 4603SOL    HW114708   3.302   6.652   1.435
 4603SOL    HW214709   3.376   6.513   1.480
 4604SOL     OW14710   4.557   0.594   2.328
 4604SOL    HW114711   4.521   0.515   2.377
 4604SOL    HW214712   4.482   0.655   2.303
 4605SOL     OW14713   4.385   1.025   3.263
 4605SOL    HW114714   4.316   1.093   3.286
 4605SOL    HW214715   4.342   0.936   3.251
 4606SOL     OW14716   1.332   6.781   1.442
 4606SOL    HW114717   1.392   6.816   1.514
 4606SOL    HW214718   1.383   6.772   1.357
 4607SOL     OW14719   2.540   2.870   1.086
 4607SOL    HW114720   2.513   2.905   1.175
 4607SOL    HW214721   2.461   2.829   1.040
 4608SOL     OW14722   0.746   5.290   3.586
 4608SOL    HW114723   0.714   5.378   3.622
 4608SOL    HW214724   0.762   5.297   3.488
 4609SOL     OW14725   3.828   5.281   6.291
 4609SOL    HW114726   3.882   5.291   6.207
 4609SOL    HW214727   3.802   5.372   6.324
 4610SOL     OW14728   5.383   1.931   0.754
 4610SOL    HW114729   5.289   1.911   0.783
 4610SOL    HW214730   5.384   1.945   0.655
 4611SOL     OW14731   6.167   5.904   5.794
 4611SOL    HW114732   6.240   5.878   5.731
 4611SOL    HW214733   6.152   5.830   5.860
 4612SOL     OW14734   0.968   6.033   0.121
 4612SOL    HW114735   1.051   6.014   0.069
 4612SOL    HW214736   0.928   5.947   0.153
 4613SOL     OW14737   2.945   5.857   2.475
 4613SOL    HW114738   2.882   5.784   2.450
 4613SOL    HW214739   2.992   5.833   2.560
 4614SOL     OW14740   0.866   4.327   5.049
 4614SOL    HW114741   0.871   4.359   4.954
 4614SOL    HW214742   0.926   4.248   5.060
 4615SOL     OW14743   1.757   0.690   0.348
 4615SOL    HW114744   1.822   0.615   0.331
 4615SOL    HW214745   1.779   0.767   0.287
 4616SOL     OW14746   5.613   0.459   5.749
 4616SOL    HW114747   5.661   0.377   5.718
 4616SOL    HW214748   5.644   0.538   5.697
 4617SOL     OW14749   1.220   2.314   2.416
 4617SOL    HW114750   1.203   2.356   2.327
 4617SOL    HW214751   1.310   2.343   2.450
 4618SOL     OW14752   2.057   2.490   5.388
 4618SOL    HW114753   1.994   2.413   5.384
 4618SOL    HW214754   2.025   2.562   5.325
 4619SOL     OW14755   4.116   6.376   3.020
 4619SOL    HW114756   4.080   6.285   2.997
 4619SOL    HW214757   4.174   6.408   2.945
 4620SOL     OW14758   3.266   4.224   0.144
 4620SOL    HW114759   3.350   4.232   0.090
 4620SOL    HW214760   3.237   4.128   0.145
 4621SOL     OW14761   5.107   2.005   2.990
 4621SOL    HW114762   5.092   2.042   2.899
 4621SOL    HW214763   5.136   1.910   2.983
 4622SOL     OW14764   1.684   3.957   0.166
 4622SOL    HW114765   1.675   4.021   0.243
 4622SOL    HW214766   1.699   3.864   0.201
 4623SOL     OW14767   6.925   6.599   0.709
 4623SOL    HW114768   6.922   6.508   0.669
 4623SOL    HW214769   6.871   6.601   0.793
 4624SOL     OW14770   5.432   6.948   3.507
 4624SOL    HW114771   5.467   6.859   3.538
 4624SOL    HW214772   5.336   6.957   3.535
 4625SOL     OW14773   1.465   4.854   0.166
 4625SOL    HW114774   1.381   4.864   0.218
 4625SOL    HW214775   1.530   4.925   0.193
 4626SOL     OW14776   5.702   5.696   2.389
 4626SOL    HW114777   5.736   5.623   2.329
 4626SOL    HW214778   5.620   5.664   2.437
 4627SOL     OW14779   3.420   5.349   3.788
 4627SOL    HW114780   3.362   5.302   3.722
 4627SOL    HW214781   3.364   5.388   3.861
 4628SOL     OW14782   5.786   3.673   3.704
 4628SOL    HW114783   5.687   3.660   3.708
 4628SOL    HW214784   5.831   3.588   3.731
 4629SOL     OW14785   2.306   4.852   4.684
 4629SOL    HW114786   2.293   4.847   4.783
 4629SOL    HW214787   2.341   4.943   4.660
 4630SOL     OW14788   3.941   5.719   2.726
 4630SOL    HW114789   3.850   5.756   2.709
 4630SOL    HW214790   3.963   5.651   2.656
 4631SOL     OW14791   2.327   6.290   3.805
 4631SOL    HW114792   2.386   6.255   3.733
 4631SOL    HW214793   2.233   6.294   3.772
 4632SOL     OW14794   4.102   5.344   2.856
 4632SOL    HW114795   4.066   5.316   2.768
 4632SOL    HW214796   4.181   5.288   2.880
 4633SOL     OW14797   6.246   1.589   3.423
 4633SOL    HW114798   6.244   1.677   3.470
 4633SOL    HW214799   6.153   1.555   3.411
 4634SOL     OW14800   1.885   4.599   6.984
 4634SOL    HW114801   1.878   4.581   6.886
 4634SOL    HW214802   1.797   4.631   7.019
 4635SOL     OW14803   5.418   3.732   2.027
 4635SOL    HW114804   5.383   3.819   2.061
 4635SOL    HW214805   5.454   3.743   1.935
 4636SOL     OW14806   2.075   5.422   0.130
 4636SOL    HW114807   1.995   5.467   0.170
 4636SOL    HW214808   2.062   5.413   0.031
 4637SOL     OW14809   1.088   0.492   0.120
 4637SOL    HW114810   1.020   0.562   0.101
 4637SOL    HW214811   1.171   0.536   0.156
 4638SOL     OW14812   4.152   2.717   0.046
 4638SOL    HW114813   4.100   2.789   0.091
 4638SOL    HW214814   4.135   2.720   6.967
 4639SOL     OW14815   1.980   4.389   5.011
 4639SOL    HW114816   1.894   4.396   4.960
 4639SOL    HW214817   2.052   4.437   4.961
 4640SOL     OW14818   4.872   5.139   4.027
 4640SOL    HW114819   4.801   5.074   3.999
 4640SOL    HW214820   4.853   5.171   4.120
 4641SOL     OW14821   2.833   6.414   4.416
 4641SOL    HW114822   2.782   6.495   4.442
 4641SOL    HW214823   2.771   6.348   4.373
 4642SOL     OW14824   0.832   6.375   4.841
 4642SOL    HW114825   0.922   6.331   4.848
 4642SOL    HW214826   0.761   6.305   4.848
 4643SOL     OW14827   5.156   2.865   1.215
 4643SOL    HW114828   5.075   2.823   1.175
 4643SOL    HW214829   5.131   2.911   1.300
 4644SOL     OW14830   1.205   4.985   5.053
 4644SOL    HW114831   1.105   4.993   5.057
 4644SOL    HW214832   1.247   5.073   5.074
 4645SOL     OW14833   1.007   0.781   4.500
 4645SOL    HW114834   0.908   0.769   4.494
 4645SOL    HW214835   1.051   0.692   4.505
 4646SOL     OW14836   2.718   6.274   3.372
 4646SOL    HW114837   2.753   6.184   3.348
 4646SOL    HW214838   2.683   6.273   3.465
 4647SOL     OW14839   1.522   0.099   3.595
 4647SOL    HW114840   1.500   0.095   3.692
 4647SOL    HW214841   1.539   0.194   3.568
 4648SOL     OW14842   3.954   0.525   1.768
 4648SOL    HW114843   3.947   0.458   1.842
 4648SOL    HW214844   3.944   0.617   1.805
 4649SOL     OW14845   4.951   6.965   5.736
 4649SOL    HW114846   4.903   6.936   5.653
 4649SOL    HW214847   5.040   6.921   5.741
 4650SOL     OW14848   4.608   5.719   3.926
 4650SOL    HW114849   4.651   5.791   3.980
 4650SOL    HW214850   4.607   5.634   3.979
 4651SOL     OW14851   0.088   1.400   0.955
 4651SOL    HW114852   7.016   1.387   0.914
 4651SOL    HW214853   0.109   1.497   0.961
 4652SOL     OW14854   0.374   0.201   4.308
 4652SOL    HW114855   0.396   0.103   4.302
 4652SOL    HW214856   0.444   0.254   4.261
 4653SOL     OW14857   6.192   5.151   6.702
 4653SOL    HW114858   6.251   5.070   6.700
 4653SOL    HW214859   6.110   5.130   6.756
 4654SOL     OW14860   0.470   6.522   0.310
 4654SOL    HW114861   0.556   6.475   0.328
 4654SOL    HW214862   0.488   6.614   0.276
 4655SOL     OW14863   6.606   5.723   1.748
 4655SOL    HW114864   6.547   5.662   1.800
 4655SOL    HW214865   6.564   5.813   1.740
 4656SOL     OW14866   0.927   0.502   3.549
 4656SOL    HW114867   0.870   0.528   3.471
 4656SOL    HW214868   0.928   0.577   3.615
 4657SOL     OW14869   4.731   6.454   1.499
 4657SOL    HW114870   4.703   6.401   1.419
 4657SOL    HW214871   4.654   6.462   1.562
 4658SOL     OW14872   4.098   1.603   2.235
 4658SOL    HW114873   4.170   1.613   2.167
 4658SOL    HW214874   4.138   1.583   2.324
 4659SOL     OW14875   2.679   4.343   5.694
 4659SOL    HW114876   2.685   4.359   5.595
 4659SOL    HW214877   2.624   4.415   5.736
 4660SOL     OW14878   1.458   3.218   5.648
 4660SOL    HW114879   1.462   3.118   5.648
 4660SOL    HW214880   1.386   3.249   5.586
 4661SOL     OW14881   3.838   3.882   5.340
 4661SOL    HW114882   3.821   3.959   5.278
 4661SOL    HW214883   3.784   3.803   5.310
 4662SOL     OW14884   4.345   0.593   5.052
 4662SOL    HW114885   4.391   0.655   4.988
 4662SOL    HW214886   4.352   0.629   5.145
 4663SOL     OW14887   0.733   1.917   2.471
 4663SOL    HW114888   0.684   1.890   2.388
 4663SOL    HW214889   0.831   1.898   2.460
 4664SOL     OW14890   2.374   2.125   0.603
 4664SOL    HW114891   2.425   2.211   0.614
 4664SOL    HW214892   2.312   2.132   0.525
 4665SOL     OW14893   4.269   0.328   0.618
 4665SOL    HW114894   4.325   0.329   0.700
 4665SOL    HW214895   4.289   0.245   0.565
 4666SOL     OW14896   1.556   2.063   0.783
 4666SOL    HW114897   1.467   2.024   0.758
 4666SOL    HW214898   1.584   2.130   0.715
 4667SOL     OW14899   6.231   4.564   1.334
 4667SOL    HW114900   6.288   4.625   1.389
 4667SOL    HW214901   6.142   4.607   1.318
 4668SOL     OW14902   5.912   2.891   2.871
 4668SOL    HW114903   5.846   2.950   2.825
 4668SOL    HW214904   5.882   2.873   2.964
 4669SOL     OW14905   3.265   6.829   0.135
 4669SOL    HW114906   3.220   6.753   0.183
 4669SOL    HW214907   3.341   6.794   0.081
 4670SOL     OW14908   2.956   2.254   5.352
 4670SOL    HW114909   3.015   2.294   5.281
 4670SOL    HW214910   2.866   2.298   5.348
 4671SOL     OW14911   6.792   2.619   2.277
 4671SOL    HW114912   6.731   2.697   2.269
 4671SOL    HW214913   6.770   2.568   2.361
 4672SOL     OW14914   2.512   4.581   6.303
 4672SOL    HW114915   2.543   4.669   6.340
 4672SOL    HW214916   2.412   4.582   6.296
 4673SOL     OW14917   4.935   6.036   1.075
 4673SOL    HW114918   4.849   6.064   1.032
 4673SOL    HW214919   4.992   6.117   1.092
 4674SOL     OW14920   4.883   0.137   6.889
 4674SOL    HW114921   4.905   0.049   6.845
 4674SOL    HW214922   4.953   0.204   6.866
 4675SOL     OW14923   0.538   2.747   6.775
 4675SOL    HW114924   0.556   2.842   6.752
 4675SOL    HW214925   0.507   2.741   6.870
 4676SOL     OW14926   6.861   5.741   3.460
 4676SOL    HW114927   6.821   5.661   3.416
 4676SOL    HW214928   6.792   5.786   3.516
 4677SOL     OW14929   2.769   1.627   0.674
 4677SOL    HW114930   2.811   1.704   0.627
 4677SOL    HW214931   2.738   1.559   0.608
 4678SOL     OW14932   2.117   4.433   3.163
 4678SOL    HW114933   2.034   4.381   3.182
 4678SOL    HW214934   2.128   4.443   3.064
 4679SOL     OW14935   4.318   6.808   1.535
 4679SOL    HW114936   4.239   6.862   1.565
 4679SOL    HW214937   4.401   6.845   1.576
 4680SOL     OW14938   3.568   1.228   6.288
 4680SOL    HW114939   3.533   1.140   6.321
 4680SOL    HW214940   3.639   1.211   6.219
 4681SOL     OW14941   5.568   4.718   0.096
 4681SOL    HW114942   5.647   4.736   0.155
 4681SOL    HW214943   5.521   4.804   0.076
 4682SOL     OW14944   4.713   4.792   5.914
 4682SOL    HW114945   4.615   4.780   5.931
 4682SOL    HW214946   4.726   4.870   5.852
 4683SOL     OW14947   5.417   5.723   2.915
 4683SOL    HW114948   5.484   5.762   2.852
 4683SOL    HW214949   5.346   5.675   2.863
 4684SOL     OW14950   4.659   0.299   5.635
 4684SOL    HW114951   4.669   0.224   5.569
 4684SOL    HW214952   4.668   0.387   5.587
 4685SOL     OW14953   1.904   4.540   6.679
 4685SOL    HW114954   1.825   4.527   6.618
 4685SOL    HW214955   1.988   4.530   6.627
 4686SOL     OW14956   4.174   5.854   6.756
 4686SOL    HW114957   4.130   5.925   6.701
 4686SOL    HW214958   4.150   5.764   6.721
 4687SOL     OW14959   4.807   2.930   4.108
 4687SOL    HW114960   4.821   2.958   4.013
 4687SOL    HW214961   4.797   2.831   4.113
 4688SOL     OW14962   5.803   3.161   5.112
 4688SOL    HW114963   5.770   3.155   5.206
 4688SOL    HW214964   5.762   3.241   5.067
 4689SOL     OW14965   5.145   0.701   0.250
 4689SOL    HW114966   5.158   0.643   0.331
 4689SOL    HW214967   5.178   0.793   0.270
 4690SOL     OW14968   1.417   0.466   0.938
 4690SOL    HW114969   1.326   0.481   0.977
 4690SOL    HW214970   1.422   0.511   0.849
 4691SOL     OW14971   2.866   3.583   0.918
 4691SOL    HW114972   2.887   3.524   0.996
 4691SOL    HW214973   2.847   3.527   0.838
 4692SOL     OW14974   5.536   5.205   3.078
 4692SOL    HW114975   5.598   5.275   3.044
 4692SOL    HW214976   5.449   5.210   3.029
 4693SOL     OW14977   0.978   1.204   3.158
 4693SOL    HW114978   1.028   1.120   3.143
 4693SOL    HW214979   0.934   1.201   3.248
 4694SOL     OW14980   2.470   1.180   0.162
 4694SOL    HW114981   2.482   1.086   0.195
 4694SOL    HW214982   2.534   1.240   0.210
 4695SOL     OW14983   1.467   4.770   0.907
 4695SOL    HW114984   1.494   4.774   1.003
 4695SOL    HW214985   1.387   4.828   0.893
 4696SOL     OW14986   6.883   5.039   6.721
 4696SOL    HW114987   6.894   5.089   6.635
 4696SOL    HW214988   6.973   5.015   6.757
 4697SOL     OW14989   1.123   3.801   1.291
 4697SOL    HW114990   1.094   3.796   1.195
 4697SOL    HW214991   1.096   3.717   1.338
 4698SOL     OW14992   4.571   5.905   3.162
 4698SOL    HW114993   4.564   5.988   3.106
 4698SOL    HW214994   4.524   5.830   3.115
 4699SOL     OW14995   0.524   6.396   2.180
 4699SOL    HW114996   0.585   6.448   2.241
 4699SOL    HW214997   0.575   6.368   2.098
 4700SOL     OW14998   6.690   1.901   2.630
 4700SOL    HW114999   6.615   1.875   2.569
 4700SOL    HW215000   6.676   1.993   2.665
 4701SOL     OW15001   2.924   2.206   0.199
 4701SOL    HW115002   2.944   2.109   0.211
 4701SOL    HW215003   2.895   2.223   0.105
 4702SOL     OW15004   4.919   4.894   0.513
 4702SOL    HW115005   4.847   4.926   0.451
 4702SOL    HW215006   4.881   4.823   0.573
 4703SOL     OW15007   0.587   0.111   2.573
 4703SOL    HW115008   0.515   0.171   2.608
 4703SOL    HW215009   0.558   0.015   2.582
 4704SOL     OW15010   6.587   5.964   6.357
 4704SOL    HW115011   6.491   5.985   6.341
 4704SOL    HW215012   6.595   5.879   6.410
 4705SOL     OW15013   4.178   2.420   1.261
 4705SOL    HW115014   4.159   2.423   1.163
 4705SOL    HW215015   4.152   2.331   1.297
 4706SOL     OW15016   2.526   0.626   0.399
 4706SOL    HW115017   2.562   0.552   0.456
 4706SOL    HW215018   2.432   0.604   0.371
 4707SOL     OW15019   0.927   7.016   1.013
 4707SOL    HW115020   0.937   6.948   1.086
 4707SOL    HW215021   0.912   0.087   1.053
 4708SOL     OW15022   1.238   2.137   5.745
 4708SOL    HW115023   1.335   2.114   5.753
 4708SOL    HW215024   1.194   2.126   5.835
 4709SOL     OW15025   4.872   5.484   5.566
 4709SOL    HW115026   4.835   5.533   5.487
 4709SOL    HW215027   4.827   5.515   5.649
 4710SOL     OW15028   5.072   0.222   5.800
 4710SOL    HW115029   5.014   0.144   5.774
 4710SOL    HW215030   5.164   0.208   5.763
 4711SOL     OW15031   6.224   1.816   1.623
 4711SOL    HW115032   6.164   1.736   1.622
 4711SOL    HW215033   6.208   1.868   1.707
 4712SOL     OW15034   3.152   4.766   6.086
 4712SOL    HW115035   3.075   4.717   6.127
 4712SOL    HW215036   3.237   4.738   6.131
 4713SOL     OW15037   3.652   4.346   0.726
 4713SOL    HW115038   3.700   4.427   0.761
 4713SOL    HW215039   3.654   4.347   0.626
 4714SOL     OW15040   1.242   1.381   6.392
 4714SOL    HW115041   1.150   1.418   6.402
 4714SOL    HW215042   1.265   1.375   6.294
 4715SOL     OW15043   5.898   3.529   1.601
 4715SOL    HW115044   5.960   3.459   1.567
 4715SOL    HW215045   5.948   3.592   1.660
 4716SOL     OW15046   3.862   6.513   5.295
 4716SOL    HW115047   3.958   6.512   5.323
 4716SOL    HW215048   3.819   6.426   5.319
 4717SOL     OW15049   0.852   6.000   4.022
 4717SOL    HW115050   0.838   6.096   4.045
 4717SOL    HW215051   0.944   5.972   4.049
 4718SOL     OW15052   5.981   1.801   1.277
 4718SOL    HW115053   5.931   1.752   1.207
 4718SOL    HW215054   6.028   1.880   1.236
 4719SOL     OW15055   4.927   3.237   1.973
 4719SOL    HW115056   4.872   3.158   1.998
 4719SOL    HW215057   4.868   3.309   1.938
 4720SOL     OW15058   2.158   5.312   5.691
 4720SOL    HW115059   2.103   5.314   5.608
 4720SOL    HW215060   2.246   5.358   5.674
 4721SOL     OW15061   0.200   1.813   2.048
 4721SOL    HW115062   0.125   1.808   1.982
 4721SOL    HW215063   0.251   1.898   2.033
 4722SOL     OW15064   0.904   5.681   6.928
 4722SOL    HW115065   0.892   5.725   6.839
 4722SOL    HW215066   0.858   5.736   6.998
 4723SOL     OW15067   2.270   3.405   5.229
 4723SOL    HW115068   2.350   3.370   5.278
 4723SOL    HW215069   2.249   3.497   5.261
 4724SOL     OW15070   6.607   0.187   4.589
 4724SOL    HW115071   6.523   0.178   4.642
 4724SOL    HW215072   6.608   0.118   4.517
 4725SOL     OW15073   6.245   5.194   0.551
 4725SOL    HW115074   6.281   5.272   0.501
 4725SOL    HW215075   6.162   5.161   0.506
 4726SOL     OW15076   1.589   3.444   6.331
 4726SOL    HW115077   1.546   3.499   6.403
 4726SOL    HW215078   1.688   3.461   6.330
 4727SOL     OW15079   0.608   6.346   1.318
 4727SOL    HW115080   0.624   6.442   1.343
 4727SOL    HW215081   0.599   6.291   1.401
 4728SOL     OW15082   5.742   1.486   2.136
 4728SOL    HW115083   5.650   1.525   2.143
 4728SOL    HW215084   5.799   1.520   2.211
 4729SOL     OW15085   4.602   1.058   0.662
 4729SOL    HW115086   4.632   1.137   0.609
 4729SOL    HW215087   4.647   0.975   0.627
 4730SOL     OW15088   3.132   6.141   4.766
 4730SOL    HW115089   3.090   6.189   4.689
 4730SOL    HW215090   3.178   6.208   4.825
 4731SOL     OW15091   3.126   0.818   0.721
 4731SOL    HW115092   3.087   0.764   0.647
 4731SOL    HW215093   3.211   0.776   0.752
 4732SOL     OW15094   0.612   3.526   5.231
 4732SOL    HW115095   0.653   3.545   5.320
 4732SOL    HW215096   0.639   3.596   5.166
 4733SOL     OW15097   1.506   3.347   3.876
 4733SOL    HW115098   1.411   3.335   3.845
 4733SOL    HW215099   1.546   3.426   3.830
 4734SOL     OW15100   4.379   3.344   0.305
 4734SOL    HW115101   4.385   3.402   0.224
 4734SOL    HW215102   4.465   3.295   0.319
 4735SOL     OW15103   6.799   5.557   3.947
 4735SOL    HW115104   6.868   5.486   3.932
 4735SOL    HW215105   6.719   5.517   3.991
 4736SOL     OW15106   6.133   1.509   5.993
 4736SOL    HW115107   6.095   1.538   6.081
 4736SOL    HW215108   6.065   1.524   5.921
 4737SOL     OW15109   3.177   4.097   1.393
 4737SOL    HW115110   3.138   4.169   1.451
 4737SOL    HW215111   3.161   4.120   1.296
 4738SOL     OW15112   1.971   6.678   3.081
 4738SOL    HW115113   1.991   6.740   3.005
 4738SOL    HW215114   1.882   6.634   3.065
 4739SOL     OW15115   5.185   1.721   3.033
 4739SOL    HW115116   5.271   1.697   3.079
 4739SOL    HW215117   5.201   1.726   2.935
 4740SOL     OW15118   0.637   1.323   0.973
 4740SOL    HW115119   0.677   1.371   1.051
 4740SOL    HW215120   0.563   1.378   0.934
 4741SOL     OW15121   4.771   3.369   1.288
 4741SOL    HW115122   4.795   3.286   1.238
 4741SOL    HW215123   4.692   3.352   1.346
 4742SOL     OW15124   2.923   0.054   0.351
 4742SOL    HW115125   2.905   0.121   0.279
 4742SOL    HW215126   2.842   0.047   0.410
 4743SOL     OW15127   1.594   3.163   5.221
 4743SOL    HW115128   1.577   3.150   5.124
 4743SOL    HW215129   1.665   3.231   5.234
 4744SOL     OW15130   2.909   3.521   6.087
 4744SOL    HW115131   2.878   3.532   6.182
 4744SOL    HW215132   2.842   3.562   6.025
 4745SOL     OW15133   3.093   5.839   5.210
 4745SOL    HW115134   3.064   5.758   5.262
 4745SOL    HW215135   3.105   5.916   5.273
 4746SOL     OW15136   5.500   6.492   2.283
 4746SOL    HW115137   5.567   6.473   2.211
 4746SOL    HW215138   5.492   6.591   2.296
 4747SOL     OW15139   1.556   4.023   6.699
 4747SOL    HW115140   1.494   4.088   6.744
 4747SOL    HW215141   1.626   4.074   6.650
 4748SOL     OW15142   0.952   5.202   0.833
 4748SOL    HW115143   1.049   5.207   0.807
 4748SOL    HW215144   0.934   5.268   0.906
 4749SOL     OW15145   2.996   6.739   5.406
 4749SOL    HW115146   2.919   6.801   5.416
 4749SOL    HW215147   2.984   6.660   5.467
 4750SOL     OW15148   0.190   3.393   3.511
 4750SOL    HW115149   0.261   3.427   3.572
 4750SOL    HW215150   0.136   3.323   3.559
 4751SOL     OW15151   2.782   2.725   1.048
 4751SOL    HW115152   2.710   2.795   1.050
 4751SOL    HW215153   2.837   2.730   1.131
 4752SOL     OW15154   2.808   0.172   6.898
 4752SOL    HW115155   2.876   0.235   6.861
 4752SOL    HW215156   2.716   0.208   6.883
 4753SOL     OW15157   5.672   0.660   4.522
 4753SOL    HW115158   5.685   0.726   4.447
 4753SOL    HW215159   5.741   0.588   4.516
 4754SOL     OW15160   6.402   0.538   4.920
 4754SOL    HW115161   6.334   0.547   4.993
 4754SOL    HW215162   6.463   0.462   4.942
 4755SOL     OW15163   2.617   0.447   0.585
 4755SOL    HW115164   2.709   0.415   0.562
 4755SOL    HW215165   2.595   0.421   0.679
 4756SOL     OW15166   5.341   3.419   1.334
 4756SOL    HW115167   5.248   3.382   1.327
 4756SOL    HW215168   5.390   3.401   1.248
 4757SOL     OW15169   1.624   2.287   1.261
 4757SOL    HW115170   1.691   2.252   1.326
 4757SOL    HW215171   1.629   2.235   1.176
 4758SOL     OW15172   1.992   6.171   4.061
 4758SOL    HW115173   1.898   6.195   4.040
 4758SOL    HW215174   2.022   6.097   4.000
 4759SOL     OW15175   5.092   5.505   4.552
 4759SOL    HW115176   5.064   5.573   4.484
 4759SOL    HW215177   5.037   5.516   4.634
 4760SOL     OW15178   3.692   1.682   0.422
 4760SOL    HW115179   3.767   1.687   0.355
 4760SOL    HW215180   3.684   1.589   0.456
 4761SOL     OW15181   0.691   6.493   6.596
 4761SOL    HW115182   0.598   6.527   6.586
 4761SOL    HW215183   0.692   6.413   6.656
 4762SOL     OW15184   2.010   5.818   2.887
 4762SOL    HW115185   2.109   5.828   2.884
 4762SOL    HW215186   1.968   5.904   2.916
 4763SOL     OW15187   6.387   6.628   3.498
 4763SOL    HW115188   6.437   6.582   3.571
 4763SOL    HW215189   6.368   6.563   3.425
 4764SOL     OW15190   5.103   4.189   5.334
 4764SOL    HW115191   5.009   4.207   5.305
 4764SOL    HW215192   5.135   4.104   5.293
 4765SOL     OW15193   5.772   1.253   4.588
 4765SOL    HW115194   5.852   1.251   4.528
 4765SOL    HW215195   5.706   1.319   4.552
 4766SOL     OW15196   4.454   6.578   4.154
 4766SOL    HW115197   4.535   6.637   4.157
 4766SOL    HW215198   4.482   6.482   4.166
 4767SOL     OW15199   3.531   5.096   5.760
 4767SOL    HW115200   3.565   5.021   5.703
 4767SOL    HW215201   3.589   5.104   5.841
 4768SOL     OW15202   4.448   1.894   5.524
 4768SOL    HW115203   4.349   1.895   5.529
 4768SOL    HW215204   4.483   1.812   5.569
 4769SOL     OW15205   5.118   4.650   0.271
 4769SOL    HW115206   5.169   4.668   0.187
 4769SOL    HW215207   5.140   4.720   0.339
 4770SOL     OW15208   1.563   0.823   4.581
 4770SOL    HW115209   1.584   0.786   4.672
 4770SOL    HW215210   1.470   0.860   4.580
 4771SOL     OW15211   2.862   5.099   5.466
 4771SOL    HW115212   2.907   5.027   5.414
 4771SOL    HW215213   2.931   5.154   5.513
 4772SOL     OW15214   3.140   4.740   1.255
 4772SOL    HW115215   3.226   4.761   1.209
 4772SOL    HW215216   3.132   4.642   1.269
 4773SOL     OW15217   6.913   5.726   4.675
 4773SOL    HW115218   6.939   5.664   4.601
 4773SOL    HW215219   6.858   5.801   4.637
 4774SOL     OW15220   1.301   2.588   1.791
 4774SOL    HW115221   1.347   2.644   1.860
 4774SOL    HW215222   1.225   2.539   1.833
 4775SOL     OW15223   5.325   6.885   2.541
 4775SOL    HW115224   5.366   6.831   2.467
 4775SOL    HW215225   5.240   6.841   2.571
 4776SOL     OW15226   1.238   6.274   5.248
 4776SOL    HW115227   1.166   6.277   5.318
 4776SOL    HW215228   1.222   6.195   5.188
 4777SOL     OW15229   3.177   4.469   1.251
 4777SOL    HW115230   3.209   4.452   1.158
 4777SOL    HW215231   3.114   4.396   1.278
 4778SOL     OW15232   6.512   2.594   3.015
 4778SOL    HW115233   6.490   2.542   3.097
 4778SOL    HW215234   6.490   2.540   2.934
 4779SOL     OW15235   6.242   6.267   2.425
 4779SOL    HW115236   6.180   6.284   2.348
 4779SOL    HW215237   6.192   6.279   2.511
 4780SOL     OW15238   6.698   0.695   0.594
 4780SOL    HW115239   6.722   0.643   0.512
 4780SOL    HW215240   6.674   0.632   0.667
 4781SOL     OW15241   2.512   5.886   2.189
 4781SOL    HW115242   2.558   5.963   2.146
 4781SOL    HW215243   2.499   5.904   2.286
 4782SOL     OW15244   3.859   6.352   0.002
 4782SOL    HW115245   3.930   6.421   0.011
 4782SOL    HW215246   3.888   6.283   6.955
 4783SOL     OW15247   4.900   4.643   6.898
 4783SOL    HW115248   4.898   4.596   6.987
 4783SOL    HW215249   4.891   4.742   6.912
 4784SOL     OW15250   5.936   4.167   6.662
 4784SOL    HW115251   6.001   4.129   6.728
 4784SOL    HW215252   5.843   4.161   6.698
 4785SOL     OW15253   6.025   5.570   1.856
 4785SOL    HW115254   6.044   5.477   1.885
 4785SOL    HW215255   5.972   5.568   1.771
 4786SOL     OW15256   2.546   1.863   1.095
 4786SOL    HW115257   2.624   1.838   1.038
 4786SOL    HW215258   2.522   1.786   1.154
 4787SOL     OW15259   4.095   1.680   3.092
 4787SOL    HW115260   4.175   1.697   3.149
 4787SOL    HW215261   4.015   1.667   3.149
 4788SOL     OW15262   1.065   5.056   5.579
 4788SOL    HW115263   1.081   5.152   5.601
 4788SOL    HW215264   1.072   5.001   5.662
 4789SOL     OW15265   4.710   0.774   0.760
 4789SOL    HW115266   4.743   0.858   0.802
 4789SOL    HW215267   4.771   0.698   0.783
 4790SOL     OW15268   6.960   2.864   5.584
 4790SOL    HW115269   6.998   2.771   5.575
 4790SOL    HW215270   6.939   2.900   5.493
 4791SOL     OW15271   5.836   2.255   1.166
 4791SOL    HW115272   5.795   2.344   1.146
 4791SOL    HW215273   5.838   2.200   1.082
 4792SOL     OW15274   2.117   3.513   2.953
 4792SOL    HW115275   2.129   3.592   3.012
 4792SOL    HW215276   2.099   3.544   2.859
 4793SOL     OW15277   2.006   2.906   6.076
 4793SOL    HW115278   1.981   2.872   6.166
 4793SOL    HW215279   1.946   2.865   6.007
 4794SOL     OW15280   4.590   0.324   3.055
 4794SOL    HW115281   4.613   0.370   3.141
 4794SOL    HW215282   4.526   0.249   3.074
 4795SOL     OW15283   6.565   1.927   4.196
 4795SOL    HW115284   6.632   2.002   4.201
 4795SOL    HW215285   6.479   1.962   4.158
 4796SOL     OW15286   5.142   1.809   5.620
 4796SOL    HW115287   5.156   1.861   5.705
 4796SOL    HW215288   5.044   1.801   5.601
 4797SOL     OW15289   2.000   6.185   5.708
 4797SOL    HW115290   2.014   6.277   5.672
 4797SOL    HW215291   2.054   6.173   5.791
 4798SOL     OW15292   6.817   3.324   4.995
 4798SOL    HW115293   6.859   3.407   4.958
 4798SOL    HW215294   6.800   3.259   4.920
 4799SOL     OW15295   4.863   2.665   6.893
 4799SOL    HW115296   4.853   2.633   6.799
 4799SOL    HW215297   4.942   2.620   6.934
 4800SOL     OW15298   3.139   3.389   6.053
 4800SOL    HW115299   3.159   3.444   5.973
 4800SOL    HW215300   3.045   3.406   6.083
 4801SOL     OW15301   2.905   2.149   1.025
 4801SOL    HW115302   2.821   2.175   1.073
 4801SOL    HW215303   2.899   2.053   0.997
 4802SOL     OW15304   0.662   6.311   1.957
 4802SOL    HW115305   0.754   6.281   1.985
 4802SOL    HW215306   0.670   6.390   1.897
 4803SOL     OW15307   1.451   5.606   0.938
 4803SOL    HW115308   1.517   5.543   0.896
 4803SOL    HW215309   1.391   5.643   0.867
 4804SOL     OW15310   5.245   5.649   6.830
 4804SOL    HW115311   5.308   5.580   6.866
 4804SOL    HW215312   5.289   5.696   6.753
 4805SOL     OW15313   5.950   0.632   1.772
 4805SOL    HW115314   5.981   0.548   1.816
 4805SOL    HW215315   5.874   0.612   1.711
 4806SOL     OW15316   1.091   4.704   3.428
 4806SOL    HW115317   1.086   4.635   3.500
 4806SOL    HW215318   1.017   4.771   3.440
 4807SOL     OW15319   0.909   4.786   0.328
 4807SOL    HW115320   0.853   4.850   0.380
 4807SOL    HW215321   0.859   4.700   0.316
 4808SOL     OW15322   6.174   3.560   6.402
 4808SOL    HW115323   6.162   3.490   6.331
 4808SOL    HW215324   6.176   3.516   6.492
 4809SOL     OW15325   3.531   4.147   0.079
 4809SOL    HW115326   3.578   4.059   0.071
 4809SOL    HW215327   3.590   4.213   0.126
 4810SOL     OW15328   0.704   5.063   2.555
 4810SOL    HW115329   0.660   5.111   2.630
 4810SOL    HW215330   0.739   4.975   2.588
 4811SOL     OW15331   2.229   4.670   1.897
 4811SOL    HW115332   2.247   4.648   1.801
 4811SOL    HW215333   2.216   4.585   1.949
 4812SOL     OW15334   6.547   4.907   4.147
 4812SOL    HW115335   6.566   5.000   4.179
 4812SOL    HW215336   6.508   4.853   4.221
 4813SOL     OW15337   5.138   1.519   0.914
 4813SOL    HW115338   5.049   1.477   0.932
 4813SOL    HW215339   5.211   1.454   0.933
 4814SOL     OW15340   6.086   3.870   0.351
 4814SOL    HW115341   6.142   3.868   0.434
 4814SOL    HW215342   6.131   3.927   0.282
 4815SOL     OW15343   5.691   4.597   3.152
 4815SOL    HW115344   5.721   4.554   3.237
 4815SOL    HW215345   5.714   4.694   3.154
 4816SOL     OW15346   1.314   5.351   1.397
 4816SOL    HW115347   1.315   5.334   1.299
 4816SOL    HW215348   1.237   5.302   1.438
 4817SOL     OW15349   0.405   2.282   6.876
 4817SOL    HW115350   0.390   2.338   6.795
 4817SOL    HW215351   0.401   2.185   6.850
 4818SOL     OW15352   1.275   0.605   5.428
 4818SOL    HW115353   1.372   0.612   5.450
 4818SOL    HW215354   1.221   0.634   5.507
 4819SOL     OW15355   0.848   2.204   0.357
 4819SOL    HW115356   0.753   2.220   0.332
 4819SOL    HW215357   0.908   2.223   0.279
 4820SOL     OW15358   6.121   2.868   1.160
 4820SOL    HW115359   6.192   2.809   1.200
 4820SOL    HW215360   6.151   2.900   1.070
 4821SOL     OW15361   1.081   6.046   2.525
 4821SOL    HW115362   0.983   6.029   2.523
 4821SOL    HW215363   1.118   6.018   2.614
 4822SOL     OW15364   2.161   2.500   4.500
 4822SOL    HW115365   2.257   2.521   4.480
 4822SOL    HW215366   2.155   2.410   4.543
 4823SOL     OW15367   2.030   1.185   4.212
 4823SOL    HW115368   2.000   1.269   4.167
 4823SOL    HW215369   1.950   1.129   4.234
 4824SOL     OW15370   4.949   2.806   5.143
 4824SOL    HW115371   5.004   2.820   5.061
 4824SOL    HW215372   4.996   2.845   5.222
 4825SOL     OW15373   1.598   2.970   4.643
 4825SOL    HW115374   1.620   2.928   4.730
 4825SOL    HW215375   1.564   2.900   4.580
 4826SOL     OW15376   5.668   0.833   0.086
 4826SOL    HW115377   5.621   0.828   0.174
 4826SOL    HW215378   5.676   0.742   0.046
 4827SOL     OW15379   6.179   1.556   0.710
 4827SOL    HW115380   6.225   1.476   0.673
 4827SOL    HW215381   6.244   1.610   0.764
 4828SOL     OW15382   4.679   1.621   0.930
 4828SOL    HW115383   4.584   1.650   0.929
 4828SOL    HW215384   4.699   1.577   1.018
 4829SOL     OW15385   4.014   0.356   5.242
 4829SOL    HW115386   3.949   0.403   5.301
 4829SOL    HW215387   4.071   0.295   5.297
 4830SOL     OW15388   4.003   6.183   4.924
 4830SOL    HW115389   3.992   6.149   5.018
 4830SOL    HW215390   4.088   6.235   4.917
 4831SOL     OW15391   0.652   4.659   5.681
 4831SOL    HW115392   0.709   4.599   5.736
 4831SOL    HW215393   0.710   4.715   5.621
 4832SOL     OW15394   3.494   4.149   3.560
 4832SOL    HW115395   3.492   4.238   3.605
 4832SOL    HW215396   3.588   4.124   3.536
 4833SOL     OW15397   6.300   1.255   2.858
 4833SOL    HW115398   6.276   1.248   2.761
 4833SOL    HW215399   6.379   1.197   2.877
 4834SOL     OW15400   2.570   6.055   1.828
 4834SOL    HW115401   2.603   5.979   1.771
 4834SOL    HW215402   2.584   6.141   1.779
 4835SOL     OW15403   5.348   2.137   6.106
 4835SOL    HW115404   5.251   2.130   6.131
 4835SOL    HW215405   5.403   2.144   6.189
 4836SOL     OW15406   5.073   2.063   4.904
 4836SOL    HW115407   5.081   2.114   4.989
 4836SOL    HW215408   5.034   2.121   4.833
 4837SOL     OW15409   7.001   3.726   2.682
 4837SOL    HW115410   6.906   3.732   2.653
 4837SOL    HW215411   0.007   3.630   2.698
 4838SOL     OW15412   2.419   5.688   0.045
 4838SOL    HW115413   2.432   5.645   6.975
 4838SOL    HW215414   2.321   5.695   0.065
 4839SOL     OW15415   0.923   3.947   0.642
 4839SOL    HW115416   0.874   3.933   0.556
 4839SOL    HW215417   0.904   3.871   0.704
 4840SOL     OW15418   6.425   4.583   6.224
 4840SOL    HW115419   6.413   4.592   6.125
 4840SOL    HW215420   6.439   4.673   6.265
 4841SOL     OW15421   2.673   5.316   3.274
 4841SOL    HW115422   2.665   5.412   3.301
 4841SOL    HW215423   2.607   5.296   3.201
 4842SOL     OW15424   3.351   4.988   3.052
 4842SOL    HW115425   3.296   5.071   3.044
 4842SOL    HW215426   3.364   4.947   2.962
 4843SOL     OW15427   6.185   2.810   0.860
 4843SOL    HW115428   6.109   2.823   0.796
 4843SOL    HW215429   6.206   2.712   0.867
 4844SOL     OW15430   0.082   3.357   6.047
 4844SOL    HW115431   0.150   3.421   6.012
 4844SOL    HW215432   0.063   3.288   5.977
 4845SOL     OW15433   5.004   5.167   6.500
 4845SOL    HW115434   5.083   5.130   6.451
 4845SOL    HW215435   4.966   5.243   6.447
 4846SOL     OW15436   0.375   2.720   3.907
 4846SOL    HW115437   0.302   2.707   3.840
 4846SOL    HW215438   0.336   2.747   3.994
 4847SOL     OW15439   2.379   0.877   6.311
 4847SOL    HW115440   2.336   0.893   6.222
 4847SOL    HW215441   2.312   0.838   6.374
 4848SOL     OW15442   2.324   0.743   4.890
 4848SOL    HW115443   2.379   0.676   4.841
 4848SOL    HW215444   2.367   0.833   4.883
 4849SOL     OW15445   1.687   5.761   0.673
 4849SOL    HW115446   1.745   5.801   0.743
 4849SOL    HW215447   1.694   5.661   0.677
 4850SOL     OW15448   4.195   1.080   1.551
 4850SOL    HW115449   4.146   1.147   1.607
 4850SOL    HW215450   4.199   1.113   1.457
 4851SOL     OW15451   3.223   6.045   5.486
 4851SOL    HW115452   3.287   5.977   5.449
 4851SOL    HW215453   3.158   6.000   5.547
 4852SOL     OW15454   1.914   5.697   4.705
 4852SOL    HW115455   1.880   5.766   4.642
 4852SOL    HW215456   1.877   5.607   4.680
 4853SOL     OW15457   3.861   1.035   3.702
 4853SOL    HW115458   3.841   1.126   3.738
 4853SOL    HW215459   3.959   1.027   3.682
 4854SOL     OW15460   4.398   6.742   1.886
 4854SOL    HW115461   4.456   6.807   1.837
 4854SOL    HW215462   4.454   6.692   1.953
 4855SOL     OW15463   5.909   2.425   5.294
 4855SOL    HW115464   5.934   2.332   5.269
 4855SOL    HW215465   5.857   2.425   5.380
 4856SOL     OW15466   1.735   3.483   2.939
 4856SOL    HW115467   1.732   3.417   2.864
 4856SOL    HW215468   1.803   3.454   3.007
 4857SOL     OW15469   3.005   2.178   3.414
 4857SOL    HW115470   2.930   2.209   3.356
 4857SOL    HW215471   2.983   2.196   3.510
 4858SOL     OW15472   6.984   6.294   4.968
 4858SOL    HW115473   6.985   6.366   5.037
 4858SOL    HW215474   6.999   6.206   5.012
 4859SOL     OW15475   0.218   4.856   2.490
 4859SOL    HW115476   0.230   4.954   2.474
 4859SOL    HW215477   0.308   4.812   2.489
 4860SOL     OW15478   4.451   3.821   0.126
 4860SOL    HW115479   4.457   3.790   0.031
 4860SOL    HW215480   4.456   3.920   0.130
 4861SOL     OW15481   6.069   5.285   6.486
 4861SOL    HW115482   5.987   5.309   6.538
 4861SOL    HW215483   6.134   5.238   6.545
 4862SOL     OW15484   2.189   4.509   4.864
 4862SOL    HW115485   2.234   4.585   4.909
 4862SOL    HW215486   2.247   4.473   4.791
 4863SOL     OW15487   5.337   3.216   2.324
 4863SOL    HW115488   5.337   3.116   2.324
 4863SOL    HW215489   5.282   3.249   2.248
 4864SOL     OW15490   2.834   1.225   1.940
 4864SOL    HW115491   2.900   1.286   1.984
 4864SOL    HW215492   2.749   1.225   1.992
 4865SOL     OW15493   1.876   5.897   4.477
 4865SOL    HW115494   1.882   5.983   4.526
 4865SOL    HW215495   1.953   5.890   4.413
 4866SOL     OW15496   5.793   4.880   1.420
 4866SOL    HW115497   5.790   4.944   1.343
 4866SOL    HW215498   5.880   4.889   1.468
 4867SOL     OW15499   5.239   5.712   3.237
 4867SOL    HW115500   5.331   5.745   3.216
 4867SOL    HW215501   5.243   5.614   3.259
 4868SOL     OW15502   6.940   5.412   1.636
 4868SOL    HW115503   6.860   5.357   1.660
 4868SOL    HW215504   7.017   5.388   1.695
 4869SOL     OW15505   6.913   2.374   1.628
 4869SOL    HW115506   6.833   2.371   1.567
 4869SOL    HW215507   6.888   2.339   1.718
 4870SOL     OW15508   5.631   5.530   1.809
 4870SOL    HW115509   5.631   5.432   1.792
 4870SOL    HW215510   5.677   5.550   1.895
 4871SOL     OW15511   0.318   1.360   5.209
 4871SOL    HW115512   0.335   1.458   5.200
 4871SOL    HW215513   0.251   1.344   5.281
 4872SOL     OW15514   0.377   6.224   4.084
 4872SOL    HW115515   0.387   6.129   4.058
 4872SOL    HW215516   0.454   6.251   4.142
 4873SOL     OW15517   6.649   5.054   3.870
 4873SOL    HW115518   6.650   4.987   3.944
 4873SOL    HW215519   6.742   5.068   3.836
 4874SOL     OW15520   6.292   4.201   2.864
 4874SOL    HW115521   6.295   4.187   2.765
 4874SOL    HW215522   6.237   4.281   2.884
 4875SOL     OW15523   4.854   2.277   0.830
 4875SOL    HW115524   4.843   2.188   0.784
 4875SOL    HW215525   4.763   2.315   0.849
 4876SOL     OW15526   6.220   0.961   4.930
 4876SOL    HW115527   6.267   0.906   4.860
 4876SOL    HW215528   6.275   1.042   4.951
 4877SOL     OW15529   6.332   1.767   0.555
 4877SOL    HW115530   6.364   1.698   0.620
 4877SOL    HW215531   6.272   1.723   0.488
 4878SOL     OW15532   6.564   1.634   2.228
 4878SOL    HW115533   6.602   1.669   2.142
 4878SOL    HW215534   6.608   1.547   2.251
 4879SOL     OW15535   4.341   5.120   3.597
 4879SOL    HW115536   4.299   5.038   3.635
 4879SOL    HW215537   4.342   5.114   3.497
 4880SOL     OW15538   6.244   3.395   6.621
 4880SOL    HW115539   6.342   3.390   6.602
 4880SOL    HW215540   6.229   3.436   6.711
 4881SOL     OW15541   2.453   6.526   6.591
 4881SOL    HW115542   2.418   6.501   6.501
 4881SOL    HW215543   2.380   6.519   6.659
 4882SOL     OW15544   5.869   1.393   4.041
 4882SOL    HW115545   5.817   1.309   4.053
 4882SOL    HW215546   5.869   1.445   4.126
 4883SOL     OW15547   5.059   4.882   2.228
 4883SOL    HW115548   5.082   4.792   2.267
 4883SOL    HW215549   5.081   4.883   2.131
 4884SOL     OW15550   4.593   0.175   0.790
 4884SOL    HW115551   4.599   0.081   0.757
 4884SOL    HW215552   4.627   0.180   0.884
 4885SOL     OW15553   2.840   6.447   2.121
 4885SOL    HW115554   2.747   6.414   2.136
 4885SOL    HW215555   2.903   6.369   2.121
 4886SOL     OW15556   6.898   5.639   5.909
 4886SOL    HW115557   6.863   5.621   6.000
 4886SOL    HW215558   6.982   5.692   5.916
 4887SOL     OW15559   0.103   1.104   2.797
 4887SOL    HW115560   0.083   1.035   2.867
 4887SOL    HW215561   0.092   1.062   2.707
 4888SOL     OW15562   1.920   6.487   4.085
 4888SOL    HW115563   2.010   6.446   4.071
 4888SOL    HW215564   1.892   6.534   4.002
 4889SOL     OW15565   6.615   1.356   6.597
 4889SOL    HW115566   6.678   1.433   6.611
 4889SOL    HW215567   6.559   1.372   6.516
 4890SOL     OW15568   0.612   2.165   5.508
 4890SOL    HW115569   0.633   2.210   5.421
 4890SOL    HW215570   0.589   2.069   5.490
 4891SOL     OW15571   1.329   5.778   0.784
 4891SOL    HW115572   1.255   5.836   0.749
 4891SOL    HW215573   1.401   5.836   0.822
 4892SOL     OW15574   2.466   5.940   2.464
 4892SOL    HW115575   2.402   5.895   2.527
 4892SOL    HW215576   2.548   5.969   2.514
 4893SOL     OW15577   6.391   4.403   0.253
 4893SOL    HW115578   6.462   4.469   0.229
 4893SOL    HW215579   6.378   4.340   0.177
 4894SOL     OW15580   2.500   1.375   1.634
 4894SOL    HW115581   2.594   1.361   1.667
 4894SOL    HW215582   2.483   1.312   1.558
 4895SOL     OW15583   0.486   4.842   1.958
 4895SOL    HW115584   0.438   4.878   1.878
 4895SOL    HW215585   0.473   4.904   2.036
 4896SOL     OW15586   2.444   5.210   2.674
 4896SOL    HW115587   2.375   5.189   2.604
 4896SOL    HW215588   2.535   5.208   2.632
 4897SOL     OW15589   2.544   5.584   6.212
 4897SOL    HW115590   2.577   5.652   6.146
 4897SOL    HW215591   2.571   5.493   6.181
 4898SOL     OW15592   5.915   1.748   5.229
 4898SOL    HW115593   5.841   1.809   5.200
 4898SOL    HW215594   5.910   1.663   5.175
 4899SOL     OW15595   6.359   4.692   3.202
 4899SOL    HW115596   6.329   4.599   3.181
 4899SOL    HW215597   6.459   4.695   3.205
 4900SOL     OW15598   2.093   5.957   5.509
 4900SOL    HW115599   2.086   6.053   5.483
 4900SOL    HW215600   2.188   5.926   5.498
 4901SOL     OW15601   2.886   0.101   5.173
 4901SOL    HW115602   2.875   0.159   5.092
 4901SOL    HW215603   2.981   0.102   5.201
 4902SOL     OW15604   2.678   2.109   4.776
 4902SOL    HW115605   2.739   2.185   4.753
 4902SOL    HW215606   2.718   2.055   4.850
 4903SOL     OW15607   3.309   6.672   6.476
 4903SOL    HW115608   3.330   6.769   6.479
 4903SOL    HW215609   3.319   6.632   6.567
 4904SOL     OW15610   1.257   0.352   3.724
 4904SOL    HW115611   1.196   0.273   3.709
 4904SOL    HW215612   1.344   0.336   3.677
 4905SOL     OW15613   4.743   2.057   2.288
 4905SOL    HW115614   4.761   2.061   2.190
 4905SOL    HW215615   4.645   2.063   2.304
 4906SOL     OW15616   3.211   0.978   6.430
 4906SOL    HW115617   3.237   0.957   6.336
 4906SOL    HW215618   3.197   1.077   6.440
 4907SOL     OW15619   4.797   6.505   1.831
 4907SOL    HW115620   4.703   6.501   1.798
 4907SOL    HW215621   4.835   6.596   1.812
 4908SOL     OW15622   4.647   5.094   7.003
 4908SOL    HW115623   4.591   5.075   6.922
 4908SOL    HW215624   4.589   5.133   0.056
 4909SOL     OW15625   6.180   0.445   5.889
 4909SOL    HW115626   6.198   0.538   5.858
 4909SOL    HW215627   6.134   0.447   5.978
 4910SOL     OW15628   5.637   6.586   4.418
 4910SOL    HW115629   5.582   6.604   4.337
 4910SOL    HW215630   5.577   6.579   4.498
 4911SOL     OW15631   6.714   2.705   5.951
 4911SOL    HW115632   6.749   2.796   5.926
 4911SOL    HW215633   6.780   2.659   6.010
 4912SOL     OW15634   5.467   2.196   1.318
 4912SOL    HW115635   5.420   2.208   1.406
 4912SOL    HW215636   5.459   2.279   1.264
 4913SOL     OW15637   3.807   3.235   3.630
 4913SOL    HW115638   3.751   3.190   3.560
 4913SOL    HW215639   3.831   3.327   3.599
 4914SOL     OW15640   3.651   0.367   4.581
 4914SOL    HW115641   3.598   0.319   4.510
 4914SOL    HW215642   3.712   0.432   4.537
 4915SOL     OW15643   4.945   0.556   4.708
 4915SOL    HW115644   4.992   0.493   4.770
 4915SOL    HW215645   4.952   0.649   4.743
 4916SOL     OW15646   2.029   1.234   3.284
 4916SOL    HW115647   2.041   1.135   3.279
 4916SOL    HW215648   2.115   1.280   3.264
 4917SOL     OW15649   1.614   4.429   0.818
 4917SOL    HW115650   1.555   4.505   0.792
 4917SOL    HW215651   1.708   4.461   0.829
 4918SOL     OW15652   2.957   6.969   2.762
 4918SOL    HW115653   3.018   6.976   2.841
 4918SOL    HW215654   3.008   6.994   2.679
 4919SOL     OW15655   2.153   1.871   1.307
 4919SOL    HW115656   2.166   1.773   1.296
 4919SOL    HW215657   2.135   1.891   1.404
 4920SOL     OW15658   4.347   0.197   6.260
 4920SOL    HW115659   4.407   0.139   6.204
 4920SOL    HW215660   4.348   0.164   6.355
 4921SOL     OW15661   1.673   4.218   1.246
 4921SOL    HW115662   1.692   4.296   1.305
 4921SOL    HW215663   1.729   4.223   1.164
 4922SOL     OW15664   1.603   3.432   4.940
 4922SOL    HW115665   1.534   3.475   5.000
 4922SOL    HW215666   1.693   3.465   4.966
 4923SOL     OW15667   4.174   1.256   1.333
 4923SOL    HW115668   4.098   1.280   1.392
 4923SOL    HW215669   4.140   1.205   1.254
 4924SOL     OW15670   2.259   2.734   6.033
 4924SOL    HW115671   2.173   2.780   6.055
 4924SOL    HW215672   2.335   2.791   6.063
 4925SOL     OW15673   6.526   6.554   0.751
 4925SOL    HW115674   6.448   6.600   0.794
 4925SOL    HW215675   6.601   6.547   0.817
 4926SOL     OW15676   4.691   2.520   1.354
 4926SOL    HW115677   4.653   2.488   1.441
 4926SOL    HW215678   4.782   2.481   1.341
 4927SOL     OW15679   4.045   3.880   4.089
 4927SOL    HW115680   4.091   3.792   4.097
 4927SOL    HW215681   4.079   3.942   4.160
 4928SOL     OW15682   0.095   0.060   6.755
 4928SOL    HW115683   0.060   6.988   6.777
 4928SOL    HW215684   0.195   0.058   6.752
 4929SOL     OW15685   1.334   4.085   5.095
 4929SOL    HW115686   1.294   4.093   5.186
 4929SOL    HW215687   1.421   4.134   5.092
 4930SOL     OW15688   6.534   0.480   1.678
 4930SOL    HW115689   6.563   0.563   1.630
 4930SOL    HW215690   6.585   0.472   1.763
 4931SOL     OW15691   0.424   6.743   0.682
 4931SOL    HW115692   0.428   6.766   0.585
 4931SOL    HW215693   0.336   6.702   0.703
 4932SOL     OW15694   2.142   3.444   1.687
 4932SOL    HW115695   2.197   3.459   1.769
 4932SOL    HW215696   2.134   3.346   1.669
 4933SOL     OW15697   2.829   6.838   4.573
 4933SOL    HW115698   2.876   6.917   4.615
 4933SOL    HW215699   2.883   6.804   4.496
 4934SOL     OW15700   1.756   4.928   2.977
 4934SOL    HW115701   1.678   4.866   2.989
 4934SOL    HW215702   1.747   5.004   3.042
 4935SOL     OW15703   0.819   1.625   6.851
 4935SOL    HW115704   0.777   1.654   6.765
 4935SOL    HW215705   0.918   1.630   6.844
 4936SOL     OW15706   2.002   4.983   2.217
 4936SOL    HW115707   2.053   5.067   2.200
 4936SOL    HW215708   1.940   4.965   2.141
 4937SOL     OW15709   0.212   3.340   6.296
 4937SOL    HW115710   0.308   3.340   6.269
 4937SOL    HW215711   0.156   3.372   6.219
 4938SOL     OW15712   3.106   5.239   1.445
 4938SOL    HW115713   3.176   5.187   1.494
 4938SOL    HW215714   3.048   5.177   1.393
 4939SOL     OW15715   1.131   1.911   3.622
 4939SOL    HW115716   1.055   1.968   3.590
 4939SOL    HW215717   1.144   1.834   3.560
 4940SOL     OW15718   0.585   1.780   5.765
 4940SOL    HW115719   0.558   1.843   5.692
 4940SOL    HW215720   0.566   1.686   5.737
 4941SOL     OW15721   4.028   2.769   5.315
 4941SOL    HW115722   3.934   2.768   5.284
 4941SOL    HW215723   4.079   2.695   5.271
 4942SOL     OW15724   5.406   3.133   4.762
 4942SOL    HW115725   5.448   3.079   4.836
 4942SOL    HW215726   5.316   3.164   4.791
 4943SOL     OW15727   4.988   3.906   5.941
 4943SOL    HW115728   5.021   3.885   5.848
 4943SOL    HW215729   4.931   3.988   5.938
 4944SOL     OW15730   2.359   4.354   1.728
 4944SOL    HW115731   2.286   4.333   1.794
 4944SOL    HW215732   2.421   4.276   1.721
 4945SOL     OW15733   1.216   6.993   5.215
 4945SOL    HW115734   1.154   0.030   5.161
 4945SOL    HW215735   1.307   0.015   5.215
 4946SOL     OW15736   0.785   5.436   6.962
 4946SOL    HW115737   0.808   5.533   6.965
 4946SOL    HW215738   0.838   5.391   6.890
 4947SOL     OW15739   2.354   0.741   0.946
 4947SOL    HW115740   2.400   0.732   0.858
 4947SOL    HW215741   2.374   0.831   0.985
 4948SOL     OW15742   2.322   2.812   2.787
 4948SOL    HW115743   2.353   2.777   2.875
 4948SOL    HW215744   2.352   2.751   2.714
 4949SOL     OW15745   6.889   4.066   4.870
 4949SOL    HW115746   6.961   4.134   4.877
 4949SOL    HW215747   6.856   4.043   4.962
 4950SOL     OW15748   2.102   4.290   5.569
 4950SOL    HW115749   2.127   4.239   5.651
 4950SOL    HW215750   2.099   4.227   5.491
 4951SOL     OW15751   6.359   0.261   4.709
 4951SOL    HW115752   6.298   0.268   4.629
 4951SOL    HW215753   6.322   0.195   4.773
 4952SOL     OW15754   0.452   6.708   6.111
 4952SOL    HW115755   0.500   6.792   6.136
 4952SOL    HW215756   0.364   6.732   6.068
 4953SOL     OW15757   1.542   6.746   2.947
 4953SOL    HW115758   1.545   6.814   2.873
 4953SOL    HW215759   1.501   6.788   3.029
 4954SOL     OW15760   3.201   3.386   0.156
 4954SOL    HW115761   3.214   3.457   0.225
 4954SOL    HW215762   3.266   3.400   0.081
 4955SOL     OW15763   2.750   6.545   6.936
 4955SOL    HW115764   2.733   6.507   6.845
 4955SOL    HW215765   2.842   6.584   6.940
 4956SOL     OW15766   3.177   0.374   5.018
 4956SOL    HW115767   3.210   0.347   4.928
 4956SOL    HW215768   3.085   0.337   5.031
 4957SOL     OW15769   5.210   2.761   0.866
 4957SOL    HW115770   5.176   2.839   0.919
 4957SOL    HW215771   5.165   2.760   0.776
 4958SOL     OW15772   1.300   5.453   6.229
 4958SOL    HW115773   1.289   5.398   6.147
 4958SOL    HW215774   1.388   5.500   6.226
 4959SOL     OW15775   5.808   1.431   0.828
 4959SOL    HW115776   5.716   1.394   0.818
 4959SOL    HW215777   5.868   1.393   0.758
 4960SOL     OW15778   4.364   4.861   4.459
 4960SOL    HW115779   4.384   4.766   4.436
 4960SOL    HW215780   4.278   4.866   4.509
 4961SOL     OW15781   3.244   0.451   6.195
 4961SOL    HW115782   3.182   0.507   6.141
 4961SOL    HW215783   3.191   0.386   6.249
 4962SOL     OW15784   5.835   2.838   0.295
 4962SOL    HW115785   5.911   2.832   0.231
 4962SOL    HW215786   5.820   2.749   0.338
 4963SOL     OW15787   0.601   5.801   0.699
 4963SOL    HW115788   0.595   5.709   0.660
 4963SOL    HW215789   0.643   5.796   0.789
 4964SOL     OW15790   1.998   0.109   4.597
 4964SOL    HW115791   2.033   0.039   4.535
 4964SOL    HW215792   1.909   0.080   4.634
 4965SOL     OW15793   0.537   6.680   2.102
 4965SOL    HW115794   0.455   6.731   2.128
 4965SOL    HW215795   0.524   6.583   2.120
 4966SOL     OW15796   3.194   0.074   4.956
 4966SOL    HW115797   3.211   0.096   5.052
 4966SOL    HW215798   3.281   0.079   4.906
 4967SOL     OW15799   3.406   4.850   5.931
 4967SOL    HW115800   3.318   4.860   5.976
 4967SOL    HW215801   3.397   4.787   5.853
 4968SOL     OW15802   0.218   1.290   3.077
 4968SOL    HW115803   0.272   1.207   3.068
 4968SOL    HW215804   0.124   1.272   3.048
 4969SOL     OW15805   2.118   6.196   2.856
 4969SOL    HW115806   2.203   6.238   2.825
 4969SOL    HW215807   2.084   6.244   2.936
 4970SOL     OW15808   2.193   1.599   1.365
 4970SOL    HW115809   2.212   1.564   1.273
 4970SOL    HW215810   2.216   1.529   1.433
 4971SOL     OW15811   6.343   5.734   2.885
 4971SOL    HW115812   6.297   5.822   2.879
 4971SOL    HW215813   6.436   5.747   2.921
 4972SOL     OW15814   0.558   3.774   1.112
 4972SOL    HW115815   0.614   3.817   1.041
 4972SOL    HW215816   0.472   3.826   1.122
 4973SOL     OW15817   1.115   6.854   1.582
 4973SOL    HW115818   1.046   6.878   1.514
 4973SOL    HW215819   1.193   6.809   1.537
 4974SOL     OW15820   6.195   4.939   0.785
 4974SOL    HW115821   6.211   5.036   0.804
 4974SOL    HW215822   6.115   4.908   0.836
 4975SOL     OW15823   6.054   3.975   6.251
 4975SOL    HW115824   5.982   3.919   6.210
 4975SOL    HW215825   6.140   3.924   6.251
 4976SOL     OW15826   2.193   1.921   4.439
 4976SOL    HW115827   2.173   1.848   4.375
 4976SOL    HW215828   2.283   1.906   4.480
 4977SOL     OW15829   4.700   5.067   0.413
 4977SOL    HW115830   4.623   5.101   0.360
 4977SOL    HW215831   4.667   5.006   0.484
 4978SOL     OW15832   5.865   4.553   4.900
 4978SOL    HW115833   5.781   4.525   4.946
 4978SOL    HW215834   5.899   4.638   4.941
 4979SOL     OW15835   6.616   6.713   6.028
 4979SOL    HW115836   6.653   6.804   6.012
 4979SOL    HW215837   6.670   6.667   6.098
 4980SOL     OW15838   5.199   5.454   3.670
 4980SOL    HW115839   5.148   5.442   3.585
 4980SOL    HW215840   5.176   5.381   3.734
 4981SOL     OW15841   4.079   5.162   1.389
 4981SOL    HW115842   4.116   5.162   1.296
 4981SOL    HW215843   4.061   5.257   1.417
 4982SOL     OW15844   3.309   2.003   6.003
 4982SOL    HW115845   3.252   2.074   5.962
 4982SOL    HW215846   3.339   2.032   6.094
 4983SOL     OW15847   5.762   3.776   5.735
 4983SOL    HW115848   5.835   3.712   5.759
 4983SOL    HW215849   5.719   3.747   5.650
 4984SOL     OW15850   5.200   3.720   3.075
 4984SOL    HW115851   5.288   3.675   3.089
 4984SOL    HW215852   5.158   3.684   2.992
 4985SOL     OW15853   6.181   6.969   3.306
 4985SOL    HW115854   6.118   6.912   3.254
 4985SOL    HW215855   6.190   6.934   3.399
 4986SOL     OW15856   6.654   4.872   0.588
 4986SOL    HW115857   6.722   4.837   0.653
 4986SOL    HW215858   6.597   4.940   0.634
 4987SOL     OW15859   0.552   6.602   2.448
 4987SOL    HW115860   0.521   6.697   2.439
 4987SOL    HW215861   0.643   6.600   2.489
 4988SOL     OW15862   5.129   0.995   2.512
 4988SOL    HW115863   5.214   1.015   2.464
 4988SOL    HW215864   5.129   0.900   2.543
 4989SOL     OW15865   5.385   6.613   0.778
 4989SOL    HW115866   5.409   6.610   0.681
 4989SOL    HW215867   5.467   6.597   0.833
 4990SOL     OW15868   2.833   1.951   6.149
 4990SOL    HW115869   2.788   1.926   6.235
 4990SOL    HW215870   2.929   1.926   6.153
 4991SOL     OW15871   6.156   5.554   4.111
 4991SOL    HW115872   6.090   5.585   4.179
 4991SOL    HW215873   6.141   5.457   4.091
 4992SOL     OW15874   4.979   0.333   2.178
 4992SOL    HW115875   4.921   0.319   2.258
 4992SOL    HW215876   4.986   0.431   2.159
 4993SOL     OW15877   3.528   6.427   5.486
 4993SOL    HW115878   3.621   6.400   5.513
 4993SOL    HW215879   3.533   6.487   5.406
 4994SOL     OW15880   1.514   0.011   4.310
 4994SOL    HW115881   1.454   7.002   4.386
 4994SOL    HW215882   1.592   6.967   4.305
 4995SOL     OW15883   1.206   2.218   4.974
 4995SOL    HW115884   1.175   2.207   5.069
 4995SOL    HW215885   1.131   2.253   4.918
 4996SOL     OW15886   0.009   1.374   3.369
 4996SOL    HW115887   0.089   1.421   3.332
 4996SOL    HW215888   6.968   1.441   3.414
 4997SOL     OW15889   4.602   2.494   2.230
 4997SOL    HW115890   4.574   2.462   2.139
 4997SOL    HW215891   4.691   2.454   2.253
 4998SOL     OW15892   2.115   3.419   4.704
 4998SOL    HW115893   2.120   3.323   4.674
 4998SOL    HW215894   2.111   3.423   4.804
 4999SOL     OW15895   6.534   3.516   5.075
 4999SOL    HW115896   6.633   3.499   5.068
 4999SOL    HW215897   6.518   3.615   5.070
 5000SOL     OW15898   3.312   0.492   3.156
 5000SOL    HW115899   3.293   0.590   3.143
 5000SOL    HW215900   3.377   0.462   3.086
 5001SOL     OW15901   1.574   5.207   1.886
 5001SOL    HW115902   1.674   5.216   1.889
 5001SOL    HW215903   1.535   5.284   1.837
 5002SOL     OW15904   0.878   3.522   2.259
 5002SOL    HW115905   0.873   3.611   2.305
 5002SOL    HW215906   0.790   3.476   2.265
 5003SOL     OW15907   3.744   5.873   3.027
 5003SOL    HW115908   3.667   5.873   2.964
 5003SOL    HW215909   3.746   5.787   3.078
 5004SOL     OW15910   2.257   4.820   4.952
 5004SOL    HW115911   2.329   4.801   5.019
 5004SOL    HW215912   2.234   4.917   4.956
 5005SOL     OW15913   3.365   2.824   0.329
 5005SOL    HW115914   3.328   2.867   0.247
 5005SOL    HW215915   3.429   2.752   0.303
 5006SOL     OW15916   5.146   0.909   1.845
 5006SOL    HW115917   5.052   0.942   1.841
 5006SOL    HW215918   5.165   0.870   1.935
 5007SOL     OW15919   0.265   6.452   1.183
 5007SOL    HW115920   0.245   6.512   1.106
 5007SOL    HW215921   0.345   6.396   1.162
 5008SOL     OW15922   5.474   6.357   1.861
 5008SOL    HW115923   5.465   6.406   1.774
 5008SOL    HW215924   5.507   6.264   1.843
 5009SOL     OW15925   0.025   2.030   0.757
 5009SOL    HW115926   0.050   1.961   0.689
 5009SOL    HW215927   6.950   2.013   0.789
 5010SOL     OW15928   4.148   3.188   1.566
 5010SOL    HW115929   4.103   3.251   1.628
 5010SOL    HW215930   4.201   3.121   1.619
 5011SOL     OW15931   1.623   4.835   2.292
 5011SOL    HW115932   1.617   4.737   2.314
 5011SOL    HW215933   1.538   4.880   2.318
 5012SOL     OW15934   5.342   3.281   5.261
 5012SOL    HW115935   5.245   3.256   5.258
 5012SOL    HW215936   5.391   3.216   5.318
 5013SOL     OW15937   5.167   1.627   6.753
 5013SOL    HW115938   5.263   1.601   6.743
 5013SOL    HW215939   5.142   1.629   6.850
 5014SOL     OW15940   5.644   4.694   1.049
 5014SOL    HW115941   5.740   4.668   1.038
 5014SOL    HW215942   5.635   4.793   1.038
 5015SOL     OW15943   5.149   1.674   4.974
 5015SOL    HW115944   5.228   1.637   4.924
 5015SOL    HW215945   5.101   1.740   4.916
 5016SOL     OW15946   2.326   2.958   5.830
 5016SOL    HW115947   2.421   2.986   5.819
 5016SOL    HW215948   2.323   2.868   5.874
 5017SOL     OW15949   2.460   2.333   1.379
 5017SOL    HW115950   2.428   2.406   1.319
 5017SOL    HW215951   2.476   2.250   1.326
 5018SOL     OW15952   1.353   4.587   3.068
 5018SOL    HW115953   1.337   4.591   2.969
 5018SOL    HW215954   1.281   4.639   3.115
 5019SOL     OW15955   1.108   5.360   5.673
 5019SOL    HW115956   1.202   5.386   5.649
 5019SOL    HW215957   1.046   5.435   5.650
 5020SOL     OW15958   5.177   0.021   6.589
 5020SOL    HW115959   5.223   0.089   6.532
 5020SOL    HW215960   5.197   0.040   6.685
 5021SOL     OW15961   0.585   1.641   0.001
 5021SOL    HW115962   0.603   1.729   0.045
 5021SOL    HW215963   0.647   1.630   6.942
 5022SOL     OW15964   1.844   1.562   1.339
 5022SOL    HW115965   1.931   1.517   1.317
 5022SOL    HW215966   1.815   1.618   1.262
 5023SOL     OW15967   0.032   3.233   1.632
 5023SOL    HW115968   0.071   3.191   1.550
 5023SOL    HW215969   7.015   3.323   1.609
 5024SOL     OW15970   6.065   5.237   1.654
 5024SOL    HW115971   6.078   5.221   1.557
 5024SOL    HW215972   6.002   5.168   1.691
 5025SOL     OW15973   4.264   1.654   3.292
 5025SOL    HW115974   4.273   1.726   3.361
 5025SOL    HW215975   4.345   1.654   3.233
 5026SOL     OW15976   6.332   6.048   5.179
 5026SOL    HW115977   6.260   6.048   5.109
 5026SOL    HW215978   6.292   6.062   5.269
 5027SOL     OW15979   6.844   6.352   1.710
 5027SOL    HW115980   6.817   6.331   1.615
 5027SOL    HW215981   6.932   6.400   1.709
 5028SOL     OW15982   0.329   2.516   2.454
 5028SOL    HW115983   0.329   2.426   2.497
 5028SOL    HW215984   0.399   2.573   2.496
 5029SOL     OW15985   6.428   2.293   2.319
 5029SOL    HW115986   6.499   2.320   2.253
 5029SOL    HW215987   6.392   2.203   2.295
 5030SOL     OW15988   0.085   6.199   6.515
 5030SOL    HW115989   0.115   6.282   6.467
 5030SOL    HW215990   7.006   6.186   6.500
 5031SOL     OW15991   6.211   0.889   6.106
 5031SOL    HW115992   6.151   0.942   6.165
 5031SOL    HW215993   6.301   0.879   6.150
 5032SOL     OW15994   1.942   2.507   6.592
 5032SOL    HW115995   2.017   2.444   6.570
 5032SOL    HW215996   1.980   2.592   6.629
 5033SOL     OW15997   2.334   6.784   5.515
 5033SOL    HW115998   2.380   6.740   5.592
 5033SOL    HW215999   2.384   6.765   5.431
 5034SOL     OW16000   5.852   0.119   3.498
 5034SOL    HW116001   5.814   0.035   3.460
 5034SOL    HW216002   5.938   0.141   3.451
 5035SOL     OW16003   0.470   4.013   6.019
 5035SOL    HW116004   0.527   3.931   6.027
 5035SOL    HW216005   0.386   4.001   6.072
 5036SOL     OW16006   0.562   4.620   7.006
 5036SOL    HW116007   0.480   4.634   6.951
 5036SOL    HW216008   0.572   4.695   0.052
 5037SOL     OW16009   5.552   4.040   1.910
 5037SOL    HW116010   5.558   4.120   1.850
 5037SOL    HW216011   5.550   3.957   1.854
 5038SOL     OW16012   3.673   3.722   5.707
 5038SOL    HW116013   3.637   3.665   5.633
 5038SOL    HW216014   3.700   3.664   5.784
 5039SOL     OW16015   2.660   4.371   6.231
 5039SOL    HW116016   2.575   4.319   6.218
 5039SOL    HW216017   2.638   4.467   6.244
 5040SOL     OW16018   1.558   6.528   5.489
 5040SOL    HW116019   1.592   6.590   5.561
 5040SOL    HW216020   1.463   6.550   5.469
 5041SOL     OW16021   1.748   1.721   2.699
 5041SOL    HW116022   1.791   1.669   2.773
 5041SOL    HW216023   1.745   1.665   2.616
 5042SOL     OW16024   6.186   3.066   0.147
 5042SOL    HW116025   6.274   3.071   0.193
 5042SOL    HW216026   6.112   3.069   0.215
 5043SOL     OW16027   3.463   0.146   6.237
 5043SOL    HW116028   3.443   0.178   6.145
 5043SOL    HW216029   3.440   0.217   6.303
 5044SOL     OW16030   0.812   6.503   7.000
 5044SOL    HW116031   0.879   6.448   0.031
 5044SOL    HW216032   0.779   6.452   6.920
 5045SOL     OW16033   5.514   0.221   6.361
 5045SOL    HW116034   5.530   0.132   6.404
 5045SOL    HW216035   5.570   0.290   6.406
 5046SOL     OW16036   3.466   4.105   2.795
 5046SOL    HW116037   3.560   4.081   2.819
 5046SOL    HW216038   3.419   4.141   2.875
 5047SOL     OW16039   0.763   4.098   2.999
 5047SOL    HW116040   0.823   4.170   3.033
 5047SOL    HW216041   0.685   4.138   2.951
 5048SOL     OW16042   0.972   1.287   2.868
 5048SOL    HW116043   0.961   1.303   2.966
 5048SOL    HW216044   0.916   1.209   2.841
 5049SOL     OW16045   5.217   1.924   6.343
 5049SOL    HW116046   5.308   1.965   6.347
 5049SOL    HW216047   5.204   1.865   6.423
 5050SOL     OW16048   2.407   0.899   1.395
 5050SOL    HW116049   2.362   0.966   1.454
 5050SOL    HW216050   2.455   0.832   1.451
 5051SOL     OW16051   4.295   4.291   0.962
 5051SOL    HW116052   4.352   4.216   0.927
 5051SOL    HW216053   4.202   4.282   0.927
 5052SOL     OW16054   2.598   1.068   6.113
 5052SOL    HW116055   2.668   1.058   6.183
 5052SOL    HW216056   2.568   1.164   6.109
 5053SOL     OW16057   1.971   3.724   3.941
 5053SOL    HW116058   2.006   3.802   3.889
 5053SOL    HW216059   2.037   3.649   3.937
 5054SOL     OW16060   3.300   5.102   4.493
 5054SOL    HW116061   3.384   5.143   4.528
 5054SOL    HW216062   3.323   5.023   4.436
 5055SOL     OW16063   1.906   2.387   5.681
 5055SOL    HW116064   1.964   2.461   5.648
 5055SOL    HW216065   1.884   2.402   5.777
 5056SOL     OW16066   5.607   4.245   6.731
 5056SOL    HW116067   5.526   4.302   6.719
 5056SOL    HW216068   5.621   4.189   6.649
 5057SOL     OW16069   6.512   5.969   3.712
 5057SOL    HW116070   6.564   5.928   3.787
 5057SOL    HW216071   6.535   6.066   3.703
 5058SOL     OW16072   3.051   3.679   5.465
 5058SOL    HW116073   3.069   3.769   5.426
 5058SOL    HW216074   3.016   3.618   5.393
 5059SOL     OW16075   6.454   1.023   3.186
 5059SOL    HW116076   6.363   1.065   3.184
 5059SOL    HW216077   6.445   0.924   3.177
 5060SOL     OW16078   0.787   2.266   5.722
 5060SOL    HW116079   0.721   2.251   5.648
 5060SOL    HW216080   0.873   2.219   5.701
 5061SOL     OW16081   4.336   2.781   1.568
 5061SOL    HW116082   4.247   2.803   1.608
 5061SOL    HW216083   4.336   2.685   1.539
 5062SOL     OW16084   5.835   0.759   3.045
 5062SOL    HW116085   5.851   0.660   3.044
 5062SOL    HW216086   5.835   0.794   2.951
 5063SOL     OW16087   0.703   6.845   1.897
 5063SOL    HW116088   0.707   6.911   1.972
 5063SOL    HW216089   0.621   6.788   1.908
 5064SOL     OW16090   4.958   3.689   1.406
 5064SOL    HW116091   4.992   3.783   1.416
 5064SOL    HW216092   4.923   3.675   1.314
 5065SOL     OW16093   2.061   0.700   3.467
 5065SOL    HW116094   2.149   0.666   3.433
 5065SOL    HW216095   2.055   0.798   3.450
 5066SOL     OW16096   4.767   5.010   2.506
 5066SOL    HW116097   4.745   5.106   2.494
 5066SOL    HW216098   4.732   4.978   2.594
 5067SOL     OW16099   4.884   1.385   2.031
 5067SOL    HW116100   4.982   1.405   2.033
 5067SOL    HW216101   4.859   1.328   2.109
 5068SOL     OW16102   3.632   4.483   1.310
 5068SOL    HW116103   3.573   4.444   1.240
 5068SOL    HW216104   3.624   4.583   1.308
 5069SOL     OW16105   2.127   3.919   5.833
 5069SOL    HW116106   2.193   3.863   5.883
 5069SOL    HW216107   2.142   3.910   5.735
 5070SOL     OW16108   4.973   4.251   4.253
 5070SOL    HW116109   4.916   4.314   4.306
 5070SOL    HW216110   4.915   4.180   4.213
 5071SOL     OW16111   4.343   2.314   3.682
 5071SOL    HW116112   4.438   2.337   3.704
 5071SOL    HW216113   4.287   2.397   3.686
 5072SOL     OW16114   1.208   0.289   1.050
 5072SOL    HW116115   1.193   0.270   0.953
 5072SOL    HW216116   1.121   0.285   1.099
 5073SOL     OW16117   0.188   5.585   2.272
 5073SOL    HW116118   0.173   5.648   2.349
 5073SOL    HW216119   0.246   5.629   2.204
 5074SOL     OW16120   3.187   3.189   1.274
 5074SOL    HW116121   3.273   3.204   1.324
 5074SOL    HW216122   3.190   3.236   1.187
 5075SOL     OW16123   1.180   2.295   6.865
 5075SOL    HW116124   1.184   2.330   6.958
 5075SOL    HW216125   1.084   2.287   6.836
 5076SOL     OW16126   3.583   1.265   0.972
 5076SOL    HW116127   3.594   1.166   0.977
 5076SOL    HW216128   3.664   1.306   0.929
 5077SOL     OW16129   1.239   4.176   5.364
 5077SOL    HW116130   1.322   4.183   5.420
 5077SOL    HW216131   1.167   4.233   5.404
 5078SOL     OW16132   2.277   1.471   3.710
 5078SOL    HW116133   2.347   1.400   3.713
 5078SOL    HW216134   2.186   1.429   3.717
 5079SOL     OW16135   2.597   3.340   5.866
 5079SOL    HW116136   2.648   3.326   5.781
 5079SOL    HW216137   2.617   3.431   5.903
 5080SOL     OW16138   6.270   6.271   6.021
 5080SOL    HW116139   6.331   6.342   5.987
 5080SOL    HW216140   6.184   6.274   5.969
 5081SOL     OW16141   3.550   2.859   4.411
 5081SOL    HW116142   3.489   2.854   4.490
 5081SOL    HW216143   3.634   2.906   4.438
 5082SOL     OW16144   4.709   5.950   6.593
 5082SOL    HW116145   4.736   6.038   6.554
 5082SOL    HW216146   4.790   5.902   6.627
 5083SOL     OW16147   2.428   7.008   3.173
 5083SOL    HW116148   2.521   6.983   3.199
 5083SOL    HW216149   2.365   6.934   3.199
 5084SOL     OW16150   0.244   4.736   4.277
 5084SOL    HW116151   0.215   4.650   4.235
 5084SOL    HW216152   0.178   4.808   4.253
 5085SOL     OW16153   4.713   3.700   6.416
 5085SOL    HW116154   4.729   3.765   6.490
 5085SOL    HW216155   4.790   3.703   6.352
 5086SOL     OW16156   0.144   5.329   3.289
 5086SOL    HW116157   0.121   5.268   3.364
 5086SOL    HW216158   0.078   5.317   3.215
 5087SOL     OW16159   0.768   4.990   2.277
 5087SOL    HW116160   0.759   5.046   2.360
 5087SOL    HW216161   0.823   4.909   2.296
 5088SOL     OW16162   6.502   1.383   5.197
 5088SOL    HW116163   6.429   1.423   5.252
 5088SOL    HW216164   6.551   1.455   5.148
 5089SOL     OW16165   5.207   3.208   4.071
 5089SOL    HW116166   5.229   3.154   4.152
 5089SOL    HW216167   5.108   3.204   4.054
 5090SOL     OW16168   1.880   3.894   2.803
 5090SOL    HW116169   1.866   3.987   2.767
 5090SOL    HW216170   1.804   3.836   2.775
 5091SOL     OW16171   0.714   7.009   2.111
 5091SOL    HW116172   0.633   0.007   2.167
 5091SOL    HW216173   0.790   0.046   2.144
 5092SOL     OW16174   3.706   3.078   1.299
 5092SOL    HW116175   3.778   3.010   1.289
 5092SOL    HW216176   3.740   3.157   1.350
 5093SOL     OW16177   2.489   1.678   1.273
 5093SOL    HW116178   2.490   1.600   1.211
 5093SOL    HW216179   2.449   1.650   1.360
 5094SOL     OW16180   1.823   5.831   5.476
 5094SOL    HW116181   1.768   5.911   5.453
 5094SOL    HW216182   1.918   5.859   5.490
 5095SOL     OW16183   6.950   3.006   4.659
 5095SOL    HW116184   6.930   3.057   4.742
 5095SOL    HW216185   6.876   2.941   4.640
 5096SOL     OW16186   4.395   4.210   0.668
 5096SOL    HW116187   4.319   4.272   0.656
 5096SOL    HW216188   4.362   4.115   0.668
 5097SOL     OW16189   1.217   0.665   6.852
 5097SOL    HW116190   1.299   0.611   6.872
 5097SOL    HW216191   1.158   0.612   6.790
 5098SOL     OW16192   1.604   0.844   1.668
 5098SOL    HW116193   1.530   0.780   1.646
 5098SOL    HW216194   1.568   0.919   1.723
 5099SOL     OW16195   0.577   6.280   6.953
 5099SOL    HW116196   0.544   6.277   6.859
 5099SOL    HW216197   0.630   6.197   6.971
 5100SOL     OW16198   4.151   5.816   5.349
 5100SOL    HW116199   4.182   5.898   5.397
 5100SOL    HW216200   4.066   5.784   5.389
 5101SOL     OW16201   4.428   6.713   0.392
 5101SOL    HW116202   4.405   6.797   0.441
 5101SOL    HW216203   4.460   6.643   0.456
 5102SOL     OW16204   5.946   0.869   4.661
 5102SOL    HW116205   6.005   0.795   4.631
 5102SOL    HW216206   5.904   0.844   4.749
 5103SOL     OW16207   0.841   1.234   4.483
 5103SOL    HW116208   0.907   1.216   4.410
 5103SOL    HW216209   0.758   1.181   4.467
 5104SOL     OW16210   2.011   6.609   2.753
 5104SOL    HW116211   1.931   6.647   2.708
 5104SOL    HW216212   2.051   6.677   2.815
 5105SOL     OW16213   3.171   2.415   0.209
 5105SOL    HW116214   3.165   2.489   0.276
 5105SOL    HW216215   3.089   2.359   0.214
 5106SOL     OW16216   3.253   1.061   0.856
 5106SOL    HW116217   3.193   0.990   0.819
 5106SOL    HW216218   3.205   1.149   0.856
 5107SOL     OW16219   3.782   0.792   0.762
 5107SOL    HW116220   3.716   0.748   0.700
 5107SOL    HW216221   3.875   0.774   0.730
 5108SOL     OW16222   2.931   3.636   4.322
 5108SOL    HW116223   2.921   3.730   4.290
 5108SOL    HW216224   2.925   3.633   4.422
 5109SOL     OW16225   1.400   1.280   0.983
 5109SOL    HW116226   1.453   1.216   1.039
 5109SOL    HW216227   1.302   1.268   1.002
 5110SOL     OW16228   0.425   0.620   6.390
 5110SOL    HW116229   0.345   0.561   6.401
 5110SOL    HW216230   0.487   0.607   6.467
 5111SOL     OW16231   2.291   1.092   5.554
 5111SOL    HW116232   2.340   1.133   5.631
 5111SOL    HW216233   2.293   0.993   5.562
 5112SOL     OW16234   0.237   6.834   2.499
 5112SOL    HW116235   0.242   6.735   2.514
 5112SOL    HW216236   0.217   6.880   2.585
 5113SOL     OW16237   2.353   7.003   1.963
 5113SOL    HW116238   2.291   0.013   1.890
 5113SOL    HW216239   2.422   6.942   1.924
 5114SOL     OW16240   2.855   2.375   0.397
 5114SOL    HW116241   2.756   2.386   0.392
 5114SOL    HW216242   2.884   2.304   0.332
 5115SOL     OW16243   1.985   5.009   4.697
 5115SOL    HW116244   1.966   4.930   4.755
 5115SOL    HW216245   2.075   5.046   4.719
 5116SOL     OW16246   5.854   6.493   6.599
 5116SOL    HW116247   5.899   6.404   6.607
 5116SOL    HW216248   5.872   6.547   6.681
 5117SOL     OW16249   2.706   4.912   4.749
 5117SOL    HW116250   2.677   4.818   4.729
 5117SOL    HW216251   2.804   4.914   4.765
 5118SOL     OW16252   4.775   0.398   0.395
 5118SOL    HW116253   4.746   0.348   0.313
 5118SOL    HW216254   4.719   0.480   0.406
 5119SOL     OW16255   5.516   1.146   1.742
 5119SOL    HW116256   5.549   1.233   1.778
 5119SOL    HW216257   5.560   1.071   1.792
 5120SOL     OW16258   4.450   1.263   3.877
 5120SOL    HW116259   4.490   1.354   3.885
 5120SOL    HW216260   4.379   1.263   3.806
 5121SOL     OW16261   2.150   2.681   0.542
 5121SOL    HW116262   2.090   2.720   0.472
 5121SOL    HW216263   2.245   2.705   0.521
 5122SOL     OW16264   2.854   0.437   3.865
 5122SOL    HW116265   2.812   0.411   3.778
 5122SOL    HW216266   2.846   0.362   3.930
 5123SOL     OW16267   5.996   2.185   5.261
 5123SOL    HW116268   5.973   2.125   5.337
 5123SOL    HW216269   6.088   2.162   5.228
 5124SOL     OW16270   3.210   5.313   4.904
 5124SOL    HW116271   3.174   5.354   4.820
 5124SOL    HW216272   3.179   5.219   4.911
 5125SOL     OW16273   5.965   2.766   3.956
 5125SOL    HW116274   5.981   2.731   3.864
 5125SOL    HW216275   5.910   2.701   4.008
 5126SOL     OW16276   6.389   5.084   6.006
 5126SOL    HW116277   6.305   5.065   5.957
 5126SOL    HW216278   6.443   5.152   5.956
 5127SOL     OW16279   6.893   4.091   0.406
 5127SOL    HW116280   6.843   4.110   0.490
 5127SOL    HW216281   6.845   4.133   0.329
 5128SOL     OW16282   0.216   0.036   6.389
 5128SOL    HW116283   0.123   0.042   6.423
 5128SOL    HW216284   0.255   6.966   6.413
 5129SOL     OW16285   4.905   0.116   2.754
 5129SOL    HW116286   4.868   0.052   2.821
 5129SOL    HW216287   4.833   0.144   2.691
 5130SOL     OW16288   1.514   5.804   4.157
 5130SOL    HW116289   1.415   5.798   4.145
 5130SOL    HW216290   1.535   5.829   4.251
 5131SOL     OW16291   2.991   4.900   3.734
 5131SOL    HW116292   2.906   4.852   3.756
 5131SOL    HW216293   3.048   4.907   3.816
 5132SOL     OW16294   3.437   1.283   6.022
 5132SOL    HW116295   3.507   1.275   6.093
 5132SOL    HW216296   3.347   1.286   6.064
 5133SOL     OW16297   2.466   5.454   6.493
 5133SOL    HW116298   2.499   5.381   6.433
 5133SOL    HW216299   2.438   5.532   6.437
 5134SOL     OW16300   6.481   0.602   2.224
 5134SOL    HW116301   6.403   0.609   2.163
 5134SOL    HW216302   6.452   0.623   2.318
 5135SOL     OW16303   5.023   3.400   3.867
 5135SOL    HW116304   4.987   3.343   3.793
 5135SOL    HW216305   5.009   3.353   3.955
 5136SOL     OW16306   5.245   0.740   5.973
 5136SOL    HW116307   5.224   0.643   5.966
 5136SOL    HW216308   5.302   0.756   6.054
 5137SOL     OW16309   5.286   3.517   5.081
 5137SOL    HW116310   5.311   3.450   5.151
 5137SOL    HW216311   5.200   3.562   5.107
 5138SOL     OW16312   3.195   4.120   4.398
 5138SOL    HW116313   3.099   4.103   4.421
 5138SOL    HW216314   3.204   4.138   4.300
 5139SOL     OW16315   0.941   7.002   4.556
 5139SOL    HW116316   0.901   0.074   4.565
 5139SOL    HW216317   0.880   6.944   4.501
 5140SOL     OW16318   3.706   2.064   5.601
 5140SOL    HW116319   3.770   2.010   5.655
 5140SOL    HW216320   3.745   2.083   5.511
 5141SOL     OW16321   6.743   3.632   1.340
 5141SOL    HW116322   6.649   3.663   1.351
 5141SOL    HW216323   6.764   3.623   1.242
 5142SOL     OW16324   5.350   6.867   4.739
 5142SOL    HW116325   5.414   6.921   4.684
 5142SOL    HW216326   5.367   6.884   4.836
 5143SOL     OW16327   0.648   4.274   4.594
 5143SOL    HW116328   0.651   4.312   4.687
 5143SOL    HW216329   0.711   4.196   4.588
 5144SOL     OW16330   2.172   4.358   6.036
 5144SOL    HW116331   2.171   4.399   5.945
 5144SOL    HW216332   2.141   4.264   6.031
 5145SOL     OW16333   4.178   5.900   5.950
 5145SOL    HW116334   4.103   5.851   5.906
 5145SOL    HW216335   4.195   5.986   5.901
 5146SOL     OW16336   3.361   3.980   5.036
 5146SOL    HW116337   3.409   3.925   5.104
 5146SOL    HW216338   3.418   3.988   4.954
 5147SOL     OW16339   5.951   5.076   3.813
 5147SOL    HW116340   5.901   5.013   3.873
 5147SOL    HW216341   6.019   5.024   3.761
 5148SOL     OW16342   0.130   1.088   2.127
 5148SOL    HW116343   0.117   1.185   2.146
 5148SOL    HW216344   0.115   1.070   2.030
 5149SOL     OW16345   5.907   5.718   4.693
 5149SOL    HW116346   5.831   5.657   4.714
 5149SOL    HW216347   5.992   5.676   4.725
 5150SOL     OW16348   1.836   4.324   4.033
 5150SOL    HW116349   1.823   4.410   3.984
 5150SOL    HW216350   1.792   4.330   4.123
 5151SOL     OW16351   6.749   4.468   2.274
 5151SOL    HW116352   6.739   4.564   2.299
 5151SOL    HW216353   6.770   4.461   2.176
 5152SOL     OW16354   2.468   5.350   6.911
 5152SOL    HW116355   2.474   5.435   6.858
 5152SOL    HW216356   2.391   5.296   6.876
 5153SOL     OW16357   0.397   2.157   0.798
 5153SOL    HW116358   0.326   2.197   0.856
 5153SOL    HW216359   0.377   2.177   0.702
 5154SOL     OW16360   1.128   2.981   5.691
 5154SOL    HW116361   1.196   2.950   5.758
 5154SOL    HW216362   1.121   3.081   5.694
 5155SOL     OW16363   3.938   0.417   2.047
 5155SOL    HW116364   3.885   0.500   2.065
 5155SOL    HW216365   3.918   0.349   2.117
 5156SOL     OW16366   5.777   4.550   5.298
 5156SOL    HW116367   5.818   4.474   5.248
 5156SOL    HW216368   5.849   4.609   5.334
 5157SOL     OW16369   3.269   2.089   2.293
 5157SOL    HW116370   3.284   1.991   2.284
 5157SOL    HW216371   3.172   2.110   2.288
 5158SOL     OW16372   4.360   2.268   0.670
 5158SOL    HW116373   4.335   2.255   0.766
 5158SOL    HW216374   4.298   2.214   0.612
 5159SOL     OW16375   5.999   3.077   5.758
 5159SOL    HW116376   6.031   2.984   5.779
 5159SOL    HW216377   5.902   3.075   5.737
 5160SOL     OW16378   6.914   4.877   3.285
 5160SOL    HW116379   6.964   4.794   3.262
 5160SOL    HW216380   6.831   4.883   3.228
 5161SOL     OW16381   1.410   3.854   0.335
 5161SOL    HW116382   1.350   3.909   0.392
 5161SOL    HW216383   1.415   3.761   0.371
 5162SOL     OW16384   1.011   5.362   2.618
 5162SOL    HW116385   0.989   5.368   2.521
 5162SOL    HW216386   1.110   5.365   2.630
 5163SOL     OW16387   3.734   6.316   0.245
 5163SOL    HW116388   3.642   6.279   0.254
 5163SOL    HW216389   3.766   6.305   0.151
 5164SOL     OW16390   2.927   2.941   7.007
 5164SOL    HW116391   3.009   2.884   7.004
 5164SOL    HW216392   2.868   2.910   0.063
 5165SOL     OW16393   0.320   4.071   5.801
 5165SOL    HW116394   0.389   4.039   5.865
 5165SOL    HW216395   0.342   4.038   5.709
 5166SOL     OW16396   2.462   5.041   2.875
 5166SOL    HW116397   2.447   5.096   2.793
 5166SOL    HW216398   2.415   5.083   2.952
 5167SOL     OW16399   6.303   4.322   5.134
 5167SOL    HW116400   6.362   4.399   5.160
 5167SOL    HW216401   6.238   4.353   5.065
 5168SOL     OW16402   5.215   3.189   3.051
 5168SOL    HW116403   5.199   3.257   2.979
 5168SOL    HW216404   5.190   3.098   3.016
 5169SOL     OW16405   4.308   2.413   3.298
 5169SOL    HW116406   4.334   2.435   3.204
 5169SOL    HW216407   4.245   2.335   3.298
 5170SOL     OW16408   1.350   3.437   5.101
 5170SOL    HW116409   1.354   3.387   5.187
 5170SOL    HW216410   1.370   3.534   5.117
 5171SOL     OW16411   6.729   4.359   5.811
 5171SOL    HW116412   6.768   4.313   5.890
 5171SOL    HW216413   6.800   4.375   5.742
 5172SOL     OW16414   1.519   3.867   2.883
 5172SOL    HW116415   1.582   3.795   2.854
 5172SOL    HW216416   1.458   3.831   2.954
 5173SOL     OW16417   4.487   5.498   5.387
 5173SOL    HW116418   4.521   5.580   5.342
 5173SOL    HW216419   4.466   5.518   5.482
 5174SOL     OW16420   2.299   4.859   3.683
 5174SOL    HW116421   2.320   4.762   3.669
 5174SOL    HW216422   2.350   4.914   3.617
 5175SOL     OW16423   2.355   3.606   6.908
 5175SOL    HW116424   2.282   3.674   6.901
 5175SOL    HW216425   2.428   3.642   6.967
 5176SOL     OW16426   4.981   4.517   6.069
 5176SOL    HW116427   4.881   4.517   6.060
 5176SOL    HW216428   5.016   4.425   6.051
 5177SOL     OW16429   5.267   6.840   0.921
 5177SOL    HW116430   5.172   6.839   0.953
 5177SOL    HW216431   5.291   6.749   0.888
 5178SOL     OW16432   1.440   4.607   2.091
 5178SOL    HW116433   1.363   4.668   2.073
 5178SOL    HW216434   1.525   4.652   2.062
 5179SOL     OW16435   4.930   4.692   4.062
 5179SOL    HW116436   4.834   4.711   4.084
 5179SOL    HW216437   4.979   4.778   4.048
 5180SOL     OW16438   3.626   1.056   1.851
 5180SOL    HW116439   3.605   1.042   1.754
 5180SOL    HW216440   3.720   1.027   1.869
 5181SOL     OW16441   6.228   0.611   2.104
 5181SOL    HW116442   6.217   0.607   2.203
 5181SOL    HW216443   6.140   0.590   2.060
 5182SOL     OW16444   4.423   4.648   2.248
 5182SOL    HW116445   4.493   4.712   2.217
 5182SOL    HW216446   4.337   4.668   2.201
 5183SOL     OW16447   3.835   1.857   2.836
 5183SOL    HW116448   3.823   1.816   2.926
 5183SOL    HW216449   3.837   1.957   2.845
 5184SOL     OW16450   1.937   2.093   3.340
 5184SOL    HW116451   1.990   2.140   3.269
 5184SOL    HW216452   1.849   2.138   3.351
 5185SOL     OW16453   4.853   0.990   3.024
 5185SOL    HW116454   4.770   0.989   3.081
 5185SOL    HW216455   4.839   0.932   2.945
 5186SOL     OW16456   5.910   2.365   6.429
 5186SOL    HW116457   5.999   2.390   6.468
 5186SOL    HW216458   5.842   2.432   6.457
 5187SOL     OW16459   1.133   5.758   5.486
 5187SOL    HW116460   1.095   5.831   5.430
 5187SOL    HW216461   1.208   5.793   5.542
 5188SOL     OW16462   6.266   6.136   1.733
 5188SOL    HW116463   6.190   6.159   1.673
 5188SOL    HW216464   6.230   6.115   1.824
 5189SOL     OW16465   4.725   6.252   0.314
 5189SOL    HW116466   4.714   6.348   0.288
 5189SOL    HW216467   4.656   6.196   0.268
 5190SOL     OW16468   0.663   3.698   3.763
 5190SOL    HW116469   0.575   3.732   3.797
 5190SOL    HW216470   0.675   3.727   3.668
 5191SOL     OW16471   3.227   6.324   2.125
 5191SOL    HW116472   3.216   6.423   2.115
 5191SOL    HW216473   3.276   6.304   2.210
 5192SOL     OW16474   1.626   6.061   1.220
 5192SOL    HW116475   1.664   5.993   1.156
 5192SOL    HW216476   1.635   6.152   1.180
 5193SOL     OW16477   5.209   5.858   5.517
 5193SOL    HW116478   5.180   5.949   5.487
 5193SOL    HW216479   5.129   5.800   5.531
 5194SOL     OW16480   3.770   2.591   6.659
 5194SOL    HW116481   3.828   2.511   6.676
 5194SOL    HW216482   3.681   2.577   6.703
 5195SOL     OW16483   0.370   0.502   4.066
 5195SOL    HW116484   0.328   0.558   4.138
 5195SOL    HW216485   0.398   0.560   3.990
 5196SOL     OW16486   5.153   6.863   2.277
 5196SOL    HW116487   5.108   6.941   2.234
 5196SOL    HW216488   5.157   6.877   2.376
 5197SOL     OW16489   2.190   3.810   6.805
 5197SOL    HW116490   2.228   3.843   6.719
 5197SOL    HW216491   2.090   3.814   6.801
 5198SOL     OW16492   4.786   5.971   2.856
 5198SOL    HW116493   4.703   6.027   2.857
 5198SOL    HW216494   4.798   5.928   2.946
 5199SOL     OW16495   1.144   5.981   0.681
 5199SOL    HW116496   1.179   6.072   0.657
 5199SOL    HW216497   1.059   5.991   0.733
 5200SOL     OW16498   6.738   3.728   4.929
 5200SOL    HW116499   6.702   3.674   4.853
 5200SOL    HW216500   6.750   3.823   4.899
 5201SOL     OW16501   0.759   6.428   3.041
 5201SOL    HW116502   0.776   6.523   3.014
 5201SOL    HW216503   0.803   6.366   2.976
 5202SOL     OW16504   4.844   2.643   6.602
 5202SOL    HW116505   4.837   2.743   6.605
 5202SOL    HW216506   4.938   2.616   6.621
 5203SOL     OW16507   2.301   2.076   6.315
 5203SOL    HW116508   2.218   2.131   6.325
 5203SOL    HW216509   2.293   2.018   6.234
 5204SOL     OW16510   3.540   5.143   0.271
 5204SOL    HW116511   3.520   5.051   0.237
 5204SOL    HW216512   3.475   5.167   0.343
 5205SOL     OW16513   1.195   6.618   0.298
 5205SOL    HW116514   1.227   6.697   0.349
 5205SOL    HW216515   1.136   6.562   0.356
 5206SOL     OW16516   0.418   4.633   4.730
 5206SOL    HW116517   0.365   4.575   4.668
 5206SOL    HW216518   0.428   4.723   4.689
 5207SOL     OW16519   1.253   6.119   3.617
 5207SOL    HW116520   1.245   6.149   3.522
 5207SOL    HW216521   1.163   6.123   3.661
 5208SOL     OW16522   3.408   2.007   6.666
 5208SOL    HW116523   3.454   2.030   6.751
 5208SOL    HW216524   3.473   1.967   6.601
 5209SOL     OW16525   5.727   5.873   3.393
 5209SOL    HW116526   5.740   5.810   3.317
 5209SOL    HW216527   5.686   5.958   3.359
 5210SOL     OW16528   5.568   2.416   5.776
 5210SOL    HW116529   5.640   2.429   5.708
 5210SOL    HW216530   5.480   2.446   5.739
 5211SOL     OW16531   3.765   3.138   4.962
 5211SOL    HW116532   3.764   3.238   4.969
 5211SOL    HW216533   3.760   3.098   5.054
 5212SOL     OW16534   6.151   1.483   0.415
 5212SOL    HW116535   6.145   1.528   0.504
 5212SOL    HW216536   6.062   1.487   0.370
 5213SOL     OW16537   4.763   3.906   6.594
 5213SOL    HW116538   4.739   3.920   6.690
 5213SOL    HW216539   4.862   3.912   6.583
 5214SOL     OW16540   4.884   1.685   5.933
 5214SOL    HW116541   4.877   1.607   5.871
 5214SOL    HW216542   4.898   1.651   6.027
 5215SOL     OW16543   5.625   4.865   3.567
 5215SOL    HW116544   5.664   4.936   3.509
 5215SOL    HW216545   5.563   4.807   3.512
 5216SOL     OW16546   4.496   5.472   1.731
 5216SOL    HW116547   4.559   5.482   1.654
 5216SOL    HW216548   4.478   5.562   1.771
 5217SOL     OW16549   3.382   5.195   4.220
 5217SOL    HW116550   3.351   5.287   4.242
 5217SOL    HW216551   3.303   5.137   4.201
 5218SOL     OW16552   0.892   1.229   3.424
 5218SOL    HW116553   0.890   1.313   3.478
 5218SOL    HW216554   0.941   1.158   3.475
 5219SOL     OW16555   4.046   0.537   5.824
 5219SOL    HW116556   4.067   0.441   5.844
 5219SOL    HW216557   4.007   0.544   5.733
 5220SOL     OW16558   1.276   6.266   2.574
 5220SOL    HW116559   1.320   6.206   2.508
 5220SOL    HW216560   1.186   6.229   2.598
 5221SOL     OW16561   5.760   1.987   3.795
 5221SOL    HW116562   5.758   1.966   3.697
 5221SOL    HW216563   5.681   2.043   3.819
 5222SOL     OW16564   2.934   6.570   3.488
 5222SOL    HW116565   2.931   6.484   3.538
 5222SOL    HW216566   2.866   6.569   3.415
 5223SOL     OW16567   5.360   0.949   1.160
 5223SOL    HW116568   5.429   0.943   1.088
 5223SOL    HW216569   5.399   0.995   1.240
 5224SOL     OW16570   6.985   2.334   4.038
 5224SOL    HW116571   0.017   2.404   4.089
 5224SOL    HW216572   6.956   2.262   4.100
 5225SOL     OW16573   0.320   7.001   3.281
 5225SOL    HW116574   0.282   0.067   3.245
 5225SOL    HW216575   0.391   6.967   3.218
 5226SOL     OW16576   0.599   5.505   4.575
 5226SOL    HW116577   0.546   5.588   4.593
 5226SOL    HW216578   0.644   5.475   4.658
 5227SOL     OW16579   1.786   4.683   4.150
 5227SOL    HW116580   1.799   4.609   4.085
 5227SOL    HW216581   1.710   4.741   4.120
 5228SOL     OW16582   6.459   2.212   0.960
 5228SOL    HW116583   6.465   2.213   0.860
 5228SOL    HW216584   6.506   2.293   0.997
 5229SOL     OW16585   1.869   4.325   0.149
 5229SOL    HW116586   1.883   4.405   0.090
 5229SOL    HW216587   1.904   4.345   0.241
 5230SOL     OW16588   0.465   6.302   1.099
 5230SOL    HW116589   0.530   6.308   1.174
 5230SOL    HW216590   0.514   6.308   1.012
 5231SOL     OW16591   4.111   3.702   4.919
 5231SOL    HW116592   4.151   3.728   4.831
 5231SOL    HW216593   4.134   3.771   4.988
 5232SOL     OW16594   3.351   1.765   5.865
 5232SOL    HW116595   3.259   1.737   5.840
 5232SOL    HW216596   3.347   1.850   5.917
 5233SOL     OW16597   5.650   0.382   1.706
 5233SOL    HW116598   5.572   0.387   1.768
 5233SOL    HW216599   5.634   0.443   1.628
 5234SOL     OW16600   2.062   0.344   6.896
 5234SOL    HW116601   2.013   0.388   6.821
 5234SOL    HW216602   2.102   0.414   6.955
 5235SOL     OW16603   1.783   2.952   1.256
 5235SOL    HW116604   1.788   2.987   1.349
 5235SOL    HW216605   1.848   3.001   1.198
 5236SOL     OW16606   6.037   3.719   2.367
 5236SOL    HW116607   6.020   3.805   2.416
 5236SOL    HW216608   6.135   3.699   2.369
 5237SOL     OW16609   2.323   0.793   5.624
 5237SOL    HW116610   2.344   0.759   5.716
 5237SOL    HW216611   2.305   0.716   5.563
 5238SOL     OW16612   1.398   4.599   0.692
 5238SOL    HW116613   1.410   4.674   0.757
 5238SOL    HW216614   1.326   4.622   0.627
 5239SOL     OW16615   3.938   4.002   4.348
 5239SOL    HW116616   3.965   3.982   4.443
 5239SOL    HW216617   3.839   4.011   4.344
 5240SOL     OW16618   3.031   1.867   6.491
 5240SOL    HW116619   3.071   1.779   6.518
 5240SOL    HW216620   3.089   1.942   6.523
 5241SOL     OW16621   0.721   5.175   6.245
 5241SOL    HW116622   0.674   5.169   6.333
 5241SOL    HW216623   0.712   5.268   6.210
 5242SOL     OW16624   0.388   6.204   5.637
 5242SOL    HW116625   0.299   6.247   5.626
 5242SOL    HW216626   0.460   6.268   5.606
 5243SOL     OW16627   1.165   5.741   1.963
 5243SOL    HW116628   1.104   5.799   1.909
 5243SOL    HW216629   1.252   5.731   1.915
 5244SOL     OW16630   3.390   3.928   6.066
 5244SOL    HW116631   3.310   3.872   6.086
 5244SOL    HW216632   3.367   3.997   5.997
 5245SOL     OW16633   4.892   4.447   0.140
 5245SOL    HW116634   4.868   4.353   0.163
 5245SOL    HW216635   4.810   4.504   0.142
 5246SOL     OW16636   5.723   4.627   2.215
 5246SOL    HW116637   5.660   4.550   2.224
 5246SOL    HW216638   5.792   4.622   2.286
 5247SOL     OW16639   1.240   6.607   0.592
 5247SOL    HW116640   1.237   6.638   0.687
 5247SOL    HW216641   1.171   6.536   0.578
 5248SOL     OW16642   6.086   0.205   4.809
 5248SOL    HW116643   6.092   0.106   4.808
 5248SOL    HW216644   6.070   0.239   4.716
 5249SOL     OW16645   0.513   4.815   4.549
 5249SOL    HW116646   0.527   4.775   4.458
 5249SOL    HW216647   0.466   4.902   4.540
 5250SOL     OW16648   0.894   0.879   5.385
 5250SOL    HW116649   0.802   0.863   5.351
 5250SOL    HW216650   0.902   0.973   5.419
 5251SOL     OW16651   0.558   3.299   0.877
 5251SOL    HW116652   0.570   3.391   0.916
 5251SOL    HW216653   0.518   3.239   0.946
 5252SOL     OW16654   2.003   5.713   1.163
 5252SOL    HW116655   2.046   5.727   1.074
 5252SOL    HW216656   1.930   5.646   1.155
 5253SOL     OW16657   5.832   3.797   4.566
 5253SOL    HW116658   5.913   3.749   4.531
 5253SOL    HW216659   5.844   3.817   4.663
 5254SOL     OW16660   5.371   0.957   3.014
 5254SOL    HW116661   5.357   0.944   3.112
 5254SOL    HW216662   5.464   0.989   2.997
 5255SOL     OW16663   4.556   0.049   6.133
 5255SOL    HW116664   4.612   6.991   6.103
 5255SOL    HW216665   4.578   0.130   6.078
 5256SOL     OW16666   4.714   0.448   3.271
 5256SOL    HW116667   4.721   0.542   3.239
 5256SOL    HW216668   4.789   0.429   3.335
 5257SOL     OW16669   4.733   6.930   2.528
 5257SOL    HW116670   4.666   6.876   2.578
 5257SOL    HW216671   4.721   0.008   2.550
 5258SOL     OW16672   5.024   3.216   1.144
 5258SOL    HW116673   4.948   3.150   1.152
 5258SOL    HW216674   5.029   3.271   1.228
 5259SOL     OW16675   4.273   5.979   1.339
 5259SOL    HW116676   4.251   6.009   1.432
 5259SOL    HW216677   4.209   5.908   1.311
 5260SOL     OW16678   5.416   3.716   1.329
 5260SOL    HW116679   5.371   3.751   1.247
 5260SOL    HW216680   5.472   3.636   1.305
 5261SOL     OW16681   1.654   3.257   6.781
 5261SOL    HW116682   1.666   3.238   6.684
 5261SOL    HW216683   1.684   3.178   6.834
 5262SOL     OW16684   2.726   0.036   2.976
 5262SOL    HW116685   2.648   0.016   2.918
 5262SOL    HW216686   2.795   0.086   2.923
 5263SOL     OW16687   1.335   0.861   5.274
 5263SOL    HW116688   1.265   0.931   5.290
 5263SOL    HW216689   1.294   0.770   5.285
 5264SOL     OW16690   6.565   0.629   2.783
 5264SOL    HW116691   6.494   0.689   2.747
 5264SOL    HW216692   6.651   0.678   2.787
 5265SOL     OW16693   5.124   4.642   3.123
 5265SOL    HW116694   5.025   4.628   3.112
 5265SOL    HW216695   5.164   4.561   3.165
 5266SOL     OW16696   2.565   0.291   2.276
 5266SOL    HW116697   2.505   0.254   2.206
 5266SOL    HW216698   2.640   0.341   2.233
 5267SOL     OW16699   4.737   4.754   6.218
 5267SOL    HW116700   4.697   4.846   6.214
 5267SOL    HW216701   4.712   4.704   6.135
 5268SOL     OW16702   6.153   6.562   5.867
 5268SOL    HW116703   6.232   6.561   5.928
 5268SOL    HW216704   6.173   6.617   5.786
 5269SOL     OW16705   2.106   6.993   4.385
 5269SOL    HW116706   2.126   6.896   4.395
 5269SOL    HW216707   2.040   7.006   4.311
 5270SOL     OW16708   5.294   1.588   2.344
 5270SOL    HW116709   5.203   1.556   2.366
 5270SOL    HW216710   5.304   1.684   2.372
 5271SOL     OW16711   5.133   5.161   5.105
 5271SOL    HW116712   5.215   5.130   5.057
 5271SOL    HW216713   5.056   5.165   5.040
 5272SOL     OW16714   1.707   6.073   2.620
 5272SOL    HW116715   1.766   5.993   2.608
 5272SOL    HW216716   1.700   6.095   2.717
 5273SOL     OW16717   6.850   3.344   2.967
 5273SOL    HW116718   6.778   3.332   2.898
 5273SOL    HW216719   6.877   3.255   3.003
 5274SOL     OW16720   6.328   5.667   2.599
 5274SOL    HW116721   6.236   5.680   2.563
 5274SOL    HW216722   6.327   5.678   2.698
 5275SOL     OW16723   3.682   1.550   6.187
 5275SOL    HW116724   3.637   1.540   6.276
 5275SOL    HW216725   3.618   1.527   6.114
 5276SOL     OW16726   1.504   0.279   1.132
 5276SOL    HW116727   1.469   0.187   1.118
 5276SOL    HW216728   1.471   0.339   1.059
 5277SOL     OW16729   1.916   2.916   3.046
 5277SOL    HW116730   1.837   2.855   3.047
 5277SOL    HW216731   1.964   2.910   3.134
 5278SOL     OW16732   5.343   0.161   4.205
 5278SOL    HW116733   5.288   0.091   4.250
 5278SOL    HW216734   5.414   0.193   4.268
 5279SOL     OW16735   1.699   5.176   6.613
 5279SOL    HW116736   1.780   5.118   6.608
 5279SOL    HW216737   1.627   5.127   6.664
 5280SOL     OW16738   2.850   6.188   5.765
 5280SOL    HW116739   2.922   6.242   5.808
 5280SOL    HW216740   2.765   6.241   5.764
 5281SOL     OW16741   0.769   1.819   3.475
 5281SOL    HW116742   0.728   1.909   3.487
 5281SOL    HW216743   0.844   1.807   3.540
 5282SOL     OW16744   2.160   1.223   2.836
 5282SOL    HW116745   2.123   1.308   2.799
 5282SOL    HW216746   2.089   1.177   2.890
 5283SOL     OW16747   2.939   0.562   1.995
 5283SOL    HW116748   2.912   0.528   1.905
 5283SOL    HW216749   3.038   0.577   1.996
 5284SOL     OW16750   5.127   3.053   2.561
 5284SOL    HW116751   5.036   3.013   2.552
 5284SOL    HW216752   5.192   3.001   2.504
 5285SOL     OW16753   1.342   4.379   4.507
 5285SOL    HW116754   1.335   4.453   4.441
 5285SOL    HW216755   1.382   4.298   4.464
 5286SOL     OW16756   0.329   3.965   1.478
 5286SOL    HW116757   0.287   3.874   1.472
 5286SOL    HW216758   0.273   4.024   1.537
 5287SOL     OW16759   1.479   6.040   1.488
 5287SOL    HW116760   1.510   6.033   1.393
 5287SOL    HW216761   1.550   6.084   1.543
 5288SOL     OW16762   4.177   0.961   2.356
 5288SOL    HW116763   4.165   0.862   2.362
 5288SOL    HW216764   4.140   1.004   2.438
 5289SOL     OW16765   1.712   4.930   6.259
 5289SOL    HW116766   1.750   4.937   6.167
 5289SOL    HW216767   1.633   4.990   6.267
 5290SOL     OW16768   1.854   3.971   5.793
 5290SOL    HW116769   1.789   3.903   5.828
 5290SOL    HW216770   1.947   3.943   5.817
 5291SOL     OW16771   2.819   4.768   6.050
 5291SOL    HW116772   2.723   4.765   6.077
 5291SOL    HW216773   2.860   4.854   6.079
 5292SOL     OW16774   6.285   4.689   6.583
 5292SOL    HW116775   6.289   4.761   6.652
 5292SOL    HW216776   6.330   4.720   6.499
 5293SOL     OW16777   1.003   0.338   4.322
 5293SOL    HW116778   1.011   0.423   4.270
 5293SOL    HW216779   1.087   0.284   4.312
 5294SOL     OW16780   6.047   2.789   4.588
 5294SOL    HW116781   6.038   2.723   4.513
 5294SOL    HW216782   6.016   2.746   4.673
 5295SOL     OW16783   4.084   1.161   2.622
 5295SOL    HW116784   4.042   1.229   2.682
 5295SOL    HW216785   4.183   1.158   2.640
 5296SOL     OW16786   2.852   5.009   6.777
 5296SOL    HW116787   2.911   5.010   6.696
 5296SOL    HW216788   2.789   5.086   6.773
 5297SOL     OW16789   2.647   2.560   0.782
 5297SOL    HW116790   2.676   2.616   0.860
 5297SOL    HW216791   2.728   2.535   0.728
 5298SOL     OW16792   0.832   5.656   0.332
 5298SOL    HW116793   0.929   5.665   0.355
 5298SOL    HW216794   0.792   5.581   0.384
 5299SOL     OW16795   2.049   2.981   1.018
 5299SOL    HW116796   1.983   3.053   1.040
 5299SOL    HW216797   2.104   3.008   0.939
 5300SOL     OW16798   0.840   6.457   1.051
 5300SOL    HW116799   0.852   6.512   1.133
 5300SOL    HW216800   0.846   6.360   1.075
 5301SOL     OW16801   3.304   2.631   6.547
 5301SOL    HW116802   3.304   2.723   6.509
 5301SOL    HW216803   3.234   2.576   6.501
 5302SOL     OW16804   5.781   5.430   3.961
 5302SOL    HW116805   5.779   5.357   4.029
 5302SOL    HW216806   5.806   5.516   4.005
 5303SOL     OW16807   6.761   5.498   3.320
 5303SOL    HW116808   6.676   5.544   3.293
 5303SOL    HW216809   6.827   5.503   3.245
 5304SOL     OW16810   5.294   1.015   6.831
 5304SOL    HW116811   5.216   1.049   6.778
 5304SOL    HW216812   5.268   1.008   6.927
 5305SOL     OW16813   0.972   5.243   2.873
 5305SOL    HW116814   0.877   5.217   2.892
 5305SOL    HW216815   0.976   5.288   2.783
 5306SOL     OW16816   0.851   4.074   4.611
 5306SOL    HW116817   0.922   4.052   4.677
 5306SOL    HW216818   0.789   3.996   4.601
 5307SOL     OW16819   4.530   1.614   0.265
 5307SOL    HW116820   4.595   1.558   0.316
 5307SOL    HW216821   4.449   1.632   0.321
 5308SOL     OW16822   0.844   5.711   3.571
 5308SOL    HW116823   0.794   5.728   3.656
 5308SOL    HW216824   0.937   5.747   3.578
 5309SOL     OW16825   4.286   4.488   1.480
 5309SOL    HW116826   4.197   4.490   1.434
 5309SOL    HW216827   4.312   4.580   1.507
 5310SOL     OW16828   6.443   3.830   2.534
 5310SOL    HW116829   6.395   3.882   2.604
 5310SOL    HW216830   6.498   3.892   2.479
 5311SOL     OW16831   6.377   5.637   0.106
 5311SOL    HW116832   6.383   5.675   0.013
 5311SOL    HW216833   6.439   5.560   0.114
 5312SOL     OW16834   0.426   5.219   1.885
 5312SOL    HW116835   0.356   5.173   1.940
 5312SOL    HW216836   0.517   5.194   1.919
 5313SOL     OW16837   1.474   3.844   6.472
 5313SOL    HW116838   1.566   3.809   6.455
 5313SOL    HW216839   1.476   3.906   6.551
 5314SOL     OW16840   3.225   6.443   0.336
 5314SOL    HW116841   3.201   6.357   0.380
 5314SOL    HW216842   3.252   6.510   0.405
 5315SOL     OW16843   4.705   3.171   1.654
 5315SOL    HW116844   4.676   3.106   1.724
 5315SOL    HW216845   4.651   3.255   1.662
 5316SOL     OW16846   0.993   4.054   5.027
 5316SOL    HW116847   0.967   3.960   5.048
 5316SOL    HW216848   1.033   4.059   4.936
 5317SOL     OW16849   6.762   6.748   5.045
 5317SOL    HW116850   6.722   6.825   4.995
 5317SOL    HW216851   6.816   6.692   4.982
 5318SOL     OW16852   0.228   2.421   6.455
 5318SOL    HW116853   0.157   2.491   6.456
 5318SOL    HW216854   0.290   2.436   6.532
 5319SOL     OW16855   3.487   6.785   0.002
 5319SOL    HW116856   3.476   6.820   6.928
 5319SOL    HW216857   3.571   6.732   0.008
 5320SOL     OW16858   6.040   4.976   0.008
 5320SOL    HW116859   6.092   5.008   0.086
 5320SOL    HW216860   6.084   4.896   6.987
 5321SOL     OW16861   1.089   4.244   3.670
 5321SOL    HW116862   1.156   4.186   3.624
 5321SOL    HW216863   1.121   4.268   3.761
 5322SOL     OW16864   4.349   6.099   6.446
 5322SOL    HW116865   4.254   6.104   6.477
 5322SOL    HW216866   4.384   6.007   6.462
 5323SOL     OW16867   3.575   2.021   6.889
 5323SOL    HW116868   3.611   2.109   6.921
 5323SOL    HW216869   3.608   1.948   6.948
 5324SOL     OW16870   4.143   2.124   0.822
 5324SOL    HW116871   4.171   2.190   0.891
 5324SOL    HW216872   4.049   2.141   0.795
 5325SOL     OW16873   4.941   0.876   4.360
 5325SOL    HW116874   4.942   0.937   4.439
 5325SOL    HW216875   5.010   0.805   4.372
 5326SOL     OW16876   0.443   5.377   3.496
 5326SOL    HW116877   0.354   5.417   3.513
 5326SOL    HW216878   0.510   5.415   3.560
 5327SOL     OW16879   5.628   2.935   5.219
 5327SOL    HW116880   5.657   2.854   5.270
 5327SOL    HW216881   5.680   2.941   5.134
 5328SOL     OW16882   4.593   2.720   5.261
 5328SOL    HW116883   4.651   2.795   5.228
 5328SOL    HW216884   4.566   2.663   5.183
 5329SOL     OW16885   6.797   4.905   6.417
 5329SOL    HW116886   6.792   5.003   6.398
 5329SOL    HW216887   6.800   4.855   6.330
 5330SOL     OW16888   3.261   3.925   5.622
 5330SOL    HW116889   3.350   3.943   5.581
 5330SOL    HW216890   3.199   3.890   5.552
 5331SOL     OW16891   4.904   1.200   0.665
 5331SOL    HW116892   4.888   1.260   0.744
 5331SOL    HW216893   4.829   1.210   0.600
 5332SOL     OW16894   0.567   3.780   1.499
 5332SOL    HW116895   0.644   3.831   1.462
 5332SOL    HW216896   0.484   3.836   1.493
 5333SOL     OW16897   1.065   1.039   3.540
 5333SOL    HW116898   1.119   1.006   3.463
 5333SOL    HW216899   1.106   1.007   3.625
 5334SOL     OW16900   4.129   0.285   4.114
 5334SOL    HW116901   4.062   0.318   4.181
 5334SOL    HW216902   4.085   0.219   4.054
 5335SOL     OW16903   5.982   5.557   2.212
 5335SOL    HW116904   5.901   5.572   2.154
 5335SOL    HW216905   5.977   5.466   2.252
 5336SOL     OW16906   2.807   1.952   3.218
 5336SOL    HW116907   2.750   1.878   3.255
 5336SOL    HW216908   2.903   1.934   3.241
 5337SOL     OW16909   5.194   3.880   1.804
 5337SOL    HW116910   5.213   3.793   1.758
 5337SOL    HW216911   5.266   3.946   1.781
 5338SOL     OW16912   5.735   1.136   5.849
 5338SOL    HW116913   5.820   1.100   5.813
 5338SOL    HW216914   5.737   1.132   5.949
 5339SOL     OW16915   6.552   2.226   4.094
 5339SOL    HW116916   6.463   2.238   4.138
 5339SOL    HW216917   6.584   2.314   4.059
 5340SOL     OW16918   5.526   2.412   0.948
 5340SOL    HW116919   5.448   2.462   0.986
 5340SOL    HW216920   5.512   2.314   0.961
 5341SOL     OW16921   3.632   4.372   6.389
 5341SOL    HW116922   3.619   4.340   6.295
 5341SOL    HW216923   3.714   4.330   6.428
 5342SOL     OW16924   3.840   0.160   3.465
 5342SOL    HW116925   3.768   0.091   3.471
 5342SOL    HW216926   3.866   0.173   3.369
 5343SOL     OW16927   3.768   3.504   4.639
 5343SOL    HW116928   3.864   3.494   4.614
 5343SOL    HW216929   3.720   3.418   4.621
 5344SOL     OW16930   1.953   2.198   2.053
 5344SOL    HW116931   2.016   2.207   1.976
 5344SOL    HW216932   1.997   2.145   2.125
 5345SOL     OW16933   3.354   6.629   0.489
 5345SOL    HW116934   3.397   6.719   0.478
 5345SOL    HW216935   3.287   6.634   0.563
 5346SOL     OW16936   3.254   5.796   4.550
 5346SOL    HW116937   3.335   5.835   4.506
 5346SOL    HW216938   3.253   5.822   4.646
 5347SOL     OW16939   6.825   2.887   1.596
 5347SOL    HW116940   6.899   2.893   1.664
 5347SOL    HW216941   6.865   2.889   1.505
 5348SOL     OW16942   6.733   1.951   1.138
 5348SOL    HW116943   6.827   1.949   1.171
 5348SOL    HW216944   6.674   1.995   1.207
 5349SOL     OW16945   1.834   2.815   0.360
 5349SOL    HW116946   1.884   2.729   0.347
 5349SOL    HW216947   1.857   2.878   0.285
 5350SOL     OW16948   1.672   6.936   5.449
 5350SOL    HW116949   1.766   6.922   5.419
 5350SOL    HW216950   1.651   6.873   5.524
 5351SOL     OW16951   6.598   4.973   2.123
 5351SOL    HW116952   6.574   5.050   2.063
 5351SOL    HW216953   6.571   4.887   2.080
 5352SOL     OW16954   2.302   5.033   3.252
 5352SOL    HW116955   2.325   4.941   3.286
 5352SOL    HW216956   2.213   5.061   3.289
 5353SOL     OW16957   3.879   4.869   4.429
 5353SOL    HW116958   3.820   4.816   4.490
 5353SOL    HW216959   3.874   4.965   4.454
 5354SOL     OW16960   2.476   5.158   1.994
 5354SOL    HW116961   2.449   5.080   2.050
 5354SOL    HW216962   2.502   5.234   2.053
 5355SOL     OW16963   6.832   4.137   4.272
 5355SOL    HW116964   6.825   4.126   4.371
 5355SOL    HW216965   6.817   4.048   4.228
 5356SOL     OW16966   5.894   4.647   2.407
 5356SOL    HW116967   5.927   4.581   2.475
 5356SOL    HW216968   5.968   4.709   2.382
 5357SOL     OW16969   3.206   5.966   0.416
 5357SOL    HW116970   3.215   5.882   0.361
 5357SOL    HW216971   3.277   5.968   0.486
 5358SOL     OW16972   4.808   1.370   6.823
 5358SOL    HW116973   4.756   1.291   6.789
 5358SOL    HW216974   4.885   1.338   6.878
 5359SOL     OW16975   1.176   1.339   5.398
 5359SOL    HW116976   1.216   1.410   5.339
 5359SOL    HW216977   1.125   1.383   5.472
 5360SOL     OW16978   3.939   6.186   4.355
 5360SOL    HW116979   3.884   6.149   4.431
 5360SOL    HW216980   3.965   6.280   4.374
 5361SOL     OW16981   2.508   0.861   5.289
 5361SOL    HW116982   2.474   0.878   5.381
 5361SOL    HW216983   2.572   0.934   5.264
 5362SOL     OW16984   6.870   6.376   3.140
 5362SOL    HW116985   6.849   6.353   3.045
 5362SOL    HW216986   6.965   6.407   3.147
 5363SOL     OW16987   6.962   0.259   5.828
 5363SOL    HW116988   0.037   0.268   5.794
 5363SOL    HW216989   6.913   0.190   5.774
 5364SOL     OW16990   6.668   6.454   2.575
 5364SOL    HW116991   6.656   6.532   2.513
 5364SOL    HW216992   6.762   6.456   2.612
 5365SOL     OW16993   3.810   2.688   0.286
 5365SOL    HW116994   3.813   2.769   0.227
 5365SOL    HW216995   3.896   2.637   0.278
 5366SOL     OW16996   5.679   5.996   1.457
 5366SOL    HW116997   5.682   6.060   1.533
 5366SOL    HW216998   5.771   5.981   1.422
 5367SOL     OW16999   0.638   6.678   0.900
 5367SOL    HW117000   0.713   6.614   0.882
 5367SOL    HW217001   0.564   6.662   0.835
 5368SOL     OW17002   5.887   0.510   2.591
 5368SOL    HW117003   5.816   0.559   2.643
 5368SOL    HW217004   5.870   0.412   2.597
 5369SOL     OW17005   2.793   6.768   1.354
 5369SOL    HW117006   2.746   6.685   1.385
 5369SOL    HW217007   2.864   6.793   1.421
 5370SOL     OW17008   4.571   2.418   1.596
 5370SOL    HW117009   4.501   2.347   1.607
 5370SOL    HW217010   4.578   2.471   1.681
 5371SOL     OW17011   0.667   3.729   5.046
 5371SOL    HW117012   0.670   3.736   4.947
 5371SOL    HW217013   0.631   3.814   5.085
 5372SOL     OW17014   1.830   6.250   3.270
 5372SOL    HW117015   1.824   6.255   3.370
 5372SOL    HW217016   1.884   6.169   3.244
 5373SOL     OW17017   3.842   6.816   4.396
 5373SOL    HW117018   3.824   6.722   4.366
 5373SOL    HW217019   3.940   6.831   4.402
 5374SOL     OW17020   1.896   4.297   0.443
 5374SOL    HW117021   1.928   4.214   0.488
 5374SOL    HW217022   1.975   4.353   0.416
 5375SOL     OW17023   0.950   5.328   4.284
 5375SOL    HW117024   0.904   5.260   4.341
 5375SOL    HW217025   0.889   5.407   4.271
 5376SOL     OW17026   1.729   2.846   0.937
 5376SOL    HW117027   1.669   2.830   1.016
 5376SOL    HW217028   1.824   2.836   0.964
 5377SOL     OW17029   6.621   6.695   2.396
 5377SOL    HW117030   6.712   6.677   2.361
 5377SOL    HW217031   6.577   6.767   2.342
 5378SOL     OW17032   6.959   0.511   2.236
 5378SOL    HW117033   6.902   0.592   2.229
 5378SOL    HW217034   0.002   0.520   2.314
 5379SOL     OW17035   1.286   4.733   4.863
 5379SOL    HW117036   1.317   4.751   4.769
 5379SOL    HW217037   1.239   4.814   4.898
 5380SOL     OW17038   2.705   1.400   2.489
 5380SOL    HW117039   2.734   1.304   2.497
 5380SOL    HW217040   2.704   1.426   2.392
 5381SOL     OW17041   6.451   4.699   2.152
 5381SOL    HW117042   6.381   4.678   2.221
 5381SOL    HW217043   6.477   4.614   2.105
 5382SOL     OW17044   2.750   1.255   1.681
 5382SOL    HW117045   2.829   1.259   1.620
 5382SOL    HW217046   2.781   1.241   1.775
 5383SOL     OW17047   2.093   2.252   5.088
 5383SOL    HW117048   2.133   2.182   5.147
 5383SOL    HW217049   2.141   2.339   5.102
 5384SOL     OW17050   6.325   6.624   5.622
 5384SOL    HW117051   6.283   6.596   5.535
 5384SOL    HW217052   6.347   6.721   5.618
 5385SOL     OW17053   3.318   3.224   4.240
 5385SOL    HW117054   3.258   3.301   4.262
 5385SOL    HW217055   3.267   3.158   4.184
 5386SOL     OW17056   5.172   1.707   4.373
 5386SOL    HW117057   5.130   1.714   4.463
 5386SOL    HW217058   5.215   1.794   4.349
 5387SOL     OW17059   2.300   0.336   3.571
 5387SOL    HW117060   2.338   0.258   3.620
 5387SOL    HW217061   2.288   0.313   3.475
 5388SOL     OW17062   0.210   1.903   4.092
 5388SOL    HW117063   0.184   1.903   3.996
 5388SOL    HW217064   0.213   1.809   4.126
 5389SOL     OW17065   4.118   1.065   3.641
 5389SOL    HW117066   4.164   1.069   3.730
 5389SOL    HW217067   4.168   1.003   3.581
 5390SOL     OW17068   4.930   3.793   3.672
 5390SOL    HW117069   5.016   3.743   3.679
 5390SOL    HW217070   4.895   3.785   3.579
 5391SOL     OW17071   2.306   1.903   0.934
 5391SOL    HW117072   2.265   1.980   0.983
 5391SOL    HW217073   2.401   1.891   0.965
 5392SOL     OW17074   5.068   3.388   1.358
 5392SOL    HW117075   4.999   3.332   1.403
 5392SOL    HW217076   5.051   3.485   1.377
 5393SOL     OW17077   4.708   6.882   5.528
 5393SOL    HW117078   4.652   6.830   5.464
 5393SOL    HW217079   4.713   6.977   5.500
 5394SOL     OW17080   0.300   5.286   0.513
 5394SOL    HW117081   0.320   5.302   0.609
 5394SOL    HW217082   0.221   5.224   0.505
 5395SOL     OW17083   4.143   0.803   1.336
 5395SOL    HW117084   4.073   0.763   1.396
 5395SOL    HW217085   4.104   0.816   1.245
 5396SOL     OW17086   5.322   4.108   1.734
 5396SOL    HW117087   5.300   4.171   1.809
 5396SOL    HW217088   5.415   4.127   1.702
 5397SOL     OW17089   0.372   2.939   1.266
 5397SOL    HW117090   0.294   2.889   1.230
 5397SOL    HW217091   0.456   2.888   1.246
 5398SOL     OW17092   3.724   1.887   3.108
 5398SOL    HW117093   3.685   1.915   3.196
 5398SOL    HW217094   3.747   1.790   3.112
 5399SOL     OW17095   2.852   6.078   1.221
 5399SOL    HW117096   2.778   6.076   1.288
 5399SOL    HW217097   2.934   6.116   1.263
 5400SOL     OW17098   3.169   3.504   6.800
 5400SOL    HW117099   3.185   3.587   6.853
 5400SOL    HW217100   3.083   3.461   6.829
 5401SOL     OW17101   5.896   3.858   1.565
 5401SOL    HW117102   5.939   3.830   1.480
 5401SOL    HW217103   5.816   3.801   1.583
 5402SOL     OW17104   2.598   5.542   1.981
 5402SOL    HW117105   2.576   5.451   2.018
 5402SOL    HW217106   2.515   5.596   1.973
 5403SOL     OW17107   5.731   2.400   6.009
 5403SOL    HW117108   5.666   2.411   5.934
 5403SOL    HW217109   5.701   2.453   6.088
 5404SOL     OW17110   0.796   0.425   2.450
 5404SOL    HW117111   0.852   0.354   2.494
 5404SOL    HW217112   0.827   0.437   2.355
 5405SOL     OW17113   6.077   6.123   0.212
 5405SOL    HW117114   6.176   6.110   0.219
 5405SOL    HW217115   6.033   6.034   0.201
 5406SOL     OW17116   2.225   0.189   5.792
 5406SOL    HW117117   2.278   0.200   5.708
 5406SOL    HW217118   2.219   0.091   5.813
 5407SOL     OW17119   3.873   1.788   1.510
 5407SOL    HW117120   3.827   1.757   1.427
 5407SOL    HW217121   3.955   1.841   1.486
 5408SOL     OW17122   3.324   1.036   5.155
 5408SOL    HW117123   3.260   1.007   5.084
 5408SOL    HW217124   3.307   0.985   5.239
 5409SOL     OW17125   6.866   1.546   3.531
 5409SOL    HW117126   6.810   1.610   3.480
 5409SOL    HW217127   6.810   1.468   3.559
 5410SOL     OW17128   1.045   3.038   6.914
 5410SOL    HW117129   1.090   2.959   6.872
 5410SOL    HW217130   1.089   3.122   6.881
 5411SOL     OW17131   6.226   4.838   5.079
 5411SOL    HW117132   6.200   4.746   5.108
 5411SOL    HW217133   6.243   4.895   5.159
 5412SOL     OW17134   3.797   0.773   6.977
 5412SOL    HW117135   3.717   0.830   6.993
 5412SOL    HW217136   3.867   0.795   0.027
 5413SOL     OW17137   0.692   0.277   1.463
 5413SOL    HW117138   0.719   0.184   1.489
 5413SOL    HW217139   0.722   0.341   1.533
 5414SOL     OW17140   6.973   3.233   5.488
 5414SOL    HW117141   0.028   3.179   5.448
 5414SOL    HW217142   6.916   3.271   5.415
 5415SOL     OW17143   1.134   6.179   1.737
 5415SOL    HW117144   1.108   6.222   1.823
 5415SOL    HW217145   1.222   6.132   1.748
 5416SOL     OW17146   3.558   4.952   6.385
 5416SOL    HW117147   3.580   4.972   6.290
 5416SOL    HW217148   3.639   4.916   6.431
 5417SOL     OW17149   4.466   0.051   4.431
 5417SOL    HW117150   4.528   0.102   4.371
 5417SOL    HW217151   4.395   0.007   4.376
 5418SOL     OW17152   5.377   0.791   4.191
 5418SOL    HW117153   5.476   0.806   4.201
 5418SOL    HW217154   5.329   0.836   4.266
 5419SOL     OW17155   2.929   5.563   0.485
 5419SOL    HW117156   2.928   5.636   0.416
 5419SOL    HW217157   3.023   5.546   0.513
 5420SOL     OW17158   1.842   2.876   1.791
 5420SOL    HW117159   1.900   2.957   1.779
 5420SOL    HW217160   1.884   2.797   1.747
 5421SOL     OW17161   2.445   4.404   3.317
 5421SOL    HW117162   2.427   4.459   3.236
 5421SOL    HW217163   2.396   4.317   3.311
 5422SOL     OW17164   1.315   5.959   5.619
 5422SOL    HW117165   1.290   5.987   5.712
 5422SOL    HW217166   1.385   6.020   5.584
 5423SOL     OW17167   5.416   3.490   6.575
 5423SOL    HW117168   5.487   3.517   6.641
 5423SOL    HW217169   5.341   3.556   6.579
 5424SOL     OW17170   6.075   3.440   4.334
 5424SOL    HW117171   6.097   3.526   4.381
 5424SOL    HW217172   5.991   3.451   4.281
 5425SOL     OW17173   5.380   1.542   4.282
 5425SOL    HW117174   5.350   1.449   4.262
 5425SOL    HW217175   5.304   1.594   4.320
 5426SOL     OW17176   6.401   5.185   3.973
 5426SOL    HW117177   6.419   5.277   3.938
 5426SOL    HW217178   6.453   5.118   3.920
 5427SOL     OW17179   5.160   5.085   0.915
 5427SOL    HW117180   5.224   5.053   0.985
 5427SOL    HW217181   5.103   5.158   0.953
 5428SOL     OW17182   6.336   0.010   2.337
 5428SOL    HW117183   6.260   6.970   2.366
 5428SOL    HW217184   6.302   0.080   2.275
 5429SOL     OW17185   1.523   0.699   5.134
 5429SOL    HW117186   1.458   0.757   5.184
 5429SOL    HW217187   1.605   0.685   5.189
 5430SOL     OW17188   2.452   2.589   5.913
 5430SOL    HW117189   2.524   2.574   5.981
 5430SOL    HW217190   2.368   2.617   5.961
 5431SOL     OW17191   3.473   5.104   6.942
 5431SOL    HW117192   3.437   5.061   0.006
 5431SOL    HW217193   3.502   5.033   6.878
 5432SOL     OW17194   3.852   6.115   5.675
 5432SOL    HW117195   3.895   6.151   5.758
 5432SOL    HW217196   3.776   6.056   5.701
 5433SOL     OW17197   0.286   1.649   2.504
 5433SOL    HW117198   0.313   1.631   2.409
 5433SOL    HW217199   0.262   1.562   2.548
 5434SOL     OW17200   4.452   1.508   4.948
 5434SOL    HW117201   4.388   1.500   4.872
 5434SOL    HW217202   4.504   1.594   4.938
 5435SOL     OW17203   6.155   2.012   1.192
 5435SOL    HW117204   6.116   2.102   1.171
 5435SOL    HW217205   6.255   2.019   1.193
 5436SOL     OW17206   5.475   4.478   4.573
 5436SOL    HW117207   5.382   4.475   4.535
 5436SOL    HW217208   5.518   4.389   4.563
 5437SOL     OW17209   2.623   5.236   5.360
 5437SOL    HW117210   2.697   5.193   5.413
 5437SOL    HW217211   2.619   5.334   5.382
 5438SOL     OW17212   5.990   3.877   2.721
 5438SOL    HW117213   5.916   3.940   2.743
 5438SOL    HW217214   5.954   3.783   2.718
 5439SOL     OW17215   6.893   2.067   0.379
 5439SOL    HW117216   6.888   2.137   0.451
 5439SOL    HW217217   6.854   2.104   0.294
 5440SOL     OW17218   6.907   0.156   3.066
 5440SOL    HW117219   6.959   0.079   3.103
 5440SOL    HW217220   6.827   0.173   3.123
 5441SOL     OW17221   4.843   2.747   3.698
 5441SOL    HW117222   4.760   2.737   3.643
 5441SOL    HW217223   4.845   2.677   3.768
 5442SOL     OW17224   3.112   6.777   3.466
 5442SOL    HW117225   3.038   6.714   3.489
 5442SOL    HW217226   3.163   6.801   3.548
 5443SOL     OW17227   3.027   5.959   3.997
 5443SOL    HW117228   3.069   5.873   4.025
 5443SOL    HW217229   3.095   6.014   3.947
 5444SOL     OW17230   0.437   1.106   3.003
 5444SOL    HW117231   0.522   1.068   2.967
 5444SOL    HW217232   0.420   1.070   3.095
 5445SOL     OW17233   6.481   4.122   3.802
 5445SOL    HW117234   6.551   4.155   3.740
 5445SOL    HW217235   6.476   4.023   3.798
 5446SOL     OW17236   5.676   5.151   4.625
 5446SOL    HW117237   5.599   5.184   4.571
 5446SOL    HW217238   5.719   5.227   4.673
 5447SOL     OW17239   1.137   2.085   0.897
 5447SOL    HW117240   1.202   2.156   0.926
 5447SOL    HW217241   1.168   1.996   0.930
 5448SOL     OW17242   6.208   4.250   4.482
 5448SOL    HW117243   6.189   4.295   4.395
 5448SOL    HW217244   6.134   4.187   4.505
 5449SOL     OW17245   1.498   1.553   0.734
 5449SOL    HW117246   1.582   1.607   0.738
 5449SOL    HW217247   1.519   1.462   0.698
 5450SOL     OW17248   2.586   6.945   1.354
 5450SOL    HW117249   2.663   6.881   1.345
 5450SOL    HW217250   2.595   7.017   1.286
 5451SOL     OW17251   1.978   5.752   3.402
 5451SOL    HW117252   1.994   5.653   3.393
 5451SOL    HW217253   1.922   5.769   3.484
 5452SOL     OW17254   2.611   4.215   0.480
 5452SOL    HW117255   2.537   4.149   0.473
 5452SOL    HW217256   2.693   4.169   0.514
 5453SOL     OW17257   5.525   4.182   1.250
 5453SOL    HW117258   5.520   4.273   1.292
 5453SOL    HW217259   5.590   4.183   1.174
 5454SOL     OW17260   5.857   5.017   5.289
 5454SOL    HW117261   5.921   4.947   5.323
 5454SOL    HW217262   5.859   5.096   5.351
 5455SOL     OW17263   6.710   2.543   2.559
 5455SOL    HW117264   6.802   2.505   2.574
 5455SOL    HW217265   6.644   2.493   2.616
 5456SOL     OW17266   2.629   0.184   0.366
 5456SOL    HW117267   2.599   0.122   0.294
 5456SOL    HW217268   2.567   0.178   0.444
 5457SOL     OW17269   0.055   2.277   1.280
 5457SOL    HW117270   6.981   2.250   1.306
 5457SOL    HW217271   0.086   2.353   1.338
 5458SOL     OW17272   0.516   4.993   0.603
 5458SOL    HW117273   0.472   4.922   0.658
 5458SOL    HW217274   0.587   4.951   0.546
 5459SOL     OW17275   2.946   3.328   6.853
 5459SOL    HW117276   2.919   3.280   6.769
 5459SOL    HW217277   2.988   3.263   6.916
 5460SOL     OW17278   4.072   6.705   3.086
 5460SOL    HW117279   4.079   6.610   3.056
 5460SOL    HW217280   3.989   6.716   3.142
 5461SOL     OW17281   0.550   0.442   5.899
 5461SOL    HW117282   0.527   0.514   5.965
 5461SOL    HW217283   0.486   0.367   5.909
 5462SOL     OW17284   6.388   6.810   1.287
 5462SOL    HW117285   6.304   6.778   1.243
 5462SOL    HW217286   6.435   6.874   1.226
 5463SOL     OW17287   0.153   1.533   6.801
 5463SOL    HW117288   0.110   1.482   6.875
 5463SOL    HW217289   0.133   1.489   6.713
 5464SOL     OW17290   6.862   0.608   4.733
 5464SOL    HW117291   6.840   0.565   4.645
 5464SOL    HW217292   6.942   0.564   4.773
 5465SOL     OW17293   4.881   1.171   4.691
 5465SOL    HW117294   4.931   1.084   4.686
 5465SOL    HW217295   4.878   1.202   4.787
 5466SOL     OW17296   5.498   2.969   4.963
 5466SOL    HW117297   5.451   2.923   5.038
 5466SOL    HW217298   5.577   2.915   4.935
 5467SOL     OW17299   4.735   4.014   3.467
 5467SOL    HW117300   4.773   3.932   3.425
 5467SOL    HW217301   4.784   4.036   3.551
 5468SOL     OW17302   6.585   2.484   4.017
 5468SOL    HW117303   6.549   2.508   4.107
 5468SOL    HW217304   6.598   2.568   3.963
 5469SOL     OW17305   3.041   6.376   5.499
 5469SOL    HW117306   3.133   6.388   5.462
 5469SOL    HW217307   3.026   6.442   5.572
 5470SOL     OW17308   3.867   5.247   2.980
 5470SOL    HW117309   3.852   5.217   3.074
 5470SOL    HW217310   3.956   5.291   2.973
 5471SOL     OW17311   5.933   6.853   3.223
 5471SOL    HW117312   5.937   6.947   3.189
 5471SOL    HW217313   5.837   6.823   3.225
 5472SOL     OW17314   2.282   4.104   6.847
 5472SOL    HW117315   2.187   4.134   6.846
 5472SOL    HW217316   2.286   4.005   6.839
 5473SOL     OW17317   1.235   3.584   2.001
 5473SOL    HW117318   1.315   3.524   1.995
 5473SOL    HW217319   1.156   3.537   1.962
 5474SOL     OW17320   0.963   4.410   3.916
 5474SOL    HW117321   0.936   4.335   3.854
 5474SOL    HW217322   1.014   4.373   3.993
 5475SOL     OW17323   2.372   2.745   0.909
 5475SOL    HW117324   2.287   2.695   0.926
 5475SOL    HW217325   2.387   2.754   0.810
 5476SOL     OW17326   2.650   4.362   5.412
 5476SOL    HW117327   2.603   4.284   5.453
 5476SOL    HW217328   2.615   4.376   5.319
 5477SOL     OW17329   2.330   4.706   2.309
 5477SOL    HW117330   2.239   4.697   2.268
 5477SOL    HW217331   2.388   4.630   2.280
 5478SOL     OW17332   2.757   6.261   4.209
 5478SOL    HW117333   2.732   6.298   4.120
 5478SOL    HW217334   2.830   6.193   4.198
 5479SOL     OW17335   5.482   1.008   6.464
 5479SOL    HW117336   5.446   1.101   6.461
 5479SOL    HW217337   5.582   1.010   6.453
 5480SOL     OW17338   5.529   5.531   4.510
 5480SOL    HW117339   5.512   5.444   4.464
 5480SOL    HW217340   5.537   5.604   4.441
 5481SOL     OW17341   4.711   1.470   4.699
 5481SOL    HW117342   4.776   1.489   4.773
 5481SOL    HW217343   4.664   1.384   4.717
 5482SOL     OW17344   3.585   4.321   1.768
 5482SOL    HW117345   3.596   4.417   1.796
 5482SOL    HW217346   3.611   4.311   1.672
 5483SOL     OW17347   6.863   2.192   5.369
 5483SOL    HW117348   6.852   2.292   5.367
 5483SOL    HW217349   6.928   2.167   5.441
 5484SOL     OW17350   4.268   1.048   3.886
 5484SOL    HW117351   4.218   1.036   3.971
 5484SOL    HW217352   4.352   1.099   3.903
 5485SOL     OW17353   4.069   0.330   4.571
 5485SOL    HW117354   4.007   0.297   4.500
 5485SOL    HW217355   4.164   0.312   4.544
 5486SOL     OW17356   2.556   6.317   5.210
 5486SOL    HW117357   2.603   6.350   5.291
 5486SOL    HW217358   2.622   6.281   5.145
 5487SOL     OW17359   5.482   2.833   6.712
 5487SOL    HW117360   5.494   2.932   6.699
 5487SOL    HW217361   5.557   2.797   6.767
 5488SOL     OW17362   6.129   0.268   1.437
 5488SOL    HW117363   6.204   0.312   1.484
 5488SOL    HW217364   6.048   0.266   1.496
 5489SOL     OW17365   0.198   4.190   1.883
 5489SOL    HW117366   0.249   4.272   1.909
 5489SOL    HW217367   0.215   4.117   1.950
 5490SOL     OW17368   3.088   0.458   1.752
 5490SOL    HW117369   3.154   0.418   1.816
 5490SOL    HW217370   3.095   0.411   1.664
 5491SOL     OW17371   0.915   4.243   0.723
 5491SOL    HW117372   1.014   4.253   0.730
 5491SOL    HW217373   0.892   4.148   0.706
 5492SOL     OW17374   0.447   3.593   6.319
 5492SOL    HW117375   0.507   3.661   6.362
 5492SOL    HW217376   0.363   3.584   6.372
 5493SOL     OW17377   3.008   3.891   4.205
 5493SOL    HW117378   3.035   3.911   4.299
 5493SOL    HW217379   2.964   3.971   4.165
 5494SOL     OW17380   0.728   3.337   6.029
 5494SOL    HW117381   0.786   3.257   6.023
 5494SOL    HW217382   0.646   3.315   6.082
 5495SOL     OW17383   4.491   1.195   1.128
 5495SOL    HW117384   4.434   1.269   1.163
 5495SOL    HW217385   4.451   1.107   1.152
 5496SOL     OW17386   3.997   0.814   3.277
 5496SOL    HW117387   3.938   0.886   3.239
 5496SOL    HW217388   3.947   0.727   3.279
 5497SOL     OW17389   0.056   1.106   4.853
 5497SOL    HW117390   0.112   1.025   4.836
 5497SOL    HW217391   0.114   1.179   4.890
 5498SOL     OW17392   6.418   6.240   1.013
 5498SOL    HW117393   6.336   6.292   0.990
 5498SOL    HW217394   6.392   6.158   1.065
 5499SOL     OW17395   0.309   0.723   4.717
 5499SOL    HW117396   0.242   0.649   4.728
 5499SOL    HW217397   0.400   0.690   4.743
 5500SOL     OW17398   1.066   0.370   0.363
 5500SOL    HW117399   1.081   0.410   0.272
 5500SOL    HW217400   0.989   0.306   0.359
 5501SOL     OW17401   3.187   1.741   0.105
 5501SOL    HW117402   3.215   1.662   0.050
 5501SOL    HW217403   3.228   1.735   0.196
 5502SOL     OW17404   4.928   3.645   0.073
 5502SOL    HW117405   5.019   3.630   0.112
 5502SOL    HW217406   4.861   3.589   0.121
 5503SOL     OW17407   6.928   4.265   1.791
 5503SOL    HW117408   6.905   4.217   1.705
 5503SOL    HW217409   6.988   4.342   1.771
 5504SOL     OW17410   4.786   1.488   5.563
 5504SOL    HW117411   4.724   1.566   5.571
 5504SOL    HW217412   4.733   1.406   5.539
 5505SOL     OW17413   2.180   5.241   4.454
 5505SOL    HW117414   2.199   5.325   4.403
 5505SOL    HW217415   2.141   5.173   4.393
 5506SOL     OW17416   0.469   3.607   0.706
 5506SOL    HW117417   0.458   3.509   0.696
 5506SOL    HW217418   0.532   3.641   0.636
 5507SOL     OW17419   4.292   1.198   4.326
 5507SOL    HW117420   4.375   1.193   4.270
 5507SOL    HW217421   4.291   1.122   4.391
 5508SOL     OW17422   1.057   1.285   0.225
 5508SOL    HW117423   1.092   1.203   0.271
 5508SOL    HW217424   0.975   1.317   0.272
 5509SOL     OW17425   0.455   6.257   6.692
 5509SOL    HW117426   0.400   6.335   6.664
 5509SOL    HW217427   0.478   6.202   6.612
 5510SOL     OW17428   4.443   5.649   0.442
 5510SOL    HW117429   4.477   5.683   0.529
 5510SOL    HW217430   4.501   5.682   0.368
 5511SOL     OW17431   1.446   0.964   3.524
 5511SOL    HW117432   1.490   0.945   3.612
 5511SOL    HW217433   1.428   0.878   3.476
 5512SOL     OW17434   5.082   2.321   0.961
 5512SOL    HW117435   5.000   2.310   0.904
 5512SOL    HW217436   5.110   2.233   0.997
 5513SOL     OW17437   3.752   4.590   6.078
 5513SOL    HW117438   3.731   4.503   6.033
 5513SOL    HW217439   3.850   4.596   6.094
 5514SOL     OW17440   3.925   0.365   4.293
 5514SOL    HW117441   3.905   0.425   4.371
 5514SOL    HW217442   3.840   0.323   4.261
 5515SOL     OW17443   0.610   5.817   2.156
 5515SOL    HW117444   0.656   5.897   2.117
 5515SOL    HW217445   0.655   5.734   2.124
 5516SOL     OW17446   1.820   3.660   6.041
 5516SOL    HW117447   1.778   3.605   5.969
 5516SOL    HW217448   1.779   3.752   6.041
 5517SOL     OW17449   2.050   3.268   1.966
 5517SOL    HW117450   1.974   3.270   2.030
 5517SOL    HW217451   2.095   3.357   1.965
 5518SOL     OW17452   5.983   6.256   7.002
 5518SOL    HW117453   6.041   6.216   0.053
 5518SOL    HW217454   6.038   6.276   6.921
 5519SOL     OW17455   5.588   3.806   3.153
 5519SOL    HW117456   5.580   3.857   3.239
 5519SOL    HW217457   5.676   3.760   3.150
 5520SOL     OW17458   6.156   6.796   2.355
 5520SOL    HW117459   6.201   6.710   2.330
 5520SOL    HW217460   6.063   6.797   2.319
 5521SOL     OW17461   5.243   6.565   2.224
 5521SOL    HW117462   5.340   6.540   2.216
 5521SOL    HW217463   5.236   6.661   2.250
 5522SOL     OW17464   5.815   5.248   0.681
 5522SOL    HW117465   5.816   5.286   0.773
 5522SOL    HW217466   5.805   5.321   0.614
 5523SOL     OW17467   3.820   1.288   1.900
 5523SOL    HW117468   3.852   1.345   1.976
 5523SOL    HW217469   3.724   1.309   1.880
 5524SOL     OW17470   4.651   0.527   4.192
 5524SOL    HW117471   4.564   0.575   4.208
 5524SOL    HW217472   4.707   0.531   4.274
 5525SOL     OW17473   0.134   2.159   0.326
 5525SOL    HW117474   0.045   2.119   0.348
 5525SOL    HW217475   0.185   2.095   0.268
 5526SOL     OW17476   4.668   5.362   3.173
 5526SOL    HW117477   4.750   5.408   3.138
 5526SOL    HW217478   4.604   5.346   3.098
 5527SOL     OW17479   4.920   3.249   4.074
 5527SOL    HW117480   4.909   3.178   4.004
 5527SOL    HW217481   4.923   3.205   4.164
 5528SOL     OW17482   1.102   0.800   0.359
 5528SOL    HW117483   1.014   0.766   0.394
 5528SOL    HW217484   1.112   0.774   0.263
 5529SOL     OW17485   3.889   6.950   4.127
 5529SOL    HW117486   3.858   6.925   4.218
 5529SOL    HW217487   3.983   6.920   4.114
 5530SOL     OW17488   5.476   2.132   0.970
 5530SOL    HW117489   5.505   2.053   0.916
 5530SOL    HW217490   5.409   2.102   1.039
 5531SOL     OW17491   3.732   3.583   1.963
 5531SOL    HW117492   3.809   3.616   1.907
 5531SOL    HW217493   3.741   3.617   2.056
 5532SOL     OW17494   0.935   3.472   0.994
 5532SOL    HW117495   1.017   3.462   1.049
 5532SOL    HW217496   0.922   3.390   0.938
 5533SOL     OW17497   4.021   2.164   2.898
 5533SOL    HW117498   4.043   2.067   2.911
 5533SOL    HW217499   3.932   2.183   2.938
 5534SOL     OW17500   0.746   1.651   6.593
 5534SOL    HW117501   0.787   1.587   6.528
 5534SOL    HW217502   0.658   1.683   6.557
 5535SOL     OW17503   0.351   2.289   3.638
 5535SOL    HW117504   0.409   2.335   3.571
 5535SOL    HW217505   0.409   2.238   3.702
 5536SOL     OW17506   3.537   1.243   3.907
 5536SOL    HW117507   3.532   1.336   3.943
 5536SOL    HW217508   3.445   1.205   3.899
 5537SOL     OW17509   2.637   1.204   2.137
 5537SOL    HW117510   2.624   1.268   2.212
 5537SOL    HW217511   2.584   1.121   2.154
 5538SOL     OW17512   2.625   5.525   5.382
 5538SOL    HW117513   2.718   5.525   5.344
 5538SOL    HW217514   2.587   5.617   5.374
 5539SOL     OW17515   1.025   3.729   1.588
 5539SOL    HW117516   0.944   3.784   1.609
 5539SOL    HW217517   1.101   3.757   1.646
 5540SOL     OW17518   4.546   4.430   4.119
 5540SOL    HW117519   4.619   4.466   4.061
 5540SOL    HW217520   4.482   4.377   4.064
 5541SOL     OW17521   5.286   6.801   6.355
 5541SOL    HW117522   5.303   6.786   6.258
 5541SOL    HW217523   5.187   6.806   6.371
 5542SOL     OW17524   4.665   3.553   6.078
 5542SOL    HW117525   4.754   3.599   6.080
 5542SOL    HW217526   4.605   3.593   6.147
 5543SOL     OW17527   3.432   4.108   6.302
 5543SOL    HW117528   3.405   4.022   6.259
 5543SOL    HW217529   3.482   4.163   6.236
 5544SOL     OW17530   5.204   5.489   0.162
 5544SOL    HW117531   5.196   5.430   0.242
 5544SOL    HW217532   5.153   5.573   0.177
 5545SOL     OW17533   4.805   1.228   2.241
 5545SOL    HW117534   4.789   1.170   2.321
 5545SOL    HW217535   4.726   1.287   2.226
 5546SOL     OW17536   0.534   4.403   4.331
 5546SOL    HW117537   0.525   4.503   4.328
 5546SOL    HW217538   0.594   4.377   4.407
 5547SOL     OW17539   2.938   6.867   4.980
 5547SOL    HW117540   3.007   6.939   4.976
 5547SOL    HW217541   2.974   6.789   5.030
 5548SOL     OW17542   6.211   2.266   5.636
 5548SOL    HW117543   6.230   2.168   5.624
 5548SOL    HW217544   6.151   2.279   5.714
 5549SOL     OW17545   4.920   5.040   6.719
 5549SOL    HW117546   4.964   5.075   6.636
 5549SOL    HW217547   4.983   5.048   6.796
 5550SOL     OW17548   3.144   5.272   2.564
 5550SOL    HW117549   3.244   5.270   2.565
 5550SOL    HW217550   3.109   5.193   2.514
 5551SOL     OW17551   2.295   0.764   2.525
 5551SOL    HW117552   2.256   0.804   2.442
 5551SOL    HW217553   2.224   0.752   2.594
 5552SOL     OW17554   6.784   0.675   6.888
 5552SOL    HW117555   6.785   0.723   6.976
 5552SOL    HW217556   6.714   0.603   6.890
 5553SOL     OW17557   3.741   6.730   0.277
 5553SOL    HW117558   3.698   6.662   0.337
 5553SOL    HW217559   3.734   6.701   0.182
 5554SOL     OW17560   3.147   1.794   5.175
 5554SOL    HW117561   3.149   1.749   5.086
 5554SOL    HW217562   3.129   1.892   5.163
 5555SOL     OW17563   0.481   4.452   3.896
 5555SOL    HW117564   0.494   4.395   3.976
 5555SOL    HW217565   0.394   4.501   3.903
 5556SOL     OW17566   0.148   2.482   4.173
 5556SOL    HW117567   0.127   2.432   4.257
 5556SOL    HW217568   0.246   2.501   4.169
 5557SOL     OW17569   3.782   4.905   3.108
 5557SOL    HW117570   3.766   4.895   3.010
 5557SOL    HW217571   3.818   4.996   3.128
 5558SOL     OW17572   5.032   3.337   6.027
 5558SOL    HW117573   5.111   3.297   5.982
 5558SOL    HW217574   4.969   3.265   6.056
 5559SOL     OW17575   2.536   6.901   2.437
 5559SOL    HW117576   2.617   6.892   2.379
 5559SOL    HW217577   2.563   6.924   2.530
 5560SOL     OW17578   0.479   6.682   3.580
 5560SOL    HW117579   0.379   6.691   3.584
 5560SOL    HW217580   0.517   6.761   3.532
 5561SOL     OW17581   2.414   1.555   4.134
 5561SOL    HW117582   2.336   1.588   4.080
 5561SOL    HW217583   2.490   1.619   4.126
 5562SOL     OW17584   2.192   2.571   0.041
 5562SOL    HW117585   2.273   2.611   0.086
 5562SOL    HW217586   2.220   2.495   7.002
 5563SOL     OW17587   4.803   6.425   2.288
 5563SOL    HW117588   4.762   6.397   2.201
 5563SOL    HW217589   4.768   6.366   2.361
 5564SOL     OW17590   4.827   2.073   1.309
 5564SOL    HW117591   4.901   2.105   1.369
 5564SOL    HW217592   4.769   2.009   1.359
 5565SOL     OW17593   4.591   1.498   5.959
 5565SOL    HW117594   4.577   1.563   6.034
 5565SOL    HW217595   4.519   1.510   5.890
 5566SOL     OW17596   1.797   5.547   1.092
 5566SOL    HW117597   1.792   5.447   1.090
 5566SOL    HW217598   1.835   5.579   1.005
 5567SOL     OW17599   0.863   4.719   1.251
 5567SOL    HW117600   0.767   4.727   1.277
 5567SOL    HW217601   0.912   4.804   1.273
 5568SOL     OW17602   5.115   2.567   2.374
 5568SOL    HW117603   5.168   2.482   2.364
 5568SOL    HW217604   5.084   2.576   2.468
 5569SOL     OW17605   3.645   1.854   1.662
 5569SOL    HW117606   3.573   1.888   1.602
 5569SOL    HW217607   3.734   1.869   1.619
 5570SOL     OW17608   6.035   4.516   4.597
 5570SOL    HW117609   5.967   4.496   4.667
 5570SOL    HW217610   6.122   4.471   4.620
 5571SOL     OW17611   0.149   6.649   6.931
 5571SOL    HW117612   0.155   6.575   6.998
 5571SOL    HW217613   0.187   6.732   6.970
 5572SOL     OW17614   2.268   3.034   6.251
 5572SOL    HW117615   2.305   2.944   6.224
 5572SOL    HW217616   2.212   3.023   6.333
 5573SOL     OW17617   0.673   3.006   0.127
 5573SOL    HW117618   0.699   3.019   0.031
 5573SOL    HW217619   0.574   2.993   0.133
 5574SOL     OW17620   0.110   1.366   4.231
 5574SOL    HW117621   0.129   1.347   4.135
 5574SOL    HW217622   0.187   1.336   4.287
 5575SOL     OW17623   1.416   0.797   1.985
 5575SOL    HW117624   1.483   0.724   2.001
 5575SOL    HW217625   1.425   0.830   1.891
 5576SOL     OW17626   6.453   5.943   1.775
 5576SOL    HW117627   6.377   5.997   1.741
 5576SOL    HW217628   6.426   5.899   1.861
 5577SOL     OW17629   2.669   2.786   5.875
 5577SOL    HW117630   2.619   2.730   5.808
 5577SOL    HW217631   2.767   2.772   5.862
 5578SOL     OW17632   4.055   2.755   1.031
 5578SOL    HW117633   4.020   2.695   1.103
 5578SOL    HW217634   3.987   2.760   0.957
 5579SOL     OW17635   6.349   3.548   6.095
 5579SOL    HW117636   6.403   3.568   6.177
 5579SOL    HW217637   6.263   3.504   6.121
 5580SOL     OW17638   4.946   1.809   0.031
 5580SOL    HW117639   4.928   1.839   6.956
 5580SOL    HW217640   4.860   1.782   0.074
 5581SOL     OW17641   2.621   0.098   1.169
 5581SOL    HW117642   2.561   0.096   1.089
 5581SOL    HW217643   2.613   0.186   1.216
 5582SOL     OW17644   3.411   3.263   3.844
 5582SOL    HW117645   3.355   3.182   3.858
 5582SOL    HW217646   3.431   3.306   3.932
 5583SOL     OW17647   4.252   6.861   2.655
 5583SOL    HW117648   4.253   6.880   2.557
 5583SOL    HW217649   4.160   6.834   2.683
 5584SOL     OW17650   5.451   4.150   4.132
 5584SOL    HW117651   5.388   4.166   4.208
 5584SOL    HW217652   5.411   4.083   4.070
 5585SOL     OW17653   5.421   0.516   3.961
 5585SOL    HW117654   5.449   0.589   3.899
 5585SOL    HW217655   5.457   0.535   4.053
 5586SOL     OW17656   1.170   2.549   6.743
 5586SOL    HW117657   1.153   2.527   6.647
 5586SOL    HW217658   1.201   2.467   6.791
 5587SOL     OW17659   4.190   6.649   2.415
 5587SOL    HW117660   4.258   6.614   2.479
 5587SOL    HW217661   4.223   6.734   2.375
 5588SOL     OW17662   1.534   6.642   4.264
 5588SOL    HW117663   1.559   6.592   4.347
 5588SOL    HW217664   1.578   6.732   4.265
 5589SOL     OW17665   4.868   2.910   6.596
 5589SOL    HW117666   4.876   2.948   6.504
 5589SOL    HW217667   4.948   2.936   6.650
 5590SOL     OW17668   6.686   5.289   3.003
 5590SOL    HW117669   6.703   5.344   2.921
 5590SOL    HW217670   6.587   5.285   3.020
 5591SOL     OW17671   5.808   0.308   6.856
 5591SOL    HW117672   5.717   0.267   6.861
 5591SOL    HW217673   5.872   0.243   6.814
 5592SOL     OW17674   2.142   3.960   2.796
 5592SOL    HW117675   2.155   4.049   2.839
 5592SOL    HW217676   2.049   3.927   2.813
 5593SOL     OW17677   6.830   2.916   5.814
 5593SOL    HW117678   6.880   2.987   5.864
 5593SOL    HW217679   6.861   2.915   5.719
 5594SOL     OW17680   2.259   1.631   6.975
 5594SOL    HW117681   2.267   1.728   6.954
 5594SOL    HW217682   2.344   1.585   6.951
 5595SOL     OW17683   6.445   0.317   5.455
 5595SOL    HW117684   6.361   0.306   5.507
 5595SOL    HW217685   6.433   0.283   5.362
 5596SOL     OW17686   5.517   0.115   3.286
 5596SOL    HW117687   5.477   0.062   3.361
 5596SOL    HW217688   5.454   0.116   3.209
 5597SOL     OW17689   5.390   2.905   5.440
 5597SOL    HW117690   5.353   2.989   5.478
 5597SOL    HW217691   5.351   2.826   5.488
 5598SOL     OW17692   5.278   2.360   3.683
 5598SOL    HW117693   5.191   2.338   3.638
 5598SOL    HW217694   5.283   2.458   3.701
 5599SOL     OW17695   5.706   4.003   2.150
 5599SOL    HW117696   5.652   4.024   2.069
 5599SOL    HW217697   5.645   3.996   2.229
 5600SOL     OW17698   2.407   0.162   2.627
 5600SOL    HW117699   2.409   0.155   2.527
 5600SOL    HW217700   2.399   0.071   2.667
 5601SOL     OW17701   4.439   2.831   5.878
 5601SOL    HW117702   4.476   2.750   5.834
 5601SOL    HW217703   4.384   2.883   5.813
 5602SOL     OW17704   0.188   1.510   3.229
 5602SOL    HW117705   0.274   1.561   3.227
 5602SOL    HW217706   0.197   1.425   3.177
 5603SOL     OW17707   4.532   2.348   5.261
 5603SOL    HW117708   4.563   2.409   5.188
 5603SOL    HW217709   4.606   2.337   5.328
 5604SOL     OW17710   1.163   1.504   4.389
 5604SOL    HW117711   1.136   1.538   4.479
 5604SOL    HW217712   1.093   1.528   4.322
 5605SOL     OW17713   0.951   0.472   5.466
 5605SOL    HW117714   0.857   0.440   5.481
 5605SOL    HW217715   0.968   0.479   5.368
 5606SOL     OW17716   4.266   1.557   0.375
 5606SOL    HW117717   4.237   1.461   0.379
 5606SOL    HW217718   4.205   1.612   0.432
 5607SOL     OW17719   5.808   2.120   2.879
 5607SOL    HW117720   5.887   2.173   2.849
 5607SOL    HW217721   5.781   2.150   2.971
 5608SOL     OW17722   6.424   0.791   3.028
 5608SOL    HW117723   6.445   0.712   3.086
 5608SOL    HW217724   6.326   0.792   3.009
 5609SOL     OW17725   4.806   6.522   0.615
 5609SOL    HW117726   4.743   6.444   0.614
 5609SOL    HW217727   4.878   6.506   0.682
 5610SOL     OW17728   5.588   4.046   0.356
 5610SOL    HW117729   5.626   3.954   0.366
 5610SOL    HW217730   5.579   4.068   0.259
 5611SOL     OW17731   0.409   4.972   2.201
 5611SOL    HW117732   0.309   4.977   2.201
 5611SOL    HW217733   0.440   4.912   2.274
 5612SOL     OW17734   3.013   2.854   0.925
 5612SOL    HW117735   3.098   2.826   0.970
 5612SOL    HW217736   2.937   2.800   0.961
 5613SOL     OW17737   6.712   4.287   4.502
 5613SOL    HW117738   6.626   4.235   4.491
 5613SOL    HW217739   6.775   4.234   4.558
 5614SOL     OW17740   6.475   2.085   4.495
 5614SOL    HW117741   6.510   1.992   4.507
 5614SOL    HW217742   6.545   2.151   4.525
 5615SOL     OW17743   0.348   1.655   2.232
 5615SOL    HW117744   0.411   1.620   2.163
 5615SOL    HW217745   0.266   1.691   2.187
 5616SOL     OW17746   2.400   1.661   5.209
 5616SOL    HW117747   2.434   1.753   5.190
 5616SOL    HW217748   2.316   1.644   5.158
 5617SOL     OW17749   1.537   4.971   4.329
 5617SOL    HW117750   1.560   4.918   4.247
 5617SOL    HW217751   1.581   4.931   4.409
 5618SOL     OW17752   6.111   5.080   3.230
 5618SOL    HW117753   6.135   5.177   3.228
 5618SOL    HW217754   6.073   5.056   3.320
 5619SOL     OW17755   3.685   2.914   3.694
 5619SOL    HW117756   3.671   2.915   3.596
 5619SOL    HW217757   3.770   2.962   3.717
 5620SOL     OW17758   4.491   4.265   5.648
 5620SOL    HW117759   4.535   4.183   5.609
 5620SOL    HW217760   4.413   4.237   5.703
 5621SOL     OW17761   1.657   3.167   6.505
 5621SOL    HW117762   1.652   3.083   6.451
 5621SOL    HW217763   1.667   3.245   6.444
 5622SOL     OW17764   4.121   6.133   5.449
 5622SOL    HW117765   4.146   6.227   5.469
 5622SOL    HW217766   4.087   6.127   5.356
 5623SOL     OW17767   4.860   6.804   4.922
 5623SOL    HW117768   4.956   6.791   4.945
 5623SOL    HW217769   4.819   6.872   4.984
 5624SOL     OW17770   1.085   5.267   3.132
 5624SOL    HW117771   1.034   5.295   3.051
 5624SOL    HW217772   1.045   5.183   3.169
 5625SOL     OW17773   1.256   5.179   4.740
 5625SOL    HW117774   1.348   5.198   4.707
 5625SOL    HW217775   1.252   5.192   4.839
 5626SOL     OW17776   1.978   4.650   4.425
 5626SOL    HW117777   1.995   4.553   4.412
 5626SOL    HW217778   2.064   4.700   4.421
 5627SOL     OW17779   0.318   5.632   5.882
 5627SOL    HW117780   0.293   5.562   5.949
 5627SOL    HW217781   0.254   5.708   5.887
 5628SOL     OW17782   2.868   3.026   0.742
 5628SOL    HW117783   2.773   3.041   0.772
 5628SOL    HW217784   2.912   2.961   0.803
 5629SOL     OW17785   3.651   3.151   1.013
 5629SOL    HW117786   3.666   3.250   1.020
 5629SOL    HW217787   3.660   3.109   1.103
 5630SOL     OW17788   1.393   3.812   5.969
 5630SOL    HW117789   1.358   3.896   6.012
 5630SOL    HW217790   1.380   3.735   6.033
 5631SOL     OW17791   5.432   1.493   2.122
 5631SOL    HW117792   5.399   1.551   2.047
 5631SOL    HW217793   5.384   1.518   2.206
 5632SOL     OW17794   5.107   1.348   6.252
 5632SOL    HW117795   5.169   1.285   6.299
 5632SOL    HW217796   5.014   1.337   6.288
 5633SOL     OW17797   0.120   5.309   4.338
 5633SOL    HW117798   0.071   5.243   4.395
 5633SOL    HW217799   0.214   5.318   4.371
 5634SOL     OW17800   2.034   5.293   4.682
 5634SOL    HW117801   1.947   5.277   4.635
 5634SOL    HW217802   2.105   5.313   4.614
 5635SOL     OW17803   2.983   6.694   6.511
 5635SOL    HW117804   2.913   6.644   6.458
 5635SOL    HW217805   2.977   6.791   6.489
 5636SOL     OW17806   6.089   1.386   5.406
 5636SOL    HW117807   6.070   1.305   5.462
 5636SOL    HW217808   6.121   1.460   5.465
 5637SOL     OW17809   5.577   6.695   4.129
 5637SOL    HW117810   5.577   6.785   4.174
 5637SOL    HW217811   5.520   6.699   4.047
 5638SOL     OW17812   5.588   5.755   1.253
 5638SOL    HW117813   5.544   5.800   1.175
 5638SOL    HW217814   5.624   5.667   1.224
 5639SOL     OW17815   1.341   0.757   1.632
 5639SOL    HW117816   1.282   0.678   1.617
 5639SOL    HW217817   1.284   0.836   1.655
 5640SOL     OW17818   2.642   6.637   2.569
 5640SOL    HW117819   2.551   6.622   2.531
 5640SOL    HW217820   2.708   6.644   2.494
 5641SOL     OW17821   0.612   4.981   5.729
 5641SOL    HW117822   0.574   4.933   5.808
 5641SOL    HW217823   0.660   4.915   5.670
 5642SOL     OW17824   1.195   4.964   5.809
 5642SOL    HW117825   1.206   4.965   5.909
 5642SOL    HW217826   1.280   4.930   5.767
 5643SOL     OW17827   3.160   0.808   4.629
 5643SOL    HW117828   3.238   0.809   4.567
 5643SOL    HW217829   3.080   0.846   4.582
 5644SOL     OW17830   5.261   0.764   3.889
 5644SOL    HW117831   5.293   0.738   3.980
 5644SOL    HW217832   5.164   0.791   3.895
 5645SOL     OW17833   6.185   4.700   2.673
 5645SOL    HW117834   6.206   4.729   2.766
 5645SOL    HW217835   6.200   4.776   2.610
 5646SOL     OW17836   1.989   5.446   3.462
 5646SOL    HW117837   1.926   5.371   3.441
 5646SOL    HW217838   1.944   5.511   3.523
 5647SOL     OW17839   6.114   6.349   6.780
 5647SOL    HW117840   6.078   6.350   6.687
 5647SOL    HW217841   6.205   6.389   6.782
 5648SOL     OW17842   2.000   0.870   2.627
 5648SOL    HW117843   1.934   0.937   2.596
 5648SOL    HW217844   2.071   0.915   2.681
 5649SOL     OW17845   1.540   6.350   5.782
 5649SOL    HW117846   1.542   6.306   5.692
 5649SOL    HW217847   1.571   6.285   5.851
 5650SOL     OW17848   0.602   5.221   1.139
 5650SOL    HW117849   0.520   5.171   1.169
 5650SOL    HW217850   0.575   5.299   1.083
 5651SOL     OW17851   6.930   1.279   1.491
 5651SOL    HW117852   6.982   1.210   1.441
 5651SOL    HW217853   6.834   1.251   1.496
 5652SOL     OW17854   5.281   6.330   2.057
 5652SOL    HW117855   5.265   6.415   2.106
 5652SOL    HW217856   5.354   6.343   1.990
 5653SOL     OW17857   0.353   6.502   6.585
 5653SOL    HW117858   0.262   6.525   6.618
 5653SOL    HW217859   0.351   6.489   6.486
 5654SOL     OW17860   0.142   6.459   5.932
 5654SOL    HW117861   0.065   6.406   5.896
 5654SOL    HW217862   0.167   6.425   6.022
 5655SOL     OW17863   1.152   3.112   4.372
 5655SOL    HW117864   1.200   3.196   4.395
 5655SOL    HW217865   1.053   3.128   4.375
 5656SOL     OW17866   2.516   4.602   0.128
 5656SOL    HW117867   2.557   4.676   0.181
 5656SOL    HW217868   2.548   4.514   0.163
 5657SOL     OW17869   5.267   0.061   1.071
 5657SOL    HW117870   5.211   0.050   1.154
 5657SOL    HW217871   5.287   6.990   1.032
 5658SOL     OW17872   3.403   6.101   5.719
 5658SOL    HW117873   3.335   6.060   5.781
 5658SOL    HW217874   3.386   6.069   5.626
 5659SOL     OW17875   3.082   3.949   3.108
 5659SOL    HW117876   3.160   3.893   3.082
 5659SOL    HW217877   3.093   4.041   3.071
 5660SOL     OW17878   5.329   0.675   5.640
 5660SOL    HW117879   5.265   0.752   5.647
 5660SOL    HW217880   5.343   0.635   5.730
 5661SOL     OW17881   6.988   4.901   6.136
 5661SOL    HW117882   6.946   4.990   6.152
 5661SOL    HW217883   6.950   4.861   6.053
 5662SOL     OW17884   2.892   4.807   4.185
 5662SOL    HW117885   2.921   4.829   4.278
 5662SOL    HW217886   2.959   4.748   4.142
 5663SOL     OW17887   1.434   4.296   6.908
 5663SOL    HW117888   1.510   4.262   6.963
 5663SOL    HW217889   1.348   4.263   6.945
 5664SOL     OW17890   7.003   3.768   4.008
 5664SOL    HW117891   6.955   3.770   3.920
 5664SOL    HW217892   0.075   3.727   3.995
 5665SOL     OW17893   1.799   1.749   6.592
 5665SOL    HW117894   1.769   1.657   6.568
 5665SOL    HW217895   1.800   1.806   6.510
 5666SOL     OW17896   5.227   6.149   0.692
 5666SOL    HW117897   5.273   6.071   0.649
 5666SOL    HW217898   5.128   6.138   0.684
 5667SOL     OW17899   0.936   4.931   3.481
 5667SOL    HW117900   0.934   5.020   3.526
 5667SOL    HW217901   0.892   4.863   3.540
 5668SOL     OW17902   4.960   2.393   6.057
 5668SOL    HW117903   4.957   2.433   6.149
 5668SOL    HW217904   5.054   2.369   6.034
 5669SOL     OW17905   0.361   3.148   6.660
 5669SOL    HW117906   0.265   3.132   6.635
 5669SOL    HW217907   0.384   3.243   6.640
 5670SOL     OW17908   0.482   3.004   3.523
 5670SOL    HW117909   0.538   2.984   3.442
 5670SOL    HW217910   0.502   3.096   3.555
 5671SOL     OW17911   0.881   6.161   6.446
 5671SOL    HW117912   0.826   6.153   6.363
 5671SOL    HW217913   0.941   6.241   6.438
 5672SOL     OW17914   4.199   4.989   6.885
 5672SOL    HW117915   4.163   5.024   6.798
 5672SOL    HW217916   4.130   4.932   6.929
 5673SOL     OW17917   1.354   6.322   2.011
 5673SOL    HW117918   1.375   6.399   2.071
 5673SOL    HW217919   1.379   6.346   1.917
 5674SOL     OW17920   6.866   3.826   3.356
 5674SOL    HW117921   6.886   3.883   3.276
 5674SOL    HW217922   6.786   3.862   3.403
 5675SOL     OW17923   4.149   1.835   6.295
 5675SOL    HW117924   4.207   1.901   6.248
 5675SOL    HW217925   4.116   1.767   6.230
 5676SOL     OW17926   1.676   1.569   1.681
 5676SOL    HW117927   1.706   1.657   1.646
 5676SOL    HW217928   1.727   1.545   1.763
 5677SOL     OW17929   0.636   2.136   2.658
 5677SOL    HW117930   0.686   2.221   2.643
 5677SOL    HW217931   0.651   2.074   2.581
 5678SOL     OW17932   2.938   6.640   3.118
 5678SOL    HW117933   2.907   6.732   3.093
 5678SOL    HW217934   2.880   6.604   3.192
 5679SOL     OW17935   1.191   0.556   3.130
 5679SOL    HW117936   1.172   0.483   3.065
 5679SOL    HW217937   1.192   0.519   3.223
 5680SOL     OW17938   1.600   5.355   0.895
 5680SOL    HW117939   1.581   5.257   0.887
 5680SOL    HW217940   1.678   5.369   0.956
 5681SOL     OW17941   0.641   3.717   6.493
 5681SOL    HW117942   0.636   3.693   6.590
 5681SOL    HW217943   0.736   3.740   6.469
 5682SOL     OW17944   1.934   4.614   5.206
 5682SOL    HW117945   1.859   4.639   5.266
 5682SOL    HW217946   1.914   4.526   5.162
 5683SOL     OW17947   4.139   1.896   6.697
 5683SOL    HW117948   4.089   1.817   6.734
 5683SOL    HW217949   4.192   1.867   6.617
 5684SOL     OW17950   3.917   3.024   4.761
 5684SOL    HW117951   3.942   2.932   4.792
 5684SOL    HW217952   3.903   3.083   4.841
 5685SOL     OW17953   1.134   4.243   2.052
 5685SOL    HW117954   1.158   4.199   2.139
 5685SOL    HW217955   1.216   4.281   2.009
 5686SOL     OW17956   3.015   0.322   6.767
 5686SOL    HW117957   2.999   0.403   6.710
 5686SOL    HW217958   3.079   0.261   6.720
 5687SOL     OW17959   6.868   4.057   4.592
 5687SOL    HW117960   6.804   3.982   4.577
 5687SOL    HW217961   6.893   4.060   4.689
 5688SOL     OW17962   6.802   1.509   6.874
 5688SOL    HW117963   6.752   1.590   6.844
 5688SOL    HW217964   6.826   1.453   6.794
 5689SOL     OW17965   4.262   1.027   0.101
 5689SOL    HW117966   4.186   1.091   0.090
 5689SOL    HW217967   4.316   1.054   0.181
 5690SOL     OW17968   2.285   6.146   0.740
 5690SOL    HW117969   2.317   6.172   0.830
 5690SOL    HW217970   2.265   6.048   0.738
 5691SOL     OW17971   2.666   6.132   2.075
 5691SOL    HW117972   2.762   6.121   2.049
 5691SOL    HW217973   2.607   6.100   2.000
 5692SOL     OW17974   6.794   3.235   5.936
 5692SOL    HW117975   6.879   3.187   5.955
 5692SOL    HW217976   6.761   3.210   5.845
 5693SOL     OW17977   5.783   3.099   2.103
 5693SOL    HW117978   5.775   3.172   2.035
 5693SOL    HW217979   5.745   3.131   2.190
 5694SOL     OW17980   0.653   1.526   4.229
 5694SOL    HW117981   0.715   1.484   4.295
 5694SOL    HW217982   0.676   1.623   4.219
 5695SOL     OW17983   0.626   2.444   2.982
 5695SOL    HW117984   0.658   2.526   3.031
 5695SOL    HW217985   0.618   2.368   3.046
 5696SOL     OW17986   1.776   0.068   3.102
 5696SOL    HW117987   1.782   0.020   3.189
 5696SOL    HW217988   1.848   0.035   3.040
 5697SOL     OW17989   5.618   1.881   0.958
 5697SOL    HW117990   5.620   1.947   1.032
 5697SOL    HW217991   5.712   1.857   0.932
 5698SOL     OW17992   0.317   3.041   1.885
 5698SOL    HW117993   0.395   3.015   1.828
 5698SOL    HW217994   0.350   3.068   1.976
 5699SOL     OW17995   6.274   2.308   3.027
 5699SOL    HW117996   6.219   2.252   2.965
 5699SOL    HW217997   6.217   2.338   3.104
 5700SOL     OW17998   6.622   6.435   4.483
 5700SOL    HW117999   6.643   6.433   4.385
 5700SOL    HW218000   6.678   6.367   4.531
 5701SOL     OW18001   1.558   5.860   3.347
 5701SOL    HW118002   1.483   5.914   3.386
 5701SOL    HW218003   1.575   5.891   3.253
 5702SOL     OW18004   1.546   0.637   5.505
 5702SOL    HW118005   1.575   0.654   5.599
 5702SOL    HW218006   1.625   0.649   5.444
 5703SOL     OW18007   5.058   4.394   0.765
 5703SOL    HW118008   5.155   4.418   0.762
 5703SOL    HW218009   5.009   4.443   0.693
 5704SOL     OW18010   4.091   5.494   2.215
 5704SOL    HW118011   4.087   5.505   2.314
 5704SOL    HW218012   4.163   5.554   2.178
 5705SOL     OW18013   5.236   0.977   0.563
 5705SOL    HW118014   5.281   0.909   0.621
 5705SOL    HW218015   5.237   1.066   0.609
 5706SOL     OW18016   0.768   2.273   0.614
 5706SOL    HW118017   0.800   2.271   0.519
 5706SOL    HW218018   0.727   2.362   0.634
 5707SOL     OW18019   0.655   6.854   0.203
 5707SOL    HW118020   0.744   6.898   0.193
 5707SOL    HW218021   0.667   6.755   0.206
 5708SOL     OW18022   5.200   6.174   1.093
 5708SOL    HW118023   5.256   6.233   1.035
 5708SOL    HW218024   5.129   6.228   1.137
 5709SOL     OW18025   1.106   6.927   3.471
 5709SOL    HW118026   1.059   6.867   3.536
 5709SOL    HW218027   1.180   6.876   3.427
 5710SOL     OW18028   3.071   3.207   5.862
 5710SOL    HW118029   3.119   3.218   5.775
 5710SOL    HW218030   3.112   3.267   5.930
 5711SOL     OW18031   4.896   0.308   3.017
 5711SOL    HW118032   4.901   0.313   2.918
 5711SOL    HW218033   4.801   0.320   3.047
 5712SOL     OW18034   0.819   5.783   5.937
 5712SOL    HW118035   0.876   5.703   5.918
 5712SOL    HW218036   0.726   5.766   5.903
 5713SOL     OW18037   1.217   2.428   1.322
 5713SOL    HW118038   1.233   2.463   1.230
 5713SOL    HW218039   1.304   2.398   1.362
 5714SOL     OW18040   1.210   5.950   7.006
 5714SOL    HW118041   1.269   5.869   7.010
 5714SOL    HW218042   1.256   6.022   6.953
 5715SOL     OW18043   1.232   6.441   3.196
 5715SOL    HW118044   1.246   6.509   3.124
 5715SOL    HW218045   1.174   6.367   3.160
 5716SOL     OW18046   1.057   4.066   6.042
 5716SOL    HW118047   1.150   4.066   6.004
 5716SOL    HW218048   0.991   4.057   5.968
 5717SOL     OW18049   1.915   5.632   0.491
 5717SOL    HW118050   1.894   5.589   0.403
 5717SOL    HW218051   1.840   5.691   0.518
 5718SOL     OW18052   0.977   3.989   6.296
 5718SOL    HW118053   0.989   3.993   6.197
 5718SOL    HW218054   1.000   4.078   6.336
 5719SOL     OW18055   2.511   1.324   6.104
 5719SOL    HW118056   2.532   1.370   6.190
 5719SOL    HW218057   2.562   1.368   6.029
 5720SOL     OW18058   1.104   4.560   4.313
 5720SOL    HW118059   1.092   4.659   4.301
 5720SOL    HW218060   1.186   4.531   4.263
 5721SOL     OW18061   6.895   3.652   1.082
 5721SOL    HW118062   6.924   3.557   1.092
 5721SOL    HW218063   6.883   3.673   0.985
 5722SOL     OW18064   5.602   2.135   5.042
 5722SOL    HW118065   5.697   2.166   5.030
 5722SOL    HW218066   5.599   2.035   5.039
 5723SOL     OW18067   4.011   3.627   6.968
 5723SOL    HW118068   3.954   3.545   6.962
 5723SOL    HW218069   4.035   3.645   0.044
 5724SOL     OW18070   4.040   2.408   5.360
 5724SOL    HW118071   4.060   2.405   5.458
 5724SOL    HW218072   4.085   2.488   5.320
 5725SOL     OW18073   5.949   5.521   3.543
 5725SOL    HW118074   6.020   5.592   3.541
 5725SOL    HW218075   5.983   5.443   3.595
 5726SOL     OW18076   6.315   3.353   3.842
 5726SOL    HW118077   6.320   3.408   3.925
 5726SOL    HW218078   6.292   3.412   3.765
 5727SOL     OW18079   0.731   2.581   4.196
 5727SOL    HW118080   0.716   2.640   4.116
 5727SOL    HW218081   0.643   2.555   4.235
 5728SOL     OW18082   4.425   1.364   6.499
 5728SOL    HW118083   4.366   1.283   6.508
 5728SOL    HW218084   4.407   1.427   6.574
 5729SOL     OW18085   0.850   1.629   0.395
 5729SOL    HW118086   0.919   1.621   0.323
 5729SOL    HW218087   0.848   1.723   0.429
 5730SOL     OW18088   3.737   5.102   5.930
 5730SOL    HW118089   3.805   5.029   5.937
 5730SOL    HW218090   3.779   5.184   5.892
 5731SOL     OW18091   1.848   6.422   3.797
 5731SOL    HW118092   1.824   6.348   3.860
 5731SOL    HW218093   1.790   6.417   3.716
 5732SOL     OW18094   6.567   4.433   5.154
 5732SOL    HW118095   6.577   4.477   5.243
 5732SOL    HW218096   6.654   4.390   5.128
 5733SOL     OW18097   3.232   0.699   5.610
 5733SOL    HW118098   3.330   0.707   5.630
 5733SOL    HW218099   3.218   0.631   5.538
 5734SOL     OW18100   1.774   6.264   6.271
 5734SOL    HW118101   1.747   6.213   6.352
 5734SOL    HW218102   1.696   6.269   6.208
 5735SOL     OW18103   3.978   1.154   2.989
 5735SOL    HW118104   3.919   1.117   3.060
 5735SOL    HW218105   4.054   1.092   2.973
 5736SOL     OW18106   5.486   4.456   0.179
 5736SOL    HW118107   5.497   4.550   0.146
 5736SOL    HW218108   5.565   4.430   0.234
 5737SOL     OW18109   5.819   6.054   6.966
 5737SOL    HW118110   5.856   5.973   7.011
 5737SOL    HW218111   5.870   6.135   6.995
 5738SOL     OW18112   3.465   2.343   6.819
 5738SOL    HW118113   3.554   2.304   6.839
 5738SOL    HW218114   3.476   2.432   6.775
 5739SOL     OW18115   1.059   6.093   5.581
 5739SOL    HW118116   1.035   6.151   5.659
 5739SOL    HW218117   1.132   6.030   5.607
 5740SOL     OW18118   4.571   3.839   1.008
 5740SOL    HW118119   4.584   3.886   0.921
 5740SOL    HW218120   4.536   3.903   1.076
 5741SOL     OW18121   0.102   4.450   4.135
 5741SOL    HW118122   0.043   4.452   4.215
 5741SOL    HW218123   0.057   4.398   4.062
 5742SOL     OW18124   4.422   6.059   2.397
 5742SOL    HW118125   4.512   6.048   2.441
 5742SOL    HW218126   4.417   6.001   2.316
 5743SOL     OW18127   2.211   5.947   5.192
 5743SOL    HW118128   2.194   5.878   5.121
 5743SOL    HW218129   2.128   6.000   5.208
 5744SOL     OW18130   5.252   1.110   2.085
 5744SOL    HW118131   5.200   1.169   2.146
 5744SOL    HW218132   5.202   1.097   1.999
 5745SOL     OW18133   2.034   0.799   3.821
 5745SOL    HW118134   2.051   0.866   3.749
 5745SOL    HW218135   2.060   0.708   3.788
 5746SOL     OW18136   4.763   6.728   1.461
 5746SOL    HW118137   4.775   6.749   1.558
 5746SOL    HW218138   4.782   6.631   1.445
 5747SOL     OW18139   1.316   5.094   1.814
 5747SOL    HW118140   1.402   5.121   1.856
 5747SOL    HW218141   1.273   5.023   1.869
 5748SOL     OW18142   1.570   0.024   1.500
 5748SOL    HW118143   1.603   0.113   1.471
 5748SOL    HW218144   1.508   0.034   1.578
 5749SOL     OW18145   1.874   6.531   5.181
 5749SOL    HW118146   1.853   6.507   5.087
 5749SOL    HW218147   1.939   6.607   5.182
 5750SOL     OW18148   6.121   6.413   5.148
 5750SOL    HW118149   6.053   6.450   5.085
 5750SOL    HW218150   6.119   6.313   5.145
 5751SOL     OW18151   2.500   2.571   5.079
 5751SOL    HW118152   2.544   2.483   5.059
 5751SOL    HW218153   2.459   2.607   4.995
 5752SOL     OW18154   5.493   0.189   0.391
 5752SOL    HW118155   5.589   0.204   0.370
 5752SOL    HW218156   5.483   0.101   0.438
 5753SOL     OW18157   3.437   3.823   4.534
 5753SOL    HW118158   3.385   3.812   4.449
 5753SOL    HW218159   3.373   3.835   4.610
 5754SOL     OW18160   0.802   5.059   1.509
 5754SOL    HW118161   0.724   5.010   1.471
 5754SOL    HW218162   0.771   5.120   1.582
 5755SOL     OW18163   1.521   2.008   6.088
 5755SOL    HW118164   1.532   2.060   6.172
 5755SOL    HW218165   1.574   2.050   6.015
 5756SOL     OW18166   0.381   0.325   2.684
 5756SOL    HW118167   0.441   0.385   2.631
 5756SOL    HW218168   0.288   0.329   2.647
 5757SOL     OW18169   0.433   5.166   3.692
 5757SOL    HW118170   0.391   5.199   3.776
 5757SOL    HW218171   0.418   5.234   3.619
 5758SOL     OW18172   2.225   0.971   2.732
 5758SOL    HW118173   2.303   0.950   2.673
 5758SOL    HW218174   2.225   1.069   2.753
 5759SOL     OW18175   4.922   0.608   6.857
 5759SOL    HW118176   4.900   0.549   6.779
 5759SOL    HW218177   4.921   0.553   6.941
 5760SOL     OW18178   6.007   1.977   0.745
 5760SOL    HW118179   6.100   2.009   0.724
 5760SOL    HW218180   5.958   1.960   0.660
 5761SOL     OW18181   6.177   4.650   5.830
 5761SOL    HW118182   6.143   4.668   5.922
 5761SOL    HW218183   6.135   4.567   5.793
 5762SOL     OW18184   5.109   4.290   1.214
 5762SOL    HW118185   5.108   4.197   1.177
 5762SOL    HW218186   5.086   4.289   1.311
 5763SOL     OW18187   6.322   5.623   0.912
 5763SOL    HW118188   6.319   5.673   0.998
 5763SOL    HW218189   6.266   5.670   0.844
 5764SOL     OW18190   4.936   4.641   4.927
 5764SOL    HW118191   4.969   4.639   5.021
 5764SOL    HW218192   4.885   4.725   4.911
 5765SOL     OW18193   6.529   3.258   0.418
 5765SOL    HW118194   6.625   3.262   0.447
 5765SOL    HW218195   6.475   3.319   0.476
 5766SOL     OW18196   1.632   2.031   5.480
 5766SOL    HW118197   1.562   2.076   5.424
 5766SOL    HW218198   1.666   1.950   5.432
 5767SOL     OW18199   2.206   0.301   1.027
 5767SOL    HW118200   2.151   0.236   0.974
 5767SOL    HW218201   2.218   0.384   0.973
 5768SOL     OW18202   0.975   6.658   4.166
 5768SOL    HW118203   1.067   6.695   4.150
 5768SOL    HW218204   0.908   6.714   4.117
 5769SOL     OW18205   2.352   5.435   4.185
 5769SOL    HW118206   2.423   5.422   4.116
 5769SOL    HW218207   2.263   5.444   4.139
 5770SOL     OW18208   6.834   5.914   6.207
 5770SOL    HW118209   6.791   5.899   6.118
 5770SOL    HW218210   6.764   5.925   6.277
 5771SOL     OW18211   1.431   6.927   4.554
 5771SOL    HW118212   1.388   6.849   4.600
 5771SOL    HW218213   1.467   6.990   4.623
 5772SOL     OW18214   5.238   1.131   1.718
 5772SOL    HW118215   5.333   1.139   1.748
 5772SOL    HW218216   5.196   1.052   1.762
 5773SOL     OW18217   4.463   0.549   2.930
 5773SOL    HW118218   4.520   0.490   2.988
 5773SOL    HW218219   4.369   0.548   2.965
 5774SOL     OW18220   3.118   6.498   4.055
 5774SOL    HW118221   3.183   6.571   4.033
 5774SOL    HW218222   3.101   6.497   4.154
 5775SOL     OW18223   1.414   0.285   2.800
 5775SOL    HW118224   1.424   0.374   2.756
 5775SOL    HW218225   1.476   0.281   2.879
 5776SOL     OW18226   0.512   0.899   3.991
 5776SOL    HW118227   0.494   0.920   3.895
 5776SOL    HW218228   0.564   0.814   3.997
 5777SOL     OW18229   6.782   0.082   5.126
 5777SOL    HW118230   6.700   0.107   5.075
 5777SOL    HW218231   6.816   0.161   5.176
 5778SOL     OW18232   1.238   0.155   0.488
 5778SOL    HW118233   1.181   0.233   0.464
 5778SOL    HW218234   1.302   0.181   0.561
 5779SOL     OW18235   4.542   2.466   1.133
 5779SOL    HW118236   4.488   2.550   1.127
 5779SOL    HW218237   4.616   2.480   1.200
 5780SOL     OW18238   6.401   6.331   4.155
 5780SOL    HW118239   6.484   6.276   4.143
 5780SOL    HW218240   6.337   6.282   4.214
 5781SOL     OW18241   6.880   5.141   4.227
 5781SOL    HW118242   6.908   5.148   4.323
 5781SOL    HW218243   6.784   5.169   4.219
 5782SOL     OW18244   1.388   1.669   1.405
 5782SOL    HW118245   1.417   1.762   1.383
 5782SOL    HW218246   1.427   1.605   1.338
 5783SOL     OW18247   1.162   0.548   1.640
 5783SOL    HW118248   1.235   0.486   1.670
 5783SOL    HW218249   1.096   0.559   1.715
 5784SOL     OW18250   0.043   5.867   5.625
 5784SOL    HW118251   0.063   5.827   5.714
 5784SOL    HW218252   0.126   5.909   5.588
 5785SOL     OW18253   2.102   1.994   0.360
 5785SOL    HW118254   2.170   2.064   0.339
 5785SOL    HW218255   2.148   1.906   0.374
 5786SOL     OW18256   0.585   4.248   0.783
 5786SOL    HW118257   0.600   4.333   0.733
 5786SOL    HW218258   0.650   4.243   0.859
 5787SOL     OW18259   3.294   1.983   4.604
 5787SOL    HW118260   3.246   2.013   4.686
 5787SOL    HW218261   3.233   1.928   4.547
 5788SOL     OW18262   2.702   1.438   1.371
 5788SOL    HW118263   2.634   1.367   1.391
 5788SOL    HW218264   2.663   1.528   1.392
 5789SOL     OW18265   3.094   4.420   0.087
 5789SOL    HW118266   3.055   4.427   7.014
 5789SOL    HW218267   3.162   4.346   0.089
 5790SOL     OW18268   1.268   4.332   4.976
 5790SOL    HW118269   1.253   4.247   5.026
 5790SOL    HW218270   1.183   4.386   4.976
 5791SOL     OW18271   3.625   1.815   2.308
 5791SOL    HW118272   3.624   1.915   2.300
 5791SOL    HW218273   3.720   1.784   2.319
 5792SOL     OW18274   6.410   3.478   2.639
 5792SOL    HW118275   6.432   3.575   2.629
 5792SOL    HW218276   6.311   3.466   2.633
 5793SOL     OW18277   5.101   1.209   3.882
 5793SOL    HW118278   5.171   1.280   3.878
 5793SOL    HW218279   5.066   1.202   3.976
 5794SOL     OW18280   2.388   1.057   0.409
 5794SOL    HW118281   2.363   1.011   0.494
 5794SOL    HW218282   2.305   1.083   0.360
 5795SOL     OW18283   6.257   0.496   6.747
 5795SOL    HW118284   6.281   0.527   6.839
 5795SOL    HW218285   6.328   0.524   6.683
 5796SOL     OW18286   4.845   1.309   6.333
 5796SOL    HW118287   4.787   1.389   6.319
 5796SOL    HW218288   4.809   1.254   6.408
 5797SOL     OW18289   4.586   2.477   6.296
 5797SOL    HW118290   4.559   2.552   6.356
 5797SOL    HW218291   4.551   2.493   6.204
 5798SOL     OW18292   0.663   4.680   5.155
 5798SOL    HW118293   0.635   4.738   5.232
 5798SOL    HW218294   0.737   4.620   5.185
 5799SOL     OW18295   0.580   0.465   3.248
 5799SOL    HW118296   0.501   0.438   3.194
 5799SOL    HW218297   0.561   0.553   3.292
 5800SOL     OW18298   6.184   6.138   1.981
 5800SOL    HW118299   6.106   6.085   2.013
 5800SOL    HW218300   6.258   6.131   2.048
 5801SOL     OW18301   2.263   2.324   3.338
 5801SOL    HW118302   2.302   2.408   3.376
 5801SOL    HW218303   2.273   2.250   3.405
 5802SOL     OW18304   0.980   3.729   2.438
 5802SOL    HW118305   1.040   3.720   2.359
 5802SOL    HW218306   1.034   3.747   2.520
 5803SOL     OW18307   2.745   5.242   2.321
 5803SOL    HW118308   2.768   5.242   2.418
 5803SOL    HW218309   2.733   5.148   2.290
 5804SOL     OW18310   0.610   5.781   3.798
 5804SOL    HW118311   0.681   5.832   3.847
 5804SOL    HW218312   0.561   5.843   3.736
 5805SOL     OW18313   2.517   3.422   0.093
 5805SOL    HW118314   2.486   3.479   0.017
 5805SOL    HW218315   2.485   3.461   0.180
 5806SOL     OW18316   6.829   5.290   4.782
 5806SOL    HW118317   6.919   5.257   4.810
 5806SOL    HW218318   6.765   5.281   4.859
 5807SOL     OW18319   0.525   4.038   2.165
 5807SOL    HW118320   0.468   4.114   2.197
 5807SOL    HW218321   0.471   3.954   2.164
 5808SOL     OW18322   5.968   6.000   4.806
 5808SOL    HW118323   5.938   5.907   4.786
 5808SOL    HW218324   5.954   6.058   4.726
 5809SOL     OW18325   5.537   1.964   4.377
 5809SOL    HW118326   5.590   1.879   4.372
 5809SOL    HW218327   5.599   2.042   4.383
 5810SOL     OW18328   3.904   1.568   4.814
 5810SOL    HW118329   3.883   1.625   4.894
 5810SOL    HW218330   3.834   1.498   4.804
 5811SOL     OW18331   3.112   0.945   5.004
 5811SOL    HW118332   3.112   0.869   4.939
 5811SOL    HW218333   3.041   1.010   4.978
 5812SOL     OW18334   6.434   2.578   4.224
 5812SOL    HW118335   6.430   2.567   4.323
 5812SOL    HW218336   6.350   2.543   4.183
 5813SOL     OW18337   1.893   2.234   0.893
 5813SOL    HW118338   1.910   2.137   0.914
 5813SOL    HW218339   1.889   2.286   0.978
 5814SOL     OW18340   6.382   4.638   1.568
 5814SOL    HW118341   6.367   4.641   1.667
 5814SOL    HW218342   6.420   4.549   1.543
 5815SOL     OW18343   3.845   1.950   4.122
 5815SOL    HW118344   3.754   1.982   4.149
 5815SOL    HW218345   3.889   2.019   4.065
 5816SOL     OW18346   4.494   5.183   0.269
 5816SOL    HW118347   4.491   5.280   0.292
 5816SOL    HW218348   4.415   5.159   0.212
 5817SOL     OW18349   5.486   3.347   5.975
 5817SOL    HW118350   5.398   3.305   5.999
 5817SOL    HW218351   5.476   3.447   5.975
 5818SOL     OW18352   6.678   6.152   4.558
 5818SOL    HW118353   6.707   6.057   4.544
 5818SOL    HW218354   6.715   6.185   4.645
 5819SOL     OW18355   3.659   6.632   6.581
 5819SOL    HW118356   3.613   6.562   6.636
 5819SOL    HW218357   3.749   6.651   6.620
 5820SOL     OW18358   4.304   5.564   3.965
 5820SOL    HW118359   4.385   5.620   3.979
 5820SOL    HW218360   4.229   5.621   3.931
 5821SOL     OW18361   0.258   6.844   1.271
 5821SOL    HW118362   0.158   6.844   1.273
 5821SOL    HW218363   0.290   6.838   1.176
 5822SOL     OW18364   1.632   2.364   1.708
 5822SOL    HW118365   1.709   2.389   1.767
 5822SOL    HW218366   1.658   2.378   1.613
 5823SOL     OW18367   1.818   1.055   5.869
 5823SOL    HW118368   1.859   0.994   5.802
 5823SOL    HW218369   1.718   1.051   5.861
 5824SOL     OW18370   6.582   5.623   2.167
 5824SOL    HW118371   6.658   5.687   2.183
 5824SOL    HW218372   6.505   5.649   2.225
 5825SOL     OW18373   1.250   1.629   5.609
 5825SOL    HW118374   1.320   1.561   5.586
 5825SOL    HW218375   1.164   1.582   5.628
 5826SOL     OW18376   6.978   4.973   5.401
 5826SOL    HW118377   6.952   5.067   5.377
 5826SOL    HW218378   7.013   4.927   5.320
 5827SOL     OW18379   2.237   4.459   5.223
 5827SOL    HW118380   2.196   4.488   5.309
 5827SOL    HW218381   2.202   4.368   5.198
 5828SOL     OW18382   6.420   2.078   1.216
 5828SOL    HW118383   6.444   2.120   1.128
 5828SOL    HW218384   6.488   2.103   1.284
 5829SOL     OW18385   1.659   0.735   3.152
 5829SOL    HW118386   1.589   0.728   3.081
 5829SOL    HW218387   1.736   0.677   3.128
 5830SOL     OW18388   5.128   6.645   5.485
 5830SOL    HW118389   5.053   6.689   5.534
 5830SOL    HW218390   5.101   6.630   5.389
 5831SOL     OW18391   0.875   0.981   5.056
 5831SOL    HW118392   0.932   0.910   5.014
 5831SOL    HW218393   0.925   1.067   5.058
 5832SOL     OW18394   3.041   4.733   6.902
 5832SOL    HW118395   3.071   4.778   6.818
 5832SOL    HW218396   2.980   4.657   6.879
 5833SOL     OW18397   3.354   3.191   4.533
 5833SOL    HW118398   3.345   3.093   4.549
 5833SOL    HW218399   3.368   3.208   4.436
 5834SOL     OW18400   0.271   3.183   6.936
 5834SOL    HW118401   0.316   3.144   6.856
 5834SOL    HW218402   0.192   3.127   6.960
 5835SOL     OW18403   5.128   2.674   3.921
 5835SOL    HW118404   5.158   2.616   3.996
 5835SOL    HW218405   5.160   2.768   3.937
 5836SOL     OW18406   2.865   6.588   2.362
 5836SOL    HW118407   2.842   6.528   2.286
 5836SOL    HW218408   2.846   6.683   2.336
 5837SOL     OW18409   3.974   3.994   5.995
 5837SOL    HW118410   3.916   3.937   6.053
 5837SOL    HW218411   3.984   3.950   5.905
 5838SOL     OW18412   2.899   2.654   0.253
 5838SOL    HW118413   2.980   2.698   0.292
 5838SOL    HW218414   2.870   2.579   0.313
 5839SOL     OW18415   0.768   1.759   2.200
 5839SOL    HW118416   0.762   1.733   2.103
 5839SOL    HW218417   0.823   1.691   2.249
 5840SOL     OW18418   0.436   5.230   6.546
 5840SOL    HW118419   0.430   5.330   6.547
 5840SOL    HW218420   0.531   5.202   6.536
 5841SOL     OW18421   5.175   2.305   2.420
 5841SOL    HW118422   5.100   2.319   2.485
 5841SOL    HW218423   5.260   2.290   2.470
 5842SOL     OW18424   4.591   3.015   1.455
 5842SOL    HW118425   4.647   2.932   1.452
 5842SOL    HW218426   4.615   3.069   1.535
 5843SOL     OW18427   1.921   3.909   3.060
 5843SOL    HW118428   1.909   3.900   2.961
 5843SOL    HW218429   1.987   3.841   3.093
 5844SOL     OW18430   1.996   6.443   6.002
 5844SOL    HW118431   2.013   6.466   6.098
 5844SOL    HW218432   1.897   6.434   5.987
 5845SOL     OW18433   0.052   0.854   2.361
 5845SOL    HW118434   0.105   0.939   2.363
 5845SOL    HW218435   0.060   0.813   2.270
 5846SOL     OW18436   0.115   2.806   4.685
 5846SOL    HW118437   0.065   2.720   4.695
 5846SOL    HW218438   0.051   2.881   4.667
 5847SOL     OW18439   2.500   2.459   2.073
 5847SOL    HW118440   2.405   2.461   2.041
 5847SOL    HW218441   2.562   2.462   1.995
 5848SOL     OW18442   2.246   6.006   3.491
 5848SOL    HW118443   2.260   6.035   3.396
 5848SOL    HW218444   2.318   6.044   3.549
 5849SOL     OW18445   0.218   0.317   5.995
 5849SOL    HW118446   0.173   0.369   6.068
 5849SOL    HW218447   0.200   0.219   6.008
 5850SOL     OW18448   0.007   2.762   1.886
 5850SOL    HW118449   0.037   2.693   1.820
 5850SOL    HW218450   0.015   2.853   1.844
 5851SOL     OW18451   4.867   3.754   3.381
 5851SOL    HW118452   4.868   3.772   3.283
 5851SOL    HW218453   4.896   3.660   3.398
 5852SOL     OW18454   6.603   5.769   2.986
 5852SOL    HW118455   6.668   5.702   2.951
 5852SOL    HW218456   6.627   5.859   2.952
 5853SOL     OW18457   3.499   5.877   4.438
 5853SOL    HW118458   3.587   5.872   4.485
 5853SOL    HW218459   3.509   5.843   4.345
 5854SOL     OW18460   5.185   4.573   5.828
 5854SOL    HW118461   5.101   4.617   5.860
 5854SOL    HW218462   5.199   4.592   5.731
 5855SOL     OW18463   0.361   1.130   5.089
 5855SOL    HW118464   0.335   1.043   5.131
 5855SOL    HW218465   0.357   1.202   5.158
 5856SOL     OW18466   1.873   5.581   3.655
 5856SOL    HW118467   1.782   5.622   3.655
 5856SOL    HW218468   1.898   5.554   3.747
 5857SOL     OW18469   6.729   1.889   6.085
 5857SOL    HW118470   6.703   1.828   6.160
 5857SOL    HW218471   6.648   1.914   6.032
 5858SOL     OW18472   2.522   2.117   2.265
 5858SOL    HW118473   2.528   2.066   2.179
 5858SOL    HW218474   2.593   2.187   2.267
 5859SOL     OW18475   5.771   6.194   1.064
 5859SOL    HW118476   5.737   6.102   1.046
 5859SOL    HW218477   5.736   6.257   0.995
 5860SOL     OW18478   1.116   3.749   2.174
 5860SOL    HW118479   1.032   3.801   2.160
 5860SOL    HW218480   1.150   3.716   2.086
 5861SOL     OW18481   4.408   1.893   4.390
 5861SOL    HW118482   4.350   1.905   4.309
 5861SOL    HW218483   4.440   1.798   4.394
 5862SOL     OW18484   5.270   5.245   1.348
 5862SOL    HW118485   5.217   5.166   1.378
 5862SOL    HW218486   5.244   5.268   1.254
 5863SOL     OW18487   3.021   1.412   4.916
 5863SOL    HW118488   3.076   1.494   4.927
 5863SOL    HW218489   2.930   1.436   4.882
 5864SOL     OW18490   4.076   3.474   1.973
 5864SOL    HW118491   4.107   3.380   1.984
 5864SOL    HW218492   4.027   3.504   2.055
 5865SOL     OW18493   5.952   0.482   5.301
 5865SOL    HW118494   5.952   0.478   5.201
 5865SOL    HW218495   6.000   0.564   5.331
 5866SOL     OW18496   4.178   4.087   0.327
 5866SOL    HW118497   4.244   4.090   0.402
 5866SOL    HW218498   4.102   4.149   0.347
 5867SOL     OW18499   1.317   3.765   0.772
 5867SOL    HW118500   1.233   3.711   0.770
 5867SOL    HW218501   1.302   3.849   0.825
 5868SOL     OW18502   1.029   1.489   5.583
 5868SOL    HW118503   0.963   1.520   5.514
 5868SOL    HW218504   0.980   1.449   5.661
 5869SOL     OW18505   1.795   6.245   3.550
 5869SOL    HW118506   1.865   6.174   3.542
 5869SOL    HW218507   1.709   6.212   3.511
 5870SOL     OW18508   5.272   5.986   4.751
 5870SOL    HW118509   5.306   5.903   4.707
 5870SOL    HW218510   5.244   6.052   4.681
 5871SOL     OW18511   3.963   2.593   1.246
 5871SOL    HW118512   4.057   2.559   1.243
 5871SOL    HW218513   3.922   2.566   1.333
 5872SOL     OW18514   3.794   6.356   1.078
 5872SOL    HW118515   3.816   6.321   0.986
 5872SOL    HW218516   3.695   6.362   1.088
 5873SOL     OW18517   2.823   2.087   1.536
 5873SOL    HW118518   2.810   1.996   1.577
 5873SOL    HW218519   2.885   2.141   1.592
 5874SOL     OW18520   2.776   3.970   6.886
 5874SOL    HW118521   2.809   3.997   6.976
 5874SOL    HW218522   2.706   4.034   6.855
 5875SOL     OW18523   4.390   0.898   6.415
 5875SOL    HW118524   4.320   0.934   6.354
 5875SOL    HW218525   4.480   0.909   6.372
 5876SOL     OW18526   3.123   3.940   0.712
 5876SOL    HW118527   3.091   3.916   0.620
 5876SOL    HW218528   3.142   3.857   0.763
 5877SOL     OW18529   0.330   0.459   1.101
 5877SOL    HW118530   0.370   0.546   1.132
 5877SOL    HW218531   0.393   0.413   1.039
 5878SOL     OW18532   5.991   5.260   4.455
 5878SOL    HW118533   6.082   5.226   4.428
 5878SOL    HW218534   5.989   5.276   4.553
 5879SOL     OW18535   1.598   3.667   0.204
 5879SOL    HW118536   1.501   3.669   0.181
 5879SOL    HW218537   1.644   3.597   0.148
 5880SOL     OW18538   5.471   4.583   6.838
 5880SOL    HW118539   5.536   4.589   6.763
 5880SOL    HW218540   5.511   4.624   6.920
 5881SOL     OW18541   1.099   6.955   1.832
 5881SOL    HW118542   1.139   6.880   1.884
 5881SOL    HW218543   1.096   6.930   1.735
 5882SOL     OW18544   0.590   5.553   6.402
 5882SOL    HW118545   0.669   5.556   6.463
 5882SOL    HW218546   0.617   5.510   6.315
 5883SOL     OW18547   0.483   1.746   6.575
 5883SOL    HW118548   0.439   1.836   6.575
 5883SOL    HW218549   0.458   1.695   6.657
 5884SOL     OW18550   4.613   0.845   4.458
 5884SOL    HW118551   4.608   0.915   4.387
 5884SOL    HW218552   4.707   0.812   4.465
 5885SOL     OW18553   0.343   5.427   2.589
 5885SOL    HW118554   0.313   5.383   2.504
 5885SOL    HW218555   0.325   5.525   2.583
 5886SOL     OW18556   0.757   1.846   3.801
 5886SOL    HW118557   0.676   1.904   3.790
 5886SOL    HW218558   0.826   1.895   3.855
 5887SOL     OW18559   2.332   2.443   1.659
 5887SOL    HW118560   2.393   2.425   1.582
 5887SOL    HW218561   2.374   2.512   1.719
 5888SOL     OW18562   2.005   6.966   1.008
 5888SOL    HW118563   1.983   0.031   1.057
 5888SOL    HW218564   1.943   6.957   0.929
 5889SOL     OW18565   6.657   1.778   6.339
 5889SOL    HW118566   6.683   1.819   6.426
 5889SOL    HW218567   6.661   1.678   6.347
 5890SOL     OW18568   2.527   0.640   2.639
 5890SOL    HW118569   2.544   0.671   2.733
 5890SOL    HW218570   2.436   0.671   2.610
 5891SOL     OW18571   2.714   3.619   0.254
 5891SOL    HW118572   2.655   3.595   0.331
 5891SOL    HW218573   2.736   3.537   0.201
 5892SOL     OW18574   1.163   5.270   2.050
 5892SOL    HW118575   1.145   5.176   2.023
 5892SOL    HW218576   1.165   5.276   2.150
 5893SOL     OW18577   2.236   4.438   2.029
 5893SOL    HW118578   2.174   4.383   1.972
 5893SOL    HW218579   2.292   4.377   2.085
 5894SOL     OW18580   0.848   5.613   4.882
 5894SOL    HW118581   0.924   5.572   4.832
 5894SOL    HW218582   0.801   5.679   4.824
 5895SOL     OW18583   5.521   3.691   3.752
 5895SOL    HW118584   5.529   3.780   3.707
 5895SOL    HW218585   5.450   3.696   3.822
 5896SOL     OW18586   4.572   1.538   1.358
 5896SOL    HW118587   4.657   1.543   1.305
 5896SOL    HW218588   4.591   1.496   1.447
 5897SOL     OW18589   3.865   0.745   1.903
 5897SOL    HW118590   3.911   0.831   1.883
 5897SOL    HW218591   3.767   0.762   1.914
 5898SOL     OW18592   2.744   0.749   4.719
 5898SOL    HW118593   2.792   0.685   4.779
 5898SOL    HW218594   2.650   0.719   4.706
 5899SOL     OW18595   6.278   5.941   6.941
 5899SOL    HW118596   6.207   5.903   6.881
 5899SOL    HW218597   6.347   5.988   6.886
 5900SOL     OW18598   6.732   4.517   2.945
 5900SOL    HW118599   6.830   4.498   2.939
 5900SOL    HW218600   6.691   4.461   3.018
 5901SOL     OW18601   3.471   0.345   0.892
 5901SOL    HW118602   3.382   0.380   0.920
 5901SOL    HW218603   3.511   0.290   0.966
 5902SOL     OW18604   6.009   3.463   5.548
 5902SOL    HW118605   6.035   3.556   5.522
 5902SOL    HW218606   6.089   3.416   5.586
 5903SOL     OW18607   4.508   4.238   5.986
 5903SOL    HW118608   4.549   4.155   6.025
 5903SOL    HW218609   4.410   4.240   6.006
 5904SOL     OW18610   0.789   4.098   1.029
 5904SOL    HW118611   0.714   4.139   1.080
 5904SOL    HW218612   0.876   4.135   1.062
 5905SOL     OW18613   6.633   0.398   3.417
 5905SOL    HW118614   6.691   0.475   3.443
 5905SOL    HW218615   6.572   0.375   3.493
 5906SOL     OW18616   4.476   1.819   3.855
 5906SOL    HW118617   4.519   1.807   3.945
 5906SOL    HW218618   4.532   1.881   3.799
 5907SOL     OW18619   0.842   6.131   0.599
 5907SOL    HW118620   0.859   6.045   0.552
 5907SOL    HW218621   0.928   6.164   0.640
 5908SOL     OW18622   6.328   3.740   0.160
 5908SOL    HW118623   6.365   3.820   0.207
 5908SOL    HW218624   6.300   3.672   0.227
 5909SOL     OW18625   6.509   4.823   6.361
 5909SOL    HW118626   6.455   4.906   6.347
 5909SOL    HW218627   6.602   4.848   6.388
 5910SOL     OW18628   0.243   4.453   1.518
 5910SOL    HW118629   0.255   4.536   1.572
 5910SOL    HW218630   0.308   4.453   1.442
 5911SOL     OW18631   6.542   4.594   6.731
 5911SOL    HW118632   6.628   4.611   6.682
 5911SOL    HW218633   6.469   4.578   6.664
 5912SOL     OW18634   5.913   2.806   6.683
 5912SOL    HW118635   5.922   2.843   6.775
 5912SOL    HW218636   5.881   2.877   6.621
 5913SOL     OW18637   3.272   2.876   6.445
 5913SOL    HW118638   3.204   2.929   6.495
 5913SOL    HW218639   3.250   2.878   6.347
 5914SOL     OW18640   2.645   5.762   6.005
 5914SOL    HW118641   2.696   5.838   6.045
 5914SOL    HW218642   2.660   5.759   5.907
 5915SOL     OW18643   5.596   4.292   1.724
 5915SOL    HW118644   5.670   4.354   1.698
 5915SOL    HW218645   5.517   4.345   1.754
 5916SOL     OW18646   4.636   5.960   5.490
 5916SOL    HW118647   4.546   5.918   5.479
 5916SOL    HW218648   4.633   6.054   5.457
 5917SOL     OW18649   3.806   3.532   3.859
 5917SOL    HW118650   3.765   3.454   3.907
 5917SOL    HW218651   3.904   3.535   3.878
 5918SOL     OW18652   2.098   3.161   5.297
 5918SOL    HW118653   2.149   3.208   5.225
 5918SOL    HW218654   2.008   3.202   5.307
 5919SOL     OW18655   4.076   2.341   1.001
 5919SOL    HW118656   4.030   2.430   0.995
 5919SOL    HW218657   4.008   2.269   1.008
 5920SOL     OW18658   3.650   0.177   0.327
 5920SOL    HW118659   3.589   0.249   0.356
 5920SOL    HW218660   3.612   0.131   0.247
 5921SOL     OW18661   3.266   5.100   5.775
 5921SOL    HW118662   3.363   5.077   5.781
 5921SOL    HW218663   3.211   5.017   5.784
 5922SOL     OW18664   6.782   5.238   3.441
 5922SOL    HW118665   6.744   5.164   3.385
 5922SOL    HW218666   6.758   5.326   3.401
 5923SOL     OW18667   5.535   0.689   0.868
 5923SOL    HW118668   5.557   0.616   0.803
 5923SOL    HW218669   5.586   0.674   0.953
 5924SOL     OW18670   0.080   1.498   4.643
 5924SOL    HW118671   0.113   1.589   4.617
 5924SOL    HW218672   0.155   1.433   4.641
 5925SOL     OW18673   4.212   5.755   2.620
 5925SOL    HW118674   4.136   5.735   2.682
 5925SOL    HW218675   4.235   5.852   2.626
 5926SOL     OW18676   3.938   5.065   2.099
 5926SOL    HW118677   3.908   4.974   2.129
 5926SOL    HW218678   3.868   5.106   2.042
 5927SOL     OW18679   1.683   4.242   2.995
 5927SOL    HW118680   1.677   4.196   3.083
 5927SOL    HW218681   1.593   4.242   2.951
 5928SOL     OW18682   3.509   0.172   1.134
 5928SOL    HW118683   3.605   0.149   1.149
 5928SOL    HW218684   3.479   0.236   1.205
 5929SOL     OW18685   0.890   6.042   6.020
 5929SOL    HW118686   0.849   6.073   6.106
 5929SOL    HW218687   0.850   5.955   5.994
 5930SOL     OW18688   6.805   1.997   3.458
 5930SOL    HW118689   6.800   2.001   3.558
 5930SOL    HW218690   6.713   2.009   3.419
 5931SOL     OW18691   6.080   5.385   3.280
 5931SOL    HW118692   6.130   5.335   3.350
 5931SOL    HW218693   6.062   5.478   3.312
 5932SOL     OW18694   2.410   6.852   0.881
 5932SOL    HW118695   2.482   6.805   0.831
 5932SOL    HW218696   2.321   6.834   0.838
 5933SOL     OW18697   0.599   5.972   3.391
 5933SOL    HW118698   0.608   6.037   3.315
 5933SOL    HW218699   0.670   5.902   3.382
 5934SOL     OW18700   3.607   4.118   3.986
 5934SOL    HW118701   3.614   4.051   4.060
 5934SOL    HW218702   3.520   4.166   3.992
 5935SOL     OW18703   4.038   3.432   5.773
 5935SOL    HW118704   4.016   3.482   5.689
 5935SOL    HW218705   4.033   3.334   5.756
 5936SOL     OW18706   4.227   3.997   0.605
 5936SOL    HW118707   4.303   3.934   0.595
 5936SOL    HW218708   4.149   3.950   0.647
 5937SOL     OW18709   0.671   4.662   2.655
 5937SOL    HW118710   0.734   4.736   2.681
 5937SOL    HW218711   0.718   4.574   2.667
 5938SOL     OW18712   1.051   4.925   4.079
 5938SOL    HW118713   0.996   4.843   4.069
 5938SOL    HW218714   1.009   5.000   4.027
 5939SOL     OW18715   3.345   0.060   3.469
 5939SOL    HW118716   3.261   0.067   3.523
 5939SOL    HW218717   3.416   0.015   3.524
 5940SOL     OW18718   4.340   5.682   1.155
 5940SOL    HW118719   4.399   5.757   1.125
 5940SOL    HW218720   4.264   5.718   1.209
 5941SOL     OW18721   6.278   3.374   1.734
 5941SOL    HW118722   6.211   3.385   1.808
 5941SOL    HW218723   6.370   3.390   1.770
 5942SOL     OW18724   4.712   2.740   0.097
 5942SOL    HW118725   4.765   2.759   0.015
 5942SOL    HW218726   4.617   2.721   0.072
 5943SOL     OW18727   3.376   5.270   0.711
 5943SOL    HW118728   3.285   5.296   0.745
 5943SOL    HW218729   3.423   5.217   0.781
 5944SOL     OW18730   5.844   2.735   1.030
 5944SOL    HW118731   5.798   2.809   0.981
 5944SOL    HW218732   5.921   2.771   1.081
 5945SOL     OW18733   6.249   5.060   5.510
 5945SOL    HW118734   6.313   5.117   5.562
 5945SOL    HW218735   6.161   5.056   5.558
 5946SOL     OW18736   3.322   3.738   5.823
 5946SOL    HW118737   3.307   3.810   5.756
 5946SOL    HW218738   3.346   3.780   5.911
 5947SOL     OW18739   3.945   3.016   2.110
 5947SOL    HW118740   3.991   3.022   2.199
 5947SOL    HW218741   4.001   2.964   2.046
 5948SOL     OW18742   4.133   5.020   3.187
 5948SOL    HW118743   4.045   5.067   3.192
 5948SOL    HW218744   4.119   4.922   3.200
 5949SOL     OW18745   3.822   3.274   1.422
 5949SOL    HW118746   3.830   3.296   1.519
 5949SOL    HW218747   3.895   3.320   1.371
 5950SOL     OW18748   5.021   2.762   5.626
 5950SOL    HW118749   5.004   2.734   5.720
 5950SOL    HW218750   4.977   2.698   5.563
 5951SOL     OW18751   0.140   5.638   4.460
 5951SOL    HW118752   0.193   5.570   4.409
 5951SOL    HW218753   0.155   5.728   4.419
 5952SOL     OW18754   5.279   5.081   4.033
 5952SOL    HW118755   5.267   5.178   4.054
 5952SOL    HW218756   5.318   5.071   3.941
 5953SOL     OW18757   6.565   2.738   5.089
 5953SOL    HW118758   6.465   2.729   5.096
 5953SOL    HW218759   6.598   2.803   5.158
 5954SOL     OW18760   6.958   4.435   5.664
 5954SOL    HW118761   6.998   4.500   5.730
 5954SOL    HW218762   0.008   4.368   5.638
 5955SOL     OW18763   5.190   5.605   2.803
 5955SOL    HW118764   5.122   5.628   2.872
 5955SOL    HW218765   5.146   5.604   2.713
 5956SOL     OW18766   3.507   1.301   5.464
 5956SOL    HW118767   3.413   1.311   5.495
 5956SOL    HW218768   3.566   1.364   5.515
 5957SOL     OW18769   4.292   0.678   5.810
 5957SOL    HW118770   4.357   0.631   5.750
 5957SOL    HW218771   4.213   0.620   5.826
 5958SOL     OW18772   6.243   5.936   2.370
 5958SOL    HW118773   6.181   5.890   2.307
 5958SOL    HW218774   6.299   6.003   2.320
 5959SOL     OW18775   3.776   2.303   5.723
 5959SOL    HW118776   3.757   2.226   5.661
 5959SOL    HW218777   3.690   2.344   5.752
 5960SOL     OW18778   3.989   5.982   4.740
 5960SOL    HW118779   3.969   5.899   4.791
 5960SOL    HW218780   4.003   6.058   4.804
 5961SOL     OW18781   5.151   1.334   3.036
 5961SOL    HW118782   5.052   1.333   3.020
 5961SOL    HW218783   5.195   1.396   2.971
 5962SOL     OW18784   4.547   6.083   1.086
 5962SOL    HW118785   4.452   6.093   1.056
 5962SOL    HW218786   4.607   6.127   1.019
 5963SOL     OW18787   3.556   2.887   5.033
 5963SOL    HW118788   3.480   2.832   5.068
 5963SOL    HW218789   3.569   2.867   4.936
 5964SOL     OW18790   0.003   5.312   5.583
 5964SOL    HW118791   0.073   5.265   5.530
 5964SOL    HW218792   7.002   5.260   5.666
 5965SOL     OW18793   1.180   2.437   0.089
 5965SOL    HW118794   1.112   2.447   0.162
 5965SOL    HW218795   1.211   2.528   0.061
 5966SOL     OW18796   2.204   6.060   4.729
 5966SOL    HW118797   2.206   5.962   4.709
 5966SOL    HW218798   2.269   6.080   4.803
 5967SOL     OW18799   3.883   6.026   0.242
 5967SOL    HW118800   3.838   6.101   0.290
 5967SOL    HW218801   3.963   6.061   0.193
 5968SOL     OW18802   4.898   1.014   1.796
 5968SOL    HW118803   4.893   1.099   1.743
 5968SOL    HW218804   4.807   0.988   1.827
 5969SOL     OW18805   6.925   0.940   6.453
 5969SOL    HW118806   6.899   1.030   6.487
 5969SOL    HW218807   6.891   0.869   6.515
 5970SOL     OW18808   0.687   4.173   2.581
 5970SOL    HW118809   0.642   4.178   2.670
 5970SOL    HW218810   0.774   4.124   2.590
 5971SOL     OW18811   1.483   1.352   3.187
 5971SOL    HW118812   1.498   1.259   3.220
 5971SOL    HW218813   1.461   1.350   3.090
 5972SOL     OW18814   5.222   6.375   6.895
 5972SOL    HW118815   5.169   6.292   6.877
 5972SOL    HW218816   5.315   6.349   6.923
 5973SOL     OW18817   1.757   3.749   2.297
 5973SOL    HW118818   1.857   3.743   2.307
 5973SOL    HW218819   1.730   3.706   2.211
 5974SOL     OW18820   5.508   4.651   6.528
 5974SOL    HW118821   5.495   4.556   6.498
 5974SOL    HW218822   5.601   4.679   6.507
 5975SOL     OW18823   3.457   2.013   0.968
 5975SOL    HW118824   3.552   2.011   0.936
 5975SOL    HW218825   3.395   2.014   0.890
 5976SOL     OW18826   3.181   3.618   5.037
 5976SOL    HW118827   3.248   3.692   5.022
 5976SOL    HW218828   3.191   3.550   4.964
 5977SOL     OW18829   2.436   4.967   1.279
 5977SOL    HW118830   2.471   4.916   1.358
 5977SOL    HW218831   2.430   5.064   1.301
 5978SOL     OW18832   4.986   5.849   3.383
 5978SOL    HW118833   5.005   5.812   3.293
 5978SOL    HW218834   5.055   5.918   3.406
 5979SOL     OW18835   6.427   0.069   2.662
 5979SOL    HW118836   6.376   7.002   2.653
 5979SOL    HW218837   6.394   0.120   2.741
 5980SOL     OW18838   3.632   3.442   0.261
 5980SOL    HW118839   3.724   3.408   0.284
 5980SOL    HW218840   3.636   3.541   0.248
 5981SOL     OW18841   6.188   0.950   2.142
 5981SOL    HW118842   6.169   1.044   2.170
 5981SOL    HW218843   6.144   0.931   2.054
 5982SOL     OW18844   6.841   2.564   1.217
 5982SOL    HW118845   6.910   2.615   1.268
 5982SOL    HW218846   6.750   2.595   1.244
 5983SOL     OW18847   1.684   1.105   4.485
 5983SOL    HW118848   1.751   1.043   4.445
 5983SOL    HW218849   1.611   1.051   4.528
 5984SOL     OW18850   6.496   6.683   5.178
 5984SOL    HW118851   6.406   6.712   5.144
 5984SOL    HW218852   6.568   6.730   5.125
 5985SOL     OW18853   6.476   3.181   4.278
 5985SOL    HW118854   6.438   3.272   4.296
 5985SOL    HW218855   6.444   3.117   4.347
 5986SOL     OW18856   3.158   3.440   4.287
 5986SOL    HW118857   3.244   3.490   4.291
 5986SOL    HW218858   3.084   3.499   4.322
 5987SOL     OW18859   4.422   0.822   4.877
 5987SOL    HW118860   4.476   0.750   4.834
 5987SOL    HW218861   4.346   0.848   4.819
 5988SOL     OW18862   5.218   6.944   5.720
 5988SOL    HW118863   5.297   6.883   5.723
 5988SOL    HW218864   5.245   0.014   5.757
 5989SOL     OW18865   2.977   5.897   0.559
 5989SOL    HW118866   2.948   5.835   0.486
 5989SOL    HW218867   3.049   5.958   0.525
 5990SOL     OW18868   3.870   4.459   0.584
 5990SOL    HW118869   3.923   4.509   0.653
 5990SOL    HW218870   3.831   4.524   0.518
 5991SOL     OW18871   3.644   5.509   5.969
 5991SOL    HW118872   3.721   5.570   5.987
 5991SOL    HW218873   3.645   5.481   5.873
 5992SOL     OW18874   3.479   0.755   3.147
 5992SOL    HW118875   3.393   0.747   3.097
 5992SOL    HW218876   3.535   0.827   3.105
 5993SOL     OW18877   3.273   5.609   5.869
 5993SOL    HW118878   3.304   5.688   5.922
 5993SOL    HW218879   3.238   5.641   5.780
 5994SOL     OW18880   6.670   2.370   2.180
 5994SOL    HW118881   6.763   2.358   2.216
 5994SOL    HW218882   6.655   2.466   2.157
 5995SOL     OW18883   5.706   5.179   2.448
 5995SOL    HW118884   5.748   5.267   2.467
 5995SOL    HW218885   5.759   5.106   2.490
 5996SOL     OW18886   0.922   5.908   0.451
 5996SOL    HW118887   0.870   5.853   0.385
 5996SOL    HW218888   0.984   5.849   0.502
 5997SOL     OW18889   1.100   5.990   2.800
 5997SOL    HW118890   1.015   5.940   2.818
 5997SOL    HW218891   1.148   6.005   2.886
 5998SOL     OW18892   6.281   2.232   1.936
 5998SOL    HW118893   6.181   2.230   1.946
 5998SOL    HW218894   6.323   2.237   2.027
 5999SOL     OW18895   1.708   1.539   2.491
 5999SOL    HW118896   1.790   1.529   2.435
 5999SOL    HW218897   1.627   1.522   2.436
 6000SOL     OW18898   4.011   0.063   1.883
 6000SOL    HW118899   3.929   0.084   1.936
 6000SOL    HW218900   4.056   0.147   1.855
 6001SOL     OW18901   0.219   4.099   6.160
 6001SOL    HW118902   0.155   4.064   6.092
 6001SOL    HW218903   0.247   4.025   6.221
 6002SOL     OW18904   6.718   0.360   1.272
 6002SOL    HW118905   6.775   0.420   1.328
 6002SOL    HW218906   6.769   0.334   1.189
 6003SOL     OW18907   0.217   2.273   3.911
 6003SOL    HW118908   0.123   2.275   3.945
 6003SOL    HW218909   0.262   2.359   3.932
 6004SOL     OW18910   0.466   4.663   3.412
 6004SOL    HW118911   0.414   4.612   3.480
 6004SOL    HW218912   0.424   4.753   3.400
 6005SOL     OW18913   4.786   5.192   4.765
 6005SOL    HW118914   4.698   5.157   4.733
 6005SOL    HW218915   4.775   5.232   4.856
 6006SOL     OW18916   2.362   0.698   6.672
 6006SOL    HW118917   2.360   0.771   6.740
 6006SOL    HW218918   2.456   0.667   6.659
 6007SOL     OW18919   5.017   3.574   5.181
 6007SOL    HW118920   5.004   3.559   5.279
 6007SOL    HW218921   4.934   3.614   5.142
 6008SOL     OW18922   1.908   4.721   5.651
 6008SOL    HW118923   1.851   4.792   5.691
 6008SOL    HW218924   1.853   4.640   5.631
 6009SOL     OW18925   4.150   0.959   4.445
 6009SOL    HW118926   4.114   1.029   4.383
 6009SOL    HW218927   4.076   0.898   4.473
 6010SOL     OW18928   1.431   3.698   3.606
 6010SOL    HW118929   1.408   3.606   3.638
 6010SOL    HW218930   1.368   3.764   3.646
 6011SOL     OW18931   4.858   2.990   2.977
 6011SOL    HW118932   4.860   3.089   2.960
 6011SOL    HW218933   4.816   2.973   3.066
 6012SOL     OW18934   5.326   0.990   0.304
 6012SOL    HW118935   5.275   0.983   0.390
 6012SOL    HW218936   5.422   0.964   0.320
 6013SOL     OW18937   5.978   2.839   2.497
 6013SOL    HW118938   5.981   2.908   2.570
 6013SOL    HW218939   5.930   2.877   2.418
 6014SOL     OW18940   4.221   3.006   0.645
 6014SOL    HW118941   4.252   2.974   0.556
 6014SOL    HW218942   4.295   2.995   0.712
 6015SOL     OW18943   5.515   2.297   4.835
 6015SOL    HW118944   5.504   2.231   4.761
 6015SOL    HW218945   5.539   2.249   4.919
 6016SOL     OW18946   6.660   1.502   6.019
 6016SOL    HW118947   6.637   1.562   5.943
 6016SOL    HW218948   6.757   1.478   6.015
 6017SOL     OW18949   0.194   4.508   2.698
 6017SOL    HW118950   0.143   4.443   2.754
 6017SOL    HW218951   0.238   4.460   2.622
 6018SOL     OW18952   3.124   0.984   6.917
 6018SOL    HW118953   3.161   0.960   6.828
 6018SOL    HW218954   3.126   0.905   6.977
 6019SOL     OW18955   6.329   1.751   4.110
 6019SOL    HW118956   6.400   1.726   4.176
 6019SOL    HW218957   6.370   1.764   4.020
 6020SOL     OW18958   2.245   4.963   1.577
 6020SOL    HW118959   2.263   5.052   1.535
 6020SOL    HW218960   2.330   4.911   1.585
 6021SOL     OW18961   4.131   1.178   2.195
 6021SOL    HW118962   4.215   1.220   2.161
 6021SOL    HW218963   4.155   1.102   2.256
 6022SOL     OW18964   4.983   1.841   4.833
 6022SOL    HW118965   5.011   1.935   4.850
 6022SOL    HW218966   4.916   1.813   4.901
 6023SOL     OW18967   5.900   1.108   2.003
 6023SOL    HW118968   5.941   1.198   2.017
 6023SOL    HW218969   5.967   1.046   1.962
 6024SOL     OW18970   0.545   4.521   3.013
 6024SOL    HW118971   0.606   4.521   3.092
 6024SOL    HW218972   0.538   4.614   2.977
 6025SOL     OW18973   3.665   1.600   2.525
 6025SOL    HW118974   3.577   1.632   2.560
 6025SOL    HW218975   3.729   1.676   2.521
 6026SOL     OW18976   0.043   4.258   4.618
 6026SOL    HW118977   7.015   4.180   4.575
 6026SOL    HW218978   0.042   4.246   4.717
 6027SOL     OW18979   1.147   3.577   6.135
 6027SOL    HW118980   1.241   3.543   6.135
 6027SOL    HW218981   1.140   3.655   6.196
 6028SOL     OW18982   0.803   4.440   0.539
 6028SOL    HW118983   0.733   4.486   0.592
 6028SOL    HW218984   0.844   4.367   0.593
 6029SOL     OW18985   2.217   6.517   4.976
 6029SOL    HW118986   2.285   6.526   4.904
 6029SOL    HW218987   2.244   6.573   5.055
 6030SOL     OW18988   4.393   6.278   2.864
 6030SOL    HW118989   4.334   6.292   2.785
 6030SOL    HW218990   4.439   6.363   2.888
 6031SOL     OW18991   3.889   5.201   3.242
 6031SOL    HW118992   3.940   5.286   3.255
 6031SOL    HW218993   3.855   5.169   3.331
 6032SOL     OW18994   2.267   4.179   3.197
 6032SOL    HW118995   2.199   4.252   3.207
 6032SOL    HW218996   2.328   4.200   3.121
 6033SOL     OW18997   3.007   1.655   2.347
 6033SOL    HW118998   3.093   1.607   2.360
 6033SOL    HW218999   2.959   1.617   2.268
 6034SOL     OW19000   1.362   5.459   4.486
 6034SOL    HW119001   1.370   5.362   4.462
 6034SOL    HW219002   1.405   5.475   4.575
 6035SOL     OW19003   0.129   0.321   2.621
 6035SOL    HW119004   0.043   0.294   2.664
 6035SOL    HW219005   0.116   0.410   2.575
 6036SOL     OW19006   6.486   6.067   4.377
 6036SOL    HW119007   6.551   6.115   4.435
 6036SOL    HW219008   6.402   6.121   4.368
 6037SOL     OW19009   4.255   5.148   6.078
 6037SOL    HW119010   4.183   5.218   6.078
 6037SOL    HW219011   4.316   5.164   6.155
 6038SOL     OW19012   1.282   3.058   6.342
 6038SOL    HW119013   1.330   2.985   6.294
 6038SOL    HW219014   1.316   3.147   6.309
 6039SOL     OW19015   3.087   3.064   2.667
 6039SOL    HW119016   3.105   3.120   2.586
 6039SOL    HW219017   3.039   3.118   2.736
 6040SOL     OW19018   0.518   2.078   6.490
 6040SOL    HW119019   0.510   2.029   6.403
 6040SOL    HW219020   0.612   2.110   6.502
 6041SOL     OW19021   2.236   0.586   5.122
 6041SOL    HW119022   2.189   0.658   5.174
 6041SOL    HW219023   2.259   0.621   5.032
 6042SOL     OW19024   5.156   5.762   2.323
 6042SOL    HW119025   5.236   5.822   2.323
 6042SOL    HW219026   5.143   5.723   2.231
 6043SOL     OW19027   0.761   4.321   5.515
 6043SOL    HW119028   0.735   4.224   5.520
 6043SOL    HW219029   0.813   4.346   5.597
 6044SOL     OW19030   1.701   2.022   1.384
 6044SOL    HW119031   1.705   2.061   1.477
 6044SOL    HW219032   1.610   1.982   1.369
 6045SOL     OW19033   6.478   5.072   0.668
 6045SOL    HW119034   6.480   5.068   0.768
 6045SOL    HW219035   6.387   5.100   0.638
 6046SOL     OW19036   2.996   1.915   0.177
 6046SOL    HW119037   3.021   1.927   0.273
 6046SOL    HW219038   3.055   1.845   0.136
 6047SOL     OW19039   5.980   2.578   2.083
 6047SOL    HW119040   5.983   2.654   2.148
 6047SOL    HW219041   6.040   2.598   2.005
 6048SOL     OW19042   4.536   6.319   4.188
 6048SOL    HW119043   4.635   6.328   4.177
 6048SOL    HW219044   4.516   6.248   4.256
 6049SOL     OW19045   6.056   3.353   5.839
 6049SOL    HW119046   6.023   3.260   5.853
 6049SOL    HW219047   6.125   3.354   5.766
 6050SOL     OW19048   2.957   4.984   5.204
 6050SOL    HW119049   2.921   5.073   5.175
 6050SOL    HW219050   2.891   4.912   5.180
 6051SOL     OW19051   2.207   1.707   4.287
 6051SOL    HW119052   2.268   1.644   4.336
 6051SOL    HW219053   2.178   1.666   4.201
 6052SOL     OW19054   6.289   6.581   0.452
 6052SOL    HW119055   6.214   6.608   0.512
 6052SOL    HW219056   6.324   6.491   0.480
 6053SOL     OW19057   3.279   0.945   6.179
 6053SOL    HW119058   3.212   1.020   6.176
 6053SOL    HW219059   3.311   0.925   6.086
 6054SOL     OW19060   2.547   3.909   0.441
 6054SOL    HW119061   2.643   3.887   0.421
 6054SOL    HW219062   2.539   3.935   0.537
 6055SOL     OW19063   5.396   1.304   5.757
 6055SOL    HW119064   5.493   1.329   5.763
 6055SOL    HW219065   5.342   1.386   5.736
 6056SOL     OW19066   5.132   2.837   4.673
 6056SOL    HW119067   5.072   2.786   4.734
 6056SOL    HW219068   5.079   2.875   4.598
 6057SOL     OW19069   5.381   2.935   4.562
 6057SOL    HW119070   5.410   3.013   4.618
 6057SOL    HW219071   5.306   2.888   4.608
 6058SOL     OW19072   4.939   2.680   1.811
 6058SOL    HW119073   4.904   2.672   1.904
 6058SOL    HW219074   4.992   2.764   1.802
 6059SOL     OW19075   4.728   5.464   4.934
 6059SOL    HW119076   4.742   5.545   4.990
 6059SOL    HW219077   4.723   5.383   4.993
 6060SOL     OW19078   3.452   4.207   6.567
 6060SOL    HW119079   3.532   4.245   6.521
 6060SOL    HW219080   3.399   4.154   6.501
 6061SOL     OW19081   3.818   2.138   1.371
 6061SOL    HW119082   3.780   2.216   1.320
 6061SOL    HW219083   3.760   2.119   1.450
 6062SOL     OW19084   1.590   1.595   5.004
 6062SOL    HW119085   1.571   1.497   5.003
 6062SOL    HW219086   1.677   1.613   4.958
 6063SOL     OW19087   3.310   1.396   6.611
 6063SOL    HW119088   3.256   1.329   6.560
 6063SOL    HW219089   3.250   1.471   6.640
 6064SOL     OW19090   2.497   6.352   1.624
 6064SOL    HW119091   2.559   6.429   1.639
 6064SOL    HW219092   2.525   6.302   1.542
 6065SOL     OW19093   5.750   6.702   2.273
 6065SOL    HW119094   5.815   6.756   2.219
 6065SOL    HW219095   5.754   6.606   2.245
 6066SOL     OW19096   4.575   1.850   6.483
 6066SOL    HW119097   4.598   1.888   6.394
 6066SOL    HW219098   4.577   1.923   6.552
 6067SOL     OW19099   5.292   1.457   6.072
 6067SOL    HW119100   5.341   1.370   6.075
 6067SOL    HW219101   5.210   1.451   6.129
 6068SOL     OW19102   5.711   2.818   4.877
 6068SOL    HW119103   5.667   2.734   4.846
 6068SOL    HW219104   5.780   2.847   4.811
 6069SOL     OW19105   6.765   3.257   5.288
 6069SOL    HW119106   6.750   3.269   5.190
 6069SOL    HW219107   6.700   3.313   5.340
 6070SOL     OW19108   2.667   2.062   6.845
 6070SOL    HW119109   2.750   2.117   6.853
 6070SOL    HW219110   2.590   2.123   6.824
 6071SOL     OW19111   5.932   4.766   4.540
 6071SOL    HW119112   5.846   4.717   4.525
 6071SOL    HW219113   6.000   4.703   4.575
 6072SOL     OW19114   6.858   0.049   2.209
 6072SOL    HW119115   6.790   0.120   2.222
 6072SOL    HW219116   6.867   7.013   2.292
 6073SOL     OW19117   6.208   4.077   0.589
 6073SOL    HW119118   6.250   4.151   0.537
 6073SOL    HW219119   6.258   3.992   0.572
 6074SOL     OW19120   1.184   6.463   4.332
 6074SOL    HW119121   1.209   6.532   4.400
 6074SOL    HW219122   1.118   6.501   4.267
 6075SOL     OW19123   7.005   1.967   0.036
 6075SOL    HW119124   0.043   1.889   0.012
 6075SOL    HW219125   6.925   1.935   0.086
 6076SOL     OW19126   2.102   5.817   4.117
 6076SOL    HW119127   2.171   5.876   4.076
 6076SOL    HW219128   2.145   5.756   4.183
 6077SOL     OW19129   4.883   5.827   1.797
 6077SOL    HW119130   4.965   5.884   1.802
 6077SOL    HW219131   4.811   5.877   1.750
 6078SOL     OW19132   3.973   4.948   1.499
 6078SOL    HW119133   4.013   5.028   1.454
 6078SOL    HW219134   3.920   4.977   1.578
 6079SOL     OW19135   3.089   2.657   6.202
 6079SOL    HW119136   3.033   2.740   6.199
 6079SOL    HW219137   3.175   2.673   6.154
 6080SOL     OW19138   6.879   0.904   1.674
 6080SOL    HW119139   6.870   0.805   1.659
 6080SOL    HW219140   6.795   0.950   1.646
 6081SOL     OW19141   6.046   3.281   5.053
 6081SOL    HW119142   6.124   3.224   5.028
 6081SOL    HW219143   5.969   3.222   5.079
 6082SOL     OW19144   2.657   1.753   3.290
 6082SOL    HW119145   2.715   1.686   3.244
 6082SOL    HW219146   2.571   1.763   3.239
 6083SOL     OW19147   0.171   5.118   6.640
 6083SOL    HW119148   0.142   5.199   6.691
 6083SOL    HW219149   0.259   5.135   6.596
 6084SOL     OW19150   0.209   5.532   3.450
 6084SOL    HW119151   0.167   5.466   3.387
 6084SOL    HW219152   0.241   5.612   3.398
 6085SOL     OW19153   0.412   4.414   0.337
 6085SOL    HW119154   0.464   4.344   0.387
 6085SOL    HW219155   0.468   4.449   0.262
 6086SOL     OW19156   3.027   1.535   5.490
 6086SOL    HW119157   3.112   1.538   5.436
 6086SOL    HW219158   2.982   1.623   5.485
 6087SOL     OW19159   4.165   5.746   0.317
 6087SOL    HW119160   4.260   5.729   0.341
 6087SOL    HW219161   4.138   5.686   0.242
 6088SOL     OW19162   5.902   6.527   5.003
 6088SOL    HW119163   5.915   6.525   4.904
 6088SOL    HW219164   5.863   6.615   5.030
 6089SOL     OW19165   6.848   3.224   1.281
 6089SOL    HW119166   6.768   3.271   1.320
 6089SOL    HW219167   6.837   3.126   1.292
 6090SOL     OW19168   2.116   6.440   5.648
 6090SOL    HW119169   2.081   6.519   5.598
 6090SOL    HW219170   2.146   6.469   5.739
 6091SOL     OW19171   2.130   1.833   2.173
 6091SOL    HW119172   2.070   1.820   2.094
 6091SOL    HW219173   2.130   1.929   2.201
 6092SOL     OW19174   3.078   0.358   3.197
 6092SOL    HW119175   3.172   0.387   3.181
 6092SOL    HW219176   3.021   0.438   3.216
 6093SOL     OW19177   0.749   3.259   3.076
 6093SOL    HW119178   0.782   3.316   3.151
 6093SOL    HW219179   0.668   3.208   3.106
 6094SOL     OW19180   4.108   0.830   1.653
 6094SOL    HW119181   4.013   0.852   1.634
 6094SOL    HW219182   4.167   0.871   1.584
 6095SOL     OW19183   4.226   3.856   6.743
 6095SOL    HW119184   4.302   3.914   6.774
 6095SOL    HW219185   4.245   3.761   6.768
 6096SOL     OW19186   5.867   0.589   4.272
 6096SOL    HW119187   5.943   0.539   4.230
 6096SOL    HW219188   5.848   0.551   4.362
 6097SOL     OW19189   1.673   0.384   2.134
 6097SOL    HW119190   1.658   0.474   2.093
 6097SOL    HW219191   1.749   0.338   2.088
 6098SOL     OW19192   1.470   2.409   6.668
 6098SOL    HW119193   1.470   2.323   6.617
 6098SOL    HW219194   1.504   2.394   6.760
 6099SOL     OW19195   0.125   6.015   0.537
 6099SOL    HW119196   0.135   6.111   0.511
 6099SOL    HW219197   0.185   5.995   0.615
 6100SOL     OW19198   4.563   3.541   0.100
 6100SOL    HW119199   4.660   3.528   0.119
 6100SOL    HW219200   4.527   3.615   0.156
 6101SOL     OW19201   6.544   1.876   4.790
 6101SOL    HW119202   6.517   1.798   4.734
 6101SOL    HW219203   6.466   1.936   4.805
 6102SOL     OW19204   3.523   0.364   3.377
 6102SOL    HW119205   3.445   0.401   3.427
 6102SOL    HW219206   3.582   0.313   3.439
 6103SOL     OW19207   0.769   2.483   2.341
 6103SOL    HW119208   0.728   2.393   2.329
 6103SOL    HW219209   0.849   2.492   2.281
 6104SOL     OW19210   6.160   1.564   5.570
 6104SOL    HW119211   6.079   1.607   5.531
 6104SOL    HW219212   6.205   1.627   5.633
 6105SOL     OW19213   1.714   0.968   5.519
 6105SOL    HW119214   1.763   0.912   5.586
 6105SOL    HW219215   1.746   1.062   5.524
 6106SOL     OW19216   1.578   3.856   5.761
 6106SOL    HW119217   1.618   3.770   5.728
 6106SOL    HW219218   1.519   3.838   5.839
 6107SOL     OW19219   2.682   4.628   4.263
 6107SOL    HW119220   2.747   4.693   4.224
 6107SOL    HW219221   2.618   4.598   4.193
 6108SOL     OW19222   0.916   2.636   2.146
 6108SOL    HW119223   0.837   2.651   2.086
 6108SOL    HW219224   0.938   2.720   2.194
 6109SOL     OW19225   5.007   3.148   6.317
 6109SOL    HW119226   4.975   3.063   6.275
 6109SOL    HW219227   4.952   3.224   6.284
 6110SOL     OW19228   3.488   2.726   6.933
 6110SOL    HW119229   3.446   2.665   7.000
 6110SOL    HW219230   3.450   2.818   6.943
 6111SOL     OW19231   2.493   4.491   2.315
 6111SOL    HW119232   2.475   4.511   2.412
 6111SOL    HW219233   2.448   4.405   2.290
 6112SOL     OW19234   3.255   0.413   3.484
 6112SOL    HW119235   3.178   0.401   3.421
 6112SOL    HW219236   3.276   0.510   3.494
 6113SOL     OW19237   0.968   1.147   5.950
 6113SOL    HW119238   1.055   1.193   5.967
 6113SOL    HW219239   0.977   1.050   5.970
 6114SOL     OW19240   4.873   4.911   0.911
 6114SOL    HW119241   4.871   5.004   0.874
 6114SOL    HW219242   4.781   4.886   0.941
 6115SOL     OW19243   5.571   6.665   3.389
 6115SOL    HW119244   5.624   6.585   3.361
 6115SOL    HW219245   5.473   6.642   3.384
 6116SOL     OW19246   2.386   0.902   0.144
 6116SOL    HW119247   2.378   0.836   0.219
 6116SOL    HW219248   2.310   0.968   0.150
 6117SOL     OW19249   6.830   0.700   6.003
 6117SOL    HW119250   6.926   0.729   6.002
 6117SOL    HW219251   6.822   0.616   6.058
 6118SOL     OW19252   6.589   0.757   1.500
 6118SOL    HW119253   6.535   0.779   1.418
 6118SOL    HW219254   6.651   0.681   1.480
 6119SOL     OW19255   0.267   3.553   5.054
 6119SOL    HW119256   0.306   3.637   5.092
 6119SOL    HW219257   0.334   3.479   5.060
 6120SOL     OW19258   4.308   6.912   3.744
 6120SOL    HW119259   4.389   6.915   3.685
 6120SOL    HW219260   4.253   6.994   3.728
 6121SOL     OW19261   0.092   3.228   4.884
 6121SOL    HW119262   0.107   3.295   4.957
 6121SOL    HW219263   0.065   3.140   4.924
 6122SOL     OW19264   3.825   6.912   1.620
 6122SOL    HW119265   3.745   6.947   1.670
 6122SOL    HW219266   3.816   6.935   1.523
 6123SOL     OW19267   6.860   0.460   6.635
 6123SOL    HW119268   6.928   0.410   6.690
 6123SOL    HW219269   6.784   0.398   6.614
 6124SOL     OW19270   1.914   1.239   6.909
 6124SOL    HW119271   1.980   1.170   6.938
 6124SOL    HW219272   1.959   1.328   6.907
 6125SOL     OW19273   2.839   5.687   0.026
 6125SOL    HW119274   2.814   5.767   0.081
 6125SOL    HW219275   2.938   5.685   0.014
 6126SOL     OW19276   6.683   6.408   4.233
 6126SOL    HW119277   6.759   6.356   4.193
 6126SOL    HW219278   6.641   6.465   4.162
 6127SOL     OW19279   2.826   0.128   2.357
 6127SOL    HW119280   2.851   0.185   2.435
 6127SOL    HW219281   2.740   0.160   2.318
 6128SOL     OW19282   6.292   3.535   0.333
 6128SOL    HW119283   6.217   3.519   0.398
 6128SOL    HW219284   6.292   3.463   0.264
 6129SOL     OW19285   6.289   3.885   3.161
 6129SOL    HW119286   6.311   3.979   3.136
 6129SOL    HW219287   6.367   3.826   3.142
 6130SOL     OW19288   6.094   1.858   4.218
 6130SOL    HW119289   6.179   1.849   4.165
 6130SOL    HW219290   6.019   1.880   4.156
 6131SOL     OW19291   6.891   1.539   5.080
 6131SOL    HW119292   6.872   1.476   5.155
 6131SOL    HW219293   6.815   1.538   5.015
 6132SOL     OW19294   4.929   1.168   0.215
 6132SOL    HW119295   4.937   1.129   0.306
 6132SOL    HW219296   4.919   1.267   0.222
 6133SOL     OW19297   0.798   2.361   2.595
 6133SOL    HW119298   0.793   2.421   2.515
 6133SOL    HW219299   0.892   2.357   2.628
 6134SOL     OW19300   3.985   4.531   6.836
 6134SOL    HW119301   3.978   4.447   6.782
 6134SOL    HW219302   4.080   4.564   6.833
 6135SOL     OW19303   0.017   6.966   1.608
 6135SOL    HW119304   6.999   0.026   1.559
 6135SOL    HW219305   0.078   6.997   1.681
 6136SOL     OW19306   1.070   2.473   1.949
 6136SOL    HW119307   0.989   2.447   1.897
 6136SOL    HW219308   1.043   2.531   2.025
 6137SOL     OW19309   5.814   2.167   4.135
 6137SOL    HW119310   5.878   2.098   4.103
 6137SOL    HW219311   5.854   2.218   4.211
 6138SOL     OW19312   4.308   6.264   1.956
 6138SOL    HW119313   4.394   6.213   1.965
 6138SOL    HW219314   4.313   6.322   1.874
 6139SOL     OW19315   2.318   2.143   5.652
 6139SOL    HW119316   2.352   2.235   5.669
 6139SOL    HW219317   2.226   2.148   5.613
 6140SOL     OW19318   0.233   6.118   1.796
 6140SOL    HW119319   0.199   6.188   1.858
 6140SOL    HW219320   0.327   6.093   1.822
 6141SOL     OW19321   5.812   5.736   5.980
 6141SOL    HW119322   5.720   5.696   5.971
 6141SOL    HW219323   5.808   5.833   5.957
 6142SOL     OW19324   6.822   5.191   0.797
 6142SOL    HW119325   6.738   5.196   0.743
 6142SOL    HW219326   6.897   5.159   0.739
 6143SOL     OW19327   6.145   4.821   0.551
 6143SOL    HW119328   6.239   4.803   0.524
 6143SOL    HW219329   6.144   4.874   0.635
 6144SOL     OW19330   5.949   4.864   2.782
 6144SOL    HW119331   5.968   4.944   2.838
 6144SOL    HW219332   5.990   4.876   2.691
 6145SOL     OW19333   4.927   5.661   4.338
 6145SOL    HW119334   4.953   5.755   4.360
 6145SOL    HW219335   4.846   5.635   4.390
 6146SOL     OW19336   3.621   0.624   3.322
 6146SOL    HW119337   3.598   0.527   3.331
 6146SOL    HW219338   3.553   0.670   3.266
 6147SOL     OW19339   1.529   3.927   4.006
 6147SOL    HW119340   1.603   3.862   3.990
 6147SOL    HW219341   1.547   4.012   3.956
 6148SOL     OW19342   0.317   6.794   4.881
 6148SOL    HW119343   0.268   6.721   4.928
 6148SOL    HW219344   0.251   6.853   4.834
 6149SOL     OW19345   3.586   5.274   1.952
 6149SOL    HW119346   3.680   5.240   1.945
 6149SOL    HW219347   3.588   5.373   1.966
 6150SOL     OW19348   3.870   4.798   6.496
 6150SOL    HW119349   3.792   4.742   6.468
 6150SOL    HW219350   3.871   4.806   6.596
 6151SOL     OW19351   6.115   3.760   5.428
 6151SOL    HW119352   6.177   3.837   5.419
 6151SOL    HW219353   6.068   3.744   5.341
 6152SOL     OW19354   5.874   5.623   5.147
 6152SOL    HW119355   5.813   5.595   5.221
 6152SOL    HW219356   5.959   5.659   5.186
 6153SOL     OW19357   4.602   3.422   1.722
 6153SOL    HW119358   4.507   3.391   1.733
 6153SOL    HW219359   4.604   3.522   1.719
 6154SOL     OW19360   5.851   1.626   2.659
 6154SOL    HW119361   5.866   1.716   2.700
 6154SOL    HW219362   5.761   1.625   2.614
 6155SOL     OW19363   1.996   2.127   4.444
 6155SOL    HW119364   2.061   2.052   4.438
 6155SOL    HW219365   1.996   2.178   4.358
 6156SOL     OW19366   4.633   4.898   2.703
 6156SOL    HW119367   4.667   4.805   2.692
 6156SOL    HW219368   4.537   4.902   2.677
 6157SOL     OW19369   1.478   1.652   4.102
 6157SOL    HW119370   1.531   1.571   4.076
 6157SOL    HW219371   1.539   1.731   4.108
 6158SOL     OW19372   4.252   0.948   5.866
 6158SOL    HW119373   4.227   0.852   5.858
 6158SOL    HW219374   4.349   0.959   5.844
 6159SOL     OW19375   4.799   2.236   1.675
 6159SOL    HW119376   4.712   2.213   1.631
 6159SOL    HW219377   4.811   2.336   1.674
 6160SOL     OW19378   4.458   6.675   6.595
 6160SOL    HW119379   4.547   6.655   6.636
 6160SOL    HW219380   4.460   6.766   6.554
 6161SOL     OW19381   6.346   1.729   5.164
 6161SOL    HW119382   6.353   1.655   5.230
 6161SOL    HW219383   6.435   1.774   5.155
 6162SOL     OW19384   1.212   6.361   3.456
 6162SOL    HW119385   1.220   6.380   3.358
 6162SOL    HW219386   1.238   6.442   3.508
 6163SOL     OW19387   5.520   6.130   1.306
 6163SOL    HW119388   5.527   6.092   1.213
 6163SOL    HW219389   5.565   6.068   1.370
 6164SOL     OW19390   3.032   3.078   1.580
 6164SOL    HW119391   2.972   2.999   1.589
 6164SOL    HW219392   2.979   3.158   1.555
 6165SOL     OW19393   4.655   0.202   6.547
 6165SOL    HW119394   4.679   0.208   6.451
 6165SOL    HW219395   4.668   0.108   6.579
 6166SOL     OW19396   3.904   0.755   6.174
 6166SOL    HW119397   3.997   0.772   6.208
 6166SOL    HW219398   3.842   0.744   6.251
 6167SOL     OW19399   1.176   4.088   2.934
 6167SOL    HW119400   1.259   4.144   2.933
 6167SOL    HW219401   1.197   3.996   2.900
 6168SOL     OW19402   0.504   3.314   1.539
 6168SOL    HW119403   0.432   3.297   1.607
 6168SOL    HW219404   0.476   3.389   1.479
 6169SOL     OW19405   1.507   3.120   1.407
 6169SOL    HW119406   1.596   3.084   1.380
 6169SOL    HW219407   1.479   3.079   1.494
 6170SOL     OW19408   0.944   3.725   5.374
 6170SOL    HW119409   0.961   3.749   5.278
 6170SOL    HW219410   0.937   3.809   5.428
 6171SOL     OW19411   0.693   2.547   0.389
 6171SOL    HW119412   0.716   2.564   0.485
 6171SOL    HW219413   0.620   2.479   0.383
 6172SOL     OW19414   1.359   3.035   2.431
 6172SOL    HW119415   1.381   3.128   2.461
 6172SOL    HW219416   1.403   3.017   2.343
 6173SOL     OW19417   6.548   5.048   2.876
 6173SOL    HW119418   6.455   5.077   2.898
 6173SOL    HW219419   6.577   5.091   2.790
 6174SOL     OW19420   5.288   5.933   3.774
 6174SOL    HW119421   5.232   5.979   3.842
 6174SOL    HW219422   5.229   5.873   3.718
 6175SOL     OW19423   4.264   0.498   3.979
 6175SOL    HW119424   4.173   0.522   3.946
 6175SOL    HW219425   4.260   0.409   4.025
 6176SOL     OW19426   5.545   3.799   5.904
 6176SOL    HW119427   5.628   3.758   5.864
 6176SOL    HW219428   5.487   3.727   5.940
 6177SOL     OW19429   5.912   1.677   1.875
 6177SOL    HW119430   5.920   1.750   1.808
 6177SOL    HW219431   5.879   1.594   1.830
 6178SOL     OW19432   5.256   4.964   1.915
 6178SOL    HW119433   5.316   5.027   1.965
 6178SOL    HW219434   5.297   4.873   1.914
 6179SOL     OW19435   6.771   4.576   2.678
 6179SOL    HW119436   6.721   4.568   2.765
 6179SOL    HW219437   6.805   4.669   2.668
 6180SOL     OW19438   2.582   4.936   1.043
 6180SOL    HW119439   2.654   5.006   1.048
 6180SOL    HW219440   2.528   4.938   1.126
 6181SOL     OW19441   5.229   6.603   6.064
 6181SOL    HW119442   5.238   6.578   5.967
 6181SOL    HW219443   5.258   6.697   6.077
 6182SOL     OW19444   3.846   2.987   6.435
 6182SOL    HW119445   3.775   2.918   6.425
 6182SOL    HW219446   3.935   2.943   6.448
 6183SOL     OW19447   1.714   2.456   2.845
 6183SOL    HW119448   1.748   2.548   2.826
 6183SOL    HW219449   1.776   2.388   2.804
 6184SOL     OW19450   3.148   6.479   6.332
 6184SOL    HW119451   3.191   6.522   6.412
 6184SOL    HW219452   3.070   6.535   6.302
 6185SOL     OW19453   0.555   3.911   6.323
 6185SOL    HW119454   0.550   4.009   6.344
 6185SOL    HW219455   0.588   3.862   6.403
 6186SOL     OW19456   5.808   0.879   0.809
 6186SOL    HW119457   5.729   0.906   0.863
 6186SOL    HW219458   5.892   0.891   0.863
 6187SOL     OW19459   4.780   2.657   4.175
 6187SOL    HW119460   4.695   2.604   4.170
 6187SOL    HW219461   4.822   2.643   4.265
 6188SOL     OW19462   1.443   1.898   6.371
 6188SOL    HW119463   1.468   1.888   6.274
 6188SOL    HW219464   1.455   1.810   6.417
 6189SOL     OW19465   4.199   4.880   2.924
 6189SOL    HW119466   4.243   4.965   2.954
 6189SOL    HW219467   4.250   4.802   2.959
 6190SOL     OW19468   0.121   3.962   5.199
 6190SOL    HW119469   0.188   4.025   5.161
 6190SOL    HW219470   0.030   3.988   5.169
 6191SOL     OW19471   2.940   2.891   6.184
 6191SOL    HW119472   2.924   2.954   6.108
 6191SOL    HW219473   2.852   2.870   6.228
 6192SOL     OW19474   2.633   2.252   6.463
 6192SOL    HW119475   2.718   2.219   6.504
 6192SOL    HW219476   2.561   2.183   6.473
 6193SOL     OW19477   4.288   6.202   1.150
 6193SOL    HW119478   4.285   6.129   1.219
 6193SOL    HW219479   4.225   6.180   1.076
 6194SOL     OW19480   6.810   0.456   6.327
 6194SOL    HW119481   6.818   0.442   6.426
 6194SOL    HW219482   6.767   0.376   6.285
 6195SOL     OW19483   5.176   6.067   3.984
 6195SOL    HW119484   5.188   6.159   4.021
 6195SOL    HW219485   5.170   6.001   4.060
 6196SOL     OW19486   4.960   4.126   2.576
 6196SOL    HW119487   5.049   4.101   2.538
 6196SOL    HW219488   4.911   4.183   2.510
 6197SOL     OW19489   2.182   5.463   1.977
 6197SOL    HW119490   2.159   5.385   2.036
 6197SOL    HW219491   2.180   5.434   1.882
 6198SOL     OW19492   4.262   6.915   0.797
 6198SOL    HW119493   4.218   7.004   0.802
 6198SOL    HW219494   4.246   6.864   0.881
 6199SOL     OW19495   0.411   0.846   0.363
 6199SOL    HW119496   0.329   0.796   0.391
 6199SOL    HW219497   0.384   0.937   0.329
 6200SOL     OW19498   0.751   1.830   5.269
 6200SOL    HW119499   0.816   1.799   5.199
 6200SOL    HW219500   0.726   1.926   5.251
 6201SOL     OW19501   0.443   3.362   5.112
 6201SOL    HW119502   0.489   3.277   5.087
 6201SOL    HW219503   0.511   3.428   5.145
 6202SOL     OW19504   5.088   1.230   2.262
 6202SOL    HW119505   5.131   1.283   2.335
 6202SOL    HW219506   4.989   1.239   2.267
 6203SOL     OW19507   5.888   5.949   1.932
 6203SOL    HW119508   5.925   6.012   2.001
 6203SOL    HW219509   5.925   5.973   1.842
 6204SOL     OW19510   1.140   5.600   5.081
 6204SOL    HW119511   1.075   5.676   5.077
 6204SOL    HW219512   1.102   5.521   5.033
 6205SOL     OW19513   6.197   4.914   1.185
 6205SOL    HW119514   6.280   4.957   1.149
 6205SOL    HW219515   6.201   4.912   1.285
 6206SOL     OW19516   5.982   1.355   2.081
 6206SOL    HW119517   5.902   1.402   2.118
 6206SOL    HW219518   6.028   1.415   2.016
 6207SOL     OW19519   2.347   6.311   5.567
 6207SOL    HW119520   2.340   6.218   5.531
 6207SOL    HW219521   2.256   6.351   5.576
 6208SOL     OW19522   3.734   2.279   5.346
 6208SOL    HW119523   3.781   2.221   5.280
 6208SOL    HW219524   3.786   2.364   5.359
 6209SOL     OW19525   3.416   5.683   0.106
 6209SOL    HW119526   3.463   5.601   0.138
 6209SOL    HW219527   3.444   5.703   0.012
 6210SOL     OW19528   4.933   3.743   3.118
 6210SOL    HW119529   5.032   3.742   3.101
 6210SOL    HW219530   4.886   3.704   3.040
 6211SOL     OW19531   3.281   6.775   5.456
 6211SOL    HW119532   3.338   6.727   5.522
 6211SOL    HW219533   3.185   6.765   5.482
 6212SOL     OW19534   2.472   4.787   4.332
 6212SOL    HW119535   2.487   4.886   4.337
 6212SOL    HW219536   2.556   4.743   4.302
 6213SOL     OW19537   4.301   7.011   0.184
 6213SOL    HW119538   4.287   6.918   0.149
 6213SOL    HW219539   4.312   0.055   0.108
 6214SOL     OW19540   5.638   5.866   5.453
 6214SOL    HW119541   5.619   5.959   5.421
 6214SOL    HW219542   5.617   5.860   5.551
 6215SOL     OW19543   3.177   2.755   6.910
 6215SOL    HW119544   3.254   2.762   6.847
 6215SOL    HW219545   3.127   2.670   6.892
 6216SOL     OW19546   6.285   1.913   1.937
 6216SOL    HW119547   6.193   1.934   1.969
 6216SOL    HW219548   6.333   1.997   1.914
 6217SOL     OW19549   0.842   4.340   3.154
 6217SOL    HW119550   0.931   4.339   3.200
 6217SOL    HW219551   0.796   4.426   3.174
 6218SOL     OW19552   3.552   0.049   0.109
 6218SOL    HW119553   3.502   6.999   0.056
 6218SOL    HW219554   3.641   0.066   0.066
 6219SOL     OW19555   1.593   1.085   4.858
 6219SOL    HW119556   1.517   1.025   4.884
 6219SOL    HW219557   1.672   1.065   4.916
 6220SOL     OW19558   3.242   1.370   5.523
 6220SOL    HW119559   3.157   1.386   5.472
 6220SOL    HW219560   3.226   1.390   5.620
 6221SOL     OW19561   6.067   6.908   0.194
 6221SOL    HW119562   6.042   7.001   0.221
 6221SOL    HW219563   6.139   6.874   0.255
 6222SOL     OW19564   0.547   0.502   2.543
 6222SOL    HW119565   0.640   0.474   2.519
 6222SOL    HW219566   0.547   0.600   2.564
 6223SOL     OW19567   1.754   5.125   3.137
 6223SOL    HW119568   1.671   5.157   3.183
 6223SOL    HW219569   1.802   5.203   3.096
 6224SOL     OW19570   3.698   1.218   5.695
 6224SOL    HW119571   3.664   1.309   5.716
 6224SOL    HW219572   3.798   1.221   5.690
 6225SOL     OW19573   4.179   2.490   6.857
 6225SOL    HW119574   4.279   2.496   6.860
 6225SOL    HW219575   4.147   2.444   6.940
 6226SOL     OW19576   1.178   1.590   3.908
 6226SOL    HW119577   1.246   1.652   3.868
 6226SOL    HW219578   1.221   1.535   3.980
 6227SOL     OW19579   3.598   5.258   5.449
 6227SOL    HW119580   3.577   5.310   5.366
 6227SOL    HW219581   3.516   5.249   5.505
 6228SOL     OW19582   0.467   2.487   2.766
 6228SOL    HW119583   0.462   2.406   2.708
 6228SOL    HW219584   0.536   2.473   2.838
 6229SOL     OW19585   0.555   3.081   5.020
 6229SOL    HW119586   0.655   3.087   5.023
 6229SOL    HW219587   0.523   3.104   4.928
 6230SOL     OW19588   0.990   2.317   3.304
 6230SOL    HW119589   0.905   2.275   3.270
 6230SOL    HW219590   1.068   2.271   3.262
 6231SOL     OW19591   5.890   5.314   0.131
 6231SOL    HW119592   5.937   5.231   0.160
 6231SOL    HW219593   5.920   5.392   0.186
 6232SOL     OW19594   6.700   1.189   0.378
 6232SOL    HW119595   6.635   1.211   0.305
 6232SOL    HW219596   6.690   1.093   0.403
 6233SOL     OW19597   6.024   2.931   1.898
 6233SOL    HW119598   6.011   2.871   1.820
 6233SOL    HW219599   6.004   3.025   1.871
 6234SOL     OW19600   0.262   6.928   5.236
 6234SOL    HW119601   0.198   6.991   5.190
 6234SOL    HW219602   0.344   6.917   5.180
 6235SOL     OW19603   0.036   0.652   1.926
 6235SOL    HW119604   0.002   0.558   1.924
 6235SOL    HW219605   0.102   0.661   2.001
 6236SOL     OW19606   0.066   5.137   0.628
 6236SOL    HW119607   0.034   5.183   0.545
 6236SOL    HW219608   0.075   5.039   0.609
 6237SOL     OW19609   3.632   0.333   6.884
 6237SOL    HW119610   3.695   0.264   6.919
 6237SOL    HW219611   3.617   0.403   6.954
 6238SOL     OW19612   4.677   6.466   3.311
 6238SOL    HW119613   4.726   6.548   3.281
 6238SOL    HW219614   4.689   6.455   3.410
 6239SOL     OW19615   4.024   0.757   1.083
 6239SOL    HW119616   4.081   0.819   1.029
 6239SOL    HW219617   3.929   0.785   1.076
 6240SOL     OW19618   3.485   3.853   5.255
 6240SOL    HW119619   3.496   3.891   5.347
 6240SOL    HW219620   3.559   3.788   5.237
 6241SOL     OW19621   4.167   0.515   3.308
 6241SOL    HW119622   4.109   0.572   3.367
 6241SOL    HW219623   4.263   0.538   3.323
 6242SOL     OW19624   3.102   0.452   2.924
 6242SOL    HW119625   3.173   0.484   2.860
 6242SOL    HW219626   3.049   0.531   2.956
 6243SOL     OW19627   6.762   6.944   5.938
 6243SOL    HW119628   6.690   7.000   5.897
 6243SOL    HW219629   6.823   6.909   5.867
 6244SOL     OW19630   5.209   3.604   3.441
 6244SOL    HW119631   5.232   3.684   3.386
 6244SOL    HW219632   5.210   3.629   3.538
 6245SOL     OW19633   0.909   4.369   2.110
 6245SOL    HW119634   0.844   4.405   2.044
 6245SOL    HW219635   0.981   4.319   2.062
 6246SOL     OW19636   1.021   0.853   4.861
 6246SOL    HW119637   0.996   0.945   4.830
 6246SOL    HW219638   1.101   0.821   4.811
 6247SOL     OW19639   1.564   6.515   3.557
 6247SOL    HW119640   1.572   6.416   3.549
 6247SOL    HW219641   1.574   6.556   3.466
 6248SOL     OW19642   3.264   3.910   0.146
 6248SOL    HW119643   3.174   3.873   0.171
 6248SOL    HW219644   3.323   3.910   0.227
 6249SOL     OW19645   6.745   2.381   0.822
 6249SOL    HW119646   6.768   2.446   0.750
 6249SOL    HW219647   6.816   2.382   0.892
 6250SOL     OW19648   6.745   6.809   0.646
 6250SOL    HW119649   6.795   6.723   0.633
 6250SOL    HW219650   6.795   6.883   0.601
 6251SOL     OW19651   3.788   6.193   4.743
 6251SOL    HW119652   3.862   6.257   4.723
 6251SOL    HW219653   3.828   6.103   4.765
 6252SOL     OW19654   2.698   4.473   6.913
 6252SOL    HW119655   2.708   4.466   7.012
 6252SOL    HW219656   2.721   4.386   6.871
 6253SOL     OW19657   2.370   5.149   4.634
 6253SOL    HW119658   2.464   5.168   4.605
 6253SOL    HW219659   2.307   5.186   4.566
 6254SOL     OW19660   6.754   0.157   0.641
 6254SOL    HW119661   6.766   0.121   0.734
 6254SOL    HW219662   6.780   0.088   0.574
 6255SOL     OW19663   2.413   1.881   0.682
 6255SOL    HW119664   2.370   1.881   0.772
 6255SOL    HW219665   2.418   1.975   0.648
 6256SOL     OW19666   4.344   4.931   2.636
 6256SOL    HW119667   4.288   4.876   2.574
 6256SOL    HW219668   4.285   4.981   2.700
 6257SOL     OW19669   3.838   2.916   0.121
 6257SOL    HW119670   3.934   2.942   0.112
 6257SOL    HW219671   3.780   2.996   0.105
 6258SOL     OW19672   3.636   6.883   4.545
 6258SOL    HW119673   3.728   6.871   4.506
 6258SOL    HW219674   3.604   6.796   4.581
 6259SOL     OW19675   1.960   0.911   6.501
 6259SOL    HW119676   2.007   0.825   6.481
 6259SOL    HW219677   2.013   0.987   6.463
 6260SOL     OW19678   3.311   0.289   0.626
 6260SOL    HW119679   3.382   0.288   0.697
 6260SOL    HW219680   3.225   0.257   0.664
 6261SOL     OW19681   4.523   6.576   0.587
 6261SOL    HW119682   4.600   6.623   0.630
 6261SOL    HW219683   4.555   6.490   0.546
 6262SOL     OW19684   1.646   5.853   2.072
 6262SOL    HW119685   1.699   5.868   2.156
 6262SOL    HW219686   1.613   5.941   2.038
 6263SOL     OW19687   0.767   6.630   5.419
 6263SOL    HW119688   0.778   6.533   5.401
 6263SOL    HW219689   0.753   6.679   5.333
 6264SOL     OW19690   1.668   0.212   1.721
 6264SOL    HW119691   1.655   0.166   1.809
 6264SOL    HW219692   1.742   0.168   1.671
 6265SOL     OW19693   4.351   3.316   0.946
 6265SOL    HW119694   4.350   3.398   0.890
 6265SOL    HW219695   4.444   3.299   0.979
 6266SOL     OW19696   4.505   6.489   2.999
 6266SOL    HW119697   4.588   6.437   3.018
 6266SOL    HW219698   4.521   6.586   3.021
 6267SOL     OW19699   1.747   0.041   4.736
 6267SOL    HW119700   1.675   0.089   4.787
 6267SOL    HW219701   1.755   6.966   4.769
 6268SOL     OW19702   2.917   0.948   1.887
 6268SOL    HW119703   2.895   0.903   1.974
 6268SOL    HW219704   2.896   1.045   1.893
 6269SOL     OW19705   6.023   6.982   1.925
 6269SOL    HW119706   6.098   0.011   1.972
 6269SOL    HW219707   6.027   7.004   1.827
 6270SOL     OW19708   0.636   0.019   6.992
 6270SOL    HW119709   0.645   6.985   0.058
 6270SOL    HW219710   0.700   7.004   6.924
 6271SOL     OW19711   6.363   2.611   6.529
 6271SOL    HW119712   6.462   2.604   6.524
 6271SOL    HW219713   6.338   2.702   6.563
 6272SOL     OW19714   0.582   1.563   0.380
 6272SOL    HW119715   0.682   1.565   0.385
 6272SOL    HW219716   0.553   1.568   0.285
 6273SOL     OW19717   0.558   5.542   3.073
 6273SOL    HW119718   0.508   5.606   3.014
 6273SOL    HW219719   0.496   5.468   3.101
 6274SOL     OW19720   3.089   0.052   4.702
 6274SOL    HW119721   3.120   0.043   4.796
 6274SOL    HW219722   3.140   7.007   4.644
 6275SOL     OW19723   2.541   5.957   0.655
 6275SOL    HW119724   2.458   6.002   0.621
 6275SOL    HW219725   2.556   5.872   0.604
 6276SOL     OW19726   3.539   5.534   3.340
 6276SOL    HW119727   3.466   5.602   3.348
 6276SOL    HW219728   3.599   5.541   3.420
 6277SOL     OW19729   4.783   1.947   1.087
 6277SOL    HW119730   4.692   1.906   1.079
 6277SOL    HW219731   4.786   2.007   1.167
 6278SOL     OW19732   4.184   0.892   4.771
 6278SOL    HW119733   4.150   0.891   4.865
 6278SOL    HW219734   4.185   0.799   4.735
 6279SOL     OW19735   3.988   6.295   0.626
 6279SOL    HW119736   4.046   6.219   0.597
 6279SOL    HW219737   4.035   6.348   0.696
 6280SOL     OW19738   0.051   1.461   6.276
 6280SOL    HW119739   7.017   1.533   6.320
 6280SOL    HW219740   0.032   1.462   6.178
 6281SOL     OW19741   6.608   4.440   3.852
 6281SOL    HW119742   6.672   4.433   3.776
 6281SOL    HW219743   6.549   4.359   3.854
 6282SOL     OW19744   5.963   2.985   4.944
 6282SOL    HW119745   5.944   3.003   4.847
 6282SOL    HW219746   5.910   3.047   5.001
 6283SOL     OW19747   1.073   4.296   4.190
 6283SOL    HW119748   1.031   4.386   4.203
 6283SOL    HW219749   1.108   4.262   4.277
 6284SOL     OW19750   1.328   5.391   6.492
 6284SOL    HW119751   1.418   5.405   6.535
 6284SOL    HW219752   1.338   5.394   6.393
 6285SOL     OW19753   1.536   3.300   3.527
 6285SOL    HW119754   1.471   3.233   3.564
 6285SOL    HW219755   1.537   3.294   3.427
 6286SOL     OW19756   0.196   3.709   4.289
 6286SOL    HW119757   0.243   3.740   4.206
 6286SOL    HW219758   0.109   3.758   4.297
 6287SOL     OW19759   3.759   4.893   5.239
 6287SOL    HW119760   3.720   4.806   5.267
 6287SOL    HW219761   3.789   4.944   5.321
 6288SOL     OW19762   5.203   4.599   1.529
 6288SOL    HW119763   5.139   4.522   1.526
 6288SOL    HW219764   5.164   4.676   1.478
 6289SOL     OW19765   2.420   4.794   6.610
 6289SOL    HW119766   2.462   4.882   6.633
 6289SOL    HW219767   2.463   4.721   6.663
 6290SOL     OW19768   6.072   5.060   6.322
 6290SOL    HW119769   5.979   5.063   6.284
 6290SOL    HW219770   6.088   5.141   6.378
 6291SOL     OW19771   3.531   3.609   3.595
 6291SOL    HW119772   3.493   3.650   3.678
 6291SOL    HW219773   3.483   3.524   3.574
 6292SOL     OW19774   2.730   1.959   5.074
 6292SOL    HW119775   2.776   1.984   5.159
 6292SOL    HW219776   2.792   1.901   5.020
 6293SOL     OW19777   4.454   1.596   0.627
 6293SOL    HW119778   4.476   1.542   0.708
 6293SOL    HW219779   4.367   1.564   0.588
 6294SOL     OW19780   4.421   0.092   3.146
 6294SOL    HW119781   4.448   0.073   3.241
 6294SOL    HW219782   4.329   0.055   3.131
 6295SOL     OW19783   5.435   4.798   4.837
 6295SOL    HW119784   5.491   4.728   4.880
 6295SOL    HW219785   5.374   4.839   4.905
 6296SOL     OW19786   0.452   4.384   5.237
 6296SOL    HW119787   0.495   4.420   5.320
 6296SOL    HW219788   0.356   4.364   5.256
 6297SOL     OW19789   5.777   0.283   5.633
 6297SOL    HW119790   5.845   0.281   5.706
 6297SOL    HW219791   5.820   0.258   5.546
 6298SOL     OW19792   6.544   3.971   6.211
 6298SOL    HW119793   6.606   4.048   6.224
 6298SOL    HW219794   6.586   3.904   6.149
 6299SOL     OW19795   5.972   2.773   1.694
 6299SOL    HW119796   5.880   2.809   1.686
 6299SOL    HW219797   5.995   2.721   1.611
 6300SOL     OW19798   5.888   0.586   6.467
 6300SOL    HW119799   5.837   0.568   6.552
 6300SOL    HW219800   5.981   0.614   6.490
 6301SOL     OW19801   3.242   6.323   6.146
 6301SOL    HW119802   3.210   6.383   6.219
 6301SOL    HW219803   3.220   6.364   6.057
 6302SOL     OW19804   2.286   1.316   5.345
 6302SOL    HW119805   2.383   1.300   5.327
 6302SOL    HW219806   2.270   1.320   5.444
 6303SOL     OW19807   0.648   6.532   6.113
 6303SOL    HW119808   0.703   6.499   6.190
 6303SOL    HW219809   0.584   6.602   6.146
 6304SOL     OW19810   4.171   1.423   3.461
 6304SOL    HW119811   4.071   1.418   3.460
 6304SOL    HW219812   4.200   1.507   3.416
 6305SOL     OW19813   6.062   5.963   0.536
 6305SOL    HW119814   6.120   5.885   0.514
 6305SOL    HW219815   6.120   6.042   0.557
 6306SOL     OW19816   0.305   3.849   4.072
 6306SOL    HW119817   0.316   3.931   4.127
 6306SOL    HW219818   0.343   3.864   3.981
 6307SOL     OW19819   3.314   2.996   3.900
 6307SOL    HW119820   3.216   3.015   3.911
 6307SOL    HW219821   3.347   2.944   3.979
 6308SOL     OW19822   0.982   2.091   5.669
 6308SOL    HW119823   1.078   2.103   5.694
 6308SOL    HW219824   0.977   2.062   5.573
 6309SOL     OW19825   0.098   0.186   3.895
 6309SOL    HW119826   0.045   0.129   3.958
 6309SOL    HW219827   0.041   0.263   3.865
 6310SOL     OW19828   2.371   6.287   2.789
 6310SOL    HW119829   2.387   6.311   2.693
 6310SOL    HW219830   2.444   6.324   2.846
 6311SOL     OW19831   4.857   1.971   6.169
 6311SOL    HW119832   4.892   1.881   6.194
 6311SOL    HW219833   4.860   1.981   6.069
 6312SOL     OW19834   1.091   6.470   6.387
 6312SOL    HW119835   1.121   6.564   6.377
 6312SOL    HW219836   1.103   6.441   6.482
 6313SOL     OW19837   6.340   6.801   3.027
 6313SOL    HW119838   6.426   6.786   3.076
 6313SOL    HW219839   6.314   6.898   3.035
 6314SOL     OW19840   3.263   0.407   2.237
 6314SOL    HW119841   3.200   0.400   2.315
 6314SOL    HW219842   3.297   0.316   2.214
 6315SOL     OW19843   2.380   1.507   4.633
 6315SOL    HW119844   2.310   1.542   4.696
 6315SOL    HW219845   2.341   1.499   4.541
 6316SOL     OW19846   4.574   1.884   5.207
 6316SOL    HW119847   4.649   1.823   5.232
 6316SOL    HW219848   4.558   1.949   5.282
 6317SOL     OW19849   4.982   3.561   2.362
 6317SOL    HW119850   4.992   3.463   2.376
 6317SOL    HW219851   4.934   3.578   2.276
 6318SOL     OW19852   4.448   6.953   6.801
 6318SOL    HW119853   4.448   0.020   6.851
 6318SOL    HW219854   4.385   6.960   6.723
 6319SOL     OW19855   0.002   2.139   5.084
 6319SOL    HW119856   0.038   2.213   5.140
 6319SOL    HW219857   0.051   2.054   5.106
 6320SOL     OW19858   6.961   6.537   4.631
 6320SOL    HW119859   6.916   6.551   4.542
 6320SOL    HW219860   0.036   6.508   4.616
 6321SOL     OW19861   4.666   2.937   0.544
 6321SOL    HW119862   4.660   2.847   0.501
 6321SOL    HW219863   4.618   3.004   0.487
 6322SOL     OW19864   3.304   1.791   0.624
 6322SOL    HW119865   3.256   1.729   0.686
 6322SOL    HW219866   3.308   1.750   0.532
 6323SOL     OW19867   1.290   2.015   1.468
 6323SOL    HW119868   1.286   1.997   1.566
 6323SOL    HW219869   1.234   1.948   1.419
 6324SOL     OW19870   3.987   1.945   0.587
 6324SOL    HW119871   4.073   1.994   0.595
 6324SOL    HW219872   3.933   1.982   0.512
 6325SOL     OW19873   2.235   3.070   2.966
 6325SOL    HW119874   2.317   3.013   2.980
 6325SOL    HW219875   2.217   3.078   2.868
 6326SOL     OW19876   5.535   5.506   6.163
 6326SOL    HW119877   5.447   5.465   6.137
 6326SOL    HW219878   5.539   5.600   6.129
 6327SOL     OW19879   0.235   1.641   4.165
 6327SOL    HW119880   0.292   1.560   4.174
 6327SOL    HW219881   0.165   1.625   4.096
 6328SOL     OW19882   4.160   3.549   6.736
 6328SOL    HW119883   4.113   3.583   6.817
 6328SOL    HW219884   4.101   3.562   6.656
 6329SOL     OW19885   0.918   3.264   5.223
 6329SOL    HW119886   0.972   3.208   5.285
 6329SOL    HW219887   0.827   3.279   5.261
 6330SOL     OW19888   5.999   6.700   1.556
 6330SOL    HW119889   5.935   6.726   1.629
 6330SOL    HW219890   5.969   6.738   1.469
 6331SOL     OW19891   6.471   3.433   4.706
 6331SOL    HW119892   6.539   3.499   4.675
 6331SOL    HW219893   6.512   3.368   4.770
 6332SOL     OW19894   0.882   2.813   1.281
 6332SOL    HW119895   0.859   2.866   1.199
 6332SOL    HW219896   0.969   2.846   1.319
 6333SOL     OW19897   4.702   0.267   5.884
 6333SOL    HW119898   4.727   0.174   5.911
 6333SOL    HW219899   4.698   0.274   5.785
 6334SOL     OW19900   2.954   1.440   2.082
 6334SOL    HW119901   2.905   1.519   2.045
 6334SOL    HW219902   3.041   1.430   2.035
 6335SOL     OW19903   4.541   0.915   0.082
 6335SOL    HW119904   4.466   0.890   0.021
 6335SOL    HW219905   4.628   0.897   0.037
 6336SOL     OW19906   0.440   2.943   6.474
 6336SOL    HW119907   0.434   3.008   6.550
 6336SOL    HW219908   0.349   2.928   6.435
 6337SOL     OW19909   3.930   5.763   4.849
 6337SOL    HW119910   3.842   5.772   4.896
 6337SOL    HW219911   3.973   5.677   4.874
 6338SOL     OW19912   3.235   2.111   4.090
 6338SOL    HW119913   3.148   2.143   4.052
 6338SOL    HW219914   3.229   2.109   4.190
 6339SOL     OW19915   0.727   3.745   3.495
 6339SOL    HW119916   0.702   3.777   3.403
 6339SOL    HW219917   0.741   3.646   3.492
 6340SOL     OW19918   2.229   4.019   1.114
 6340SOL    HW119919   2.235   4.113   1.079
 6340SOL    HW219920   2.148   3.975   1.075
 6341SOL     OW19921   0.382   3.927   3.571
 6341SOL    HW119922   0.422   4.006   3.524
 6341SOL    HW219923   0.386   3.847   3.510
 6342SOL     OW19924   3.630   1.554   0.837
 6342SOL    HW119925   3.715   1.528   0.883
 6342SOL    HW219926   3.578   1.472   0.814
 6343SOL     OW19927   4.066   6.990   6.775
 6343SOL    HW119928   4.090   6.979   6.872
 6343SOL    HW219929   4.145   0.005   6.725
 6344SOL     OW19930   6.008   2.033   3.908
 6344SOL    HW119931   6.041   1.939   3.897
 6344SOL    HW219932   5.918   2.042   3.866
 6345SOL     OW19933   4.523   2.749   1.781
 6345SOL    HW119934   4.468   2.768   1.699
 6345SOL    HW219935   4.536   2.833   1.833
 6346SOL     OW19936   6.898   4.817   4.843
 6346SOL    HW119937   6.838   4.836   4.921
 6346SOL    HW219938   6.993   4.814   4.874
 6347SOL     OW19939   1.707   1.380   1.068
 6347SOL    HW119940   1.725   1.430   0.984
 6347SOL    HW219941   1.620   1.410   1.108
 6348SOL     OW19942   1.011   2.799   6.057
 6348SOL    HW119943   1.024   2.712   6.009
 6348SOL    HW219944   0.913   2.814   6.072
 6349SOL     OW19945   1.447   0.626   0.673
 6349SOL    HW119946   1.547   0.627   0.675
 6349SOL    HW219947   1.414   0.717   0.646
 6350SOL     OW19948   0.996   5.009   3.218
 6350SOL    HW119949   0.985   4.987   3.315
 6350SOL    HW219950   0.925   4.963   3.165
 6351SOL     OW19951   6.438   3.546   3.503
 6351SOL    HW119952   6.507   3.535   3.575
 6351SOL    HW219953   6.417   3.457   3.463
 6352SOL     OW19954   2.524   0.602   4.721
 6352SOL    HW119955   2.514   0.608   4.622
 6352SOL    HW219956   2.535   0.506   4.748
 6353SOL     OW19957   2.350   6.152   0.047
 6353SOL    HW119958   2.391   6.061   0.054
 6353SOL    HW219959   2.405   6.218   0.099
 6354SOL     OW19960   3.959   6.090   3.391
 6354SOL    HW119961   3.982   6.173   3.442
 6354SOL    HW219962   4.038   6.028   3.391
 6355SOL     OW19963   2.696   5.713   6.835
 6355SOL    HW119964   2.755   5.692   6.913
 6355SOL    HW219965   2.707   5.809   6.809
 6356SOL     OW19966   5.482   5.001   0.503
 6356SOL    HW119967   5.407   5.038   0.559
 6356SOL    HW219968   5.509   4.912   0.540
 6357SOL     OW19969   6.249   2.736   2.349
 6357SOL    HW119970   6.288   2.764   2.261
 6357SOL    HW219971   6.163   2.784   2.365
 6358SOL     OW19972   0.159   2.015   6.663
 6358SOL    HW119973   0.155   2.012   6.563
 6358SOL    HW219974   0.104   2.092   6.697
 6359SOL     OW19975   6.397   6.371   0.579
 6359SOL    HW119976   6.432   6.415   0.662
 6359SOL    HW219977   6.471   6.321   0.534
 6360SOL     OW19978   0.459   3.596   4.190
 6360SOL    HW119979   0.408   3.614   4.274
 6360SOL    HW219980   0.422   3.652   4.116
 6361SOL     OW19981   1.198   0.890   0.818
 6361SOL    HW119982   1.256   0.900   0.899
 6361SOL    HW219983   1.102   0.882   0.847
 6362SOL     OW19984   1.741   5.918   6.639
 6362SOL    HW119985   1.839   5.936   6.642
 6362SOL    HW219986   1.723   5.838   6.583
 6363SOL     OW19987   3.111   5.299   4.473
 6363SOL    HW119988   3.029   5.274   4.421
 6363SOL    HW219989   3.190   5.249   4.436
 6364SOL     OW19990   2.712   2.682   5.514
 6364SOL    HW119991   2.634   2.638   5.469
 6364SOL    HW219992   2.787   2.691   5.448
 6365SOL     OW19993   5.770   6.334   4.416
 6365SOL    HW119994   5.834   6.322   4.492
 6365SOL    HW219995   5.746   6.431   4.408
 6366SOL     OW19996   0.630   5.899   4.978
 6366SOL    HW119997   0.574   5.818   4.962
 6366SOL    HW219998   0.626   5.925   5.075
 6367SOL     OW19999   3.136   2.154   2.601
 6367SOL    HW120000   3.199   2.178   2.527
 6367SOL    HW220001   3.046   2.132   2.563
 6368SOL     OW20002   4.164   4.810   4.604
 6368SOL    HW120003   4.090   4.822   4.537
 6368SOL    HW220004   4.138   4.851   4.691
 6369SOL     OW20005   1.978   0.354   4.506
 6369SOL    HW120006   1.988   0.258   4.533
 6369SOL    HW220007   1.908   0.361   4.435
 6370SOL     OW20008   5.793   4.308   3.664
 6370SOL    HW120009   5.745   4.222   3.681
 6370SOL    HW220010   5.874   4.290   3.608
 6371SOL     OW20011   5.535   3.996   2.380
 6371SOL    HW120012   5.561   4.084   2.420
 6371SOL    HW220013   5.453   3.962   2.425
 6372SOL     OW20014   1.104   1.737   2.034
 6372SOL    HW120015   1.047   1.732   2.117
 6372SOL    HW220016   1.176   1.805   2.047
 6373SOL     OW20017   5.639   4.240   2.483
 6373SOL    HW120018   5.713   4.189   2.440
 6373SOL    HW220019   5.665   4.263   2.577
 6374SOL     OW20020   4.849   3.507   0.896
 6374SOL    HW120021   4.763   3.558   0.893
 6374SOL    HW220022   4.830   3.410   0.878
 6375SOL     OW20023   0.354   2.415   1.629
 6375SOL    HW120024   0.323   2.450   1.541
 6375SOL    HW220025   0.449   2.385   1.622
 6376SOL     OW20026   3.814   1.588   5.896
 6376SOL    HW120027   3.825   1.591   5.995
 6376SOL    HW220028   3.903   1.573   5.853
 6377SOL     OW20029   0.031   1.745   5.451
 6377SOL    HW120030   0.018   1.724   5.548
 6377SOL    HW220031   0.050   1.843   5.440
 6378SOL     OW20032   5.328   5.187   3.279
 6378SOL    HW120033   5.350   5.136   3.362
 6378SOL    HW220034   5.408   5.190   3.219
 6379SOL     OW20035   0.414   5.150   5.626
 6379SOL    HW120036   0.347   5.189   5.689
 6379SOL    HW220037   0.489   5.109   5.679
 6380SOL     OW20038   6.835   2.453   4.544
 6380SOL    HW120039   6.912   2.493   4.495
 6380SOL    HW220040   6.789   2.386   4.486
 6381SOL     OW20041   4.286   2.590   0.415
 6381SOL    HW120042   4.307   2.525   0.342
 6381SOL    HW220043   4.346   2.572   0.493
 6382SOL     OW20044   3.321   1.777   1.016
 6382SOL    HW120045   3.234   1.802   1.060
 6382SOL    HW220046   3.381   1.856   1.014
 6383SOL     OW20047   1.974   2.917   2.465
 6383SOL    HW120048   1.877   2.933   2.483
 6383SOL    HW220049   1.985   2.853   2.389
 6384SOL     OW20050   6.027   3.313   2.192
 6384SOL    HW120051   5.960   3.244   2.165
 6384SOL    HW220052   5.983   3.385   2.245
 6385SOL     OW20053   6.665   4.281   1.927
 6385SOL    HW120054   6.623   4.204   1.974
 6385SOL    HW220055   6.738   4.247   1.867
 6386SOL     OW20056   1.652   3.613   6.866
 6386SOL    HW120057   1.665   3.711   6.881
 6386SOL    HW220058   1.701   3.561   6.936
 6387SOL     OW20059   5.885   1.471   0.295
 6387SOL    HW120060   5.827   1.501   0.219
 6387SOL    HW220061   5.917   1.378   0.278
 6388SOL     OW20062   6.119   5.287   1.901
 6388SOL    HW120063   6.101   5.272   1.804
 6388SOL    HW220064   6.210   5.251   1.924
 6389SOL     OW20065   0.963   0.183   1.219
 6389SOL    HW120066   0.971   0.280   1.242
 6389SOL    HW220067   0.942   0.131   1.302
 6390SOL     OW20068   6.562   0.130   5.880
 6390SOL    HW120069   6.545   0.226   5.862
 6390SOL    HW220070   6.552   0.077   5.796
 6391SOL     OW20071   1.548   1.087   5.905
 6391SOL    HW120072   1.551   1.186   5.892
 6391SOL    HW220073   1.457   1.060   5.934
 6392SOL     OW20074   3.074   6.011   3.544
 6392SOL    HW120075   3.166   5.985   3.572
 6392SOL    HW220076   3.070   6.110   3.527
 6393SOL     OW20077   6.000   5.984   1.684
 6393SOL    HW120078   6.035   6.027   1.601
 6393SOL    HW220079   6.060   5.909   1.710
 6394SOL     OW20080   2.396   5.359   1.088
 6394SOL    HW120081   2.438   5.309   1.012
 6394SOL    HW220082   2.435   5.328   1.174
 6395SOL     OW20083   6.889   3.262   1.937
 6395SOL    HW120084   6.968   3.323   1.941
 6395SOL    HW220085   6.917   3.172   1.903
 6396SOL     OW20086   6.290   4.016   5.998
 6396SOL    HW120087   6.329   4.031   6.088
 6396SOL    HW220088   6.294   4.100   5.944
 6397SOL     OW20089   6.496   1.350   2.502
 6397SOL    HW120090   6.594   1.338   2.485
 6397SOL    HW220091   6.483   1.412   2.580
 6398SOL     OW20092   2.113   6.554   1.964
 6398SOL    HW120093   2.111   6.565   1.864
 6398SOL    HW220094   2.023   6.574   2.002
 6399SOL     OW20095   1.252   0.377   6.533
 6399SOL    HW120096   1.279   0.282   6.549
 6399SOL    HW220097   1.308   0.416   6.460
 6400SOL     OW20098   2.248   4.934   2.512
 6400SOL    HW120099   2.219   5.001   2.580
 6400SOL    HW220100   2.184   4.936   2.434
 6401SOL     OW20101   5.769   5.145   3.193
 6401SOL    HW120102   5.677   5.184   3.179
 6401SOL    HW220103   5.835   5.219   3.200
 6402SOL     OW20104   2.277   2.923   4.064
 6402SOL    HW120105   2.251   2.950   4.157
 6402SOL    HW220106   2.261   3.000   4.002
 6403SOL     OW20107   6.259   5.858   6.151
 6403SOL    HW120108   6.319   5.778   6.151
 6403SOL    HW220109   6.304   5.934   6.105
 6404SOL     OW20110   4.016   1.599   2.861
 6404SOL    HW120111   3.988   1.668   2.794
 6404SOL    HW220112   4.050   1.644   2.944
 6405SOL     OW20113   4.405   1.029   4.540
 6405SOL    HW120114   4.313   0.999   4.513
 6405SOL    HW220115   4.468   0.951   4.537
 6406SOL     OW20116   1.734   3.241   1.695
 6406SOL    HW120117   1.712   3.222   1.791
 6406SOL    HW220118   1.714   3.337   1.674
 6407SOL     OW20119   2.288   0.062   3.664
 6407SOL    HW120120   2.359   0.013   3.715
 6407SOL    HW220121   2.213   7.018   3.642
 6408SOL     OW20122   5.766   0.384   0.449
 6408SOL    HW120123   5.769   0.358   0.545
 6408SOL    HW220124   5.858   0.406   0.417
 6409SOL     OW20125   6.807   4.879   2.634
 6409SOL    HW120126   6.903   4.865   2.611
 6409SOL    HW220127   6.801   4.938   2.715
 6410SOL     OW20128   2.104   1.228   6.515
 6410SOL    HW120129   2.032   1.294   6.537
 6410SOL    HW220130   2.118   1.166   6.592
 6411SOL     OW20131   1.232   2.636   2.322
 6411SOL    HW120132   1.239   2.679   2.231
 6411SOL    HW220133   1.149   2.668   2.367
 6412SOL     OW20134   2.328   0.421   6.754
 6412SOL    HW120135   2.245   0.471   6.776
 6412SOL    HW220136   2.382   0.474   6.688
 6413SOL     OW20137   3.598   5.014   4.568
 6413SOL    HW120138   3.626   5.058   4.483
 6413SOL    HW220139   3.538   4.936   4.547
 6414SOL     OW20140   6.119   0.217   0.108
 6414SOL    HW120141   6.162   0.166   0.034
 6414SOL    HW220142   6.189   0.266   0.161
 6415SOL     OW20143   1.845   3.408   4.131
 6415SOL    HW120144   1.850   3.365   4.221
 6415SOL    HW220145   1.851   3.339   4.060
 6416SOL     OW20146   2.464   6.906   6.352
 6416SOL    HW120147   2.402   6.848   6.300
 6416SOL    HW220148   2.483   6.865   6.441
 6417SOL     OW20149   4.896   3.085   0.663
 6417SOL    HW120150   4.846   3.141   0.730
 6417SOL    HW220151   4.833   3.021   0.620
 6418SOL     OW20152   5.312   4.416   2.950
 6418SOL    HW120153   5.361   4.347   3.003
 6418SOL    HW220154   5.368   4.499   2.946
 6419SOL     OW20155   1.260   5.067   3.819
 6419SOL    HW120156   1.163   5.091   3.827
 6419SOL    HW220157   1.269   4.985   3.762
 6420SOL     OW20158   1.946   1.349   3.561
 6420SOL    HW120159   1.896   1.434   3.545
 6420SOL    HW220160   1.968   1.306   3.473
 6421SOL     OW20161   4.420   0.473   1.114
 6421SOL    HW120162   4.431   0.571   1.095
 6421SOL    HW220163   4.378   0.462   1.204
 6422SOL     OW20164   6.950   1.818   5.052
 6422SOL    HW120165   6.959   1.719   5.063
 6422SOL    HW220166   6.904   1.838   4.966
 6423SOL     OW20167   4.590   5.522   4.692
 6423SOL    HW120168   4.650   5.498   4.615
 6423SOL    HW220169   4.620   5.473   4.774
 6424SOL     OW20170   1.474   3.782   4.857
 6424SOL    HW120171   1.551   3.738   4.904
 6424SOL    HW220172   1.507   3.823   4.772
 6425SOL     OW20173   6.887   5.550   3.091
 6425SOL    HW120174   6.882   5.506   3.001
 6425SOL    HW220175   6.946   5.630   3.086
 6426SOL     OW20176   5.528   5.309   3.822
 6426SOL    HW120177   5.622   5.325   3.851
 6426SOL    HW220178   5.492   5.392   3.779
 6427SOL     OW20179   3.065   3.696   3.315
 6427SOL    HW120180   3.029   3.623   3.374
 6427SOL    HW220181   3.068   3.781   3.366
 6428SOL     OW20182   5.193   3.582   0.171
 6428SOL    HW120183   5.179   3.502   0.229
 6428SOL    HW220184   5.260   3.643   0.213
 6429SOL     OW20185   0.577   0.864   6.112
 6429SOL    HW120186   0.623   0.852   6.200
 6429SOL    HW220187   0.644   0.851   6.038
 6430SOL     OW20188   6.742   0.549   4.491
 6430SOL    HW120189   6.659   0.511   4.532
 6430SOL    HW220190   6.719   0.632   4.440
 6431SOL     OW20191   4.603   5.695   2.821
 6431SOL    HW120192   4.618   5.774   2.762
 6431SOL    HW220193   4.526   5.712   2.882
 6432SOL     OW20194   3.949   4.284   5.977
 6432SOL    HW120195   3.901   4.326   6.054
 6432SOL    HW220196   3.964   4.187   5.995
 6433SOL     OW20197   3.342   4.951   0.135
 6433SOL    HW120198   3.317   4.943   0.231
 6433SOL    HW220199   3.328   4.862   0.090
 6434SOL     OW20200   2.882   0.265   6.253
 6434SOL    HW120201   2.911   0.169   6.258
 6434SOL    HW220202   2.943   0.321   6.309
 6435SOL     OW20203   5.965   6.959   0.767
 6435SOL    HW120204   5.923   0.017   0.815
 6435SOL    HW220205   5.895   6.908   0.718
 6436SOL     OW20206   0.888   3.539   3.209
 6436SOL    HW120207   0.978   3.507   3.239
 6436SOL    HW220208   0.896   3.632   3.174
 6437SOL     OW20209   1.425   2.665   6.840
 6437SOL    HW120210   1.465   2.731   6.776
 6437SOL    HW220211   1.358   2.608   6.793
 6438SOL     OW20212   0.660   4.896   6.166
 6438SOL    HW120213   0.695   4.987   6.144
 6438SOL    HW220214   0.629   4.851   6.082
 6439SOL     OW20215   4.963   1.009   2.729
 6439SOL    HW120216   5.002   1.039   2.642
 6439SOL    HW220217   5.030   1.022   2.802
 6440SOL     OW20218   2.849   0.877   6.105
 6440SOL    HW120219   2.796   0.902   6.024
 6440SOL    HW220220   2.788   0.875   6.184
 6441SOL     OW20221   0.917   0.662   1.576
 6441SOL    HW120222   0.858   0.725   1.525
 6441SOL    HW220223   0.985   0.622   1.515
 6442SOL     OW20224   2.852   1.574   4.743
 6442SOL    HW120225   2.923   1.557   4.675
 6442SOL    HW220226   2.767   1.601   4.696
 6443SOL     OW20227   3.394   2.443   6.126
 6443SOL    HW120228   3.372   2.426   6.222
 6443SOL    HW220229   3.310   2.462   6.075
 6444SOL     OW20230   6.113   2.372   4.555
 6444SOL    HW120231   6.112   2.435   4.632
 6444SOL    HW220232   6.106   2.278   4.588
 6445SOL     OW20233   3.860   3.340   3.299
 6445SOL    HW120234   3.815   3.415   3.252
 6445SOL    HW220235   3.793   3.290   3.354
 6446SOL     OW20236   0.087   1.891   0.533
 6446SOL    HW120237   0.113   1.831   0.457
 6446SOL    HW220238   0.008   1.946   0.505
 6447SOL     OW20239   6.165   4.285   1.512
 6447SOL    HW120240   6.084   4.228   1.501
 6447SOL    HW220241   6.162   4.360   1.445
 6448SOL     OW20242   5.161   5.001   1.469
 6448SOL    HW120243   5.082   4.941   1.455
 6448SOL    HW220244   5.172   5.018   1.567
 6449SOL     OW20245   2.713   5.401   1.751
 6449SOL    HW120246   2.779   5.448   1.810
 6449SOL    HW220247   2.623   5.403   1.794
 6450SOL     OW20248   0.821   4.125   0.355
 6450SOL    HW120249   0.838   4.145   0.258
 6450SOL    HW220250   0.829   4.026   0.370
 6451SOL     OW20251   2.697   1.144   5.778
 6451SOL    HW120252   2.764   1.181   5.714
 6451SOL    HW220253   2.707   1.045   5.785
 6452SOL     OW20254   4.749   4.326   2.326
 6452SOL    HW120255   4.663   4.354   2.284
 6452SOL    HW220256   4.787   4.248   2.275
 6453SOL     OW20257   2.467   0.281   1.691
 6453SOL    HW120258   2.383   0.255   1.739
 6453SOL    HW220259   2.448   0.358   1.630
 6454SOL     OW20260   0.597   1.336   2.854
 6454SOL    HW120261   0.512   1.285   2.860
 6454SOL    HW220262   0.622   1.371   2.945
 6455SOL     OW20263   6.302   2.705   3.837
 6455SOL    HW120264   6.396   2.692   3.806
 6455SOL    HW220265   6.294   2.790   3.888
 6456SOL     OW20266   1.452   0.555   2.689
 6456SOL    HW120267   1.354   0.567   2.702
 6456SOL    HW220268   1.471   0.544   2.591
 6457SOL     OW20269   5.562   6.820   1.232
 6457SOL    HW120270   5.466   6.836   1.257
 6457SOL    HW220271   5.579   6.858   1.141
 6458SOL     OW20272   1.685   5.075   5.002
 6458SOL    HW120273   1.607   5.084   4.941
 6458SOL    HW220274   1.759   5.134   4.971
 6459SOL     OW20275   6.392   2.884   2.733
 6459SOL    HW120276   6.417   2.812   2.669
 6459SOL    HW220277   6.295   2.876   2.757
 6460SOL     OW20278   5.631   5.525   5.632
 6460SOL    HW120279   5.671   5.509   5.542
 6460SOL    HW220280   5.543   5.572   5.622
 6461SOL     OW20281   2.681   4.359   0.253
 6461SOL    HW120282   2.615   4.322   0.318
 6461SOL    HW220283   2.774   4.346   0.288
 6462SOL     OW20284   0.775   3.117   4.639
 6462SOL    HW120285   0.774   3.032   4.585
 6462SOL    HW220286   0.870   3.143   4.659
 6463SOL     OW20287   5.097   6.610   0.776
 6463SOL    HW120288   5.043   6.658   0.707
 6463SOL    HW220289   5.194   6.628   0.761
 6464SOL     OW20290   1.628   5.932   5.033
 6464SOL    HW120291   1.706   5.973   5.079
 6464SOL    HW220292   1.554   5.917   5.098
 6465SOL     OW20293   6.853   3.160   2.677
 6465SOL    HW120294   6.818   3.086   2.735
 6465SOL    HW220295   6.792   3.239   2.684
 6466SOL     OW20296   6.347   1.652   6.795
 6466SOL    HW120297   6.324   1.632   6.890
 6466SOL    HW220298   6.444   1.677   6.788
 6467SOL     OW20299   4.043   0.078   0.934
 6467SOL    HW120300   4.010   0.076   0.840
 6467SOL    HW220301   4.041   0.172   0.968
 6468SOL     OW20302   3.476   6.734   1.723
 6468SOL    HW120303   3.472   6.701   1.629
 6468SOL    HW220304   3.491   6.656   1.784
 6469SOL     OW20305   3.983   1.934   3.555
 6469SOL    HW120306   3.948   1.959   3.464
 6469SOL    HW220307   4.044   2.006   3.588
 6470SOL     OW20308   5.838   2.592   0.803
 6470SOL    HW120309   5.844   2.616   0.900
 6470SOL    HW220310   5.761   2.639   0.761
 6471SOL     OW20311   0.942   6.224   5.814
 6471SOL    HW120312   1.006   6.299   5.834
 6471SOL    HW220313   0.920   6.176   5.898
 6472SOL     OW20314   6.702   5.783   2.550
 6472SOL    HW120315   6.610   5.818   2.571
 6472SOL    HW220316   6.749   5.849   2.491
 6473SOL     OW20317   1.515   1.571   5.324
 6473SOL    HW120318   1.585   1.640   5.345
 6473SOL    HW220319   1.558   1.494   5.277
 6474SOL     OW20320   3.568   5.559   5.688
 6474SOL    HW120321   3.487   5.558   5.747
 6474SOL    HW220322   3.540   5.573   5.593
 6475SOL     OW20323   6.067   4.344   3.995
 6475SOL    HW120324   6.071   4.410   3.920
 6475SOL    HW220325   6.141   4.277   3.986
 6476SOL     OW20326   4.645   3.109   6.824
 6476SOL    HW120327   4.708   3.038   6.793
 6476SOL    HW220328   4.695   3.195   6.834
 6477SOL     OW20329   5.849   5.350   0.969
 6477SOL    HW120330   5.869   5.254   0.988
 6477SOL    HW220331   5.788   5.387   1.039
 6478SOL     OW20332   3.591   6.746   2.579
 6478SOL    HW120333   3.507   6.743   2.633
 6478SOL    HW220334   3.613   6.653   2.548
 6479SOL     OW20335   3.472   5.321   4.565
 6479SOL    HW120336   3.570   5.322   4.586
 6479SOL    HW220337   3.424   5.378   4.632
 6480SOL     OW20338   2.035   1.482   6.887
 6480SOL    HW120339   1.962   1.550   6.878
 6480SOL    HW220340   2.118   1.527   6.921
 6481SOL     OW20341   3.442   2.442   1.729
 6481SOL    HW120342   3.364   2.386   1.704
 6481SOL    HW220343   3.519   2.384   1.754
 6482SOL     OW20344   6.390   2.482   6.775
 6482SOL    HW120345   6.310   2.427   6.800
 6482SOL    HW220346   6.382   2.509   6.679
 6483SOL     OW20347   0.443   6.371   3.846
 6483SOL    HW120348   0.357   6.397   3.802
 6483SOL    HW220349   0.424   6.322   3.930
 6484SOL     OW20350   3.229   1.199   2.449
 6484SOL    HW120351   3.226   1.125   2.382
 6484SOL    HW220352   3.142   1.203   2.498
 6485SOL     OW20353   2.028   5.653   3.902
 6485SOL    HW120354   2.061   5.578   3.958
 6485SOL    HW220355   2.002   5.730   3.960
 6486SOL     OW20356   0.951   5.376   2.359
 6486SOL    HW120357   0.856   5.345   2.368
 6486SOL    HW220358   0.954   5.458   2.302
 6487SOL     OW20359   1.338   6.542   5.731
 6487SOL    HW120360   1.388   6.625   5.756
 6487SOL    HW220361   1.398   6.463   5.739
 6488SOL     OW20362   4.182   5.800   4.958
 6488SOL    HW120363   4.225   5.727   4.905
 6488SOL    HW220364   4.107   5.839   4.905
 6489SOL     OW20365   3.232   3.192   6.390
 6489SOL    HW120366   3.250   3.191   6.292
 6489SOL    HW220367   3.211   3.285   6.419
 6490SOL     OW20368   2.752   1.074   6.349
 6490SOL    HW120369   2.832   1.051   6.405
 6490SOL    HW220370   2.764   1.165   6.310
 6491SOL     OW20371   2.972   0.765   1.663
 6491SOL    HW120372   2.955   0.844   1.723
 6491SOL    HW220373   3.054   0.717   1.694
 6492SOL     OW20374   3.823   3.681   4.848
 6492SOL    HW120375   3.922   3.683   4.859
 6492SOL    HW220376   3.799   3.619   4.773
 6493SOL     OW20377   1.082   4.517   6.232
 6493SOL    HW120378   1.167   4.564   6.209
 6493SOL    HW220379   1.008   4.551   6.174
 6494SOL     OW20380   6.921   6.525   2.634
 6494SOL    HW120381   6.940   6.592   2.562
 6494SOL    HW220382   6.895   6.572   2.718
 6495SOL     OW20383   0.007   0.976   4.426
 6495SOL    HW120384   6.962   1.041   4.384
 6495SOL    HW220385   0.084   0.961   4.365
 6496SOL     OW20386   5.899   0.338   2.051
 6496SOL    HW120387   5.884   0.291   2.138
 6496SOL    HW220388   5.820   0.396   2.030
 6497SOL     OW20389   1.173   0.569   1.333
 6497SOL    HW120390   1.257   0.523   1.363
 6497SOL    HW220391   1.094   0.523   1.373
 6498SOL     OW20392   0.661   3.827   4.468
 6498SOL    HW120393   0.735   3.761   4.456
 6498SOL    HW220394   0.580   3.798   4.418
 6499SOL     OW20395   5.642   3.899   4.847
 6499SOL    HW120396   5.665   3.993   4.825
 6499SOL    HW220397   5.549   3.895   4.884
 6500SOL     OW20398   0.404   4.058   2.520
 6500SOL    HW120399   0.391   4.030   2.615
 6500SOL    HW220400   0.502   4.061   2.499
 6501SOL     OW20401   0.161   0.816   0.739
 6501SOL    HW120402   0.168   0.753   0.817
 6501SOL    HW220403   0.066   0.824   0.711
 6502SOL     OW20404   0.367   3.497   1.877
 6502SOL    HW120405   0.367   3.491   1.976
 6502SOL    HW220406   0.418   3.419   1.839
 6503SOL     OW20407   5.925   1.080   3.611
 6503SOL    HW120408   5.940   1.091   3.513
 6503SOL    HW220409   6.014   1.070   3.657
 6504SOL     OW20410   3.486   6.161   6.102
 6504SOL    HW120411   3.404   6.217   6.099
 6504SOL    HW220412   3.550   6.199   6.168
 6505SOL     OW20413   5.006   6.182   6.144
 6505SOL    HW120414   4.989   6.099   6.197
 6505SOL    HW220415   4.920   6.233   6.133
 6506SOL     OW20416   6.949   2.486   3.497
 6506SOL    HW120417   0.017   2.481   3.546
 6506SOL    HW220418   6.935   2.579   3.463
 6507SOL     OW20419   2.834   5.926   5.819
 6507SOL    HW120420   2.784   5.847   5.783
 6507SOL    HW220421   2.816   6.006   5.761
 6508SOL     OW20422   1.891   0.309   3.099
 6508SOL    HW120423   1.940   0.299   3.013
 6508SOL    HW220424   1.849   0.221   3.124
 6509SOL     OW20425   4.831   1.861   4.570
 6509SOL    HW120426   4.739   1.835   4.599
 6509SOL    HW220427   4.889   1.875   4.650
 6510SOL     OW20428   5.315   5.246   6.790
 6510SOL    HW120429   5.352   5.154   6.781
 6510SOL    HW220430   5.369   5.298   6.856
 6511SOL     OW20431   4.814   1.443   5.237
 6511SOL    HW120432   4.810   1.396   5.325
 6511SOL    HW220433   4.762   1.392   5.169
 6512SOL     OW20434   3.260   6.738   2.609
 6512SOL    HW120435   3.234   6.814   2.549
 6512SOL    HW220436   3.239   6.651   2.563
 6513SOL     OW20437   1.780   5.888   3.526
 6513SOL    HW120438   1.737   5.890   3.616
 6513SOL    HW220439   1.710   5.901   3.455
 6514SOL     OW20440   5.943   1.271   4.336
 6514SOL    HW120441   5.984   1.204   4.398
 6514SOL    HW220442   5.947   1.236   4.242
 6515SOL     OW20443   1.698   3.420   3.274
 6515SOL    HW120444   1.756   3.362   3.215
 6515SOL    HW220445   1.749   3.443   3.357
 6516SOL     OW20446   6.833   2.931   1.308
 6516SOL    HW120447   6.853   2.833   1.305
 6516SOL    HW220448   6.734   2.945   1.301
 6517SOL     OW20449   6.996   1.914   1.214
 6517SOL    HW120450   0.044   1.953   1.150
 6517SOL    HW220451   6.990   1.971   1.296
 6518SOL     OW20452   0.317   0.540   2.095
 6518SOL    HW120453   0.327   0.441   2.104
 6518SOL    HW220454   0.402   0.579   2.061
 6519SOL     OW20455   0.177   1.847   2.720
 6519SOL    HW120456   0.224   1.782   2.662
 6519SOL    HW220457   0.082   1.856   2.690
 6520SOL     OW20458   0.165   5.388   6.723
 6520SOL    HW120459   0.249   5.434   6.695
 6520SOL    HW220460   0.168   5.372   6.822
 6521SOL     OW20461   1.985   2.576   4.135
 6521SOL    HW120462   1.963   2.487   4.176
 6521SOL    HW220463   2.023   2.636   4.205
 6522SOL     OW20464   2.592   4.649   5.003
 6522SOL    HW120465   2.559   4.623   4.912
 6522SOL    HW220466   2.692   4.659   5.001
 6523SOL     OW20467   3.762   0.648   6.512
 6523SOL    HW120468   3.810   0.734   6.530
 6523SOL    HW220469   3.707   0.623   6.591
 6524SOL     OW20470   2.870   2.859   1.591
 6524SOL    HW120471   2.832   2.875   1.500
 6524SOL    HW220472   2.903   2.765   1.597
 6525SOL     OW20473   1.974   4.815   3.084
 6525SOL    HW120474   1.923   4.801   3.169
 6525SOL    HW220475   1.914   4.856   3.016
 6526SOL     OW20476   0.986   0.385   1.408
 6526SOL    HW120477   0.896   0.384   1.451
 6526SOL    HW220478   1.040   0.308   1.441
 6527SOL     OW20479   6.737   1.865   0.093
 6527SOL    HW120480   6.677   1.917   0.032
 6527SOL    HW220481   6.683   1.831   0.170
 6528SOL     OW20482   6.367   1.528   5.404
 6528SOL    HW120483   6.461   1.545   5.430
 6528SOL    HW220484   6.305   1.560   5.476
 6529SOL     OW20485   1.253   0.168   2.614
 6529SOL    HW120486   1.321   0.137   2.547
 6529SOL    HW220487   1.300   0.196   2.698
 6530SOL     OW20488   6.965   1.653   1.035
 6530SOL    HW120489   6.956   1.720   1.109
 6530SOL    HW220490   0.031   1.669   0.986
 6531SOL     OW20491   5.029   3.406   4.913
 6531SOL    HW120492   4.937   3.436   4.939
 6531SOL    HW220493   5.090   3.414   4.992
 6532SOL     OW20494   1.452   1.335   1.344
 6532SOL    HW120495   1.504   1.259   1.305
 6532SOL    HW220496   1.505   1.419   1.337
 6533SOL     OW20497   4.200   6.024   0.400
 6533SOL    HW120498   4.162   6.072   0.322
 6533SOL    HW220499   4.208   5.926   0.379
 6534SOL     OW20500   4.754   5.141   1.592
 6534SOL    HW120501   4.742   5.145   1.691
 6534SOL    HW220502   4.851   5.149   1.570
 6535SOL     OW20503   6.135   4.522   4.351
 6535SOL    HW120504   6.132   4.616   4.319
 6535SOL    HW220505   6.103   4.518   4.446
 6536SOL     OW20506   0.344   1.619   5.105
 6536SOL    HW120507   0.389   1.703   5.136
 6536SOL    HW220508   0.347   1.614   5.005
 6537SOL     OW20509   6.698   4.518   5.380
 6537SOL    HW120510   6.621   4.531   5.443
 6537SOL    HW220511   6.773   4.577   5.407
 6538SOL     OW20512   1.733   3.560   5.769
 6538SOL    HW120513   1.756   3.565   5.672
 6538SOL    HW220514   1.779   3.481   5.810
 6539SOL     OW20515   5.269   0.400   6.648
 6539SOL    HW120516   5.261   0.358   6.557
 6539SOL    HW220517   5.319   0.487   6.640
 6540SOL     OW20518   3.664   2.776   6.476
 6540SOL    HW120519   3.595   2.843   6.504
 6540SOL    HW220520   3.667   2.701   6.542
 6541SOL     OW20521   5.288   1.848   5.378
 6541SOL    HW120522   5.277   1.947   5.388
 6541SOL    HW220523   5.247   1.802   5.456
 6542SOL     OW20524   1.060   3.490   3.845
 6542SOL    HW120525   1.060   3.521   3.940
 6542SOL    HW220526   1.050   3.569   3.784
 6543SOL     OW20527   4.466   2.588   5.685
 6543SOL    HW120528   4.516   2.566   5.769
 6543SOL    HW220529   4.460   2.506   5.628
 6544SOL     OW20530   1.340   6.862   3.144
 6544SOL    HW120531   1.374   6.952   3.171
 6544SOL    HW220532   1.353   6.798   3.220
 6545SOL     OW20533   4.260   0.698   0.533
 6545SOL    HW120534   4.314   0.757   0.473
 6545SOL    HW220535   4.319   0.628   0.573
 6546SOL     OW20536   3.008   3.919   6.133
 6546SOL    HW120537   2.980   4.012   6.156
 6546SOL    HW220538   2.929   3.870   6.095
 6547SOL     OW20539   4.936   0.599   6.439
 6547SOL    HW120540   4.935   0.525   6.507
 6547SOL    HW220541   4.858   0.659   6.454
 6548SOL     OW20542   1.308   3.450   0.853
 6548SOL    HW120543   1.222   3.493   0.827
 6548SOL    HW220544   1.296   3.350   0.854
 6549SOL     OW20545   4.291   0.448   2.460
 6549SOL    HW120546   4.308   0.391   2.380
 6549SOL    HW220547   4.236   0.397   2.526
 6550SOL     OW20548   0.626   6.783   4.327
 6550SOL    HW120549   0.667   6.750   4.242
 6550SOL    HW220550   0.693   6.778   4.401
 6551SOL     OW20551   2.133   3.713   1.940
 6551SOL    HW120552   2.051   3.683   1.988
 6551SOL    HW220553   2.198   3.638   1.934
 6552SOL     OW20554   2.129   6.407   7.003
 6552SOL    HW120555   2.046   6.463   7.004
 6552SOL    HW220556   2.142   6.364   0.073
 6553SOL     OW20557   0.401   2.523   3.364
 6553SOL    HW120558   0.316   2.545   3.412
 6553SOL    HW220559   0.403   2.574   3.278
 6554SOL     OW20560   1.274   0.288   4.582
 6554SOL    HW120561   1.247   0.205   4.533
 6554SOL    HW220562   1.308   0.356   4.517
 6555SOL     OW20563   5.384   1.952   3.021
 6555SOL    HW120564   5.367   1.900   3.104
 6555SOL    HW220565   5.339   2.041   3.027
 6556SOL     OW20566   5.831   4.104   3.356
 6556SOL    HW120567   5.887   4.143   3.430
 6556SOL    HW220568   5.878   4.025   3.317
 6557SOL     OW20569   2.504   0.469   3.197
 6557SOL    HW120570   2.526   0.559   3.233
 6557SOL    HW220571   2.588   0.421   3.173
 6558SOL     OW20572   6.184   5.358   6.972
 6558SOL    HW120573   6.110   5.342   6.906
 6558SOL    HW220574   6.182   5.287   0.023
 6559SOL     OW20575   0.229   4.415   6.941
 6559SOL    HW120576   0.300   4.413   6.871
 6559SOL    HW220577   0.143   4.383   6.902
 6560SOL     OW20578   3.908   4.686   1.466
 6560SOL    HW120579   3.912   4.785   1.481
 6560SOL    HW220580   3.834   4.647   1.520
 6561SOL     OW20581   3.427   4.107   1.237
 6561SOL    HW120582   3.359   4.091   1.165
 6561SOL    HW220583   3.507   4.152   1.197
 6562SOL     OW20584   5.676   2.009   1.220
 6562SOL    HW120585   5.601   2.072   1.235
 6562SOL    HW220586   5.759   2.061   1.199
 6563SOL     OW20587   5.238   5.911   6.044
 6563SOL    HW120588   5.147   5.920   6.004
 6563SOL    HW220589   5.296   5.858   5.982
 6564SOL     OW20590   6.575   4.013   1.943
 6564SOL    HW120591   6.517   3.966   2.010
 6564SOL    HW220592   6.657   3.958   1.926
 6565SOL     OW20593   6.110   0.877   3.155
 6565SOL    HW120594   6.017   0.849   3.178
 6565SOL    HW220595   6.107   0.944   3.080
 6566SOL     OW20596   3.521   6.582   2.861
 6566SOL    HW120597   3.540   6.542   2.950
 6566SOL    HW220598   3.607   6.609   2.817
 6567SOL     OW20599   5.138   0.328   1.868
 6567SOL    HW120600   5.090   0.354   1.952
 6567SOL    HW220601   5.084   0.358   1.789
 6568SOL     OW20602   3.804   1.678   3.527
 6568SOL    HW120603   3.719   1.725   3.552
 6568SOL    HW220604   3.867   1.679   3.604
 6569SOL     OW20605   2.626   3.108   6.936
 6569SOL    HW120606   2.557   3.173   6.905
 6569SOL    HW220607   2.582   3.035   6.988
 6570SOL     OW20608   3.536   1.064   2.131
 6570SOL    HW120609   3.603   1.107   2.191
 6570SOL    HW220610   3.570   1.064   2.037
 6571SOL     OW20611   3.028   5.053   2.433
 6571SOL    HW120612   3.025   5.010   2.524
 6571SOL    HW220613   3.015   4.983   2.363
 6572SOL     OW20614   6.944   4.358   3.929
 6572SOL    HW120615   6.956   4.288   3.858
 6572SOL    HW220616   6.847   4.368   3.950
 6573SOL     OW20617   0.440   2.083   2.332
 6573SOL    HW120618   0.513   2.149   2.346
 6573SOL    HW220619   0.480   1.993   2.314
 6574SOL     OW20620   2.580   5.888   3.042
 6574SOL    HW120621   2.517   5.822   3.082
 6574SOL    HW220622   2.542   5.923   2.956
 6575SOL     OW20623   0.860   6.887   3.931
 6575SOL    HW120624   0.932   6.955   3.946
 6575SOL    HW220625   0.818   6.901   3.842
 6576SOL     OW20626   3.204   6.231   0.477
 6576SOL    HW120627   3.217   6.135   0.452
 6576SOL    HW220628   3.149   6.236   0.561
 6577SOL     OW20629   1.172   1.832   3.253
 6577SOL    HW120630   1.120   1.876   3.180
 6577SOL    HW220631   1.269   1.854   3.243
 6578SOL     OW20632   0.891   6.220   2.141
 6578SOL    HW120633   0.826   6.223   2.217
 6578SOL    HW220634   0.977   6.179   2.172
 6579SOL     OW20635   6.629   2.300   3.649
 6579SOL    HW120636   6.698   2.341   3.709
 6579SOL    HW220637   6.538   2.313   3.688
 6580SOL     OW20638   0.674   2.098   0.811
 6580SOL    HW120639   0.575   2.110   0.824
 6580SOL    HW220640   0.706   2.160   0.740
 6581SOL     OW20641   2.209   0.535   0.887
 6581SOL    HW120642   2.233   0.620   0.933
 6581SOL    HW220643   2.202   0.550   0.789
 6582SOL     OW20644   0.139   1.090   3.407
 6582SOL    HW120645   0.057   1.037   3.426
 6582SOL    HW220646   0.116   1.187   3.398
 6583SOL     OW20647   4.888   6.609   5.625
 6583SOL    HW120648   4.799   6.603   5.579
 6583SOL    HW220649   4.898   6.533   5.689
 6584SOL     OW20650   4.488   1.845   0.051
 6584SOL    HW120651   4.407   1.802   0.090
 6584SOL    HW220652   4.468   1.940   0.029
 6585SOL     OW20653   6.101   5.751   0.218
 6585SOL    HW120654   6.167   5.700   0.162
 6585SOL    HW220655   6.132   5.753   0.313
 6586SOL     OW20656   6.162   1.156   5.922
 6586SOL    HW120657   6.148   1.139   6.020
 6586SOL    HW220658   6.228   1.230   5.911
 6587SOL     OW20659   1.223   4.980   6.086
 6587SOL    HW120660   1.170   5.040   6.145
 6587SOL    HW220661   1.301   4.943   6.137
 6588SOL     OW20662   0.598   2.733   1.285
 6588SOL    HW120663   0.565   2.714   1.377
 6588SOL    HW220664   0.692   2.765   1.289
 6589SOL     OW20665   4.747   0.239   2.010
 6589SOL    HW120666   4.830   0.208   2.057
 6589SOL    HW220667   4.740   0.338   2.015
 6590SOL     OW20668   0.181   1.218   6.257
 6590SOL    HW120669   0.156   1.128   6.220
 6590SOL    HW220670   0.119   1.287   6.220
 6591SOL     OW20671   5.181   5.732   3.581
 6591SOL    HW120672   5.165   5.644   3.626
 6591SOL    HW220673   5.104   5.753   3.521
 6592SOL     OW20674   5.469   6.650   3.045
 6592SOL    HW120675   5.415   6.734   3.055
 6592SOL    HW220676   5.453   6.590   3.123
 6593SOL     OW20677   2.515   2.408   2.494
 6593SOL    HW120678   2.586   2.376   2.431
 6593SOL    HW220679   2.439   2.343   2.494
 6594SOL     OW20680   3.553   1.307   5.188
 6594SOL    HW120681   3.542   1.317   5.286
 6594SOL    HW220682   3.628   1.364   5.156
 6595SOL     OW20683   1.102   4.232   6.260
 6595SOL    HW120684   1.082   4.330   6.271
 6595SOL    HW220685   1.074   4.202   6.169
 6596SOL     OW20686   3.489   0.256   4.405
 6596SOL    HW120687   3.425   0.275   4.330
 6596SOL    HW220688   3.480   0.160   4.433
 6597SOL     OW20689   1.768   5.128   1.571
 6597SOL    HW120690   1.836   5.056   1.555
 6597SOL    HW220691   1.676   5.090   1.562
 6598SOL     OW20692   1.984   4.569   3.737
 6598SOL    HW120693   2.058   4.520   3.783
 6598SOL    HW220694   2.010   4.665   3.724
 6599SOL     OW20695   4.052   6.369   6.103
 6599SOL    HW120696   4.079   6.308   6.177
 6599SOL    HW220697   4.133   6.412   6.063
 6600SOL     OW20698   3.495   6.605   5.305
 6600SOL    HW120699   3.421   6.666   5.334
 6600SOL    HW220700   3.508   6.613   5.206
 6601SOL     OW20701   0.939   2.326   4.623
 6601SOL    HW120702   0.956   2.303   4.527
 6601SOL    HW220703   0.842   2.345   4.637
 6602SOL     OW20704   1.821   0.512   1.465
 6602SOL    HW120705   1.778   0.438   1.413
 6602SOL    HW220706   1.826   0.487   1.561
 6603SOL     OW20707   1.025   2.921   3.705
 6603SOL    HW120708   1.035   2.951   3.799
 6603SOL    HW220709   1.084   2.841   3.689
 6604SOL     OW20710   1.598   6.766   1.585
 6604SOL    HW120711   1.619   6.859   1.557
 6604SOL    HW220712   1.651   6.701   1.530
 6605SOL     OW20713   5.321   5.387   2.273
 6605SOL    HW120714   5.224   5.403   2.291
 6605SOL    HW220715   5.354   5.313   2.332
 6606SOL     OW20716   6.612   5.363   2.207
 6606SOL    HW120717   6.655   5.308   2.136
 6606SOL    HW220718   6.603   5.458   2.175
 6607SOL     OW20719   1.370   4.741   3.472
 6607SOL    HW120720   1.271   4.745   3.465
 6607SOL    HW220721   1.403   4.659   3.425
 6608SOL     OW20722   6.799   6.645   6.807
 6608SOL    HW120723   6.793   6.548   6.784
 6608SOL    HW220724   6.721   6.669   6.865
 6609SOL     OW20725   5.649   0.596   6.922
 6609SOL    HW120726   5.593   0.517   6.944
 6609SOL    HW220727   5.592   0.670   6.886
 6610SOL     OW20728   2.544   6.642   0.079
 6610SOL    HW120729   2.481   6.714   0.053
 6610SOL    HW220730   2.609   6.624   0.005
 6611SOL     OW20731   4.746   2.953   3.235
 6611SOL    HW120732   4.845   2.941   3.237
 6611SOL    HW220733   4.718   3.018   3.307
 6612SOL     OW20734   6.532   2.155   6.304
 6612SOL    HW120735   6.596   2.163   6.228
 6612SOL    HW220736   6.457   2.220   6.291
 6613SOL     OW20737   6.716   6.313   5.567
 6613SOL    HW120738   6.683   6.303   5.473
 6613SOL    HW220739   6.738   6.223   5.604
 6614SOL     OW20740   4.262   6.089   0.007
 6614SOL    HW120741   4.328   6.092   6.951
 6614SOL    HW220742   4.231   5.994   0.019
 6615SOL     OW20743   1.234   6.007   1.229
 6615SOL    HW120744   1.254   6.013   1.327
 6615SOL    HW220745   1.245   5.913   1.198
 6616SOL     OW20746   4.480   0.336   6.777
 6616SOL    HW120747   4.575   0.319   6.752
 6616SOL    HW220748   4.468   0.432   6.802
 6617SOL     OW20749   4.530   5.654   3.634
 6617SOL    HW120750   4.570   5.723   3.574
 6617SOL    HW220751   4.547   5.680   3.729
 6618SOL     OW20752   1.961   1.932   2.460
 6618SOL    HW120753   1.936   1.961   2.553
 6618SOL    HW220754   1.966   1.833   2.456
 6619SOL     OW20755   5.534   6.938   4.270
 6619SOL    HW120756   5.594   6.977   4.200
 6619SOL    HW220757   5.572   6.957   4.360
 6620SOL     OW20758   2.002   2.972   5.543
 6620SOL    HW120759   2.097   2.978   5.511
 6620SOL    HW220760   1.992   2.891   5.601
 6621SOL     OW20761   3.761   3.212   5.673
 6621SOL    HW120762   3.826   3.203   5.598
 6621SOL    HW220763   3.802   3.175   5.757
 6622SOL     OW20764   5.691   5.824   2.067
 6622SOL    HW120765   5.759   5.890   2.035
 6622SOL    HW220766   5.638   5.864   2.141
 6623SOL     OW20767   4.005   3.037   5.260
 6623SOL    HW120768   3.919   3.011   5.216
 6623SOL    HW220769   4.053   2.955   5.290
 6624SOL     OW20770   0.513   4.499   5.503
 6624SOL    HW120771   0.591   4.518   5.563
 6624SOL    HW220772   0.432   4.481   5.559
 6625SOL     OW20773   5.185   2.167   5.169
 6625SOL    HW120774   5.104   2.145   5.224
 6625SOL    HW220775   5.236   2.241   5.213
 6626SOL     OW20776   3.024   0.003   5.822
 6626SOL    HW120777   3.091   7.016   5.748
 6626SOL    HW220778   2.953   6.954   5.809
 6627SOL     OW20779   1.529   6.675   3.758
 6627SOL    HW120780   1.482   6.627   3.832
 6627SOL    HW220781   1.560   6.608   3.690
 6628SOL     OW20782   5.828   4.993   4.448
 6628SOL    HW120783   5.891   4.923   4.482
 6628SOL    HW220784   5.800   5.053   4.523
 6629SOL     OW20785   4.553   6.276   6.381
 6629SOL    HW120786   4.485   6.209   6.411
 6629SOL    HW220787   4.643   6.248   6.415
 6630SOL     OW20788   4.019   1.380   1.526
 6630SOL    HW120789   4.100   1.440   1.524
 6630SOL    HW220790   4.019   1.328   1.611
 6631SOL     OW20791   2.070   6.022   3.855
 6631SOL    HW120792   2.165   6.011   3.886
 6631SOL    HW220793   2.068   6.023   3.755
 6632SOL     OW20794   0.687   0.669   0.913
 6632SOL    HW120795   0.744   0.644   0.992
 6632SOL    HW220796   0.674   0.589   0.855
 6633SOL     OW20797   2.130   5.245   6.220
 6633SOL    HW120798   2.080   5.281   6.142
 6633SOL    HW220799   2.127   5.145   6.217
 6634SOL     OW20800   5.623   1.519   5.494
 6634SOL    HW120801   5.654   1.473   5.411
 6634SOL    HW220802   5.615   1.452   5.568
 6635SOL     OW20803   4.888   4.397   3.590
 6635SOL    HW120804   4.864   4.322   3.652
 6635SOL    HW220805   4.814   4.463   3.587
 6636SOL     OW20806   4.756   1.547   0.064
 6636SOL    HW120807   4.664   1.575   0.093
 6636SOL    HW220808   4.756   1.529   6.984
 6637SOL     OW20809   1.442   6.808   6.670
 6637SOL    HW120810   1.513   6.810   6.599
 6637SOL    HW220811   1.353   6.796   6.627
 6638SOL     OW20812   2.948   3.597   3.095
 6638SOL    HW120813   2.990   3.655   3.164
 6638SOL    HW220814   2.898   3.654   3.029
 6639SOL     OW20815   4.526   4.501   6.965
 6639SOL    HW120816   4.578   4.541   6.889
 6639SOL    HW220817   4.560   4.409   6.984
 6640SOL     OW20818   6.472   1.806   5.521
 6640SOL    HW120819   6.525   1.822   5.437
 6640SOL    HW220820   6.502   1.722   5.565
 6641SOL     OW20821   2.985   1.433   6.915
 6641SOL    HW120822   2.902   1.476   6.950
 6641SOL    HW220823   2.972   1.334   6.911
 6642SOL     OW20824   2.590   5.924   6.271
 6642SOL    HW120825   2.592   5.875   6.184
 6642SOL    HW220826   2.631   5.867   6.342
 6643SOL     OW20827   5.558   5.991   6.730
 6643SOL    HW120828   5.567   6.037   6.818
 6643SOL    HW220829   5.540   6.058   6.659
 6644SOL     OW20830   2.533   5.914   1.563
 6644SOL    HW120831   2.436   5.895   1.550
 6644SOL    HW220832   2.588   5.845   1.515
 6645SOL     OW20833   5.280   3.806   1.027
 6645SOL    HW120834   5.220   3.830   0.950
 6645SOL    HW220835   5.231   3.749   1.092
 6646SOL     OW20836   4.872   1.559   4.946
 6646SOL    HW120837   4.971   1.572   4.951
 6646SOL    HW220838   4.834   1.554   5.038
 6647SOL     OW20839   4.389   6.931   0.557
 6647SOL    HW120840   4.383   0.002   0.514
 6647SOL    HW220841   4.328   6.927   0.636
 6648SOL     OW20842   3.495   6.675   4.093
 6648SOL    HW120843   3.563   6.740   4.059
 6648SOL    HW220844   3.526   6.581   4.074
 6649SOL     OW20845   5.981   1.747   6.161
 6649SOL    HW120846   6.065   1.797   6.140
 6649SOL    HW220847   5.902   1.801   6.134
 6650SOL     OW20848   4.088   1.532   5.469
 6650SOL    HW120849   4.034   1.611   5.499
 6650SOL    HW220850   4.049   1.449   5.509
 6651SOL     OW20851   1.554   0.808   6.012
 6651SOL    HW120852   1.550   0.830   6.109
 6651SOL    HW220853   1.577   0.891   5.960
 6652SOL     OW20854   0.249   4.664   0.041
 6652SOL    HW120855   0.288   4.726   6.991
 6652SOL    HW220856   0.228   4.576   7.018
 6653SOL     OW20857   4.058   3.470   1.245
 6653SOL    HW120858   4.024   3.490   1.337
 6653SOL    HW220859   4.157   3.457   1.249
 6654SOL     OW20860   1.490   5.409   1.700
 6654SOL    HW120861   1.535   5.495   1.679
 6654SOL    HW220862   1.393   5.426   1.716
 6655SOL     OW20863   0.025   6.653   3.369
 6655SOL    HW120864   0.103   6.706   3.401
 6655SOL    HW220865   0.014   6.666   3.271
 6656SOL     OW20866   6.111   2.094   2.129
 6656SOL    HW120867   6.063   2.175   2.162
 6656SOL    HW220868   6.043   2.026   2.099
 6657SOL     OW20869   6.129   3.765   4.731
 6657SOL    HW120870   6.192   3.707   4.784
 6657SOL    HW220871   6.074   3.819   4.794
 6658SOL     OW20872   5.169   1.126   5.339
 6658SOL    HW120873   5.185   1.097   5.433
 6658SOL    HW220874   5.167   1.226   5.334
 6659SOL     OW20875   2.036   2.891   1.496
 6659SOL    HW120876   2.112   2.827   1.504
 6659SOL    HW220877   2.056   2.959   1.425
 6660SOL     OW20878   1.619   5.231   1.226
 6660SOL    HW120879   1.639   5.172   1.305
 6660SOL    HW220880   1.536   5.284   1.244
 6661SOL     OW20881   2.276   0.341   5.305
 6661SOL    HW120882   2.340   0.339   5.228
 6661SOL    HW220883   2.251   0.436   5.324
 6662SOL     OW20884   1.294   0.845   0.554
 6662SOL    HW120885   1.245   0.843   0.641
 6662SOL    HW220886   1.229   0.836   0.479
 6663SOL     OW20887   6.797   6.356   4.778
 6663SOL    HW120888   6.862   6.318   4.844
 6663SOL    HW220889   6.845   6.416   4.714
 6664SOL     OW20890   1.787   0.041   0.559
 6664SOL    HW120891   1.873   0.071   0.517
 6664SOL    HW220892   1.728   0.120   0.574
 6665SOL     OW20893   1.560   6.523   4.511
 6665SOL    HW120894   1.578   6.429   4.482
 6665SOL    HW220895   1.495   6.522   4.587
 6666SOL     OW20896   6.707   6.130   5.807
 6666SOL    HW120897   6.790   6.127   5.863
 6666SOL    HW220898   6.694   6.042   5.761
 6667SOL     OW20899   0.174   6.346   5.577
 6667SOL    HW120900   0.093   6.379   5.626
 6667SOL    HW220901   0.182   6.394   5.490
 6668SOL     OW20902   6.585   5.819   1.095
 6668SOL    HW120903   6.642   5.845   1.173
 6668SOL    HW220904   6.526   5.742   1.121
 6669SOL     OW20905   2.684   2.152   1.992
 6669SOL    HW120906   2.770   2.200   2.011
 6669SOL    HW220907   2.624   2.212   1.938
 6670SOL     OW20908   3.037   1.092   5.515
 6670SOL    HW120909   3.018   0.999   5.482
 6670SOL    HW220910   3.072   1.147   5.440
 6671SOL     OW20911   4.008   0.018   0.650
 6671SOL    HW120912   3.981   0.064   0.565
 6671SOL    HW220913   4.036   6.943   0.629
 6672SOL     OW20914   6.495   1.948   0.386
 6672SOL    HW120915   6.451   1.896   0.459
 6672SOL    HW220916   6.587   1.911   0.370
 6673SOL     OW20917   4.867   4.242   3.829
 6673SOL    HW120918   4.824   4.318   3.876
 6673SOL    HW220919   4.821   4.157   3.854
 6674SOL     OW20920   0.142   4.070   0.397
 6674SOL    HW120921   0.049   4.102   0.416
 6674SOL    HW220922   0.138   3.978   0.356
 6675SOL     OW20923   5.958   3.079   0.345
 6675SOL    HW120924   5.919   2.993   0.314
 6675SOL    HW220925   5.890   3.132   0.394
 6676SOL     OW20926   0.459   3.943   4.906
 6676SOL    HW120927   0.416   3.969   4.819
 6676SOL    HW220928   0.557   3.961   4.901
 6677SOL     OW20929   0.939   1.508   6.432
 6677SOL    HW120930   1.018   1.570   6.432
 6677SOL    HW220931   0.879   1.532   6.356
 6678SOL     OW20932   3.061   3.902   0.440
 6678SOL    HW120933   3.069   3.853   0.353
 6678SOL    HW220934   3.116   3.986   0.436
 6679SOL     OW20935   3.711   0.386   3.820
 6679SOL    HW120936   3.761   0.307   3.854
 6679SOL    HW220937   3.725   0.394   3.721
 6680SOL     OW20938   4.075   6.949   6.426
 6680SOL    HW120939   4.069   6.936   6.327
 6680SOL    HW220940   4.017   0.008   6.453
 6681SOL     OW20941   4.496   6.049   0.465
 6681SOL    HW120942   4.397   6.031   0.461
 6681SOL    HW220943   4.528   6.074   0.374
 6682SOL     OW20944   1.973   4.876   0.269
 6682SOL    HW120945   2.028   4.827   0.335
 6682SOL    HW220946   1.991   4.974   0.277
 6683SOL     OW20947   6.116   3.157   5.370
 6683SOL    HW120948   6.168   3.227   5.321
 6683SOL    HW220949   6.145   3.067   5.339
 6684SOL     OW20950   3.649   6.497   2.471
 6684SOL    HW120951   3.617   6.416   2.421
 6684SOL    HW220952   3.749   6.496   2.476
 6685SOL     OW20953   4.474   3.162   6.540
 6685SOL    HW120954   4.514   3.122   6.622
 6685SOL    HW220955   4.535   3.149   6.462
 6686SOL     OW20956   5.176   5.870   4.223
 6686SOL    HW120957   5.170   5.787   4.168
 6686SOL    HW220958   5.100   5.873   4.287
 6687SOL     OW20959   0.797   3.112   2.127
 6687SOL    HW120960   0.819   3.118   2.029
 6687SOL    HW220961   0.866   3.160   2.180
 6688SOL     OW20962   4.997   4.767   1.422
 6688SOL    HW120963   4.976   4.807   1.332
 6688SOL    HW220964   4.916   4.720   1.457
 6689SOL     OW20965   4.516   3.997   5.662
 6689SOL    HW120966   4.569   3.955   5.736
 6689SOL    HW220967   4.525   3.941   5.579
 6690SOL     OW20968   0.613   0.116   0.494
 6690SOL    HW120969   0.577   0.155   0.579
 6690SOL    HW220970   0.563   0.154   0.416
 6691SOL     OW20971   2.008   0.092   2.557
 6691SOL    HW120972   2.046   0.135   2.475
 6691SOL    HW220973   2.069   0.020   2.588
 6692SOL     OW20974   3.822   3.581   3.581
 6692SOL    HW120975   3.817   3.573   3.681
 6692SOL    HW220976   3.729   3.589   3.544
 6693SOL     OW20977   4.265   2.203   5.468
 6693SOL    HW120978   4.231   2.249   5.551
 6693SOL    HW220979   4.294   2.111   5.492
 6694SOL     OW20980   3.721   5.919   1.441
 6694SOL    HW120981   3.634   5.900   1.487
 6694SOL    HW220982   3.796   5.904   1.505
 6695SOL     OW20983   2.601   2.539   6.611
 6695SOL    HW120984   2.518   2.594   6.618
 6695SOL    HW220985   2.637   2.545   6.518
 6696SOL     OW20986   3.881   3.002   4.259
 6696SOL    HW120987   3.820   2.950   4.200
 6696SOL    HW220988   3.852   2.994   4.354
 6697SOL     OW20989   4.856   1.696   2.834
 6697SOL    HW120990   4.877   1.747   2.917
 6697SOL    HW220991   4.864   1.756   2.755
 6698SOL     OW20992   3.247   2.401   0.817
 6698SOL    HW120993   3.171   2.446   0.864
 6698SOL    HW220994   3.331   2.415   0.869
 6699SOL     OW20995   2.386   6.033   5.481
 6699SOL    HW120996   2.485   6.024   5.487
 6699SOL    HW220997   2.358   6.025   5.385
 6700SOL     OW20998   0.178   1.450   1.262
 6700SOL    HW120999   0.130   1.437   1.175
 6700SOL    HW221000   0.137   1.525   1.313
 6701SOL     OW21001   5.631   5.248   1.760
 6701SOL    HW121002   5.703   5.180   1.750
 6701SOL    HW221003   5.554   5.225   1.701
 6702SOL     OW21004   1.908   2.398   1.116
 6702SOL    HW121005   1.967   2.374   1.193
 6702SOL    HW221006   1.847   2.473   1.143
 6703SOL     OW21007   6.528   0.099   0.938
 6703SOL    HW121008   6.509   0.007   0.903
 6703SOL    HW221009   6.625   0.120   0.923
 6704SOL     OW21010   4.266   2.294   2.825
 6704SOL    HW121011   4.186   2.269   2.880
 6704SOL    HW221012   4.299   2.213   2.776
 6705SOL     OW21013   6.235   3.382   0.841
 6705SOL    HW121014   6.140   3.401   0.817
 6705SOL    HW221015   6.261   3.292   0.807
 6706SOL     OW21016   0.767   5.636   1.390
 6706SOL    HW121017   0.848   5.663   1.339
 6706SOL    HW221018   0.728   5.553   1.349
 6707SOL     OW21019   5.749   6.800   3.548
 6707SOL    HW121020   5.696   6.765   3.471
 6707SOL    HW221021   5.834   6.748   3.557
 6708SOL     OW21022   5.427   5.379   0.712
 6708SOL    HW121023   5.459   5.355   0.804
 6708SOL    HW221024   5.361   5.310   0.681
 6709SOL     OW21025   1.467   6.014   3.143
 6709SOL    HW121026   1.514   6.025   3.055
 6709SOL    HW221027   1.469   6.101   3.192
 6710SOL     OW21028   3.823   0.969   5.903
 6710SOL    HW121029   3.812   0.877   5.865
 6710SOL    HW221030   3.832   0.962   6.002
 6711SOL     OW21031   5.774   6.845   5.609
 6711SOL    HW121032   5.797   6.831   5.706
 6711SOL    HW221033   5.739   6.938   5.596
 6712SOL     OW21034   5.603   3.506   0.924
 6712SOL    HW121035   5.697   3.525   0.952
 6712SOL    HW221036   5.586   3.547   0.834
 6713SOL     OW21037   1.896   0.607   3.028
 6713SOL    HW121038   1.823   0.610   2.959
 6713SOL    HW221039   1.930   0.514   3.036
 6714SOL     OW21040   6.129   1.170   6.668
 6714SOL    HW121041   6.121   1.120   6.754
 6714SOL    HW221042   6.200   1.240   6.676
 6715SOL     OW21043   1.026   0.570   0.833
 6715SOL    HW121044   1.069   0.607   0.915
 6715SOL    HW221045   1.077   0.599   0.752
 6716SOL     OW21046   0.047   5.932   1.973
 6716SOL    HW121047   0.099   5.897   2.051
 6716SOL    HW221048   0.087   5.898   1.888
 6717SOL     OW21049   2.674   3.009   6.345
 6717SOL    HW121050   2.682   2.968   6.436
 6717SOL    HW221051   2.745   3.078   6.333
 6718SOL     OW21052   4.981   0.195   0.926
 6718SOL    HW121053   4.982   0.102   0.889
 6718SOL    HW221054   4.982   0.261   0.851
 6719SOL     OW21055   3.259   6.580   6.932
 6719SOL    HW121056   3.228   6.564   0.007
 6719SOL    HW221057   3.187   6.552   6.868
 6720SOL     OW21058   1.848   0.371   3.524
 6720SOL    HW121059   1.933   0.371   3.472
 6720SOL    HW221060   1.789   0.445   3.492
 6721SOL     OW21061   6.891   6.482   0.174
 6721SOL    HW121062   6.833   6.439   0.105
 6721SOL    HW221063   6.835   6.510   0.252
 6722SOL     OW21064   6.267   2.542   0.931
 6722SOL    HW121065   6.325   2.538   1.012
 6722SOL    HW221066   6.323   2.532   0.849
 6723SOL     OW21067   1.371   0.112   4.789
 6723SOL    HW121068   1.336   0.200   4.755
 6723SOL    HW221069   1.301   0.042   4.780
 6724SOL     OW21070   2.499   3.499   6.405
 6724SOL    HW121071   2.418   3.449   6.372
 6724SOL    HW221072   2.579   3.440   6.396
 6725SOL     OW21073   6.206   2.917   2.103
 6725SOL    HW121074   6.286   2.976   2.108
 6725SOL    HW221075   6.159   2.932   2.016
 6726SOL     OW21076   1.139   2.830   4.345
 6726SOL    HW121077   1.055   2.823   4.399
 6726SOL    HW221078   1.168   2.925   4.339
 6727SOL     OW21079   0.131   4.845   5.766
 6727SOL    HW121080   0.163   4.772   5.706
 6727SOL    HW221081   0.190   4.851   5.846
 6728SOL     OW21082   4.193   2.172   2.444
 6728SOL    HW121083   4.221   2.236   2.372
 6728SOL    HW221084   4.259   2.097   2.449
 6729SOL     OW21085   6.689   0.427   0.756
 6729SOL    HW121086   6.697   0.329   0.736
 6729SOL    HW221087   6.778   0.463   0.786
 6730SOL     OW21088   1.829   6.807   1.824
 6730SOL    HW121089   1.861   6.901   1.830
 6730SOL    HW221090   1.852   6.758   1.908
 6731SOL     OW21091   1.506   6.825   1.259
 6731SOL    HW121092   1.579   6.829   1.191
 6731SOL    HW221093   1.486   6.916   1.294
 6732SOL     OW21094   5.989   4.080   4.472
 6732SOL    HW121095   5.966   4.111   4.380
 6732SOL    HW221096   5.917   4.018   4.504
 6733SOL     OW21097   3.325   5.542   6.466
 6733SOL    HW121098   3.371   5.625   6.436
 6733SOL    HW221099   3.293   5.553   6.560
 6734SOL     OW21100   6.120   2.126   4.670
 6734SOL    HW121101   6.042   2.112   4.730
 6734SOL    HW221102   6.181   2.046   4.675
 6735SOL     OW21103   6.667   3.880   4.485
 6735SOL    HW121104   6.611   3.894   4.404
 6735SOL    HW221105   6.755   3.840   4.458
 6736SOL     OW21106   2.437   3.244   6.725
 6736SOL    HW121107   2.448   3.219   6.629
 6736SOL    HW221108   2.385   3.329   6.733
 6737SOL     OW21109   1.733   3.153   0.829
 6737SOL    HW121110   1.635   3.164   0.840
 6737SOL    HW221111   1.752   3.068   0.780
 6738SOL     OW21112   1.486   5.644   3.479
 6738SOL    HW121113   1.553   5.607   3.543
 6738SOL    HW221114   1.526   5.720   3.428
 6739SOL     OW21115   4.840   6.069   4.248
 6739SOL    HW121116   4.904   6.146   4.244
 6739SOL    HW221117   4.748   6.103   4.267
 6740SOL     OW21118   0.108   6.836   5.482
 6740SOL    HW121119   0.153   6.819   5.395
 6740SOL    HW221120   0.177   6.854   5.552
 6741SOL     OW21121   3.974   2.435   5.809
 6741SOL    HW121122   3.900   2.379   5.772
 6741SOL    HW221123   3.937   2.518   5.850
 6742SOL     OW21124   5.926   5.441   3.062
 6742SOL    HW121125   5.958   5.398   3.146
 6742SOL    HW221126   6.004   5.464   3.004
 6743SOL     OW21127   4.041   4.598   6.046
 6743SOL    HW121128   4.107   4.557   5.984
 6743SOL    HW221129   4.089   4.637   6.125
 6744SOL     OW21130   6.290   4.234   5.690
 6744SOL    HW121131   6.368   4.205   5.746
 6744SOL    HW221132   6.205   4.198   5.730
 6745SOL     OW21133   0.500   6.946   3.507
 6745SOL    HW121134   0.500   7.004   3.588
 6745SOL    HW221135   0.430   6.977   3.444
 6746SOL     OW21136   0.941   1.093   4.217
 6746SOL    HW121137   0.954   1.177   4.164
 6746SOL    HW221138   0.883   1.030   4.165
 6747SOL     OW21139   5.537   1.469   5.960
 6747SOL    HW121140   5.562   1.409   6.036
 6747SOL    HW221141   5.443   1.501   5.972
 6748SOL     OW21142   3.483   1.857   2.851
 6748SOL    HW121143   3.425   1.937   2.869
 6748SOL    HW221144   3.562   1.885   2.796
 6749SOL     OW21145   3.911   4.008   0.625
 6749SOL    HW121146   3.951   3.949   0.695
 6749SOL    HW221147   3.820   3.974   0.601
 6750SOL     OW21148   3.521   2.099   4.189
 6750SOL    HW121149   3.421   2.102   4.185
 6750SOL    HW221150   3.554   2.169   4.252
 6751SOL     OW21151   5.650   0.029   2.987
 6751SOL    HW121152   5.637   7.003   3.075
 6751SOL    HW221153   5.562   0.031   2.938
 6752SOL     OW21154   2.092   0.046   3.350
 6752SOL    HW121155   1.993   0.038   3.339
 6752SOL    HW221156   2.118   0.011   3.440
 6753SOL     OW21157   3.021   1.229   5.887
 6753SOL    HW121158   3.092   1.300   5.894
 6753SOL    HW221159   3.055   1.154   5.830
 6754SOL     OW21160   0.048   1.099   0.956
 6754SOL    HW121161   0.024   1.103   0.859
 6754SOL    HW221162   0.070   1.191   0.989
 6755SOL     OW21163   4.360   1.288   2.120
 6755SOL    HW121164   4.350   1.286   2.020
 6755SOL    HW221165   4.437   1.229   2.147
 6756SOL     OW21166   4.086   6.063   5.167
 6756SOL    HW121167   4.164   6.005   5.190
 6756SOL    HW221168   4.004   6.006   5.158
 6757SOL     OW21169   3.155   2.330   0.531
 6757SOL    HW121170   3.185   2.377   0.614
 6757SOL    HW221171   3.120   2.397   0.465
 6758SOL     OW21172   5.896   2.120   1.565
 6758SOL    HW121173   5.829   2.161   1.504
 6758SOL    HW221174   5.988   2.135   1.527
 6759SOL     OW21175   1.659   3.772   3.759
 6759SOL    HW121176   1.680   3.709   3.834
 6759SOL    HW221177   1.579   3.740   3.709
 6760SOL     OW21178   6.695   3.787   2.609
 6760SOL    HW121179   6.737   3.857   2.551
 6760SOL    HW221180   6.599   3.775   2.583
 6761SOL     OW21181   6.976   2.270   5.848
 6761SOL    HW121182   6.876   2.268   5.851
 6761SOL    HW221183   7.011   2.176   5.849
 6762SOL     OW21184   0.912   4.452   4.790
 6762SOL    HW121185   0.846   4.527   4.791
 6762SOL    HW221186   0.974   4.463   4.713
 6763SOL     OW21187   6.228   5.749   3.611
 6763SOL    HW121188   6.290   5.681   3.572
 6763SOL    HW221189   6.265   5.780   3.699
 6764SOL     OW21190   1.934   5.612   0.844
 6764SOL    HW121191   2.020   5.561   0.840
 6764SOL    HW221192   1.938   5.690   0.783
 6765SOL     OW21193   5.569   4.866   3.847
 6765SOL    HW121194   5.650   4.885   3.903
 6765SOL    HW221195   5.596   4.861   3.751
 6766SOL     OW21196   5.395   6.671   5.542
 6766SOL    HW121197   5.297   6.665   5.521
 6766SOL    HW221198   5.430   6.760   5.513
 6767SOL     OW21199   1.900   1.209   1.139
 6767SOL    HW121200   1.815   1.256   1.115
 6767SOL    HW221201   1.972   1.239   1.077
 6768SOL     OW21202   1.329   6.538   4.701
 6768SOL    HW121203   1.395   6.609   4.722
 6768SOL    HW221204   1.295   6.498   4.787
 6769SOL     OW21205   2.617   0.587   6.653
 6769SOL    HW121206   2.641   0.572   6.749
 6769SOL    HW221207   2.688   0.643   6.610
 6770SOL     OW21208   6.209   1.389   3.083
 6770SOL    HW121209   6.230   1.339   2.999
 6770SOL    HW221210   6.268   1.470   3.089
 6771SOL     OW21211   4.602   1.490   3.551
 6771SOL    HW121212   4.522   1.529   3.596
 6771SOL    HW221213   4.579   1.399   3.516
 6772SOL     OW21214   4.469   2.185   2.532
 6772SOL    HW121215   4.415   2.148   2.607
 6772SOL    HW221216   4.482   2.283   2.546
 6773SOL     OW21217   6.636   5.925   2.160
 6773SOL    HW121218   6.675   5.922   2.068
 6773SOL    HW221219   6.638   6.018   2.195
 6774SOL     OW21220   0.938   3.765   5.058
 6774SOL    HW121221   0.973   3.676   5.087
 6774SOL    HW221222   0.838   3.767   5.070
 6775SOL     OW21223   2.685   2.345   2.274
 6775SOL    HW121224   2.622   2.397   2.217
 6775SOL    HW221225   2.772   2.331   2.225
 6776SOL     OW21226   5.180   3.958   7.008
 6776SOL    HW121227   5.097   3.993   6.965
 6776SOL    HW221228   5.260   3.999   6.964
 6777SOL     OW21229   5.072   4.730   0.780
 6777SOL    HW121230   5.036   4.813   0.822
 6777SOL    HW221231   5.152   4.698   0.831
 6778SOL     OW21232   5.456   5.399   2.055
 6778SOL    HW121233   5.409   5.385   2.142
 6778SOL    HW221234   5.481   5.310   2.016
 6779SOL     OW21235   5.639   5.961   6.196
 6779SOL    HW121236   5.588   5.973   6.111
 6779SOL    HW221237   5.601   6.020   6.267
 6780SOL     OW21238   1.800   2.541   2.360
 6780SOL    HW121239   1.792   2.443   2.374
 6780SOL    HW221240   1.871   2.559   2.292
 6781SOL     OW21241   6.806   2.085   4.155
 6781SOL    HW121242   6.855   2.017   4.100
 6781SOL    HW221243   6.765   2.154   4.094
 6782SOL     OW21244   0.647   0.873   2.541
 6782SOL    HW121245   0.549   0.879   2.521
 6782SOL    HW221246   0.662   0.806   2.614
 6783SOL     OW21247   6.342   1.209   5.348
 6783SOL    HW121248   6.426   1.199   5.294
 6783SOL    HW221249   6.293   1.291   5.318
 6784SOL     OW21250   1.437   3.157   0.828
 6784SOL    HW121251   1.428   3.193   0.921
 6784SOL    HW221252   1.385   3.072   0.821
 6785SOL     OW21253   6.065   5.517   4.358
 6785SOL    HW121254   6.004   5.593   4.382
 6785SOL    HW221255   6.023   5.431   4.384
 6786SOL     OW21256   1.661   2.484   0.224
 6786SOL    HW121257   1.641   2.549   0.297
 6786SOL    HW221258   1.586   2.484   0.157
 6787SOL     OW21259   2.275   2.954   6.980
 6787SOL    HW121260   2.291   3.045   0.000
 6787SOL    HW221261   2.179   2.929   6.990
 6788SOL     OW21262   1.234   4.320   1.746
 6788SOL    HW121263   1.199   4.375   1.670
 6788SOL    HW221264   1.232   4.223   1.721
 6789SOL     OW21265   0.195   4.950   2.776
 6789SOL    HW121266   0.154   5.037   2.803
 6789SOL    HW221267   0.166   4.927   2.683
 6790SOL     OW21268   0.155   3.663   1.018
 6790SOL    HW121269   0.186   3.570   1.040
 6790SOL    HW221270   0.056   3.668   1.028
 6791SOL     OW21271   3.681   1.672   1.926
 6791SOL    HW121272   3.754   1.645   1.864
 6791SOL    HW221273   3.705   1.760   1.968
 6792SOL     OW21274   6.113   6.945   4.813
 6792SOL    HW121275   6.047   6.931   4.886
 6792SOL    HW221276   6.136   6.857   4.771
 6793SOL     OW21277   1.785   1.673   1.070
 6793SOL    HW121278   1.822   1.754   1.115
 6793SOL    HW221279   1.761   1.695   0.975
 6794SOL     OW21280   4.480   0.910   5.406
 6794SOL    HW121281   4.556   0.876   5.461
 6794SOL    HW221282   4.503   1.001   5.371
 6795SOL     OW21283   2.262   6.297   0.528
 6795SOL    HW121284   2.251   6.387   0.570
 6795SOL    HW221285   2.280   6.229   0.599
 6796SOL     OW21286   6.404   0.489   2.957
 6796SOL    HW121287   6.447   0.545   2.887
 6796SOL    HW221288   6.438   0.515   3.047
 6797SOL     OW21289   6.617   2.181   1.754
 6797SOL    HW121290   6.697   2.123   1.772
 6797SOL    HW221291   6.643   2.256   1.693
 6798SOL     OW21292   5.482   6.837   2.091
 6798SOL    HW121293   5.411   6.866   2.026
 6798SOL    HW221294   5.529   6.756   2.056
 6799SOL     OW21295   6.964   6.825   1.967
 6799SOL    HW121296   0.009   6.853   2.039
 6799SOL    HW221297   6.881   6.881   1.972
 6800SOL     OW21298   2.110   3.518   2.191
 6800SOL    HW121299   2.162   3.513   2.106
 6800SOL    HW221300   2.160   3.472   2.264
 6801SOL     OW21301   0.530   6.912   2.721
 6801SOL    HW121302   0.530   6.975   2.799
 6801SOL    HW221303   0.606   6.848   2.730
 6802SOL     OW21304   3.156   6.128   1.633
 6802SOL    HW121305   3.209   6.203   1.595
 6802SOL    HW221306   3.175   6.120   1.732
 6803SOL     OW21307   4.726   2.949   5.169
 6803SOL    HW121308   4.796   2.886   5.136
 6803SOL    HW221309   4.761   3.043   5.161
 6804SOL     OW21310   3.504   4.959   3.987
 6804SOL    HW121311   3.572   4.982   3.918
 6804SOL    HW221312   3.547   4.960   4.077
 6805SOL     OW21313   0.361   4.753   6.838
 6805SOL    HW121314   0.376   4.841   6.793
 6805SOL    HW221315   0.295   4.700   6.785
 6806SOL     OW21316   6.336   0.557   3.450
 6806SOL    HW121317   6.267   0.617   3.410
 6806SOL    HW221318   6.291   0.477   3.491
 6807SOL     OW21319   3.410   3.596   1.405
 6807SOL    HW121320   3.402   3.679   1.350
 6807SOL    HW221321   3.409   3.620   1.502
 6808SOL     OW21322   0.344   2.124   5.743
 6808SOL    HW121323   0.406   2.068   5.689
 6808SOL    HW221324   0.257   2.076   5.756
 6809SOL     OW21325   0.961   3.040   1.603
 6809SOL    HW121326   0.911   3.095   1.670
 6809SOL    HW221327   1.059   3.056   1.612
 6810SOL     OW21328   1.490   0.885   2.684
 6810SOL    HW121329   1.566   0.922   2.739
 6810SOL    HW221330   1.496   0.921   2.591
 6811SOL     OW21331   5.680   3.689   1.598
 6811SOL    HW121332   5.744   3.613   1.595
 6811SOL    HW221333   5.618   3.684   1.520
 6812SOL     OW21334   3.119   3.252   4.638
 6812SOL    HW121335   3.219   3.249   4.628
 6812SOL    HW221336   3.076   3.245   4.548
 6813SOL     OW21337   5.139   2.864   3.029
 6813SOL    HW121338   5.182   2.920   2.958
 6813SOL    HW221339   5.087   2.790   2.986
 6814SOL     OW21340   3.442   1.582   6.058
 6814SOL    HW121341   3.407   1.499   6.015
 6814SOL    HW221342   3.420   1.661   6.001
 6815SOL     OW21343   3.466   6.330   0.903
 6815SOL    HW121344   3.477   6.290   0.994
 6815SOL    HW221345   3.415   6.415   0.910
 6816SOL     OW21346   6.762   0.038   6.596
 6816SOL    HW121347   6.849   0.055   6.548
 6816SOL    HW221348   6.779   6.996   6.674
 6817SOL     OW21349   2.431   2.674   2.986
 6817SOL    HW121350   2.401   2.676   3.082
 6817SOL    HW221351   2.508   2.611   2.977
 6818SOL     OW21352   2.566   6.390   2.117
 6818SOL    HW121353   2.500   6.412   2.045
 6818SOL    HW221354   2.587   6.293   2.114
 6819SOL     OW21355   4.662   1.620   3.303
 6819SOL    HW121356   4.610   1.589   3.383
 6819SOL    HW221357   4.719   1.545   3.269
 6820SOL     OW21358   2.017   5.679   2.021
 6820SOL    HW121359   2.080   5.640   1.954
 6820SOL    HW221360   1.927   5.635   2.012
 6821SOL     OW21361   3.843   2.032   4.871
 6821SOL    HW121362   3.910   2.103   4.889
 6821SOL    HW221363   3.812   2.039   4.776
 6822SOL     OW21364   5.296   2.376   5.977
 6822SOL    HW121365   5.327   2.303   6.037
 6822SOL    HW221366   5.314   2.465   6.019
 6823SOL     OW21367   4.509   3.577   5.782
 6823SOL    HW121368   4.450   3.532   5.849
 6823SOL    HW221369   4.453   3.631   5.719
 6824SOL     OW21370   1.056   2.295   0.737
 6824SOL    HW121371   0.959   2.299   0.715
 6824SOL    HW221372   1.074   2.219   0.800
 6825SOL     OW21373   5.015   6.807   1.029
 6825SOL    HW121374   4.972   6.799   1.120
 6825SOL    HW221375   4.948   6.842   0.964
 6826SOL     OW21376   1.841   3.279   3.105
 6826SOL    HW121377   1.792   3.200   3.068
 6826SOL    HW221378   1.939   3.262   3.099
 6827SOL     OW21379   4.424   5.257   6.775
 6827SOL    HW121380   4.472   5.304   6.701
 6827SOL    HW221381   4.455   5.162   6.780
 6828SOL     OW21382   2.797   1.743   1.467
 6828SOL    HW121383   2.892   1.768   1.487
 6828SOL    HW221384   2.740   1.825   1.471
 6829SOL     OW21385   5.151   6.112   5.450
 6829SOL    HW121386   5.146   6.205   5.487
 6829SOL    HW221387   5.229   6.105   5.388
 6830SOL     OW21388   5.020   0.992   3.627
 6830SOL    HW121389   5.120   0.989   3.635
 6830SOL    HW221390   4.986   1.072   3.677
 6831SOL     OW21391   1.283   0.262   0.032
 6831SOL    HW121392   1.214   0.335   0.036
 6831SOL    HW221393   1.261   0.199   6.977
 6832SOL     OW21394   2.382   4.271   0.767
 6832SOL    HW121395   2.344   4.335   0.700
 6832SOL    HW221396   2.404   4.185   0.722
 6833SOL     OW21397   3.418   4.546   6.768
 6833SOL    HW121398   3.398   4.566   6.672
 6833SOL    HW221399   3.413   4.447   6.784
 6834SOL     OW21400   4.349   6.655   0.994
 6834SOL    HW121401   4.283   6.699   1.055
 6834SOL    HW221402   4.437   6.702   1.001
 6835SOL     OW21403   3.923   0.731   4.700
 6835SOL    HW121404   4.001   0.669   4.712
 6835SOL    HW221405   3.913   0.788   4.781
 6836SOL     OW21406   2.282   4.671   7.007
 6836SOL    HW121407   2.257   4.766   0.009
 6836SOL    HW221408   2.354   4.641   0.052
 6837SOL     OW21409   0.676   2.229   2.316
 6837SOL    HW121410   0.663   2.189   2.225
 6837SOL    HW221411   0.762   2.196   2.355
 6838SOL     OW21412   3.547   6.473   6.783
 6838SOL    HW121413   3.484   6.522   6.844
 6838SOL    HW221414   3.602   6.408   6.836
 6839SOL     OW21415   5.711   1.216   6.765
 6839SOL    HW121416   5.637   1.239   6.829
 6839SOL    HW221417   5.713   1.117   6.751
 6840SOL     OW21418   3.399   1.062   4.768
 6840SOL    HW121419   3.345   1.133   4.812
 6840SOL    HW221420   3.349   0.975   4.773
 6841SOL     OW21421   4.684   4.569   6.747
 6841SOL    HW121422   4.774   4.557   6.789
 6841SOL    HW221423   4.672   4.502   6.674
 6842SOL     OW21424   3.052   4.203   0.751
 6842SOL    HW121425   3.053   4.239   0.844
 6842SOL    HW221426   3.080   4.107   0.752
 6843SOL     OW21427   6.007   6.513   1.150
 6843SOL    HW121428   6.031   6.473   1.062
 6843SOL    HW221429   5.934   6.459   1.193
 6844SOL     OW21430   5.314   0.577   3.662
 6844SOL    HW121431   5.317   0.655   3.725
 6844SOL    HW221432   5.232   0.522   3.680
 6845SOL     OW21433   6.449   4.119   3.287
 6845SOL    HW121434   6.467   4.104   3.190
 6845SOL    HW221435   6.363   4.073   3.313
 6846SOL     OW21436   3.224   2.926   0.090
 6846SOL    HW121437   3.206   3.010   0.039
 6846SOL    HW221438   3.187   2.848   0.040
 6847SOL     OW21439   0.202   3.438   4.132
 6847SOL    HW121440   0.173   3.500   4.204
 6847SOL    HW221441   0.297   3.409   4.149
 6848SOL     OW21442   4.958   5.784   3.912
 6848SOL    HW121443   4.932   5.845   3.837
 6848SOL    HW221444   4.913   5.696   3.901
 6849SOL     OW21445   4.227   5.007   5.207
 6849SOL    HW121446   4.171   4.932   5.171
 6849SOL    HW221447   4.176   5.092   5.203
 6850SOL     OW21448   5.847   4.086   2.380
 6850SOL    HW121449   5.905   4.018   2.424
 6850SOL    HW221450   5.833   4.062   2.284
 6851SOL     OW21451   0.600   1.923   2.866
 6851SOL    HW121452   0.640   1.834   2.842
 6851SOL    HW221453   0.636   1.993   2.805
 6852SOL     OW21454   2.807   4.747   0.897
 6852SOL    HW121455   2.758   4.670   0.856
 6852SOL    HW221456   2.746   4.796   0.959
 6853SOL     OW21457   5.969   4.687   0.199
 6853SOL    HW121458   5.978   4.627   0.120
 6853SOL    HW221459   6.051   4.679   0.256
 6854SOL     OW21460   4.259   1.142   6.524
 6854SOL    HW121461   4.336   1.092   6.565
 6854SOL    HW221462   4.210   1.081   6.462
 6855SOL     OW21463   4.371   5.930   4.199
 6855SOL    HW121464   4.375   5.846   4.252
 6855SOL    HW221465   4.441   5.928   4.128
 6856SOL     OW21466   6.262   2.740   5.102
 6856SOL    HW121467   6.250   2.647   5.136
 6856SOL    HW221468   6.181   2.766   5.048
 6857SOL     OW21469   2.896   2.163   6.607
 6857SOL    HW121470   2.981   2.151   6.658
 6857SOL    HW221471   2.825   2.106   6.648
 6858SOL     OW21472   4.052   3.610   3.164
 6858SOL    HW121473   4.107   3.571   3.238
 6858SOL    HW221474   3.959   3.627   3.196
 6859SOL     OW21475   0.650   1.628   0.847
 6859SOL    HW121476   0.662   1.625   0.946
 6859SOL    HW221477   0.570   1.573   0.822
 6860SOL     OW21478   6.742   5.141   1.072
 6860SOL    HW121479   6.794   5.102   1.148
 6860SOL    HW221480   6.789   5.124   0.986
 6861SOL     OW21481   3.987   4.985   0.416
 6861SOL    HW121482   4.066   4.929   0.393
 6861SOL    HW221483   3.909   4.927   0.440
 6862SOL     OW21484   1.473   5.109   6.255
 6862SOL    HW121485   1.473   5.102   6.155
 6862SOL    HW221486   1.380   5.128   6.287
 6863SOL     OW21487   5.676   6.595   5.618
 6863SOL    HW121488   5.705   6.691   5.622
 6863SOL    HW221489   5.585   6.590   5.575
 6864SOL     OW21490   2.480   5.057   4.335
 6864SOL    HW121491   2.577   5.058   4.361
 6864SOL    HW221492   2.442   5.148   4.347
 6865SOL     OW21493   1.187   6.121   3.986
 6865SOL    HW121494   1.178   6.022   3.994
 6865SOL    HW221495   1.240   6.156   4.063
 6866SOL     OW21496   5.818   4.891   3.968
 6866SOL    HW121497   5.796   4.926   4.059
 6866SOL    HW221498   5.861   4.801   3.977
 6867SOL     OW21499   2.489   4.583   1.697
 6867SOL    HW121500   2.504   4.626   1.786
 6867SOL    HW221501   2.432   4.502   1.709
 6868SOL     OW21502   1.592   5.435   6.648
 6868SOL    HW121503   1.643   5.349   6.653
 6868SOL    HW221504   1.653   5.512   6.666
 6869SOL     OW21505   5.378   0.833   6.223
 6869SOL    HW121506   5.418   0.867   6.308
 6869SOL    HW221507   5.309   0.763   6.244
 6870SOL     OW21508   0.742   4.883   1.815
 6870SOL    HW121509   0.654   4.894   1.861
 6870SOL    HW221510   0.728   4.885   1.716
 6871SOL     OW21511   6.031   4.536   3.371
 6871SOL    HW121512   6.107   4.501   3.426
 6871SOL    HW221513   6.002   4.465   3.306
 6872SOL     OW21514   0.466   2.241   1.234
 6872SOL    HW121515   0.472   2.339   1.219
 6872SOL    HW221516   0.431   2.223   1.326
 6873SOL     OW21517   6.491   3.614   4.258
 6873SOL    HW121518   6.537   3.673   4.325
 6873SOL    HW221519   6.560   3.564   4.206
 6874SOL     OW21520   6.640   5.169   2.642
 6874SOL    HW121521   6.617   5.265   2.625
 6874SOL    HW221522   6.671   5.127   2.556
 6875SOL     OW21523   2.367   2.648   2.580
 6875SOL    HW121524   2.401   2.720   2.519
 6875SOL    HW221525   2.430   2.571   2.580
 6876SOL     OW21526   4.125   0.367   3.610
 6876SOL    HW121527   4.213   0.410   3.631
 6876SOL    HW221528   4.140   0.284   3.556
 6877SOL     OW21529   2.587   3.865   1.227
 6877SOL    HW121530   2.667   3.820   1.267
 6877SOL    HW221531   2.582   3.844   1.129
 6878SOL     OW21532   3.837   0.895   4.368
 6878SOL    HW121533   3.911   0.848   4.321
 6878SOL    HW221534   3.751   0.848   4.352
 6879SOL     OW21535   0.919   2.924   0.788
 6879SOL    HW121536   0.915   2.826   0.806
 6879SOL    HW221537   0.966   2.969   0.864
 6880SOL     OW21538   2.616   5.527   4.964
 6880SOL    HW121539   2.562   5.467   4.905
 6880SOL    HW221540   2.581   5.522   5.058
 6881SOL     OW21541   1.544   5.077   0.975
 6881SOL    HW121542   1.542   5.065   1.074
 6881SOL    HW221543   1.546   4.987   0.931
 6882SOL     OW21544   2.735   0.633   0.180
 6882SOL    HW121545   2.682   0.660   0.261
 6882SOL    HW221546   2.777   0.543   0.196
 6883SOL     OW21547   4.911   1.862   6.761
 6883SOL    HW121548   4.920   1.894   6.667
 6883SOL    HW221549   4.875   1.768   6.761
 6884SOL     OW21550   1.174   3.920   4.010
 6884SOL    HW121551   1.128   3.923   4.099
 6884SOL    HW221552   1.186   4.013   3.975
 6885SOL     OW21553   4.518   4.683   4.311
 6885SOL    HW121554   4.534   4.599   4.259
 6885SOL    HW221555   4.544   4.669   4.406
 6886SOL     OW21556   6.907   0.766   3.852
 6886SOL    HW121557   6.900   0.794   3.948
 6886SOL    HW221558   6.815   0.760   3.812
 6887SOL     OW21559   5.141   5.702   6.245
 6887SOL    HW121560   5.192   5.758   6.179
 6887SOL    HW221561   5.206   5.650   6.301
 6888SOL     OW21562   5.545   5.666   6.429
 6888SOL    HW121563   5.638   5.702   6.414
 6888SOL    HW221564   5.542   5.570   6.402
 6889SOL     OW21565   1.427   2.702   5.665
 6889SOL    HW121566   1.498   2.667   5.604
 6889SOL    HW221567   1.349   2.639   5.665
 6890SOL     OW21568   4.167   6.614   1.906
 6890SOL    HW121569   4.243   6.679   1.899
 6890SOL    HW221570   4.131   6.614   1.999
 6891SOL     OW21571   1.800   4.149   2.778
 6891SOL    HW121572   1.745   4.183   2.854
 6891SOL    HW221573   1.753   4.167   2.692
 6892SOL     OW21574   3.909   2.067   3.302
 6892SOL    HW121575   3.984   2.116   3.258
 6892SOL    HW221576   3.823   2.090   3.256
 6893SOL     OW21577   4.821   4.730   0.222
 6893SOL    HW121578   4.830   4.783   0.138
 6893SOL    HW221579   4.890   4.760   0.288
 6894SOL     OW21580   6.064   5.098   0.254
 6894SOL    HW121581   6.026   5.090   0.346
 6894SOL    HW221582   6.164   5.088   0.258
 6895SOL     OW21583   3.028   5.016   1.317
 6895SOL    HW121584   3.068   4.926   1.296
 6895SOL    HW221585   2.929   5.010   1.312
 6896SOL     OW21586   2.451   0.403   3.930
 6896SOL    HW121587   2.476   0.429   3.837
 6896SOL    HW221588   2.393   0.321   3.927
 6897SOL     OW21589   4.834   3.486   5.378
 6897SOL    HW121590   4.773   3.498   5.456
 6897SOL    HW221591   4.786   3.511   5.294
 6898SOL     OW21592   4.201   1.574   1.481
 6898SOL    HW121593   4.193   1.672   1.498
 6898SOL    HW221594   4.270   1.534   1.542
 6899SOL     OW21595   4.903   6.252   1.708
 6899SOL    HW121596   4.865   6.342   1.729
 6899SOL    HW221597   4.936   6.250   1.613
 6900SOL     OW21598   6.290   5.704   4.961
 6900SOL    HW121599   6.256   5.634   4.898
 6900SOL    HW221600   6.384   5.683   4.987
 6901SOL     OW21601   6.406   5.990   5.959
 6901SOL    HW121602   6.350   5.963   5.881
 6901SOL    HW221603   6.409   6.090   5.964
 6902SOL     OW21604   6.722   6.294   7.019
 6902SOL    HW121605   6.673   6.327   0.081
 6902SOL    HW221606   6.733   6.195   0.005
 6903SOL     OW21607   3.059   4.873   5.442
 6903SOL    HW121608   3.026   4.866   5.348
 6903SOL    HW221609   3.146   4.922   5.444
 6904SOL     OW21610   6.860   0.806   4.119
 6904SOL    HW121611   6.762   0.796   4.139
 6904SOL    HW221612   6.893   0.893   4.156
 6905SOL     OW21613   5.873   6.196   6.593
 6905SOL    HW121614   5.815   6.124   6.555
 6905SOL    HW221615   5.893   6.174   6.689
 6906SOL     OW21616   4.667   1.562   4.260
 6906SOL    HW121617   4.660   1.660   4.243
 6906SOL    HW221618   4.750   1.543   4.312
 6907SOL     OW21619   5.731   2.870   1.645
 6907SOL    HW121620   5.719   2.821   1.731
 6907SOL    HW221621   5.689   2.961   1.653
 6908SOL     OW21622   1.205   5.359   0.051
 6908SOL    HW121623   1.265   5.279   0.049
 6908SOL    HW221624   1.209   5.407   6.982
 6909SOL     OW21625   4.992   4.382   1.540
 6909SOL    HW121626   4.995   4.285   1.566
 6909SOL    HW221627   4.899   4.417   1.553
 6910SOL     OW21628   0.897   2.843   3.475
 6910SOL    HW121629   0.921   2.879   3.565
 6910SOL    HW221630   0.974   2.853   3.413
 6911SOL     OW21631   4.303   6.632   4.382
 6911SOL    HW121632   4.378   6.635   4.447
 6911SOL    HW221633   4.337   6.599   4.293
 6912SOL     OW21634   3.452   3.684   6.232
 6912SOL    HW121635   3.355   3.690   6.213
 6912SOL    HW221636   3.501   3.658   6.149
 6913SOL     OW21637   5.421   5.920   3.496
 6913SOL    HW121638   5.503   5.889   3.544
 6913SOL    HW221639   5.342   5.912   3.556
 6914SOL     OW21640   6.000   4.222   3.535
 6914SOL    HW121641   6.084   4.276   3.526
 6914SOL    HW221642   6.023   4.125   3.537
 6915SOL     OW21643   5.921   3.192   1.753
 6915SOL    HW121644   5.838   3.175   1.699
 6915SOL    HW221645   5.904   3.269   1.816
 6916SOL     OW21646   5.462   1.892   6.626
 6916SOL    HW121647   5.458   1.922   6.531
 6916SOL    HW221648   5.537   1.827   6.637
 6917SOL     OW21649   3.169   0.117   1.867
 6917SOL    HW121650   3.239   0.045   1.867
 6917SOL    HW221651   3.213   0.206   1.856
 6918SOL     OW21652   0.442   2.824   4.578
 6918SOL    HW121653   0.367   2.800   4.640
 6918SOL    HW221654   0.440   2.922   4.559
 6919SOL     OW21655   5.786   5.666   3.779
 6919SOL    HW121656   5.754   5.589   3.724
 6919SOL    HW221657   5.879   5.647   3.811
 6920SOL     OW21658   4.158   6.127   5.818
 6920SOL    HW121659   4.078   6.154   5.873
 6920SOL    HW221660   4.204   6.208   5.783
 6921SOL     OW21661   5.152   5.619   4.107
 6921SOL    HW121662   5.143   5.535   4.160
 6921SOL    HW221663   5.096   5.612   4.024
 6922SOL     OW21664   1.768   6.228   4.993
 6922SOL    HW121665   1.849   6.283   4.971
 6922SOL    HW221666   1.686   6.279   4.969
 6923SOL     OW21667   5.052   5.233   3.035
 6923SOL    HW121668   5.048   5.149   3.089
 6923SOL    HW221669   5.047   5.312   3.096
 6924SOL     OW21670   1.735   4.442   6.423
 6924SOL    HW121671   1.691   4.352   6.422
 6924SOL    HW221672   1.799   4.449   6.346
 6925SOL     OW21673   4.756   6.227   3.842
 6925SOL    HW121674   4.703   6.309   3.864
 6925SOL    HW221675   4.696   6.160   3.797
 6926SOL     OW21676   2.860   2.361   0.788
 6926SOL    HW121677   2.911   2.329   0.868
 6926SOL    HW221678   2.765   2.332   0.796
 6927SOL     OW21679   3.887   2.688   5.911
 6927SOL    HW121680   3.794   2.721   5.894
 6927SOL    HW221681   3.949   2.723   5.841
 6928SOL     OW21682   5.770   5.919   1.013
 6928SOL    HW121683   5.775   5.914   0.913
 6928SOL    HW221684   5.798   5.832   1.052
 6929SOL     OW21685   5.366   5.877   1.455
 6929SOL    HW121686   5.355   5.925   1.368
 6929SOL    HW221687   5.307   5.797   1.457
 6930SOL     OW21688   0.940   0.786   1.839
 6930SOL    HW121689   0.949   0.771   1.741
 6930SOL    HW221690   1.027   0.764   1.884
 6931SOL     OW21691   1.953   0.697   2.403
 6931SOL    HW121692   1.997   0.760   2.339
 6931SOL    HW221693   1.958   0.735   2.495
 6932SOL     OW21694   4.009   6.918   0.032
 6932SOL    HW121695   4.007   6.853   0.108
 6932SOL    HW221696   3.919   6.919   7.006
 6933SOL     OW21697   3.436   5.861   5.441
 6933SOL    HW121698   3.507   5.860   5.512
 6933SOL    HW221699   3.438   5.775   5.390
 6934SOL     OW21700   4.404   3.815   6.140
 6934SOL    HW121701   4.344   3.894   6.131
 6934SOL    HW221702   4.364   3.750   6.205
 6935SOL     OW21703   4.556   5.674   2.381
 6935SOL    HW121704   4.465   5.674   2.340
 6935SOL    HW221705   4.549   5.687   2.480
 6936SOL     OW21706   6.140   1.975   3.150
 6936SOL    HW121707   6.230   1.957   3.192
 6936SOL    HW221708   6.143   2.063   3.103
 6937SOL     OW21709   6.359   6.130   0.248
 6937SOL    HW121710   6.396   6.043   0.215
 6937SOL    HW221711   6.422   6.204   0.223
 6938SOL     OW21712   6.201   2.495   5.242
 6938SOL    HW121713   6.253   2.465   5.321
 6938SOL    HW221714   6.103   2.486   5.261
 6939SOL     OW21715   0.881   5.027   2.013
 6939SOL    HW121716   0.873   4.958   2.086
 6939SOL    HW221717   0.836   4.993   1.930
 6940SOL     OW21718   3.497   0.505   6.072
 6940SOL    HW121719   3.410   0.485   6.117
 6940SOL    HW221720   3.572   0.494   6.138
 6941SOL     OW21721   2.981   4.024   1.791
 6941SOL    HW121722   3.025   4.074   1.716
 6941SOL    HW221723   3.051   3.991   1.854
 6942SOL     OW21724   6.207   6.572   1.682
 6942SOL    HW121725   6.293   6.570   1.632
 6942SOL    HW221726   6.146   6.640   1.642
 6943SOL     OW21727   3.220   5.709   0.328
 6943SOL    HW121728   3.278   5.708   0.247
 6943SOL    HW221729   3.277   5.713   0.410
 6944SOL     OW21730   0.693   4.317   6.705
 6944SOL    HW121731   0.731   4.277   6.622
 6944SOL    HW221732   0.764   4.368   6.754
 6945SOL     OW21733   6.080   1.376   0.005
 6945SOL    HW121734   6.003   1.324   0.042
 6945SOL    HW221735   6.056   1.409   6.933
 6946SOL     OW21736   3.933   6.787   1.183
 6946SOL    HW121737   3.918   6.691   1.207
 6946SOL    HW221738   3.938   6.795   1.083
 6947SOL     OW21739   3.449   5.771   6.426
 6947SOL    HW121740   3.489   5.763   6.334
 6947SOL    HW221741   3.509   5.827   6.483
 6948SOL     OW21742   0.843   0.152   0.347
 6948SOL    HW121743   0.828   0.153   0.248
 6948SOL    HW221744   0.755   0.144   0.394
 6949SOL     OW21745   3.742   0.291   3.195
 6949SOL    HW121746   3.662   0.318   3.249
 6949SOL    HW221747   3.736   0.331   3.104
 6950SOL     OW21748   1.423   1.957   4.669
 6950SOL    HW121749   1.522   1.955   4.653
 6950SOL    HW221750   1.376   1.973   4.583
 6951SOL     OW21751   5.854   5.283   5.387
 6951SOL    HW121752   5.831   5.314   5.294
 6951SOL    HW221753   5.892   5.359   5.439
 6952SOL     OW21754   0.551   6.394   3.239
 6952SOL    HW121755   0.574   6.377   3.335
 6952SOL    HW221756   0.635   6.411   3.187
 6953SOL     OW21757   4.142   6.590   1.480
 6953SOL    HW121758   4.114   6.613   1.387
 6953SOL    HW221759   4.216   6.651   1.509
 6954SOL     OW21760   6.768   4.037   2.494
 6954SOL    HW121761   6.846   4.079   2.540
 6954SOL    HW221762   6.786   4.031   2.396
 6955SOL     OW21763   5.866   0.168   2.252
 6955SOL    HW121764   5.889   0.117   2.335
 6955SOL    HW221765   5.778   0.137   2.218
 6956SOL     OW21766   5.854   5.915   3.665
 6956SOL    HW121767   5.816   5.835   3.712
 6956SOL    HW221768   5.816   5.921   3.573
 6957SOL     OW21769   6.123   5.528   0.635
 6957SOL    HW121770   6.054   5.541   0.707
 6957SOL    HW221771   6.191   5.462   0.667
 6958SOL     OW21772   4.033   3.426   4.611
 6958SOL    HW121773   4.076   3.336   4.603
 6958SOL    HW221774   4.071   3.488   4.543
 6959SOL     OW21775   2.148   3.275   3.647
 6959SOL    HW121776   2.123   3.183   3.616
 6959SOL    HW221777   2.165   3.333   3.568
 6960SOL     OW21778   1.588   4.598   1.173
 6960SOL    HW121779   1.537   4.537   1.113
 6960SOL    HW221780   1.593   4.559   1.264
 6961SOL     OW21781   5.679   1.046   3.898
 6961SOL    HW121782   5.585   1.050   3.865
 6961SOL    HW221783   5.711   0.951   3.894
 6962SOL     OW21784   5.094   6.046   1.759
 6962SOL    HW121785   5.116   6.036   1.856
 6962SOL    HW221786   5.029   6.121   1.747
 6963SOL     OW21787   5.225   5.865   1.038
 6963SOL    HW121788   5.324   5.852   1.046
 6963SOL    HW221789   5.203   5.961   1.055
 6964SOL     OW21790   3.593   1.033   5.390
 6964SOL    HW121791   3.687   1.011   5.417
 6964SOL    HW221792   3.560   1.109   5.446
 6965SOL     OW21793   1.440   1.110   0.330
 6965SOL    HW121794   1.350   1.076   0.301
 6965SOL    HW221795   1.433   1.207   0.353
 6966SOL     OW21796   1.200   2.304   2.841
 6966SOL    HW121797   1.289   2.348   2.831
 6966SOL    HW221798   1.213   2.213   2.881
 6967SOL     OW21799   2.763   1.108   5.505
 6967SOL    HW121800   2.858   1.081   5.524
 6967SOL    HW221801   2.701   1.036   5.536
 6968SOL     OW21802   3.504   0.356   2.969
 6968SOL    HW121803   3.592   0.380   2.929
 6968SOL    HW221804   3.444   0.318   2.899
 6969SOL     OW21805   2.964   2.258   1.681
 6969SOL    HW121806   2.941   2.315   1.760
 6969SOL    HW221807   3.062   2.240   1.681
 6970SOL     OW21808   4.395   4.461   5.441
 6970SOL    HW121809   4.445   4.401   5.503
 6970SOL    HW221810   4.298   4.434   5.441
 6971SOL     OW21811   6.607   4.604   1.044
 6971SOL    HW121812   6.511   4.607   1.018
 6971SOL    HW221813   6.664   4.623   0.964
 6972SOL     OW21814   5.510   4.591   2.945
 6972SOL    HW121815   5.530   4.638   2.859
 6972SOL    HW221816   5.592   4.588   3.001
 6973SOL     OW21817   1.272   3.152   3.586
 6973SOL    HW121818   1.214   3.167   3.506
 6973SOL    HW221819   1.222   3.178   3.669
 6974SOL     OW21820   2.941   3.783   2.834
 6974SOL    HW121821   2.995   3.860   2.868
 6974SOL    HW221822   2.996   3.728   2.772
 6975SOL     OW21823   1.440   6.249   6.221
 6975SOL    HW121824   1.350   6.278   6.191
 6975SOL    HW221825   1.432   6.165   6.274
 6976SOL     OW21826   5.623   5.071   5.082
 6976SOL    HW121827   5.611   5.169   5.100
 6976SOL    HW221828   5.671   5.029   5.159
 6977SOL     OW21829   3.907   2.879   1.379
 6977SOL    HW121830   3.877   2.808   1.315
 6977SOL    HW221831   4.003   2.902   1.361
 6978SOL     OW21832   5.892   1.618   2.318
 6978SOL    HW121833   5.861   1.700   2.367
 6978SOL    HW221834   5.991   1.617   2.313
 6979SOL     OW21835   0.986   4.090   1.864
 6979SOL    HW121836   1.037   4.139   1.935
 6979SOL    HW221837   1.041   4.084   1.782
 6980SOL     OW21838   2.143   1.607   4.011
 6980SOL    HW121839   2.115   1.545   3.938
 6980SOL    HW221840   2.130   1.701   3.982
 6981SOL     OW21841   3.684   2.942   5.946
 6981SOL    HW121842   3.753   3.006   5.913
 6981SOL    HW221843   3.608   2.938   5.882
 6982SOL     OW21844   1.360   0.944   4.952
 6982SOL    HW121845   1.271   0.962   4.911
 6982SOL    HW221846   1.365   0.848   4.980
 6983SOL     OW21847   4.240   1.847   3.513
 6983SOL    HW121848   4.151   1.858   3.557
 6983SOL    HW221849   4.287   1.935   3.510
 6984SOL     OW21850   1.574   1.565   3.349
 6984SOL    HW121851   1.514   1.614   3.411
 6984SOL    HW221852   1.522   1.495   3.300
 6985SOL     OW21853   5.921   5.115   1.013
 6985SOL    HW121854   6.014   5.096   1.044
 6985SOL    HW221855   5.893   5.044   0.948
 6986SOL     OW21856   2.396   0.143   6.321
 6986SOL    HW121857   2.423   0.048   6.308
 6986SOL    HW221858   2.385   0.187   6.232
 6987SOL     OW21859   6.005   1.474   6.528
 6987SOL    HW121860   5.916   1.517   6.510
 6987SOL    HW221861   6.056   1.467   6.442
 6988SOL     OW21862   1.026   6.743   6.382
 6988SOL    HW121863   1.027   6.814   6.312
 6988SOL    HW221864   0.932   6.729   6.414
 6989SOL     OW21865   1.187   4.000   3.526
 6989SOL    HW121866   1.217   3.996   3.430
 6989SOL    HW221867   1.088   3.989   3.530
 6990SOL     OW21868   5.086   2.957   1.474
 6990SOL    HW121869   5.011   2.907   1.518
 6990SOL    HW221870   5.156   2.979   1.542
 6991SOL     OW21871   4.498   4.470   3.356
 6991SOL    HW121872   4.527   4.383   3.396
 6991SOL    HW221873   4.526   4.473   3.260
 6992SOL     OW21874   5.472   6.962   6.450
 6992SOL    HW121875   5.489   6.921   6.540
 6992SOL    HW221876   5.391   6.919   6.409
 6993SOL     OW21877   6.143   0.534   2.922
 6993SOL    HW121878   6.239   0.535   2.951
 6993SOL    HW221879   6.136   0.488   2.833
 6994SOL     OW21880   0.487   2.458   4.208
 6994SOL    HW121881   0.449   2.541   4.249
 6994SOL    HW221882   0.515   2.395   4.281
 6995SOL     OW21883   0.330   4.674   6.403
 6995SOL    HW121884   0.273   4.653   6.483
 6995SOL    HW221885   0.272   4.678   6.322
 6996SOL     OW21886   1.450   0.146   6.536
 6996SOL    HW121887   1.495   0.097   6.611
 6996SOL    HW221888   1.505   0.227   6.513
 6997SOL     OW21889   0.343   5.704   5.526
 6997SOL    HW121890   0.330   5.803   5.521
 6997SOL    HW221891   0.254   5.659   5.533
 6998SOL     OW21892   2.153   0.513   1.431
 6998SOL    HW121893   2.130   0.486   1.337
 6998SOL    HW221894   2.082   0.573   1.466
 6999SOL     OW21895   2.410   2.266   6.666
 6999SOL    HW121896   2.493   2.281   6.613
 6999SOL    HW221897   2.341   2.334   6.640
 7000SOL     OW21898   5.221   6.669   1.549
 7000SOL    HW121899   5.274   6.750   1.524
 7000SOL    HW221900   5.179   6.682   1.639
 7001SOL     OW21901   2.099   3.375   6.169
 7001SOL    HW121902   2.049   3.291   6.148
 7001SOL    HW221903   2.135   3.414   6.084
 7002SOL     OW21904   1.467   5.216   3.691
 7002SOL    HW121905   1.413   5.154   3.749
 7002SOL    HW221906   1.437   5.206   3.596
 7003SOL     OW21907   4.213   5.736   0.754
 7003SOL    HW121908   4.114   5.731   0.763
 7003SOL    HW221909   4.247   5.657   0.703
 7004SOL     OW21910   0.725   5.603   2.030
 7004SOL    HW121911   0.669   5.560   1.960
 7004SOL    HW221912   0.820   5.607   1.999
 7005SOL     OW21913   0.782   7.004   0.754
 7005SOL    HW121914   0.829   7.005   0.842
 7005SOL    HW221915   0.816   0.060   0.697
 7006SOL     OW21916   4.731   4.992   3.830
 7006SOL    HW121917   4.711   5.031   3.740
 7006SOL    HW221918   4.653   5.006   3.891
 7007SOL     OW21919   4.473   0.608   4.469
 7007SOL    HW121920   4.546   0.557   4.515
 7007SOL    HW221921   4.508   0.698   4.442
 7008SOL     OW21922   0.352   4.348   4.122
 7008SOL    HW121923   0.259   4.386   4.123
 7008SOL    HW221924   0.398   4.368   4.208
 7009SOL     OW21925   4.966   6.436   2.656
 7009SOL    HW121926   4.991   6.434   2.559
 7009SOL    HW221927   4.936   6.528   2.680
 7010SOL     OW21928   5.518   4.234   3.868
 7010SOL    HW121929   5.548   4.223   3.962
 7010SOL    HW221930   5.578   4.182   3.807
 7011SOL     OW21931   3.304   6.415   6.613
 7011SOL    HW121932   3.277   6.320   6.622
 7011SOL    HW221933   3.394   6.429   6.655
 7012SOL     OW21934   0.648   1.542   1.136
 7012SOL    HW121935   0.636   1.640   1.154
 7012SOL    HW221936   0.584   1.490   1.193
 7013SOL     OW21937   0.895   6.947   0.099
 7013SOL    HW121938   0.901   6.971   0.002
 7013SOL    HW221939   0.972   6.888   0.123
 7014SOL     OW21940   4.351   3.569   0.792
 7014SOL    HW121941   4.331   3.657   0.750
 7014SOL    HW221942   4.304   3.496   0.741
 7015SOL     OW21943   6.265   4.354   1.162
 7015SOL    HW121944   6.301   4.279   1.216
 7015SOL    HW221945   6.256   4.435   1.220
 7016SOL     OW21946   3.465   5.043   1.337
 7016SOL    HW121947   3.440   5.062   1.432
 7016SOL    HW221948   3.458   5.126   1.283
 7017SOL     OW21949   2.561   5.058   3.302
 7017SOL    HW121950   2.591   5.152   3.320
 7017SOL    HW221951   2.466   5.059   3.271
 7018SOL     OW21952   5.579   3.420   4.408
 7018SOL    HW121953   5.552   3.366   4.487
 7018SOL    HW221954   5.543   3.513   4.417
 7019SOL     OW21955   3.747   4.267   0.222
 7019SOL    HW121956   3.773   4.287   0.128
 7019SOL    HW221957   3.782   4.176   0.248
 7020SOL     OW21958   6.533   4.151   5.790
 7020SOL    HW121959   6.584   4.237   5.780
 7020SOL    HW221960   6.592   4.081   5.831
 7021SOL     OW21961   1.872   2.283   5.376
 7021SOL    HW121962   1.783   2.327   5.365
 7021SOL    HW221963   1.867   2.189   5.342
 7022SOL     OW21964   4.767   6.478   6.299
 7022SOL    HW121965   4.801   6.434   6.216
 7022SOL    HW221966   4.685   6.431   6.330
 7023SOL     OW21967   1.346   2.587   3.390
 7023SOL    HW121968   1.366   2.675   3.347
 7023SOL    HW221969   1.332   2.599   3.488
 7024SOL     OW21970   2.993   3.464   5.293
 7024SOL    HW121971   3.060   3.477   5.219
 7024SOL    HW221972   2.946   3.377   5.280
 7025SOL     OW21973   3.387   0.731   0.764
 7025SOL    HW121974   3.422   0.810   0.814
 7025SOL    HW221975   3.433   0.725   0.675
 7026SOL     OW21976   3.287   2.128   1.972
 7026SOL    HW121977   3.288   2.135   2.072
 7026SOL    HW221978   3.368   2.079   1.941
 7027SOL     OW21979   2.149   5.156   4.052
 7027SOL    HW121980   2.145   5.116   4.143
 7027SOL    HW221981   2.242   5.149   4.016
 7028SOL     OW21982   2.812   1.532   3.170
 7028SOL    HW121983   2.891   1.510   3.113
 7028SOL    HW221984   2.823   1.488   3.260
 7029SOL     OW21985   4.728   4.510   5.270
 7029SOL    HW121986   4.717   4.609   5.259
 7029SOL    HW221987   4.742   4.488   5.366
 7030SOL     OW21988   1.072   0.728   5.195
 7030SOL    HW121989   1.031   0.785   5.266
 7030SOL    HW221990   1.003   0.666   5.158
 7031SOL     OW21991   3.836   5.712   6.093
 7031SOL    HW121992   3.879   5.666   6.170
 7031SOL    HW221993   3.772   5.781   6.127
 7032SOL     OW21994   4.507   1.566   4.039
 7032SOL    HW121995   4.556   1.590   4.123
 7032SOL    HW221996   4.568   1.513   3.979
 7033SOL     OW21997   1.681   2.211   3.386
 7033SOL    HW121998   1.637   2.286   3.436
 7033SOL    HW221999   1.614   2.140   3.366
 7034SOL     OW22000   0.306   1.010   3.218
 7034SOL    HW122001   0.261   0.935   3.169
 7034SOL    HW222002   0.240   1.053   3.280
 7035SOL     OW22003   1.512   6.888   0.564
 7035SOL    HW122004   1.602   6.912   0.601
 7035SOL    HW222005   1.510   6.790   0.543
 7036SOL     OW22006   0.292   0.568   3.111
 7036SOL    HW122007   0.239   0.484   3.103
 7036SOL    HW222008   0.231   0.646   3.119
 7037SOL     OW22009   1.587   1.725   6.963
 7037SOL    HW122010   1.537   1.803   7.002
 7037SOL    HW222011   1.541   1.695   6.880
 7038SOL     OW22012   2.153   3.797   5.157
 7038SOL    HW122013   2.193   3.735   5.225
 7038SOL    HW222014   2.215   3.874   5.141
 7039SOL     OW22015   1.264   5.617   2.856
 7039SOL    HW122016   1.295   5.687   2.792
 7039SOL    HW222017   1.324   5.615   2.936
 7040SOL     OW22018   5.150   2.279   5.700
 7040SOL    HW122019   5.065   2.307   5.656
 7040SOL    HW222020   5.168   2.337   5.779
 7041SOL     OW22021   6.712   1.408   1.823
 7041SOL    HW122022   6.656   1.431   1.903
 7041SOL    HW222023   6.652   1.381   1.747
 7042SOL     OW22024   4.237   5.684   5.684
 7042SOL    HW122025   4.206   5.779   5.696
 7042SOL    HW222026   4.196   5.627   5.755
 7043SOL     OW22027   2.118   5.047   3.033
 7043SOL    HW122028   2.054   4.976   3.061
 7043SOL    HW222029   2.199   5.043   3.092
 7044SOL     OW22030   6.080   5.003   4.666
 7044SOL    HW122031   6.012   4.930   4.656
 7044SOL    HW222032   6.101   5.042   4.576
 7045SOL     OW22033   4.883   5.209   2.792
 7045SOL    HW122034   4.916   5.251   2.877
 7045SOL    HW222035   4.926   5.255   2.714
 7046SOL     OW22036   3.054   1.741   3.500
 7046SOL    HW122037   2.978   1.759   3.563
 7046SOL    HW222038   3.053   1.644   3.474
 7047SOL     OW22039   6.568   0.845   2.439
 7047SOL    HW122040   6.543   0.780   2.511
 7047SOL    HW222041   6.663   0.828   2.411
 7048SOL     OW22042   5.901   6.628   3.894
 7048SOL    HW122043   5.876   6.570   3.972
 7048SOL    HW222044   5.991   6.600   3.859
 7049SOL     OW22045   3.850   1.798   0.782
 7049SOL    HW122046   3.899   1.850   0.712
 7049SOL    HW222047   3.754   1.790   0.757
 7050SOL     OW22048   4.038   3.816   1.601
 7050SOL    HW122049   4.098   3.875   1.655
 7050SOL    HW222050   3.969   3.871   1.555
 7051SOL     OW22051   6.737   6.935   1.290
 7051SOL    HW122052   6.796   7.004   1.333
 7051SOL    HW222053   6.657   6.979   1.251
 7052SOL     OW22054   5.971   1.398   3.245
 7052SOL    HW122055   5.929   1.487   3.229
 7052SOL    HW222056   6.055   1.391   3.192
 7053SOL     OW22057   1.848   3.140   4.876
 7053SOL    HW122058   1.878   3.047   4.896
 7053SOL    HW222059   1.778   3.168   4.942
 7054SOL     OW22060   6.889   6.977   0.467
 7054SOL    HW122061   6.936   6.889   0.463
 7054SOL    HW222062   6.953   0.032   0.444
 7055SOL     OW22063   2.695   0.280   6.594
 7055SOL    HW122064   2.680   0.195   6.543
 7055SOL    HW222065   2.634   0.283   6.673
 7056SOL     OW22066   6.671   5.294   1.424
 7056SOL    HW122067   6.621   5.318   1.507
 7056SOL    HW222068   6.769   5.295   1.443
 7057SOL     OW22069   2.743   4.782   3.755
 7057SOL    HW122070   2.685   4.832   3.690
 7057SOL    HW222071   2.686   4.720   3.809
 7058SOL     OW22072   5.727   3.015   5.701
 7058SOL    HW122073   5.662   3.033   5.775
 7058SOL    HW222074   5.686   2.952   5.635
 7059SOL     OW22075   0.670   1.797   4.106
 7059SOL    HW122076   0.759   1.836   4.125
 7059SOL    HW222077   0.661   1.779   4.008
 7060SOL     OW22078   3.332   0.166   2.123
 7060SOL    HW122079   3.286   0.189   2.037
 7060SOL    HW222080   3.347   0.067   2.128
 7061SOL     OW22081   0.214   3.284   3.813
 7061SOL    HW122082   0.267   3.218   3.866
 7061SOL    HW222083   0.140   3.236   3.765
 7062SOL     OW22084   3.313   2.274   5.344
 7062SOL    HW122085   3.351   2.197   5.293
 7062SOL    HW222086   3.258   2.330   5.282
 7063SOL     OW22087   1.700   6.497   2.147
 7063SOL    HW122088   1.605   6.502   2.116
 7063SOL    HW222089   1.705   6.439   2.229
 7064SOL     OW22090   3.930   1.940   0.066
 7064SOL    HW122091   3.849   1.993   0.092
 7064SOL    HW222092   3.928   1.921   6.987
 7065SOL     OW22093   4.245   3.595   5.857
 7065SOL    HW122094   4.181   3.518   5.850
 7065SOL    HW222095   4.236   3.636   5.948
 7066SOL     OW22096   3.814   0.164   6.452
 7066SOL    HW122097   3.884   0.210   6.397
 7066SOL    HW222098   3.768   0.094   6.397
 7067SOL     OW22099   1.388   3.315   5.337
 7067SOL    HW122100   1.457   3.253   5.300
 7067SOL    HW222101   1.432   3.387   5.390
 7068SOL     OW22102   6.267   4.386   4.700
 7068SOL    HW122103   6.362   4.373   4.729
 7068SOL    HW222104   6.251   4.336   4.615
 7069SOL     OW22105   5.335   2.504   4.505
 7069SOL    HW122106   5.424   2.542   4.531
 7069SOL    HW222107   5.348   2.412   4.467
 7070SOL     OW22108   0.595   6.785   4.904
 7070SOL    HW122109   0.650   6.744   4.832
 7070SOL    HW222110   0.499   6.790   4.874
 7071SOL     OW22111   3.924   6.199   5.947
 7071SOL    HW122112   3.973   6.258   6.011
 7071SOL    HW222113   3.844   6.247   5.911
 7072SOL     OW22114   1.901   5.731   0.005
 7072SOL    HW122115   1.892   5.807   0.069
 7072SOL    HW222116   1.830   5.736   6.955
 7073SOL     OW22117   5.194   6.918   3.903
 7073SOL    HW122118   5.258   6.992   3.925
 7073SOL    HW222119   5.161   6.877   3.988
 7074SOL     OW22120   6.304   2.859   1.758
 7074SOL    HW122121   6.238   2.925   1.721
 7074SOL    HW222122   6.381   2.908   1.799
 7075SOL     OW22123   1.737   4.022   4.831
 7075SOL    HW122124   1.802   3.974   4.772
 7075SOL    HW222125   1.700   4.101   4.782
 7076SOL     OW22126   5.459   2.933   0.351
 7076SOL    HW122127   5.413   2.956   0.437
 7076SOL    HW222128   5.457   2.834   0.338
 7077SOL     OW22129   1.996   4.097   4.001
 7077SOL    HW122130   1.926   4.169   4.005
 7077SOL    HW222131   2.054   4.103   4.082
 7078SOL     OW22132   6.919   6.144   2.001
 7078SOL    HW122133   6.962   6.056   1.981
 7078SOL    HW222134   6.835   6.154   1.947
 7079SOL     OW22135   0.890   0.255   4.052
 7079SOL    HW122136   0.953   0.181   4.029
 7079SOL    HW222137   0.912   0.290   4.143
 7080SOL     OW22138   3.224   1.522   4.420
 7080SOL    HW122139   3.288   1.597   4.406
 7080SOL    HW222140   3.229   1.459   4.342
 7081SOL     OW22141   1.887   6.048   0.214
 7081SOL    HW122142   1.927   6.068   0.303
 7081SOL    HW222143   1.959   6.020   0.151
 7082SOL     OW22144   6.504   4.660   0.212
 7082SOL    HW122145   6.585   4.710   0.182
 7082SOL    HW222146   6.454   4.626   0.133
 7083SOL     OW22147   1.657   1.091   2.017
 7083SOL    HW122148   1.754   1.069   2.025
 7083SOL    HW222149   1.624   1.129   2.103
 7084SOL     OW22150   0.718   5.464   5.585
 7084SOL    HW122151   0.678   5.391   5.529
 7084SOL    HW222152   0.651   5.538   5.596
 7085SOL     OW22153   0.536   1.572   2.047
 7085SOL    HW122154   0.479   1.614   1.976
 7085SOL    HW222155   0.632   1.577   2.020
 7086SOL     OW22156   5.970   1.039   5.772
 7086SOL    HW122157   6.008   1.102   5.840
 7086SOL    HW222158   6.018   0.951   5.778
 7087SOL     OW22159   6.089   4.375   2.878
 7087SOL    HW122160   5.997   4.342   2.858
 7087SOL    HW222161   6.086   4.474   2.894
 7088SOL     OW22162   4.858   2.466   4.387
 7088SOL    HW122163   4.765   2.433   4.398
 7088SOL    HW222164   4.905   2.463   4.475
 7089SOL     OW22165   2.514   2.644   4.719
 7089SOL    HW122166   2.448   2.612   4.650
 7089SOL    HW222167   2.478   2.726   4.764
 7090SOL     OW22168   2.109   1.156   0.426
 7090SOL    HW122169   2.012   1.132   0.426
 7090SOL    HW222170   2.121   1.246   0.383
 7091SOL     OW22171   0.415   1.461   0.847
 7091SOL    HW122172   0.359   1.527   0.896
 7091SOL    HW222173   0.378   1.448   0.755
 7092SOL     OW22174   4.356   3.241   5.655
 7092SOL    HW122175   4.313   3.325   5.622
 7092SOL    HW222176   4.455   3.249   5.648
 7093SOL     OW22177   3.644   4.100   2.231
 7093SOL    HW122178   3.560   4.047   2.216
 7093SOL    HW222179   3.621   4.188   2.271
 7094SOL     OW22180   0.610   6.209   5.807
 7094SOL    HW122181   0.584   6.301   5.836
 7094SOL    HW222182   0.534   6.166   5.759
 7095SOL     OW22183   2.894   4.429   6.084
 7095SOL    HW122184   2.832   4.372   6.138
 7095SOL    HW222185   2.842   4.477   6.013
 7096SOL     OW22186   6.554   0.331   2.164
 7096SOL    HW122187   6.624   0.332   2.235
 7096SOL    HW222188   6.487   0.403   2.183
 7097SOL     OW22189   5.015   0.424   1.629
 7097SOL    HW122190   4.941   0.368   1.666
 7097SOL    HW222191   5.015   0.417   1.530
 7098SOL     OW22192   2.066   5.483   5.370
 7098SOL    HW122193   1.999   5.550   5.338
 7098SOL    HW222194   2.019   5.411   5.423
 7099SOL     OW22195   3.854   1.762   4.999
 7099SOL    HW122196   3.858   1.846   4.945
 7099SOL    HW222197   3.921   1.767   5.072
 7100SOL     OW22198   6.705   3.115   0.152
 7100SOL    HW122199   6.702   3.168   0.236
 7100SOL    HW222200   6.612   3.100   0.118
 7101SOL     OW22201   2.688   1.479   5.402
 7101SOL    HW122202   2.620   1.440   5.340
 7101SOL    HW222203   2.739   1.406   5.446
 7102SOL     OW22204   5.685   0.312   0.931
 7102SOL    HW122205   5.598   0.300   0.978
 7102SOL    HW222206   5.714   0.408   0.938
 7103SOL     OW22207   5.719   5.559   2.094
 7103SOL    HW122208   5.635   5.505   2.087
 7103SOL    HW222209   5.697   5.656   2.083
 7104SOL     OW22210   6.455   3.782   2.939
 7104SOL    HW122211   6.524   3.852   2.954
 7104SOL    HW222212   6.373   3.823   2.900
 7105SOL     OW22213   2.868   3.232   5.202
 7105SOL    HW122214   2.944   3.186   5.158
 7105SOL    HW222215   2.801   3.164   5.232
 7106SOL     OW22216   3.537   3.158   1.989
 7106SOL    HW122217   3.581   3.232   1.938
 7106SOL    HW222218   3.597   3.126   2.062
 7107SOL     OW22219   4.791   0.365   0.672
 7107SOL    HW122220   4.722   0.330   0.736
 7107SOL    HW222221   4.747   0.388   0.585
 7108SOL     OW22222   3.128   5.732   2.315
 7108SOL    HW122223   3.150   5.676   2.395
 7108SOL    HW222224   3.035   5.768   2.324
 7109SOL     OW22225   2.028   0.336   5.842
 7109SOL    HW122226   1.972   0.257   5.869
 7109SOL    HW222227   2.124   0.310   5.840
 7110SOL     OW22228   3.005   5.856   4.462
 7110SOL    HW122229   3.096   5.833   4.499
 7110SOL    HW222230   2.954   5.772   4.445
 7111SOL     OW22231   0.882   2.545   5.119
 7111SOL    HW122232   0.843   2.506   5.036
 7111SOL    HW222233   0.978   2.519   5.127
 7112SOL     OW22234   1.808   5.145   4.542
 7112SOL    HW122235   1.874   5.100   4.602
 7112SOL    HW222236   1.855   5.179   4.460
 7113SOL     OW22237   3.380   3.727   4.832
 7113SOL    HW122238   3.420   3.635   4.837
 7113SOL    HW222239   3.448   3.795   4.859
 7114SOL     OW22240   4.820   5.616   0.778
 7114SOL    HW122241   4.827   5.612   0.878
 7114SOL    HW222242   4.884   5.551   0.738
 7115SOL     OW22243   4.078   3.021   0.164
 7115SOL    HW122244   4.134   3.009   0.245
 7115SOL    HW222245   4.081   3.117   0.135
 7116SOL     OW22246   5.207   4.421   3.274
 7116SOL    HW122247   5.290   4.419   3.330
 7116SOL    HW222248   5.135   4.367   3.318
 7117SOL     OW22249   0.528   6.228   5.093
 7117SOL    HW122250   0.569   6.175   5.019
 7117SOL    HW222251   0.561   6.323   5.087
 7118SOL     OW22252   3.345   4.713   6.265
 7118SOL    HW122253   3.318   4.795   6.315
 7118SOL    HW222254   3.439   4.688   6.289
 7119SOL     OW22255   5.636   0.850   4.312
 7119SOL    HW122256   5.715   0.834   4.253
 7119SOL    HW222257   5.602   0.943   4.297
 7120SOL     OW22258   3.501   2.020   1.851
 7120SOL    HW122259   3.558   1.961   1.793
 7120SOL    HW222260   3.547   2.107   1.865
 7121SOL     OW22261   0.911   6.529   3.771
 7121SOL    HW122262   0.965   6.460   3.819
 7121SOL    HW222263   0.826   6.546   3.821
 7122SOL     OW22264   1.206   0.943   5.758
 7122SOL    HW122265   1.205   0.978   5.851
 7122SOL    HW222266   1.274   0.994   5.704
 7123SOL     OW22267   1.750   5.192   3.782
 7123SOL    HW122268   1.653   5.199   3.761
 7123SOL    HW222269   1.796   5.139   3.711
 7124SOL     OW22270   0.087   2.585   1.647
 7124SOL    HW122271   0.174   2.542   1.623
 7124SOL    HW222272   0.016   2.514   1.654
 7125SOL     OW22273   1.002   0.053   0.557
 7125SOL    HW122274   0.938   0.081   0.487
 7125SOL    HW222275   1.084   0.014   0.515
 7126SOL     OW22276   3.488   4.955   0.525
 7126SOL    HW122277   3.502   5.054   0.527
 7126SOL    HW222278   3.399   4.935   0.485
 7127SOL     OW22279   2.851   6.115   6.864
 7127SOL    HW122280   2.898   6.055   6.799
 7127SOL    HW222281   2.754   6.092   6.865
 7128SOL     OW22282   3.155   3.853   6.555
 7128SOL    HW122283   3.069   3.882   6.513
 7128SOL    HW222284   3.183   3.920   6.623
 7129SOL     OW22285   2.352   1.115   0.881
 7129SOL    HW122286   2.376   1.048   0.812
 7129SOL    HW222287   2.326   1.068   0.966
 7130SOL     OW22288   3.162   6.206   4.341
 7130SOL    HW122289   3.088   6.142   4.321
 7130SOL    HW222290   3.226   6.210   4.264
 7131SOL     OW22291   2.720   0.992   1.299
 7131SOL    HW122292   2.692   0.947   1.214
 7131SOL    HW222293   2.803   0.948   1.335
 7132SOL     OW22294   4.296   4.062   0.072
 7132SOL    HW122295   4.226   4.045   0.003
 7132SOL    HW222296   4.253   4.077   0.161
 7133SOL     OW22297   4.169   4.677   5.304
 7133SOL    HW122298   4.180   4.579   5.287
 7133SOL    HW222299   4.116   4.691   5.387
 7134SOL     OW22300   4.339   0.135   1.624
 7134SOL    HW122301   4.280   0.130   1.543
 7134SOL    HW222302   4.283   0.143   1.706
 7135SOL     OW22303   2.084   2.510   3.232
 7135SOL    HW122304   2.132   2.424   3.251
 7135SOL    HW222305   2.049   2.508   3.138
 7136SOL     OW22306   3.111   1.336   0.568
 7136SOL    HW122307   3.203   1.326   0.529
 7136SOL    HW222308   3.082   1.432   0.561
 7137SOL     OW22309   3.066   1.586   0.434
 7137SOL    HW122310   3.088   1.525   0.358
 7137SOL    HW222311   2.976   1.626   0.418
 7138SOL     OW22312   1.858   1.904   1.206
 7138SOL    HW122313   1.949   1.887   1.243
 7138SOL    HW222314   1.806   1.960   1.270
 7139SOL     OW22315   5.056   5.051   1.758
 7139SOL    HW122316   5.064   5.150   1.745
 7139SOL    HW222317   5.122   5.021   1.827
 7140SOL     OW22318   6.234   3.981   0.868
 7140SOL    HW122319   6.216   4.031   0.783
 7140SOL    HW222320   6.319   4.014   0.908
 7141SOL     OW22321   3.363   6.799   1.124
 7141SOL    HW122322   3.267   6.771   1.124
 7141SOL    HW222323   3.372   6.888   1.079
 7142SOL     OW22324   4.176   6.679   3.682
 7142SOL    HW122325   4.152   6.656   3.588
 7142SOL    HW222326   4.215   6.771   3.685
 7143SOL     OW22327   2.121   3.390   0.060
 7143SOL    HW122328   2.102   3.480   0.019
 7143SOL    HW222329   2.088   3.389   0.154
 7144SOL     OW22330   1.789   1.255   3.139
 7144SOL    HW122331   1.747   1.174   3.180
 7144SOL    HW222332   1.878   1.271   3.181
 7145SOL     OW22333   3.836   0.913   6.500
 7145SOL    HW122334   3.747   0.956   6.488
 7145SOL    HW222335   3.857   0.905   6.598
 7146SOL     OW22336   1.580   0.702   6.340
 7146SOL    HW122337   1.647   0.754   6.287
 7146SOL    HW222338   1.626   0.655   6.415
 7147SOL     OW22339   0.141   6.027   2.906
 7147SOL    HW122340   0.070   6.009   2.975
 7147SOL    HW222341   0.165   6.123   2.909
 7148SOL     OW22342   6.505   5.932   1.412
 7148SOL    HW122343   6.601   5.921   1.384
 7148SOL    HW222344   6.461   5.998   1.352
 7149SOL     OW22345   0.423   5.604   3.917
 7149SOL    HW122346   0.486   5.675   3.884
 7149SOL    HW222347   0.334   5.646   3.937
 7150SOL     OW22348   3.380   2.918   0.582
 7150SOL    HW122349   3.350   2.893   0.490
 7150SOL    HW222350   3.368   2.840   0.643
 7151SOL     OW22351   3.071   6.780   1.097
 7151SOL    HW122352   3.005   6.855   1.096
 7151SOL    HW222353   3.048   6.714   1.025
 7152SOL     OW22354   6.841   0.364   6.045
 7152SOL    HW122355   6.886   0.314   5.970
 7152SOL    HW222356   6.768   0.308   6.083
 7153SOL     OW22357   4.020   5.239   1.757
 7153SOL    HW122358   4.103   5.221   1.810
 7153SOL    HW222359   4.046   5.281   1.669
 7154SOL     OW22360   4.901   5.942   2.615
 7154SOL    HW122361   4.859   5.953   2.705
 7154SOL    HW222362   4.995   5.975   2.618
 7155SOL     OW22363   3.045   3.603   1.568
 7155SOL    HW122364   3.092   3.543   1.633
 7155SOL    HW222365   2.951   3.571   1.555
 7156SOL     OW22366   6.292   3.937   2.794
 7156SOL    HW122367   6.310   4.028   2.832
 7156SOL    HW222368   6.194   3.924   2.782
 7157SOL     OW22369   6.988   5.032   2.077
 7157SOL    HW122370   6.990   4.984   2.165
 7157SOL    HW222371   6.991   4.965   2.003
 7158SOL     OW22372   1.071   0.157   3.634
 7158SOL    HW122373   0.974   0.164   3.611
 7158SOL    HW222374   1.119   0.107   3.562
 7159SOL     OW22375   1.315   4.896   4.040
 7159SOL    HW122376   1.225   4.883   4.081
 7159SOL    HW222377   1.308   4.958   3.962
 7160SOL     OW22378   6.320   0.052   3.111
 7160SOL    HW122379   6.263   0.038   3.192
 7160SOL    HW222380   6.416   0.036   3.135
 7161SOL     OW22381   3.295   3.836   3.014
 7161SOL    HW122382   3.315   3.746   3.051
 7161SOL    HW222383   3.278   3.829   2.916
 7162SOL     OW22384   1.473   5.082   5.962
 7162SOL    HW122385   1.503   5.038   5.877
 7162SOL    HW222386   1.388   5.132   5.946
 7163SOL     OW22387   2.666   0.637   2.389
 7163SOL    HW122388   2.699   0.550   2.351
 7163SOL    HW222389   2.602   0.619   2.464
 7164SOL     OW22390   2.914   0.702   5.127
 7164SOL    HW122391   2.890   0.799   5.122
 7164SOL    HW222392   2.902   0.660   5.037
 7165SOL     OW22393   5.715   6.342   1.362
 7165SOL    HW122394   5.704   6.429   1.313
 7165SOL    HW222395   5.639   6.282   1.339
 7166SOL     OW22396   5.515   1.576   0.310
 7166SOL    HW122397   5.415   1.582   0.314
 7166SOL    HW222398   5.552   1.583   0.402
 7167SOL     OW22399   4.863   3.015   4.863
 7167SOL    HW122400   4.785   2.952   4.858
 7167SOL    HW222401   4.865   3.059   4.953
 7168SOL     OW22402   2.769   1.950   2.946
 7168SOL    HW122403   2.754   2.041   2.907
 7168SOL    HW222404   2.775   1.957   3.045
 7169SOL     OW22405   6.808   4.244   5.416
 7169SOL    HW122406   6.783   4.336   5.445
 7169SOL    HW222407   6.727   4.185   5.421
 7170SOL     OW22408   4.662   0.213   2.615
 7170SOL    HW122409   4.680   0.285   2.682
 7170SOL    HW222410   4.569   0.177   2.628
 7171SOL     OW22411   5.710   4.263   0.498
 7171SOL    HW122412   5.795   4.290   0.452
 7171SOL    HW222413   5.679   4.175   0.462
 7172SOL     OW22414   1.440   0.473   4.751
 7172SOL    HW122415   1.362   0.536   4.753
 7172SOL    HW222416   1.423   0.400   4.685
 7173SOL     OW22417   6.388   4.558   6.968
 7173SOL    HW122418   6.293   4.529   6.952
 7173SOL    HW222419   6.428   4.586   6.881
 7174SOL     OW22420   0.092   4.321   0.527
 7174SOL    HW122421   0.140   4.402   0.494
 7174SOL    HW222422   0.158   4.255   0.563
 7175SOL     OW22423   6.145   2.833   5.531
 7175SOL    HW122424   6.187   2.885   5.606
 7175SOL    HW222425   6.191   2.855   5.445
 7176SOL     OW22426   6.805   1.746   3.306
 7176SOL    HW122427   6.807   1.828   3.363
 7176SOL    HW222428   6.888   1.743   3.249
 7177SOL     OW22429   1.503   4.601   5.157
 7177SOL    HW122430   1.482   4.559   5.069
 7177SOL    HW222431   1.436   4.672   5.177
 7178SOL     OW22432   6.984   1.736   5.752
 7178SOL    HW122433   7.010   1.641   5.736
 7178SOL    HW222434   0.047   1.793   5.758
 7179SOL     OW22435   1.431   3.543   4.437
 7179SOL    HW122436   1.469   3.521   4.527
 7179SOL    HW222437   1.493   3.606   4.390
 7180SOL     OW22438   1.952   4.037   0.302
 7180SOL    HW122439   1.878   4.029   0.235
 7180SOL    HW222440   2.035   4.070   0.257
 7181SOL     OW22441   2.228   0.314   0.449
 7181SOL    HW122442   2.144   0.309   0.503
 7181SOL    HW222443   2.282   0.231   0.464
 7182SOL     OW22444   0.408   3.807   3.811
 7182SOL    HW122445   0.328   3.748   3.803
 7182SOL    HW222446   0.415   3.865   3.730
 7183SOL     OW22447   1.699   5.678   1.732
 7183SOL    HW122448   1.744   5.761   1.765
 7183SOL    HW222449   1.729   5.660   1.638
 7184SOL     OW22450   6.744   1.436   4.192
 7184SOL    HW122451   6.804   1.514   4.207
 7184SOL    HW222452   6.755   1.370   4.267
 7185SOL     OW22453   5.687   1.369   5.726
 7185SOL    HW122454   5.703   1.275   5.755
 7185SOL    HW222455   5.664   1.426   5.805
 7186SOL     OW22456   6.441   1.776   1.489
 7186SOL    HW122457   6.363   1.794   1.548
 7186SOL    HW222458   6.409   1.749   1.398
 7187SOL     OW22459   2.997   3.964   4.865
 7187SOL    HW122460   2.920   4.024   4.844
 7187SOL    HW222461   2.963   3.873   4.890
 7188SOL     OW22462   4.637   5.986   0.014
 7188SOL    HW122463   4.690   6.044   6.971
 7188SOL    HW222464   4.556   5.953   6.984
 7189SOL     OW22465   6.939   1.987   5.867
 7189SOL    HW122466   6.862   1.984   5.932
 7189SOL    HW222467   6.936   1.906   5.809
 7190SOL     OW22468   6.203   5.559   1.479
 7190SOL    HW122469   6.204   5.477   1.421
 7190SOL    HW222470   6.290   5.607   1.470
 7191SOL     OW22471   1.802   4.582   2.714
 7191SOL    HW122472   1.726   4.518   2.700
 7191SOL    HW222473   1.768   4.676   2.713
 7192SOL     OW22474   1.763   4.240   5.855
 7192SOL    HW122475   1.814   4.315   5.813
 7192SOL    HW222476   1.821   4.159   5.862
 7193SOL     OW22477   1.727   2.346   2.034
 7193SOL    HW122478   1.808   2.289   2.050
 7193SOL    HW222479   1.672   2.349   2.117
 7194SOL     OW22480   1.742   2.954   6.786
 7194SOL    HW122481   1.736   2.890   6.862
 7194SOL    HW222482   1.666   2.939   6.723
 7195SOL     OW22483   6.712   4.123   0.605
 7195SOL    HW122484   6.741   4.217   0.587
 7195SOL    HW222485   6.726   4.103   0.703
 7196SOL     OW22486   2.427   3.670   1.677
 7196SOL    HW122487   2.351   3.731   1.657
 7196SOL    HW222488   2.399   3.605   1.748
 7197SOL     OW22489   1.156   3.441   5.896
 7197SOL    HW122490   1.122   3.485   5.979
 7197SOL    HW222491   1.218   3.504   5.848
 7198SOL     OW22492   0.228   1.103   0.411
 7198SOL    HW122493   0.147   1.162   0.408
 7198SOL    HW222494   0.295   1.135   0.345
 7199SOL     OW22495   0.238   0.145   2.385
 7199SOL    HW122496   0.272   0.101   2.467
 7199SOL    HW222497   0.194   0.232   2.409
 7200SOL     OW22498   2.018   2.764   6.684
 7200SOL    HW122499   2.034   2.775   6.783
 7200SOL    HW222500   2.031   2.851   6.638
 7201SOL     OW22501   1.056   5.910   3.670
 7201SOL    HW122502   0.982   5.977   3.678
 7201SOL    HW222503   1.073   5.868   3.760
 7202SOL     OW22504   4.486   0.134   6.969
 7202SOL    HW122505   4.568   0.131   0.008
 7202SOL    HW222506   4.484   0.221   6.920
 7203SOL     OW22507   6.750   1.261   1.001
 7203SOL    HW122508   6.666   1.230   0.956
 7203SOL    HW222509   6.797   1.182   1.040
 7204SOL     OW22510   0.106   1.080   5.703
 7204SOL    HW122511   0.016   1.104   5.666
 7204SOL    HW222512   0.108   0.982   5.725
 7205SOL     OW22513   1.498   4.235   5.449
 7205SOL    HW122514   1.575   4.208   5.391
 7205SOL    HW222515   1.513   4.202   5.542
 7206SOL     OW22516   1.169   0.706   1.988
 7206SOL    HW122517   1.262   0.741   1.986
 7206SOL    HW222518   1.159   0.644   2.066
 7207SOL     OW22519   3.943   0.562   4.080
 7207SOL    HW122520   3.851   0.523   4.073
 7207SOL    HW222521   4.002   0.499   4.130
 7208SOL     OW22522   4.848   0.125   3.531
 7208SOL    HW122523   4.890   0.127   3.622
 7208SOL    HW222524   4.881   0.203   3.478
 7209SOL     OW22525   2.739   3.175   1.605
 7209SOL    HW122526   2.653   3.219   1.631
 7209SOL    HW222527   2.774   3.123   1.683
 7210SOL     OW22528   3.854   1.662   3.244
 7210SOL    HW122529   3.842   1.660   3.343
 7210SOL    HW222530   3.804   1.587   3.202
 7211SOL     OW22531   1.839   6.048   5.172
 7211SOL    HW122532   1.820   6.107   5.093
 7211SOL    HW222533   1.927   6.073   5.212
 7212SOL     OW22534   0.739   6.356   5.413
 7212SOL    HW122535   0.724   6.271   5.362
 7212SOL    HW222536   0.654   6.384   5.458
 7213SOL     OW22537   3.712   6.617   0.030
 7213SOL    HW122538   3.745   6.524   0.015
 7213SOL    HW222539   3.767   6.680   6.994
 7214SOL     OW22540   6.700   0.332   4.801
 7214SOL    HW122541   6.669   0.266   4.732
 7214SOL    HW222542   6.726   0.418   4.756
 7215SOL     OW22543   6.607   2.707   3.843
 7215SOL    HW122544   6.692   2.730   3.796
 7215SOL    HW222545   6.558   2.791   3.867
 7216SOL     OW22546   3.119   0.326   1.520
 7216SOL    HW122547   3.178   0.250   1.490
 7216SOL    HW222548   3.065   0.358   1.442
 7217SOL     OW22549   2.173   3.724   3.416
 7217SOL    HW122550   2.217   3.814   3.417
 7217SOL    HW222551   2.107   3.719   3.491
 7218SOL     OW22552   6.110   2.590   4.403
 7218SOL    HW122553   6.116   2.502   4.450
 7218SOL    HW222554   6.179   2.594   4.330
 7219SOL     OW22555   3.844   0.882   2.856
 7219SOL    HW122556   3.932   0.921   2.881
 7219SOL    HW222557   3.786   0.953   2.815
 7220SOL     OW22558   6.530   3.935   4.147
 7220SOL    HW122559   6.517   4.033   4.128
 7220SOL    HW222560   6.463   3.905   4.214
 7221SOL     OW22561   3.844   5.947   5.147
 7221SOL    HW122562   3.783   5.892   5.089
 7221SOL    HW222563   3.862   5.898   5.232
 7222SOL     OW22564   6.128   6.208   3.337
 7222SOL    HW122565   6.119   6.171   3.430
 7222SOL    HW222566   6.207   6.165   3.292
 7223SOL     OW22567   2.991   1.466   1.002
 7223SOL    HW122568   3.046   1.411   0.940
 7223SOL    HW222569   3.052   1.522   1.059
 7224SOL     OW22570   5.443   2.319   3.898
 7224SOL    HW122571   5.449   2.221   3.917
 7224SOL    HW222572   5.367   2.336   3.835
 7225SOL     OW22573   1.255   5.991   0.371
 7225SOL    HW122574   1.161   6.026   0.374
 7225SOL    HW222575   1.259   5.912   0.310
 7226SOL     OW22576   5.901   0.269   1.632
 7226SOL    HW122577   5.807   0.287   1.661
 7226SOL    HW222578   5.963   0.296   1.705
 7227SOL     OW22579   2.553   2.104   1.252
 7227SOL    HW122580   2.549   2.089   1.351
 7227SOL    HW222581   2.566   2.017   1.205
 7228SOL     OW22582   1.133   1.675   2.727
 7228SOL    HW122583   1.162   1.648   2.818
 7228SOL    HW222584   1.054   1.621   2.699
 7229SOL     OW22585   1.253   5.746   5.997
 7229SOL    HW122586   1.320   5.795   5.942
 7229SOL    HW222587   1.195   5.812   6.044
 7230SOL     OW22588   3.617   5.587   4.800
 7230SOL    HW122589   3.596   5.676   4.839
 7230SOL    HW222590   3.598   5.589   4.701
 7231SOL     OW22591   3.709   0.474   6.295
 7231SOL    HW122592   3.651   0.411   6.348
 7231SOL    HW222593   3.722   0.558   6.347
 7232SOL     OW22594   4.961   6.133   2.271
 7232SOL    HW122595   4.960   6.063   2.344
 7232SOL    HW222596   4.997   6.219   2.308
 7233SOL     OW22597   1.675   1.977   4.193
 7233SOL    HW122598   1.639   1.993   4.285
 7233SOL    HW222599   1.613   2.017   4.125
 7234SOL     OW22600   6.122   3.092   3.045
 7234SOL    HW122601   6.146   3.002   3.009
 7234SOL    HW222602   6.180   3.161   3.002
 7235SOL     OW22603   6.555   4.789   2.565
 7235SOL    HW122604   6.535   4.727   2.489
 7235SOL    HW222605   6.649   4.822   2.558
 7236SOL     OW22606   2.684   1.874   2.097
 7236SOL    HW122607   2.737   1.908   2.175
 7236SOL    HW222608   2.680   1.945   2.027
 7237SOL     OW22609   4.556   0.587   4.835
 7237SOL    HW122610   4.562   0.508   4.896
 7237SOL    HW222611   4.583   0.560   4.743
 7238SOL     OW22612   3.938   1.867   6.487
 7238SOL    HW122613   4.002   1.845   6.414
 7238SOL    HW222614   3.942   1.797   6.558
 7239SOL     OW22615   0.466   2.043   1.513
 7239SOL    HW122616   0.545   2.035   1.452
 7239SOL    HW222617   0.490   2.006   1.602
 7240SOL     OW22618   0.881   1.370   5.776
 7240SOL    HW122619   0.863   1.286   5.828
 7240SOL    HW222620   0.840   1.448   5.824
 7241SOL     OW22621   2.546   0.374   0.843
 7241SOL    HW122622   2.467   0.315   0.859
 7241SOL    HW222623   2.611   0.363   0.918
 7242SOL     OW22624   6.453   5.780   6.680
 7242SOL    HW122625   6.398   5.727   6.745
 7242SOL    HW222626   6.465   5.727   6.596
 7243SOL     OW22627   6.242   4.277   6.826
 7243SOL    HW122628   6.160   4.227   6.851
 7243SOL    HW222629   6.218   4.372   6.803
 7244SOL     OW22630   6.454   0.925   1.836
 7244SOL    HW122631   6.544   0.938   1.795
 7244SOL    HW222632   6.432   1.003   1.894
 7245SOL     OW22633   1.676   2.891   4.904
 7245SOL    HW122634   1.702   2.832   4.981
 7245SOL    HW222635   1.618   2.965   4.937
 7246SOL     OW22636   0.962   0.584   3.837
 7246SOL    HW122637   0.924   0.663   3.886
 7246SOL    HW222638   1.056   0.567   3.869
 7247SOL     OW22639   2.017   1.920   4.647
 7247SOL    HW122640   1.928   1.894   4.609
 7247SOL    HW222641   2.086   1.916   4.574
 7248SOL     OW22642   3.018   1.279   2.817
 7248SOL    HW122643   3.010   1.218   2.739
 7248SOL    HW222644   3.054   1.367   2.787
 7249SOL     OW22645   5.454   5.043   2.073
 7249SOL    HW122646   5.404   4.992   2.143
 7249SOL    HW222647   5.547   5.062   2.106
 7250SOL     OW22648   5.794   5.996   5.878
 7250SOL    HW122649   5.851   6.063   5.830
 7250SOL    HW222650   5.711   6.041   5.911
 7251SOL     OW22651   0.531   6.422   5.566
 7251SOL    HW122652   0.464   6.475   5.516
 7251SOL    HW222653   0.593   6.483   5.615
 7252SOL     OW22654   3.701   3.110   2.202
 7252SOL    HW122655   3.690   3.039   2.271
 7252SOL    HW222656   3.791   3.102   2.159
 7253SOL     OW22657   1.732   6.107   7.010
 7253SOL    HW122658   1.802   6.088   0.060
 7253SOL    HW222659   1.742   6.201   6.978
 7254SOL     OW22660   5.159   4.960   4.681
 7254SOL    HW122661   5.081   4.906   4.649
 7254SOL    HW222662   5.236   4.900   4.700
 7255SOL     OW22663   4.154   3.783   0.160
 7255SOL    HW122664   4.247   3.792   0.195
 7255SOL    HW222665   4.090   3.823   0.226
 7256SOL     OW22666   2.903   5.995   4.713
 7256SOL    HW122667   2.936   5.963   4.624
 7256SOL    HW222668   2.964   6.067   4.747
 7257SOL     OW22669   6.375   1.629   3.181
 7257SOL    HW122670   6.354   1.725   3.164
 7257SOL    HW222671   6.383   1.613   3.279
 7258SOL     OW22672   4.672   1.470   2.851
 7258SOL    HW122673   4.650   1.436   2.760
 7258SOL    HW222674   4.756   1.525   2.846
 7259SOL     OW22675   1.679   3.430   1.098
 7259SOL    HW122676   1.738   3.501   1.061
 7259SOL    HW222677   1.701   3.415   1.195
 7260SOL     OW22678   4.766   1.488   1.157
 7260SOL    HW122679   4.837   1.556   1.178
 7260SOL    HW222680   4.786   1.403   1.206
 7261SOL     OW22681   1.558   3.931   1.976
 7261SOL    HW122682   1.653   3.905   1.955
 7261SOL    HW222683   1.555   4.027   2.003
 7262SOL     OW22684   5.328   2.514   6.316
 7262SOL    HW122685   5.301   2.555   6.229
 7262SOL    HW222686   5.248   2.479   6.364
 7263SOL     OW22687   0.715   6.712   6.810
 7263SOL    HW122688   0.754   6.696   6.720
 7263SOL    HW222689   0.733   6.633   6.869
 7264SOL     OW22690   4.906   1.950   6.497
 7264SOL    HW122691   4.910   1.953   6.397
 7264SOL    HW222692   4.902   2.043   6.532
 7265SOL     OW22693   5.438   5.009   5.994
 7265SOL    HW122694   5.452   4.910   5.995
 7265SOL    HW222695   5.472   5.047   5.908
 7266SOL     OW22696   5.545   0.241   2.556
 7266SOL    HW122697   5.492   0.305   2.612
 7266SOL    HW222698   5.518   0.250   2.460
 7267SOL     OW22699   6.604   6.297   5.335
 7267SOL    HW122700   6.616   6.243   5.252
 7267SOL    HW222701   6.506   6.306   5.355
 7268SOL     OW22702   6.236   5.391   3.704
 7268SOL    HW122703   6.151   5.403   3.756
 7268SOL    HW222704   6.308   5.356   3.764
 7269SOL     OW22705   0.592   6.026   6.493
 7269SOL    HW122706   0.668   5.982   6.541
 7269SOL    HW222707   0.581   5.984   6.402
 7270SOL     OW22708   0.726   3.396   4.936
 7270SOL    HW122709   0.700   3.461   5.007
 7270SOL    HW222710   0.681   3.309   4.953
 7271SOL     OW22711   0.787   5.542   4.040
 7271SOL    HW122712   0.782   5.583   4.130
 7271SOL    HW222713   0.763   5.445   4.046
 7272SOL     OW22714   5.970   5.164   2.096
 7272SOL    HW122715   5.876   5.142   2.069
 7272SOL    HW222716   6.015   5.214   2.022
 7273SOL     OW22717   5.763   4.463   1.368
 7273SOL    HW122718   5.797   4.382   1.320
 7273SOL    HW222719   5.772   4.450   1.466
 7274SOL     OW22720   0.230   5.375   6.341
 7274SOL    HW122721   0.218   5.470   6.372
 7274SOL    HW222722   0.248   5.317   6.420
 7275SOL     OW22723   0.336   6.459   2.495
 7275SOL    HW122724   0.415   6.520   2.484
 7275SOL    HW222725   0.302   6.434   2.405
 7276SOL     OW22726   4.442   1.012   2.997
 7276SOL    HW122727   4.493   1.097   2.991
 7276SOL    HW222728   4.409   1.000   3.091
 7277SOL     OW22729   4.813   0.747   4.131
 7277SOL    HW122730   4.849   0.802   4.206
 7277SOL    HW222731   4.755   0.674   4.169
 7278SOL     OW22732   3.580   2.291   1.431
 7278SOL    HW122733   3.632   2.252   1.507
 7278SOL    HW222734   3.483   2.270   1.442
 7279SOL     OW22735   4.189   4.462   5.842
 7279SOL    HW122736   4.139   4.424   5.764
 7279SOL    HW222737   4.213   4.557   5.823
 7280SOL     OW22738   0.245   1.816   3.447
 7280SOL    HW122739   0.312   1.773   3.507
 7280SOL    HW222740   0.153   1.806   3.487
 7281SOL     OW22741   1.958   1.282   0.214
 7281SOL    HW122742   1.995   1.373   0.196
 7281SOL    HW222743   1.858   1.287   0.221
 7282SOL     OW22744   5.997   5.295   2.332
 7282SOL    HW122745   5.992   5.243   2.247
 7282SOL    HW222746   6.030   5.235   2.406
 7283SOL     OW22747   5.027   0.628   2.793
 7283SOL    HW122748   5.072   0.687   2.860
 7283SOL    HW222749   5.064   0.647   2.702
 7284SOL     OW22750   0.082   2.498   5.870
 7284SOL    HW122751   0.036   2.411   5.852
 7284SOL    HW222752   0.105   2.542   5.784
 7285SOL     OW22753   5.698   3.182   2.386
 7285SOL    HW122754   5.761   3.191   2.463
 7285SOL    HW222755   5.674   3.273   2.353
 7286SOL     OW22756   2.340   0.942   0.644
 7286SOL    HW122757   2.405   0.866   0.653
 7286SOL    HW222758   2.247   0.908   0.660
 7287SOL     OW22759   0.658   2.706   5.803
 7287SOL    HW122760   0.735   2.679   5.861
 7287SOL    HW222761   0.657   2.806   5.794
 7288SOL     OW22762   1.894   1.146   1.792
 7288SOL    HW122763   1.816   1.190   1.748
 7288SOL    HW222764   1.863   1.063   1.838
 7289SOL     OW22765   5.564   2.069   4.003
 7289SOL    HW122766   5.535   1.980   4.039
 7289SOL    HW222767   5.621   2.115   4.070
 7290SOL     OW22768   3.841   1.336   5.085
 7290SOL    HW122769   3.856   1.435   5.091
 7290SOL    HW222770   3.864   1.304   4.994
 7291SOL     OW22771   1.463   6.532   0.158
 7291SOL    HW122772   1.371   6.547   0.193
 7291SOL    HW222773   1.472   6.438   0.127
 7292SOL     OW22774   3.538   1.256   3.608
 7292SOL    HW122775   3.470   1.307   3.661
 7292SOL    HW222776   3.628   1.265   3.651
 7293SOL     OW22777   1.558   2.279   4.570
 7293SOL    HW122778   1.548   2.328   4.657
 7293SOL    HW222779   1.509   2.328   4.499
 7294SOL     OW22780   2.785   4.751   6.750
 7294SOL    HW122781   2.706   4.727   6.806
 7294SOL    HW222782   2.816   4.843   6.775
 7295SOL     OW22783   5.418   3.289   1.574
 7295SOL    HW122784   5.391   3.324   1.484
 7295SOL    HW222785   5.438   3.366   1.635
 7296SOL     OW22786   3.499   6.013   2.193
 7296SOL    HW122787   3.475   5.961   2.275
 7296SOL    HW222788   3.553   6.093   2.219
 7297SOL     OW22789   4.539   0.219   1.235
 7297SOL    HW122790   4.483   0.283   1.183
 7297SOL    HW222791   4.489   0.133   1.247
 7298SOL     OW22792   5.277   5.403   6.148
 7298SOL    HW122793   5.264   5.452   6.234
 7298SOL    HW222794   5.278   5.305   6.164
 7299SOL     OW22795   0.815   2.506   1.011
 7299SOL    HW122796   0.845   2.412   0.993
 7299SOL    HW222797   0.852   2.537   1.098
 7300SOL     OW22798   0.302   6.767   2.225
 7300SOL    HW122799   0.274   6.814   2.141
 7300SOL    HW222800   0.259   6.812   2.304
 7301SOL     OW22801   6.158   1.332   4.024
 7301SOL    HW122802   6.198   1.241   4.014
 7301SOL    HW222803   6.059   1.325   4.026
 7302SOL     OW22804   1.007   2.506   5.461
 7302SOL    HW122805   1.023   2.528   5.365
 7302SOL    HW222806   1.017   2.589   5.516
 7303SOL     OW22807   3.773   1.028   0.328
 7303SOL    HW122808   3.703   1.024   0.400
 7303SOL    HW222809   3.745   1.092   0.257
 7304SOL     OW22810   3.201   5.757   2.045
 7304SOL    HW122811   3.281   5.818   2.047
 7304SOL    HW222812   3.173   5.736   2.138
 7305SOL     OW22813   4.904   0.159   0.466
 7305SOL    HW122814   4.939   0.132   0.556
 7305SOL    HW222815   4.874   0.254   0.469
 7306SOL     OW22816   4.400   1.730   0.931
 7306SOL    HW122817   4.343   1.782   0.867
 7306SOL    HW222818   4.347   1.653   0.968
 7307SOL     OW22819   2.927   6.451   2.861
 7307SOL    HW122820   2.924   6.461   2.960
 7307SOL    HW222821   2.952   6.538   2.819
 7308SOL     OW22822   6.592   2.839   5.353
 7308SOL    HW122823   6.509   2.887   5.380
 7308SOL    HW222824   6.584   2.742   5.375
 7309SOL     OW22825   3.794   4.784   0.693
 7309SOL    HW122826   3.890   4.807   0.707
 7309SOL    HW222827   3.781   4.755   0.598
 7310SOL     OW22828   2.246   4.002   0.647
 7310SOL    HW122829   2.238   4.057   0.564
 7310SOL    HW222830   2.173   4.027   0.711
 7311SOL     OW22831   1.773   1.979   1.672
 7311SOL    HW122832   1.807   1.887   1.651
 7311SOL    HW222833   1.835   2.025   1.735
 7312SOL     OW22834   1.123   3.739   4.849
 7312SOL    HW122835   1.209   3.779   4.881
 7312SOL    HW222836   1.052   3.753   4.918
 7313SOL     OW22837   1.987   0.806   0.660
 7313SOL    HW122838   1.928   0.886   0.665
 7313SOL    HW222839   1.961   0.740   0.730
 7314SOL     OW22840   0.108   4.984   6.377
 7314SOL    HW122841   0.117   5.039   6.460
 7314SOL    HW222842   0.012   4.971   6.356
 7315SOL     OW22843   6.500   6.232   2.532
 7315SOL    HW122844   6.543   6.322   2.537
 7315SOL    HW222845   6.414   6.239   2.482
 7316SOL     OW22846   3.714   3.709   6.600
 7316SOL    HW122847   3.697   3.669   6.509
 7316SOL    HW222848   3.670   3.799   6.605
 7317SOL     OW22849   4.836   1.209   2.618
 7317SOL    HW122850   4.877   1.290   2.658
 7317SOL    HW222851   4.878   1.127   2.657
 7318SOL     OW22852   2.100   0.364   2.118
 7318SOL    HW122853   2.157   0.420   2.058
 7318SOL    HW222854   2.087   0.411   2.205
 7319SOL     OW22855   6.943   3.348   6.680
 7319SOL    HW122856   6.915   3.254   6.700
 7319SOL    HW222857   6.879   3.389   6.615
 7320SOL     OW22858   0.566   3.727   2.799
 7320SOL    HW122859   0.589   3.646   2.745
 7320SOL    HW222860   0.566   3.703   2.896
 7321SOL     OW22861   1.890   0.498   6.219
 7321SOL    HW122862   1.856   0.524   6.310
 7321SOL    HW222863   1.816   0.456   6.167
 7322SOL     OW22864   6.904   2.904   3.469
 7322SOL    HW122865   6.966   2.882   3.393
 7322SOL    HW222866   6.809   2.891   3.439
 7323SOL     OW22867   1.878   2.671   1.395
 7323SOL    HW122868   1.902   2.663   1.298
 7323SOL    HW222869   1.920   2.752   1.434
 7324SOL     OW22870   5.380   6.034   1.687
 7324SOL    HW122871   5.376   5.980   1.603
 7324SOL    HW222872   5.288   6.059   1.715
 7325SOL     OW22873   2.708   0.462   6.936
 7325SOL    HW122874   2.674   0.485   0.008
 7325SOL    HW222875   2.795   0.510   6.919
 7326SOL     OW22876   2.635   6.161   6.147
 7326SOL    HW122877   2.724   6.131   6.112
 7326SOL    HW222878   2.594   6.089   6.202
 7327SOL     OW22879   6.182   1.473   6.294
 7327SOL    HW122880   6.245   1.543   6.328
 7327SOL    HW222881   6.235   1.397   6.255
 7328SOL     OW22882   3.491   0.751   5.594
 7328SOL    HW122883   3.565   0.789   5.539
 7328SOL    HW222884   3.525   0.672   5.645
 7329SOL     OW22885   0.068   4.099   1.108
 7329SOL    HW122886   0.063   4.194   1.137
 7329SOL    HW222887   7.011   4.048   1.150
 7330SOL     OW22888   2.049   2.797   7.002
 7330SOL    HW122889   2.120   2.727   7.012
 7330SOL    HW222890   1.959   2.755   7.008
 7331SOL     OW22891   5.072   6.076   1.483
 7331SOL    HW122892   5.074   6.063   1.582
 7331SOL    HW222893   5.144   6.141   1.456
 7332SOL     OW22894   3.447   6.202   0.025
 7332SOL    HW122895   3.348   6.198   0.012
 7332SOL    HW222896   3.471   6.279   0.083
 7333SOL     OW22897   6.778   3.293   2.185
 7333SOL    HW122898   6.842   3.228   2.226
 7333SOL    HW222899   6.802   3.308   2.089
 7334SOL     OW22900   2.371   5.764   6.602
 7334SOL    HW122901   2.315   5.845   6.622
 7334SOL    HW222902   2.341   5.723   6.516
 7335SOL     OW22903   1.396   2.847   3.298
 7335SOL    HW122904   1.363   2.925   3.245
 7335SOL    HW222905   1.421   2.877   3.390
 7336SOL     OW22906   1.275   6.544   2.485
 7336SOL    HW122907   1.224   6.596   2.553
 7336SOL    HW222908   1.272   6.447   2.508
 7337SOL     OW22909   0.779   3.159   1.140
 7337SOL    HW122910   0.690   3.130   1.103
 7337SOL    HW222911   0.772   3.254   1.170
 7338SOL     OW22912   5.172   1.932   1.752
 7338SOL    HW122913   5.252   1.921   1.692
 7338SOL    HW222914   5.133   2.023   1.739
 7339SOL     OW22915   6.254   0.319   4.258
 7339SOL    HW122916   6.195   0.281   4.186
 7339SOL    HW222917   6.326   0.253   4.279
 7340SOL     OW22918   3.042   1.079   0.503
 7340SOL    HW122919   3.032   1.011   0.576
 7340SOL    HW222920   3.036   1.171   0.543
 7341SOL     OW22921   0.674   4.074   5.583
 7341SOL    HW122922   0.682   4.104   5.678
 7341SOL    HW222923   0.581   4.042   5.565
 7342SOL     OW22924   6.921   1.425   6.625
 7342SOL    HW122925   6.907   1.509   6.573
 7342SOL    HW222926   6.969   1.359   6.568
 7343SOL     OW22927   6.240   3.907   1.556
 7343SOL    HW122928   6.173   3.973   1.526
 7343SOL    HW222929   6.279   3.859   1.477
 7344SOL     OW22930   1.292   1.067   5.997
 7344SOL    HW122931   1.252   1.158   6.006
 7344SOL    HW222932   1.332   1.041   6.085
 7345SOL     OW22933   4.803   5.061   5.380
 7345SOL    HW122934   4.710   5.088   5.405
 7345SOL    HW222935   4.868   5.109   5.439
 7346SOL     OW22936   4.442   5.080   2.062
 7346SOL    HW122937   4.358   5.096   2.009
 7346SOL    HW222938   4.465   5.163   2.113
 7347SOL     OW22939   6.756   2.524   0.509
 7347SOL    HW122940   6.679   2.582   0.535
 7347SOL    HW222941   6.830   2.580   0.473
 7348SOL     OW22942   1.903   3.982   4.573
 7348SOL    HW122943   1.893   4.018   4.480
 7348SOL    HW222944   2.000   3.978   4.597
 7349SOL     OW22945   4.915   1.380   1.410
 7349SOL    HW122946   5.008   1.416   1.409
 7349SOL    HW222947   4.856   1.441   1.462
 7350SOL     OW22948   2.192   3.306   5.726
 7350SOL    HW122949   2.271   3.270   5.677
 7350SOL    HW222950   2.187   3.263   5.816
 7351SOL     OW22951   5.690   6.422   5.229
 7351SOL    HW122952   5.739   6.347   5.273
 7351SOL    HW222953   5.687   6.407   5.130
 7352SOL     OW22954   2.583   1.478   3.042
 7352SOL    HW122955   2.668   1.485   3.094
 7352SOL    HW222956   2.557   1.569   3.010
 7353SOL     OW22957   0.822   0.360   6.618
 7353SOL    HW122958   0.796   0.452   6.590
 7353SOL    HW222959   0.741   0.303   6.628
 7354SOL     OW22960   0.674   2.080   5.181
 7354SOL    HW122961   0.706   2.166   5.222
 7354SOL    HW222962   0.575   2.076   5.184
 7355SOL     OW22963   1.489   0.979   0.691
 7355SOL    HW122964   1.474   1.076   0.710
 7355SOL    HW222965   1.406   0.939   0.652
 7356SOL     OW22966   3.675   3.905   6.013
 7356SOL    HW122967   3.576   3.920   6.008
 7356SOL    HW222968   3.697   3.815   5.975
 7357SOL     OW22969   3.696   6.696   1.468
 7357SOL    HW122970   3.698   6.728   1.563
 7357SOL    HW222971   3.640   6.759   1.413
 7358SOL     OW22972   5.863   3.685   3.141
 7358SOL    HW122973   5.923   3.622   3.190
 7358SOL    HW222974   5.894   3.779   3.154
 7359SOL     OW22975   3.387   1.776   6.292
 7359SOL    HW122976   3.300   1.732   6.311
 7359SOL    HW222977   3.447   1.713   6.242
 7360SOL     OW22978   2.866   3.952   5.439
 7360SOL    HW122979   2.830   3.940   5.531
 7360SOL    HW222980   2.868   4.050   5.417
 7361SOL     OW22981   4.504   0.129   2.100
 7361SOL    HW122982   4.581   0.172   2.053
 7361SOL    HW222983   4.539   0.064   2.168
 7362SOL     OW22984   1.759   4.176   5.361
 7362SOL    HW122985   1.735   4.176   5.264
 7362SOL    HW222986   1.797   4.265   5.386
 7363SOL     OW22987   4.771   1.974   1.771
 7363SOL    HW122988   4.833   1.920   1.827
 7363SOL    HW222989   4.805   2.067   1.764
 7364SOL     OW22990   4.857   0.763   1.499
 7364SOL    HW122991   4.853   0.742   1.597
 7364SOL    HW222992   4.888   0.682   1.449
 7365SOL     OW22993   0.747   5.606   1.698
 7365SOL    HW122994   0.714   5.602   1.604
 7365SOL    HW222995   0.671   5.583   1.760
 7366SOL     OW22996   2.593   6.034   6.871
 7366SOL    HW122997   2.540   6.023   6.787
 7366SOL    HW222998   2.552   5.980   6.944
 7367SOL     OW22999   4.913   2.736   1.175
 7367SOL    HW123000   4.944   2.641   1.162
 7367SOL    HW223001   4.819   2.735   1.209
 7368SOL     OW23002   3.525   2.947   2.590
 7368SOL    HW123003   3.441   2.913   2.631
 7368SOL    HW223004   3.601   2.936   2.654
 7369SOL     OW23005   3.420   2.493   0.042
 7369SOL    HW123006   3.332   2.464   0.080
 7369SOL    HW223007   3.445   2.434   6.984
 7370SOL     OW23008   2.491   0.610   4.440
 7370SOL    HW123009   2.579   0.620   4.395
 7370SOL    HW223010   2.437   0.693   4.428
 7371SOL     OW23011   2.622   6.745   3.724
 7371SOL    HW123012   2.625   6.778   3.630
 7371SOL    HW223013   2.529   6.714   3.746
 7372SOL     OW23014   4.537   1.268   4.210
 7372SOL    HW123015   4.541   1.367   4.224
 7372SOL    HW223016   4.584   1.245   4.125
 7373SOL     OW23017   6.316   1.319   3.508
 7373SOL    HW123018   6.339   1.416   3.505
 7373SOL    HW223019   6.270   1.292   3.423
 7374SOL     OW23020   2.054   1.866   4.950
 7374SOL    HW123021   1.970   1.812   4.958
 7374SOL    HW223022   2.048   1.924   4.869
 7375SOL     OW23023   2.235   2.149   2.792
 7375SOL    HW123024   2.302   2.211   2.833
 7375SOL    HW223025   2.196   2.191   2.710
 7376SOL     OW23026   2.671   1.967   0.811
 7376SOL    HW123027   2.604   1.915   0.757
 7376SOL    HW223028   2.742   1.905   0.844
 7377SOL     OW23029   5.323   4.403   0.650
 7377SOL    HW123030   5.292   4.418   0.556
 7377SOL    HW223031   5.344   4.306   0.663
 7378SOL     OW23032   0.715   0.968   6.385
 7378SOL    HW123033   0.660   0.971   6.469
 7378SOL    HW223034   0.791   0.903   6.398
 7379SOL     OW23035   3.031   1.629   3.012
 7379SOL    HW123036   3.081   1.610   2.928
 7379SOL    HW223037   2.989   1.720   3.007
 7380SOL     OW23038   6.997   4.648   3.954
 7380SOL    HW123039   6.991   4.549   3.936
 7380SOL    HW223040   6.989   4.664   4.053
 7381SOL     OW23041   3.854   3.725   1.135
 7381SOL    HW123042   3.788   3.750   1.206
 7381SOL    HW223043   3.907   3.646   1.166
 7382SOL     OW23044   0.759   6.669   5.683
 7382SOL    HW123045   0.679   6.727   5.700
 7382SOL    HW223046   0.775   6.662   5.585
 7383SOL     OW23047   1.840   6.965   0.803
 7383SOL    HW123048   1.836   6.997   0.708
 7383SOL    HW223049   1.762   6.905   0.821
 7384SOL     OW23050   6.454   6.622   2.802
 7384SOL    HW123051   6.499   6.685   2.739
 7384SOL    HW223052   6.359   6.651   2.817
 7385SOL     OW23053   3.645   6.245   2.231
 7385SOL    HW123054   3.587   6.280   2.157
 7385SOL    HW223055   3.739   6.234   2.197
 7386SOL     OW23056   0.089   2.323   6.794
 7386SOL    HW123057   0.012   2.270   6.829
 7386SOL    HW223058   0.150   2.347   6.869
 7387SOL     OW23059   6.143   6.573   5.430
 7387SOL    HW123060   6.056   6.537   5.466
 7387SOL    HW223061   6.168   6.523   5.347
 7388SOL     OW23062   1.375   5.423   2.423
 7388SOL    HW123063   1.370   5.521   2.407
 7388SOL    HW223064   1.365   5.404   2.521
 7389SOL     OW23065   5.961   3.794   6.676
 7389SOL    HW123066   6.056   3.811   6.650
 7389SOL    HW223067   5.938   3.849   6.756
 7390SOL     OW23068   1.155   1.922   1.234
 7390SOL    HW123069   1.139   2.018   1.213
 7390SOL    HW223070   1.155   1.869   1.149
 7391SOL     OW23071   4.116   3.437   3.907
 7391SOL    HW123072   4.136   3.467   3.813
 7391SOL    HW223073   4.082   3.343   3.905
 7392SOL     OW23074   2.902   6.948   6.469
 7392SOL    HW123075   2.953   6.976   6.388
 7392SOL    HW223076   2.808   6.982   6.464
 7393SOL     OW23077   6.003   4.504   2.599
 7393SOL    HW123078   5.949   4.520   2.682
 7393SOL    HW223079   6.091   4.551   2.608
 7394SOL     OW23080   2.343   2.396   5.744
 7394SOL    HW123081   2.258   2.445   5.724
 7394SOL    HW223082   2.409   2.459   5.785
 7395SOL     OW23083   1.223   3.201   1.258
 7395SOL    HW123084   1.315   3.211   1.296
 7395SOL    HW223085   1.178   3.290   1.256
 7396SOL     OW23086   1.480   6.485   1.485
 7396SOL    HW123087   1.557   6.494   1.422
 7396SOL    HW223088   1.440   6.575   1.502
 7397SOL     OW23089   4.109   5.592   5.167
 7397SOL    HW123090   4.126   5.575   5.264
 7397SOL    HW223091   4.142   5.683   5.142
 7398SOL     OW23092   2.228   4.772   4.456
 7398SOL    HW123093   2.249   4.789   4.552
 7398SOL    HW223094   2.309   4.790   4.400
 7399SOL     OW23095   0.691   3.371   4.594
 7399SOL    HW123096   0.730   3.290   4.637
 7399SOL    HW223097   0.755   3.447   4.602
 7400SOL     OW23098   4.220   2.623   6.210
 7400SOL    HW123099   4.268   2.587   6.289
 7400SOL    HW223100   4.138   2.568   6.192
 7401SOL     OW23101   1.317   2.347   4.142
 7401SOL    HW123102   1.380   2.393   4.080
 7401SOL    HW223103   1.353   2.348   4.235
 7402SOL     OW23104   2.983   5.721   6.493
 7402SOL    HW123105   3.005   5.737   6.397
 7402SOL    HW223106   2.895   5.673   6.500
 7403SOL     OW23107   1.803   3.570   2.499
 7403SOL    HW123108   1.719   3.525   2.468
 7403SOL    HW223109   1.819   3.653   2.445
 7404SOL     OW23110   2.419   5.341   1.789
 7404SOL    HW123111   2.327   5.353   1.751
 7404SOL    HW223112   2.420   5.260   1.848
 7405SOL     OW23113   3.754   4.965   4.996
 7405SOL    HW123114   3.701   5.049   4.986
 7405SOL    HW223115   3.758   4.939   5.092
 7406SOL     OW23116   0.169   2.733   3.726
 7406SOL    HW123117   0.185   2.798   3.652
 7406SOL    HW223118   0.084   2.757   3.773
 7407SOL     OW23119   0.864   6.972   5.208
 7407SOL    HW123120   0.853   6.963   5.307
 7407SOL    HW223121   0.916   0.036   5.188
 7408SOL     OW23122   2.882   4.032   0.134
 7408SOL    HW123123   2.917   4.123   0.157
 7408SOL    HW223124   2.833   3.994   0.212
 7409SOL     OW23125   5.133   3.314   0.247
 7409SOL    HW123126   5.066   3.261   0.300
 7409SOL    HW223127   5.198   3.252   0.203
 7410SOL     OW23128   0.379   6.832   0.236
 7410SOL    HW123129   0.476   6.856   0.224
 7410SOL    HW223130   0.344   6.874   0.320
 7411SOL     OW23131   2.013   0.043   6.187
 7411SOL    HW123132   2.010   0.124   6.247
 7411SOL    HW223133   2.002   6.980   6.243
 7412SOL     OW23134   5.430   0.230   2.054
 7412SOL    HW123135   5.431   0.309   1.993
 7412SOL    HW223136   5.364   0.163   2.020
 7413SOL     OW23137   4.873   5.417   4.166
 7413SOL    HW123138   4.913   5.494   4.217
 7413SOL    HW223139   4.868   5.337   4.225
 7414SOL     OW23140   0.884   0.799   3.621
 7414SOL    HW123141   0.862   0.804   3.524
 7414SOL    HW223142   0.960   0.861   3.642
 7415SOL     OW23143   1.409   4.651   3.971
 7415SOL    HW123144   1.417   4.646   3.872
 7415SOL    HW223145   1.366   4.738   3.997
 7416SOL     OW23146   1.801   1.043   2.465
 7416SOL    HW123147   1.751   1.126   2.490
 7416SOL    HW223148   1.736   0.967   2.457
 7417SOL     OW23149   1.932   1.978   0.959
 7417SOL    HW123150   2.026   2.008   0.973
 7417SOL    HW223151   1.888   1.963   1.047
 7418SOL     OW23152   2.653   5.762   0.476
 7418SOL    HW123153   2.657   5.732   0.380
 7418SOL    HW223154   2.680   5.687   0.536
 7419SOL     OW23155   6.691   3.088   4.141
 7419SOL    HW123156   6.706   2.990   4.146
 7419SOL    HW223157   6.620   3.114   4.206
 7420SOL     OW23158   0.678   6.588   1.449
 7420SOL    HW123159   0.727   6.640   1.380
 7420SOL    HW223160   0.620   6.650   1.503
 7421SOL     OW23161   3.853   4.412   1.102
 7421SOL    HW123162   3.894   4.322   1.087
 7421SOL    HW223163   3.767   4.402   1.152
 7422SOL     OW23164   0.328   4.221   2.215
 7422SOL    HW123165   0.265   4.217   2.292
 7422SOL    HW223166   0.357   4.315   2.199
 7423SOL     OW23167   6.340   2.391   5.436
 7423SOL    HW123168   6.299   2.343   5.513
 7423SOL    HW223169   6.429   2.349   5.415
 7424SOL     OW23170   6.941   6.660   5.414
 7424SOL    HW123171   6.883   6.716   5.355
 7424SOL    HW223172   7.019   6.714   5.445
 7425SOL     OW23173   4.291   6.555   0.203
 7425SOL    HW123174   4.288   6.474   0.261
 7425SOL    HW223175   4.322   6.633   0.258
 7426SOL     OW23176   2.974   1.905   5.704
 7426SOL    HW123177   3.005   1.999   5.690
 7426SOL    HW223178   2.879   1.905   5.734
 7427SOL     OW23179   4.877   0.589   3.775
 7427SOL    HW123180   4.856   0.672   3.827
 7427SOL    HW223181   4.974   0.565   3.789
 7428SOL     OW23182   4.851   1.889   5.545
 7428SOL    HW123183   4.825   1.806   5.496
 7428SOL    HW223184   4.769   1.934   5.581
 7429SOL     OW23185   0.279   6.514   4.239
 7429SOL    HW123186   0.231   6.578   4.179
 7429SOL    HW223187   0.372   6.501   4.206
 7430SOL     OW23188   1.080   3.617   0.722
 7430SOL    HW123189   0.996   3.647   0.768
 7430SOL    HW223190   1.059   3.543   0.659
 7431SOL     OW23191   1.655   2.854   3.118
 7431SOL    HW123192   1.630   2.809   3.203
 7431SOL    HW223193   1.608   2.809   3.042
 7432SOL     OW23194   0.838   0.876   3.009
 7432SOL    HW123195   0.903   0.821   2.956
 7432SOL    HW223196   0.786   0.936   2.947
 7433SOL     OW23197   4.341   5.431   6.322
 7433SOL    HW123198   4.242   5.445   6.318
 7433SOL    HW223199   4.362   5.338   6.295
 7434SOL     OW23200   4.737   5.652   5.129
 7434SOL    HW123201   4.753   5.639   5.227
 7434SOL    HW223202   4.647   5.693   5.115
 7435SOL     OW23203   3.829   5.557   1.345
 7435SOL    HW123204   3.883   5.525   1.267
 7435SOL    HW223205   3.753   5.613   1.311
 7436SOL     OW23206   4.233   4.057   6.101
 7436SOL    HW123207   4.209   4.154   6.110
 7436SOL    HW223208   4.151   4.005   6.076
 7437SOL     OW23209   2.084   5.683   6.819
 7437SOL    HW123210   2.027   5.670   6.901
 7437SOL    HW223211   2.124   5.595   6.792
 7438SOL     OW23212   1.102   5.678   0.497
 7438SOL    HW123213   1.118   5.622   0.416
 7438SOL    HW223214   1.183   5.678   0.555
 7439SOL     OW23215   1.992   6.607   5.481
 7439SOL    HW123216   1.951   6.525   5.444
 7439SOL    HW223217   2.029   6.663   5.406
 7440SOL     OW23218   6.937   3.056   4.398
 7440SOL    HW123219   6.945   3.156   4.393
 7440SOL    HW223220   6.947   3.028   4.494
 7441SOL     OW23221   4.875   6.781   4.526
 7441SOL    HW123222   4.812   6.853   4.555
 7441SOL    HW223223   4.969   6.814   4.536
 7442SOL     OW23224   6.807   1.044   5.953
 7442SOL    HW123225   6.853   1.129   5.927
 7442SOL    HW223226   6.740   1.019   5.884
 7443SOL     OW23227   6.446   6.310   1.589
 7443SOL    HW123228   6.420   6.372   1.662
 7443SOL    HW223229   6.406   6.220   1.607
 7444SOL     OW23230   5.893   2.223   6.172
 7444SOL    HW123231   5.932   2.248   6.261
 7444SOL    HW223232   5.840   2.300   6.136
 7445SOL     OW23233   3.984   0.265   1.230
 7445SOL    HW123234   3.988   0.351   1.281
 7445SOL    HW223235   3.989   0.284   1.132
 7446SOL     OW23236   5.685   2.788   0.623
 7446SOL    HW123237   5.683   2.823   0.530
 7446SOL    HW223238   5.597   2.747   0.646
 7447SOL     OW23239   6.067   3.345   0.021
 7447SOL    HW123240   6.008   3.274   7.000
 7447SOL    HW223241   6.014   3.399   0.087
 7448SOL     OW23242   6.806   6.879   5.288
 7448SOL    HW123243   6.850   6.965   5.265
 7448SOL    HW223244   6.773   6.835   5.204
 7449SOL     OW23245   0.690   4.464   1.834
 7449SOL    HW123246   0.660   4.373   1.805
 7449SOL    HW223247   0.626   4.500   1.903
 7450SOL     OW23248   5.348   2.448   5.550
 7450SOL    HW123249   5.279   2.387   5.589
 7450SOL    HW223250   5.329   2.542   5.580
 7451SOL     OW23251   6.671   6.000   2.821
 7451SOL    HW123252   6.763   6.019   2.786
 7451SOL    HW223253   6.612   5.970   2.745
 7452SOL     OW23254   6.028   6.393   4.129
 7452SOL    HW123255   5.941   6.436   4.104
 7452SOL    HW223256   6.073   6.447   4.200
 7453SOL     OW23257   5.436   5.748   5.192
 7453SOL    HW123258   5.452   5.725   5.096
 7453SOL    HW223259   5.391   5.671   5.238
 7454SOL     OW23260   1.394   2.289   1.872
 7454SOL    HW123261   1.318   2.266   1.811
 7454SOL    HW223262   1.465   2.337   1.820
 7455SOL     OW23263   6.647   2.622   1.613
 7455SOL    HW123264   6.677   2.574   1.695
 7455SOL    HW223265   6.703   2.704   1.599
 7456SOL     OW23266   1.628   1.298   4.699
 7456SOL    HW123267   1.627   1.219   4.761
 7456SOL    HW223268   1.666   1.270   4.611
 7457SOL     OW23269   3.596   0.842   5.108
 7457SOL    HW123270   3.524   0.804   5.165
 7457SOL    HW223271   3.670   0.776   5.099
 7458SOL     OW23272   1.895   6.640   5.762
 7458SOL    HW123273   1.928   6.733   5.781
 7458SOL    HW223274   1.947   6.601   5.687
 7459SOL     OW23275   5.238   0.059   1.932
 7459SOL    HW123276   5.168   0.109   1.880
 7459SOL    HW223277   5.312   0.031   1.871
 7460SOL     OW23278   0.985   5.056   0.461
 7460SOL    HW123279   0.893   5.093   0.474
 7460SOL    HW223280   1.024   5.091   0.376
 7461SOL     OW23281   6.223   0.103   6.905
 7461SOL    HW123282   6.177   0.138   6.824
 7461SOL    HW223283   6.309   0.060   6.879
 7462SOL     OW23284   1.590   4.224   2.474
 7462SOL    HW123285   1.639   4.280   2.407
 7462SOL    HW223286   1.575   4.132   2.437
 7463SOL     OW23287   3.118   5.060   0.817
 7463SOL    HW123288   3.059   5.106   0.883
 7463SOL    HW223289   3.073   5.059   0.728
 7464SOL     OW23290   5.689   6.268   6.315
 7464SOL    HW123291   5.739   6.287   6.231
 7464SOL    HW223292   5.671   6.354   6.363
 7465SOL     OW23293   2.751   5.541   6.524
 7465SOL    HW123294   2.810   5.475   6.477
 7465SOL    HW223295   2.663   5.546   6.477
 7466SOL     OW23296   0.346   0.252   4.795
 7466SOL    HW123297   0.361   0.343   4.755
 7466SOL    HW223298   0.418   0.190   4.765
 7467SOL     OW23299   0.317   1.481   0.432
 7467SOL    HW123300   0.268   1.446   0.511
 7467SOL    HW223301   0.415   1.464   0.443
 7468SOL     OW23302   5.876   2.348   3.394
 7468SOL    HW123303   5.836   2.389   3.311
 7468SOL    HW223304   5.891   2.251   3.379
 7469SOL     OW23305   6.583   0.502   6.910
 7469SOL    HW123306   6.493   0.505   6.953
 7469SOL    HW223307   6.588   0.423   6.848
 7470SOL     OW23308   6.174   4.186   3.186
 7470SOL    HW123309   6.086   4.231   3.171
 7470SOL    HW223310   6.176   4.146   3.278
 7471SOL     OW23311   5.543   6.972   5.868
 7471SOL    HW123312   5.612   0.015   5.906
 7471SOL    HW223313   5.551   6.882   5.912
 7472SOL     OW23314   6.282   0.751   5.817
 7472SOL    HW123315   6.300   0.788   5.908
 7472SOL    HW223316   6.359   0.771   5.757
 7473SOL     OW23317   5.785   5.282   4.269
 7473SOL    HW123318   5.854   5.278   4.342
 7473SOL    HW223319   5.779   5.193   4.225
 7474SOL     OW23320   0.556   1.595   5.977
 7474SOL    HW123321   0.653   1.575   5.961
 7474SOL    HW223322   0.525   1.664   5.912
 7475SOL     OW23323   4.616   2.690   2.429
 7475SOL    HW123324   4.576   2.634   2.356
 7475SOL    HW223325   4.558   2.770   2.445
 7476SOL     OW23326   3.492   0.993   3.607
 7476SOL    HW123327   3.534   1.081   3.585
 7476SOL    HW223328   3.558   0.919   3.592
 7477SOL     OW23329   0.418   1.576   5.669
 7477SOL    HW123330   0.374   1.641   5.607
 7477SOL    HW223331   0.348   1.522   5.715
 7478SOL     OW23332   5.928   3.856   4.909
 7478SOL    HW123333   5.931   3.952   4.938
 7478SOL    HW223334   5.834   3.823   4.914
 7479SOL     OW23335   4.297   2.342   2.218
 7479SOL    HW123336   4.376   2.403   2.223
 7479SOL    HW223337   4.267   2.333   2.123
 7480SOL     OW23338   1.588   4.460   2.619
 7480SOL    HW123339   1.536   4.514   2.554
 7480SOL    HW223340   1.604   4.368   2.582
 7481SOL     OW23341   5.435   5.653   0.708
 7481SOL    HW123342   5.508   5.694   0.653
 7481SOL    HW223343   5.438   5.553   0.698
 7482SOL     OW23344   4.753   2.566   2.943
 7482SOL    HW123345   4.729   2.636   2.876
 7482SOL    HW223346   4.746   2.605   3.035
 7483SOL     OW23347   4.939   3.527   4.626
 7483SOL    HW123348   5.034   3.506   4.606
 7483SOL    HW223349   4.934   3.611   4.680
 7484SOL     OW23350   1.263   6.736   4.238
 7484SOL    HW123351   1.351   6.687   4.241
 7484SOL    HW223352   1.235   6.758   4.331
 7485SOL     OW23353   3.688   0.257   4.207
 7485SOL    HW123354   3.640   0.218   4.128
 7485SOL    HW223355   3.622   0.276   4.280
 7486SOL     OW23356   1.492   5.850   0.481
 7486SOL    HW123357   1.512   5.796   0.563
 7486SOL    HW223358   1.405   5.898   0.493
 7487SOL     OW23359   2.324   0.121   2.960
 7487SOL    HW123360   2.368   0.070   3.034
 7487SOL    HW223361   2.372   0.207   2.945
 7488SOL     OW23362   2.471   6.168   4.161
 7488SOL    HW123363   2.546   6.234   4.157
 7488SOL    HW223364   2.477   6.115   4.246
 7489SOL     OW23365   5.976   2.576   5.919
 7489SOL    HW123366   5.911   2.502   5.902
 7489SOL    HW223367   6.069   2.543   5.905
 7490SOL     OW23368   1.136   0.082   3.127
 7490SOL    HW123369   1.158   7.017   3.076
 7490SOL    HW223370   1.058   0.065   3.186
 7491SOL     OW23371   4.182   3.060   6.771
 7491SOL    HW123372   4.245   3.134   6.749
 7491SOL    HW223373   4.193   3.033   6.867
 7492SOL     OW23374   1.662   0.379   3.261
 7492SOL    HW123375   1.617   0.371   3.172
 7492SOL    HW223376   1.761   0.375   3.249
 7493SOL     OW23377   0.482   3.402   6.553
 7493SOL    HW123378   0.483   3.488   6.603
 7493SOL    HW223379   0.549   3.407   6.479
 7494SOL     OW23380   5.148   1.755   2.726
 7494SOL    HW123381   5.085   1.684   2.756
 7494SOL    HW223382   5.241   1.719   2.725
 7495SOL     OW23383   1.528   2.455   6.997
 7495SOL    HW123384   1.616   2.464   6.951
 7495SOL    HW223385   1.469   2.531   6.971
 7496SOL     OW23386   6.489   2.957   3.960
 7496SOL    HW123387   6.418   2.934   4.026
 7496SOL    HW223388   6.556   3.017   4.004
 7497SOL     OW23389   2.786   4.855   0.619
 7497SOL    HW123390   2.788   4.796   0.538
 7497SOL    HW223391   2.803   4.800   0.701
 7498SOL     OW23392   3.408   0.677   5.278
 7498SOL    HW123393   3.396   0.739   5.355
 7498SOL    HW223394   3.319   0.660   5.234
 7499SOL     OW23395   4.580   1.248   3.419
 7499SOL    HW123396   4.504   1.209   3.367
 7499SOL    HW223397   4.626   1.318   3.363
 7500SOL     OW23398   3.352   5.731   3.377
 7500SOL    HW123399   3.405   5.814   3.392
 7500SOL    HW223400   3.325   5.725   3.281
 7501SOL     OW23401   5.146   3.868   4.800
 7501SOL    HW123402   5.157   3.967   4.793
 7501SOL    HW223403   5.153   3.827   4.709
 7502SOL     OW23404   3.341   0.825   4.426
 7502SOL    HW123405   3.359   0.730   4.398
 7502SOL    HW223406   3.428   0.874   4.436
 7503SOL     OW23407   1.777   0.023   1.221
 7503SOL    HW123408   1.724   6.987   1.156
 7503SOL    HW223409   1.837   6.982   1.274
 7504SOL     OW23410   0.863   6.087   3.357
 7504SOL    HW123411   0.813   6.051   3.436
 7504SOL    HW223412   0.882   6.184   3.370
 7505SOL     OW23413   1.739   2.910   5.765
 7505SOL    HW123414   1.727   2.923   5.863
 7505SOL    HW223415   1.688   2.979   5.715
 7506SOL     OW23416   5.649   1.675   3.015
 7506SOL    HW123417   5.718   1.609   3.047
 7506SOL    HW223418   5.695   1.754   2.975
 7507SOL     OW23419   0.145   1.883   2.415
 7507SOL    HW123420   0.211   1.822   2.460
 7507SOL    HW223421   0.175   1.901   2.321
 7508SOL     OW23422   1.258   6.361   1.345
 7508SOL    HW123423   1.181   6.357   1.409
 7508SOL    HW223424   1.343   6.376   1.396
 7509SOL     OW23425   5.903   3.670   0.393
 7509SOL    HW123426   5.969   3.741   0.371
 7509SOL    HW223427   5.950   3.593   0.435
 7510SOL     OW23428   3.529   3.478   5.066
 7510SOL    HW123429   3.471   3.407   5.107
 7510SOL    HW223430   3.522   3.472   4.966
 7511SOL     OW23431   2.773   5.910   3.925
 7511SOL    HW123432   2.870   5.905   3.945
 7511SOL    HW223433   2.741   5.821   3.891
 7512SOL     OW23434   2.680   0.073   6.425
 7512SOL    HW123435   2.615   0.003   6.395
 7512SOL    HW223436   2.710   0.127   6.346
 7513SOL     OW23437   1.492   1.031   1.818
 7513SOL    HW123438   1.558   1.066   1.885
 7513SOL    HW223439   1.399   1.038   1.855
 7514SOL     OW23440   2.718   5.188   2.616
 7514SOL    HW123441   2.760   5.112   2.665
 7514SOL    HW223442   2.762   5.274   2.643
 7515SOL     OW23443   6.745   5.728   4.274
 7515SOL    HW123444   6.811   5.750   4.202
 7515SOL    HW223445   6.779   5.652   4.329
 7516SOL     OW23446   6.453   5.530   5.939
 7516SOL    HW123447   6.483   5.552   5.846
 7516SOL    HW223448   6.359   5.496   5.936
 7517SOL     OW23449   6.766   1.847   0.396
 7517SOL    HW123450   6.811   1.800   0.472
 7517SOL    HW223451   6.812   1.934   0.379
 7518SOL     OW23452   4.789   4.050   4.186
 7518SOL    HW123453   4.713   4.111   4.205
 7518SOL    HW223454   4.786   3.973   4.250
 7519SOL     OW23455   0.774   6.274   3.940
 7519SOL    HW123456   0.869   6.267   3.911
 7519SOL    HW223457   0.721   6.318   3.868
 7520SOL     OW23458   2.170   6.853   2.654
 7520SOL    HW123459   2.184   6.785   2.581
 7520SOL    HW223460   2.257   6.871   2.700
 7521SOL     OW23461   4.863   2.680   5.391
 7521SOL    HW123462   4.765   2.665   5.376
 7521SOL    HW223463   4.898   2.742   5.321
 7522SOL     OW23464   1.573   1.357   5.958
 7522SOL    HW123465   1.502   1.415   5.918
 7522SOL    HW223466   1.657   1.367   5.906
 7523SOL     OW23467   5.669   0.333   6.562
 7523SOL    HW123468   5.663   0.423   6.606
 7523SOL    HW223469   5.631   0.264   6.624
 7524SOL     OW23470   1.034   2.901   4.937
 7524SOL    HW123471   1.129   2.929   4.945
 7524SOL    HW223472   1.022   2.847   4.854
 7525SOL     OW23473   3.526   0.945   6.382
 7525SOL    HW123474   3.429   0.932   6.403
 7525SOL    HW223475   3.549   0.901   6.295
 7526SOL     OW23476   3.133   3.563   1.298
 7526SOL    HW123477   3.125   3.579   1.397
 7526SOL    HW223478   3.219   3.516   1.279
 7527SOL     OW23479   3.034   5.802   3.740
 7527SOL    HW123480   2.970   5.855   3.686
 7527SOL    HW223481   3.093   5.863   3.793
 7528SOL     OW23482   5.968   2.149   0.403
 7528SOL    HW123483   6.020   2.210   0.463
 7528SOL    HW223484   5.871   2.170   0.411
 7529SOL     OW23485   5.713   1.741   4.452
 7529SOL    HW123486   5.768   1.683   4.392
 7529SOL    HW223487   5.772   1.808   4.498
 7530SOL     OW23488   0.169   2.875   2.667
 7530SOL    HW123489   0.106   2.852   2.592
 7530SOL    HW223490   0.197   2.791   2.713
 7531SOL     OW23491   5.839   2.947   4.657
 7531SOL    HW123492   5.806   3.000   4.579
 7531SOL    HW223493   5.924   2.901   4.633
 7532SOL     OW23494   4.146   6.227   0.208
 7532SOL    HW123495   4.183   6.190   0.123
 7532SOL    HW223496   4.100   6.314   0.190
 7533SOL     OW23497   3.573   1.560   1.538
 7533SOL    HW123498   3.616   1.630   1.594
 7533SOL    HW223499   3.645   1.507   1.491
 7534SOL     OW23500   4.550   6.414   5.389
 7534SOL    HW123501   4.604   6.340   5.428
 7534SOL    HW223502   4.611   6.480   5.344
 7535SOL     OW23503   2.141   0.382   4.809
 7535SOL    HW123504   2.202   0.321   4.758
 7535SOL    HW223505   2.125   0.465   4.756
 7536SOL     OW23506   5.382   4.007   4.488
 7536SOL    HW123507   5.299   3.952   4.491
 7536SOL    HW223508   5.364   4.091   4.437
 7537SOL     OW23509   2.254   5.260   2.228
 7537SOL    HW123510   2.208   5.273   2.316
 7537SOL    HW223511   2.352   5.277   2.239
 7538SOL     OW23512   2.228   2.574   1.302
 7538SOL    HW123513   2.261   2.624   1.382
 7538SOL    HW223514   2.139   2.609   1.275
 7539SOL     OW23515   1.788   3.153   3.975
 7539SOL    HW123516   1.808   3.055   3.985
 7539SOL    HW223517   1.710   3.177   4.033
 7540SOL     OW23518   4.056   1.153   4.747
 7540SOL    HW123519   4.103   1.066   4.730
 7540SOL    HW223520   4.079   1.186   4.838
 7541SOL     OW23521   0.425   4.306   4.818
 7541SOL    HW123522   0.491   4.279   4.889
 7541SOL    HW223523   0.400   4.402   4.831
 7542SOL     OW23524   0.893   5.312   6.748
 7542SOL    HW123525   0.964   5.360   6.696
 7542SOL    HW223526   0.904   5.214   6.738
 7543SOL     OW23527   3.971   1.321   5.322
 7543SOL    HW123528   3.937   1.326   5.228
 7543SOL    HW223529   3.996   1.413   5.353
 7544SOL     OW23530   6.160   2.244   3.303
 7544SOL    HW123531   6.248   2.267   3.345
 7544SOL    HW223532   6.107   2.327   3.287
 7545SOL     OW23533   0.551   5.875   6.841
 7545SOL    HW123534   0.613   5.848   6.768
 7545SOL    HW223535   0.486   5.942   6.806
 7546SOL     OW23536   4.216   2.070   1.146
 7546SOL    HW123537   4.264   1.986   1.122
 7546SOL    HW223538   4.283   2.141   1.168
 7547SOL     OW23539   5.262   1.222   0.685
 7547SOL    HW123540   5.257   1.314   0.646
 7547SOL    HW223541   5.232   1.226   0.781
 7548SOL     OW23542   4.122   1.959   0.238
 7548SOL    HW123543   4.070   1.950   0.323
 7548SOL    HW223544   4.061   1.952   0.160
 7549SOL     OW23545   3.028   2.497   6.859
 7549SOL    HW123546   3.077   2.410   6.850
 7549SOL    HW223547   3.020   2.541   6.770
 7550SOL     OW23548   2.173   4.560   4.221
 7550SOL    HW123549   2.116   4.639   4.199
 7550SOL    HW223550   2.124   4.499   4.283
 7551SOL     OW23551   5.829   2.718   5.340
 7551SOL    HW123552   5.878   2.661   5.407
 7551SOL    HW223553   5.860   2.695   5.248
 7552SOL     OW23554   1.476   6.267   3.255
 7552SOL    HW123555   1.402   6.332   3.237
 7552SOL    HW223556   1.564   6.313   3.242
 7553SOL     OW23557   4.102   6.631   5.796
 7553SOL    HW123558   4.039   6.578   5.740
 7553SOL    HW223559   4.062   6.721   5.815
 7554SOL     OW23560   5.385   0.669   6.639
 7554SOL    HW123561   5.389   0.725   6.722
 7554SOL    HW223562   5.323   0.712   6.573
 7555SOL     OW23563   3.007   5.037   6.554
 7555SOL    HW123564   2.934   5.037   6.486
 7555SOL    HW223565   3.081   5.097   6.523
 7556SOL     OW23566   2.658   3.022   0.476
 7556SOL    HW123567   2.697   3.082   0.546
 7556SOL    HW223568   2.633   3.077   0.396
 7557SOL     OW23569   5.764   0.107   5.928
 7557SOL    HW123570   5.758   0.195   5.976
 7557SOL    HW223571   5.824   0.046   5.979
 7558SOL     OW23572   1.911   2.720   4.737
 7558SOL    HW123573   1.912   2.620   4.742
 7558SOL    HW223574   1.821   2.754   4.762
 7559SOL     OW23575   4.581   3.730   0.343
 7559SOL    HW123576   4.665   3.782   0.356
 7559SOL    HW223577   4.519   3.781   0.283
 7560SOL     OW23578   4.577   6.822   1.038
 7560SOL    HW123579   4.614   6.800   1.128
 7560SOL    HW223580   4.593   6.919   1.019
 7561SOL     OW23581   0.715   3.029   6.392
 7561SOL    HW123582   0.621   3.027   6.425
 7561SOL    HW223583   0.747   2.935   6.376
 7562SOL     OW23584   0.631   5.730   5.629
 7562SOL    HW123585   0.545   5.737   5.578
 7562SOL    HW223586   0.706   5.766   5.573
 7563SOL     OW23587   2.965   6.831   1.564
 7563SOL    HW123588   3.001   6.778   1.640
 7563SOL    HW223589   2.937   6.921   1.597
 7564SOL     OW23590   4.368   0.452   3.702
 7564SOL    HW123591   4.351   0.457   3.800
 7564SOL    HW223592   4.439   0.518   3.677
 7565SOL     OW23593   5.606   3.257   6.342
 7565SOL    HW123594   5.701   3.239   6.317
 7565SOL    HW223595   5.598   3.349   6.380
 7566SOL     OW23596   6.079   5.186   2.622
 7566SOL    HW123597   6.121   5.277   2.626
 7566SOL    HW223598   5.989   5.188   2.666
 7567SOL     OW23599   1.891   1.399   5.380
 7567SOL    HW123600   1.977   1.449   5.369
 7567SOL    HW223601   1.883   1.331   5.306
 7568SOL     OW23602   5.552   4.775   2.718
 7568SOL    HW123603   5.571   4.861   2.764
 7568SOL    HW223604   5.594   4.776   2.627
 7569SOL     OW23605   3.294   4.338   6.084
 7569SOL    HW123606   3.275   4.397   6.163
 7569SOL    HW223607   3.263   4.384   6.000
 7570SOL     OW23608   5.283   4.142   4.745
 7570SOL    HW123609   5.315   4.080   4.673
 7570SOL    HW223610   5.338   4.129   4.827
 7571SOL     OW23611   4.625   4.239   3.332
 7571SOL    HW123612   4.665   4.164   3.384
 7571SOL    HW223613   4.637   4.222   3.234
 7572SOL     OW23614   4.682   0.892   1.914
 7572SOL    HW123615   4.719   0.824   1.851
 7572SOL    HW223616   4.722   0.880   2.004
 7573SOL     OW23617   0.319   6.542   4.980
 7573SOL    HW123618   0.417   6.535   5.001
 7573SOL    HW223619   0.266   6.523   5.062
 7574SOL     OW23620   4.857   0.707   5.404
 7574SOL    HW123621   4.837   0.803   5.426
 7574SOL    HW223622   4.948   0.684   5.437
 7575SOL     OW23623   5.628   0.130   6.758
 7575SOL    HW123624   5.667   0.048   6.717
 7575SOL    HW223625   5.551   0.106   6.816
 7576SOL     OW23626   4.785   3.444   0.223
 7576SOL    HW123627   4.800   3.472   0.318
 7576SOL    HW223628   4.742   3.354   0.221
 7577SOL     OW23629   0.438   6.802   6.753
 7577SOL    HW123630   0.533   6.776   6.772
 7577SOL    HW223631   0.377   6.742   6.804
 7578SOL     OW23632   3.402   5.285   2.219
 7578SOL    HW123633   3.481   5.224   2.219
 7578SOL    HW223634   3.422   5.365   2.162
 7579SOL     OW23635   0.186   0.774   2.116
 7579SOL    HW123636   0.224   0.863   2.142
 7579SOL    HW223637   0.261   0.710   2.099
 7580SOL     OW23638   0.841   4.450   4.204
 7580SOL    HW123639   0.839   4.477   4.300
 7580SOL    HW223640   0.798   4.361   4.193
 7581SOL     OW23641   0.235   1.947   1.409
 7581SOL    HW123642   0.169   2.021   1.423
 7581SOL    HW223643   0.316   1.963   1.465
 7582SOL     OW23644   3.993   1.346   2.789
 7582SOL    HW123645   3.974   1.285   2.865
 7582SOL    HW223646   4.016   1.437   2.824
 7583SOL     OW23647   5.086   2.861   2.252
 7583SOL    HW123648   5.127   2.808   2.178
 7583SOL    HW223649   5.042   2.798   2.317
 7584SOL     OW23650   3.216   0.752   3.076
 7584SOL    HW123651   3.185   0.820   3.142
 7584SOL    HW223652   3.143   0.684   3.062
 7585SOL     OW23653   1.933   2.809   6.379
 7585SOL    HW123654   1.883   2.758   6.449
 7585SOL    HW223655   2.008   2.860   6.422
 7586SOL     OW23656   2.304   7.019   4.082
 7586SOL    HW123657   2.280   6.923   4.098
 7586SOL    HW223658   2.261   0.057   4.152
 7587SOL     OW23659   2.048   2.144   6.623
 7587SOL    HW123660   2.082   2.200   6.547
 7587SOL    HW223661   2.101   2.059   6.629
 7588SOL     OW23662   1.912   2.563   3.848
 7588SOL    HW123663   1.987   2.520   3.800
 7588SOL    HW223664   1.937   2.579   3.944
 7589SOL     OW23665   6.979   0.398   1.991
 7589SOL    HW123666   6.905   0.331   1.982
 7589SOL    HW223667   6.972   0.443   2.080
 7590SOL     OW23668   4.097   2.176   6.212
 7590SOL    HW123669   4.039   2.095   6.219
 7590SOL    HW223670   4.043   2.253   6.177
 7591SOL     OW23671   5.597   4.216   0.749
 7591SOL    HW123672   5.647   4.247   0.668
 7591SOL    HW223673   5.515   4.168   0.720
 7592SOL     OW23674   6.224   5.944   4.754
 7592SOL    HW123675   6.129   5.959   4.781
 7592SOL    HW223676   6.256   5.857   4.792
 7593SOL     OW23677   6.404   3.046   0.315
 7593SOL    HW123678   6.447   3.135   0.328
 7593SOL    HW223679   6.459   2.975   0.361
 7594SOL     OW23680   1.748   4.360   2.329
 7594SOL    HW123681   1.778   4.330   2.239
 7594SOL    HW223682   1.822   4.412   2.373
 7595SOL     OW23683   6.068   2.833   5.863
 7595SOL    HW123684   6.163   2.852   5.885
 7595SOL    HW223685   6.050   2.735   5.875
 7596SOL     OW23686   3.666   6.290   4.030
 7596SOL    HW123687   3.612   6.275   3.947
 7596SOL    HW223688   3.697   6.202   4.067
 7597SOL     OW23689   1.710   6.556   3.027
 7597SOL    HW123690   1.661   6.642   3.014
 7597SOL    HW223691   1.689   6.494   2.951
 7598SOL     OW23692   6.756   0.587   3.177
 7598SOL    HW123693   6.778   0.601   3.081
 7598SOL    HW223694   6.828   0.533   3.221
 7599SOL     OW23695   5.401   2.605   2.453
 7599SOL    HW123696   5.329   2.628   2.387
 7599SOL    HW223697   5.365   2.610   2.546
 7600SOL     OW23698   1.082   1.666   3.475
 7600SOL    HW123699   1.133   1.714   3.404
 7600SOL    HW223700   1.134   1.586   3.505
 7601SOL     OW23701   2.754   4.943   2.251
 7601SOL    HW123702   2.818   4.917   2.179
 7601SOL    HW223703   2.680   4.876   2.255
 7602SOL     OW23704   1.664   3.870   6.928
 7602SOL    HW123705   1.600   3.929   6.878
 7602SOL    HW223706   1.652   3.883   0.007
 7603SOL     OW23707   1.941   5.507   6.385
 7603SOL    HW123708   1.965   5.432   6.446
 7603SOL    HW223709   1.909   5.469   6.297
 7604SOL     OW23710   1.743   2.937   4.211
 7604SOL    HW123711   1.805   2.992   4.268
 7604SOL    HW223712   1.679   2.888   4.270
 7605SOL     OW23713   1.300   0.925   1.117
 7605SOL    HW123714   1.284   0.921   1.216
 7605SOL    HW223715   1.384   0.977   1.099
 7606SOL     OW23716   6.065   3.195   4.764
 7606SOL    HW123717   6.028   3.266   4.824
 7606SOL    HW223718   6.070   3.230   4.670
 7607SOL     OW23719   3.556   4.697   0.351
 7607SOL    HW123720   3.499   4.745   0.417
 7607SOL    HW223721   3.518   4.606   0.334
 7608SOL     OW23722   4.083   3.898   1.133
 7608SOL    HW123723   4.000   3.843   1.118
 7608SOL    HW223724   4.119   3.879   1.225
 7609SOL     OW23725   1.884   3.185   4.349
 7609SOL    HW123726   1.957   3.123   4.320
 7609SOL    HW223727   1.888   3.196   4.448
 7610SOL     OW23728   4.359   4.484   6.502
 7610SOL    HW123729   4.450   4.464   6.467
 7610SOL    HW223730   4.296   4.498   6.426
 7611SOL     OW23731   5.329   3.706   1.593
 7611SOL    HW123732   5.284   3.617   1.594
 7611SOL    HW223733   5.338   3.737   1.498
 7612SOL     OW23734   4.984   3.292   2.329
 7612SOL    HW123735   5.044   3.298   2.249
 7612SOL    HW223736   4.932   3.207   2.325
 7613SOL     OW23737   0.680   2.096   1.150
 7613SOL    HW123738   0.755   2.142   1.101
 7613SOL    HW223739   0.613   2.165   1.178
 7614SOL     OW23740   5.384   2.959   0.618
 7614SOL    HW123741   5.390   2.877   0.676
 7614SOL    HW223742   5.303   3.012   0.644
 7615SOL     OW23743   4.252   4.574   6.940
 7615SOL    HW123744   4.299   4.491   6.971
 7615SOL    HW223745   4.320   4.640   6.908
 7616SOL     OW23746   6.550   6.315   4.891
 7616SOL    HW123747   6.648   6.321   4.871
 7616SOL    HW223748   6.532   6.233   4.946
 7617SOL     OW23749   3.690   6.377   3.624
 7617SOL    HW123750   3.733   6.426   3.549
 7617SOL    HW223751   3.682   6.437   3.703
 7618SOL     OW23752   0.283   2.440   6.077
 7618SOL    HW123753   0.377   2.469   6.062
 7618SOL    HW223754   0.229   2.457   5.994
 7619SOL     OW23755   6.601   3.063   4.576
 7619SOL    HW123756   6.608   2.966   4.553
 7619SOL    HW223757   6.507   3.093   4.565
 7620SOL     OW23758   4.171   5.636   1.568
 7620SOL    HW123759   4.258   5.677   1.594
 7620SOL    HW223760   4.100   5.667   1.630
 7621SOL     OW23761   7.006   1.198   0.710
 7621SOL    HW123762   0.007   1.209   0.613
 7621SOL    HW223763   6.909   1.219   0.726
 7622SOL     OW23764   4.428   4.600   6.038
 7622SOL    HW123765   4.383   4.555   5.960
 7622SOL    HW223766   4.513   4.552   6.060
 7623SOL     OW23767   4.903   4.098   6.876
 7623SOL    HW123768   4.804   4.091   6.887
 7623SOL    HW223769   4.925   4.183   6.829
 7624SOL     OW23770   6.644   3.693   4.665
 7624SOL    HW123771   6.704   3.628   4.617
 7624SOL    HW223772   6.634   3.776   4.611
 7625SOL     OW23773   5.183   1.006   0.081
 7625SOL    HW123774   5.239   1.004   0.164
 7625SOL    HW223775   5.086   1.003   0.106
 7626SOL     OW23776   6.434   0.173   5.223
 7626SOL    HW123777   6.481   0.189   5.137
 7626SOL    HW223778   6.493   0.121   5.285
 7627SOL     OW23779   4.218   3.277   0.523
 7627SOL    HW123780   4.235   3.182   0.547
 7627SOL    HW223781   4.257   3.297   0.433
 7628SOL     OW23782   3.405   2.816   1.834
 7628SOL    HW123783   3.490   2.809   1.782
 7628SOL    HW223784   3.377   2.912   1.838
 7629SOL     OW23785   6.926   4.914   3.836
 7629SOL    HW123786   6.944   4.824   3.876
 7629SOL    HW223787   6.929   4.908   3.736
 7630SOL     OW23788   0.859   0.481   0.620
 7630SOL    HW123789   0.915   0.504   0.699
 7630SOL    HW223790   0.890   0.395   0.580
 7631SOL     OW23791   1.227   2.337   5.566
 7631SOL    HW123792   1.205   2.259   5.624
 7631SOL    HW223793   1.143   2.386   5.542
 7632SOL     OW23794   4.952   4.091   0.744
 7632SOL    HW123795   4.990   4.181   0.766
 7632SOL    HW223796   5.014   4.042   0.683
 7633SOL     OW23797   5.403   0.445   1.899
 7633SOL    HW123798   5.307   0.421   1.884
 7633SOL    HW223799   5.411   0.543   1.913
 7634SOL     OW23800   2.182   1.375   2.119
 7634SOL    HW123801   2.185   1.452   2.183
 7634SOL    HW223802   2.182   1.290   2.170
 7635SOL     OW23803   3.358   4.966   5.144
 7635SOL    HW123804   3.409   5.002   5.066
 7635SOL    HW223805   3.278   4.916   5.112
 7636SOL     OW23806   1.411   3.051   4.214
 7636SOL    HW123807   1.481   3.122   4.208
 7636SOL    HW223808   1.328   3.089   4.255
 7637SOL     OW23809   2.719   6.270   2.386
 7637SOL    HW123810   2.733   6.289   2.289
 7637SOL    HW223811   2.798   6.301   2.438
 7638SOL     OW23812   2.193   5.426   1.684
 7638SOL    HW123813   2.094   5.423   1.670
 7638SOL    HW223814   2.231   5.504   1.635
 7639SOL     OW23815   0.729   1.087   0.886
 7639SOL    HW123816   0.686   1.088   0.795
 7639SOL    HW223817   0.713   1.174   0.931
 7640SOL     OW23818   2.660   1.391   5.885
 7640SOL    HW123819   2.723   1.422   5.814
 7640SOL    HW223820   2.644   1.292   5.874
 7641SOL     OW23821   1.082   3.396   2.651
 7641SOL    HW123822   1.077   3.417   2.554
 7641SOL    HW223823   0.996   3.353   2.680
 7642SOL     OW23824   3.350   1.670   2.700
 7642SOL    HW123825   3.356   1.753   2.755
 7642SOL    HW223826   3.366   1.692   2.604
 7643SOL     OW23827   5.294   2.214   3.156
 7643SOL    HW123828   5.226   2.214   3.229
 7643SOL    HW223829   5.266   2.278   3.084
 7644SOL     OW23830   4.531   2.378   1.971
 7644SOL    HW123831   4.581   2.297   2.001
 7644SOL    HW223832   4.594   2.441   1.925
 7645SOL     OW23833   5.280   3.644   5.652
 7645SOL    HW123834   5.185   3.677   5.652
 7645SOL    HW223835   5.327   3.677   5.734
 7646SOL     OW23836   1.524   2.854   4.378
 7646SOL    HW123837   1.449   2.790   4.396
 7646SOL    HW223838   1.493   2.924   4.314
 7647SOL     OW23839   6.789   2.381   3.854
 7647SOL    HW123840   6.871   2.368   3.910
 7647SOL    HW223841   6.710   2.395   3.912
 7648SOL     OW23842   2.437   1.736   2.471
 7648SOL    HW123843   2.428   1.729   2.371
 7648SOL    HW223844   2.421   1.831   2.499
 7649SOL     OW23845   1.137   0.926   3.769
 7649SOL    HW123846   1.171   0.984   3.843
 7649SOL    HW223847   1.196   0.845   3.761
 7650SOL     OW23848   5.670   0.434   0.215
 7650SOL    HW123849   5.690   0.435   0.313
 7650SOL    HW223850   5.756   0.434   0.164
 7651SOL     OW23851   2.025   0.655   4.398
 7651SOL    HW123852   2.111   0.678   4.352
 7651SOL    HW223853   2.019   0.555   4.408
 7652SOL     OW23854   5.736   2.628   4.599
 7652SOL    HW123855   5.650   2.679   4.599
 7652SOL    HW223856   5.786   2.647   4.515
 7653SOL     OW23857   0.574   1.945   0.152
 7653SOL    HW123858   0.627   1.981   0.075
 7653SOL    HW223859   0.622   1.866   0.191
 7654SOL     OW23860   5.007   2.790   4.290
 7654SOL    HW123861   4.910   2.801   4.312
 7654SOL    HW223862   5.029   2.692   4.287
 7655SOL     OW23863   4.419   6.473   3.749
 7655SOL    HW123864   4.412   6.374   3.733
 7655SOL    HW223865   4.353   6.520   3.690
 7656SOL     OW23866   4.035   3.954   6.979
 7656SOL    HW123867   4.057   3.900   0.041
 7656SOL    HW223868   4.072   3.908   6.898
 7657SOL     OW23869   1.410   2.113   3.330
 7657SOL    HW123870   1.329   2.168   3.309
 7657SOL    HW223871   1.390   2.017   3.310
 7658SOL     OW23872   2.977   0.207   0.089
 7658SOL    HW123873   3.076   0.195   0.088
 7658SOL    HW223874   2.939   0.175   0.002
 7659SOL     OW23875   5.254   4.769   6.567
 7659SOL    HW123876   5.343   4.728   6.549
 7659SOL    HW223877   5.233   4.761   6.665
 7660SOL     OW23878   0.057   5.620   3.638
 7660SOL    HW123879   6.984   5.627   3.600
 7660SOL    HW223880   0.120   5.588   3.566
 7661SOL     OW23881   5.571   2.166   5.340
 7661SOL    HW123882   5.647   2.112   5.378
 7661SOL    HW223883   5.580   2.169   5.240
 7662SOL     OW23884   1.287   3.316   4.417
 7662SOL    HW123885   1.341   3.260   4.479
 7662SOL    HW223886   1.309   3.413   4.431
 7663SOL     OW23887   6.047   4.872   6.061
 7663SOL    HW123888   6.050   4.922   6.147
 7663SOL    HW223889   5.969   4.810   6.060
 7664SOL     OW23890   4.290   0.626   1.840
 7664SOL    HW123891   4.243   0.558   1.897
 7664SOL    HW223892   4.231   0.706   1.830
 7665SOL     OW23893   6.180   0.682   5.078
 7665SOL    HW123894   6.137   0.676   5.168
 7665SOL    HW223895   6.186   0.778   5.049
 7666SOL     OW23896   0.471   4.748   2.444
 7666SOL    HW123897   0.548   4.743   2.507
 7666SOL    HW223898   0.460   4.661   2.396
 7667SOL     OW23899   3.903   0.322   2.509
 7667SOL    HW123900   3.908   0.422   2.514
 7667SOL    HW223901   3.968   0.282   2.574
 7668SOL     OW23902   2.848   5.306   0.529
 7668SOL    HW123903   2.862   5.405   0.527
 7668SOL    HW223904   2.934   5.260   0.510
 7669SOL     OW23905   4.801   1.136   5.285
 7669SOL    HW123906   4.862   1.056   5.279
 7669SOL    HW223907   4.782   1.171   5.193
 7670SOL     OW23908   0.528   5.259   0.748
 7670SOL    HW123909   0.491   5.173   0.713
 7670SOL    HW223910   0.580   5.304   0.675
 7671SOL     OW23911   3.736   1.232   2.273
 7671SOL    HW123912   3.776   1.156   2.324
 7671SOL    HW223913   3.810   1.292   2.240
 7672SOL     OW23914   0.342   5.839   3.107
 7672SOL    HW123915   0.318   5.934   3.128
 7672SOL    HW223916   0.399   5.837   3.025
 7673SOL     OW23917   2.195   6.121   1.788
 7673SOL    HW123918   2.112   6.141   1.839
 7673SOL    HW223919   2.250   6.054   1.838
 7674SOL     OW23920   5.344   1.469   3.963
 7674SOL    HW123921   5.414   1.442   3.897
 7674SOL    HW223922   5.254   1.463   3.920
 7675SOL     OW23923   5.946   6.473   3.245
 7675SOL    HW123924   5.995   6.554   3.212
 7675SOL    HW223925   5.971   6.394   3.190
 7676SOL     OW23926   2.589   2.195   0.214
 7676SOL    HW123927   2.610   2.114   0.159
 7676SOL    HW223928   2.584   2.169   0.310
 7677SOL     OW23929   0.620   4.195   1.753
 7677SOL    HW123930   0.616   4.165   1.658
 7677SOL    HW223931   0.626   4.115   1.813
 7678SOL     OW23932   2.520   2.759   5.271
 7678SOL    HW123933   2.509   2.689   5.201
 7678SOL    HW223934   2.529   2.848   5.228
 7679SOL     OW23935   2.817   6.505   5.916
 7679SOL    HW123936   2.907   6.497   5.960
 7679SOL    HW223937   2.748   6.460   5.973
 7680SOL     OW23938   1.630   0.940   0.912
 7680SOL    HW123939   1.612   0.965   0.817
 7680SOL    HW223940   1.663   0.845   0.915
 7681SOL     OW23941   2.928   0.384   0.631
 7681SOL    HW123942   2.988   0.407   0.554
 7681SOL    HW223943   2.977   0.325   0.695
 7682SOL     OW23944   4.221   7.015   2.102
 7682SOL    HW123945   4.162   0.038   2.032
 7682SOL    HW223946   4.311   6.997   2.063
 7683SOL     OW23947   0.099   1.537   5.282
 7683SOL    HW123948   0.044   1.609   5.325
 7683SOL    HW223949   0.170   1.578   5.225
 7684SOL     OW23950   4.242   1.512   0.968
 7684SOL    HW123951   4.155   1.554   0.944
 7684SOL    HW223952   4.242   1.489   1.065
 7685SOL     OW23953   2.620   1.674   5.914
 7685SOL    HW123954   2.529   1.662   5.874
 7685SOL    HW223955   2.664   1.584   5.924
 7686SOL     OW23956   6.782   6.597   3.290
 7686SOL    HW123957   6.781   6.516   3.231
 7686SOL    HW223958   6.853   6.588   3.359
 7687SOL     OW23959   6.157   5.497   4.775
 7687SOL    HW123960   6.115   5.409   4.753
 7687SOL    HW223961   6.256   5.488   4.776
 7688SOL     OW23962   0.566   6.011   5.986
 7688SOL    HW123963   0.603   6.088   5.933
 7688SOL    HW223964   0.576   5.927   5.933
 7689SOL     OW23965   6.043   6.679   2.698
 7689SOL    HW123966   6.020   6.749   2.765
 7689SOL    HW223967   5.988   6.692   2.616
 7690SOL     OW23968   5.938   5.095   6.806
 7690SOL    HW123969   5.943   5.045   6.893
 7690SOL    HW223970   5.875   5.172   6.816
 7691SOL     OW23971   5.402   4.167   3.094
 7691SOL    HW123972   5.312   4.134   3.122
 7691SOL    HW223973   5.447   4.098   3.037
 7692SOL     OW23974   0.336   6.551   1.878
 7692SOL    HW123975   0.376   6.627   1.929
 7692SOL    HW223976   0.396   6.526   1.803
 7693SOL     OW23977   3.211   0.831   1.945
 7693SOL    HW123978   3.245   0.774   2.020
 7693SOL    HW223979   3.129   0.879   1.975
 7694SOL     OW23980   5.517   3.898   3.595
 7694SOL    HW123981   5.425   3.920   3.565
 7694SOL    HW223982   5.571   3.866   3.517
 7695SOL     OW23983   4.918   0.499   1.373
 7695SOL    HW123984   4.993   0.451   1.328
 7695SOL    HW223985   4.835   0.488   1.318
 7696SOL     OW23986   0.276   1.472   5.873
 7696SOL    HW123987   0.311   1.379   5.864
 7696SOL    HW223988   0.327   1.520   5.944
 7697SOL     OW23989   3.083   0.021   3.642
 7697SOL    HW123990   3.013   0.041   3.573
 7697SOL    HW223991   3.038   0.007   3.730
 7698SOL     OW23992   5.788   1.552   3.820
 7698SOL    HW123993   5.823   1.527   3.730
 7698SOL    HW223994   5.845   1.510   3.891
 7699SOL     OW23995   2.621   5.783   5.723
 7699SOL    HW123996   2.630   5.871   5.678
 7699SOL    HW223997   2.591   5.714   5.657
 7700SOL     OW23998   4.422   5.528   3.222
 7700SOL    HW123999   4.391   5.433   3.217
 7700SOL    HW224000   4.497   5.535   3.287
 7701SOL     OW24001   6.635   2.568   6.545
 7701SOL    HW124002   6.672   2.634   6.611
 7701SOL    HW224003   6.671   2.477   6.565
 7702SOL     OW24004   4.756   6.221   5.371
 7702SOL    HW124005   4.805   6.300   5.333
 7702SOL    HW224006   4.745   6.152   5.300
 7703SOL     OW24007   5.781   5.781   6.399
 7703SOL    HW124008   5.729   5.842   6.340
 7703SOL    HW224009   5.879   5.793   6.381
 7704SOL     OW24010   5.990   0.519   3.704
 7704SOL    HW124011   6.055   0.582   3.747
 7704SOL    HW224012   5.932   0.570   3.641
 7705SOL     OW24013   2.684   5.827   0.891
 7705SOL    HW124014   2.640   5.877   0.817
 7705SOL    HW224015   2.780   5.810   0.868
 7706SOL     OW24016   3.610   3.162   4.172
 7706SOL    HW124017   3.640   3.112   4.091
 7706SOL    HW224018   3.512   3.149   4.185
 7707SOL     OW24019   0.040   3.917   5.986
 7707SOL    HW124020   0.004   3.836   6.033
 7707SOL    HW224021   6.983   3.966   5.941
 7708SOL     OW24022   1.247   6.628   5.484
 7708SOL    HW124023   1.147   6.620   5.475
 7708SOL    HW224024   1.273   6.617   5.579
 7709SOL     OW24025   6.922   4.921   1.851
 7709SOL    HW124026   6.829   4.946   1.823
 7709SOL    HW224027   6.989   4.964   1.790
 7710SOL     OW24028   2.252   2.410   0.340
 7710SOL    HW124029   2.324   2.456   0.392
 7710SOL    HW224030   2.172   2.470   0.334
 7711SOL     OW24031   6.100   5.710   5.991
 7711SOL    HW124032   6.148   5.769   6.056
 7711SOL    HW224033   6.002   5.731   5.992
 7712SOL     OW24034   6.242   5.162   0.924
 7712SOL    HW124035   6.342   5.168   0.928
 7712SOL    HW224036   6.203   5.251   0.949
 7713SOL     OW24037   1.464   4.260   0.658
 7713SOL    HW124038   1.516   4.320   0.719
 7713SOL    HW224039   1.524   4.186   0.627
 7714SOL     OW24040   6.949   5.017   5.664
 7714SOL    HW124041   0.011   4.982   5.713
 7714SOL    HW224042   6.964   5.009   5.566
 7715SOL     OW24043   2.665   2.348   6.803
 7715SOL    HW124044   2.629   2.385   6.889
 7715SOL    HW224045   2.619   2.393   6.726
 7716SOL     OW24046   7.018   4.337   0.797
 7716SOL    HW124047   0.019   4.244   0.828
 7716SOL    HW224048   0.010   4.342   0.698
 7717SOL     OW24049   0.929   1.145   5.487
 7717SOL    HW124050   0.882   1.216   5.435
 7717SOL    HW224051   1.006   1.185   5.536
 7718SOL     OW24052   6.794   3.739   3.069
 7718SOL    HW124053   6.795   3.822   3.125
 7718SOL    HW224054   6.749   3.666   3.120
 7719SOL     OW24055   0.102   4.249   4.896
 7719SOL    HW124056   0.094   4.344   4.929
 7719SOL    HW224057   0.166   4.199   4.955
 7720SOL     OW24058   6.137   2.429   6.562
 7720SOL    HW124059   6.128   2.412   6.660
 7720SOL    HW224060   6.201   2.505   6.547
 7721SOL     OW24061   0.511   5.395   2.167
 7721SOL    HW124062   0.550   5.325   2.109
 7721SOL    HW224063   0.508   5.482   2.118
 7722SOL     OW24064   1.623   4.185   3.906
 7722SOL    HW124065   1.639   4.144   3.816
 7722SOL    HW224066   1.696   4.250   3.927
 7723SOL     OW24067   3.889   3.385   6.899
 7723SOL    HW124068   3.945   3.350   6.824
 7723SOL    HW224069   3.792   3.373   6.877
 7724SOL     OW24070   2.871   4.117   1.055
 7724SOL    HW124071   2.887   4.093   1.151
 7724SOL    HW224072   2.902   4.042   0.996
 7725SOL     OW24073   6.167   1.371   2.510
 7725SOL    HW124074   6.097   1.329   2.452
 7725SOL    HW224075   6.228   1.300   2.545
 7726SOL     OW24076   1.816   4.920   6.005
 7726SOL    HW124077   1.915   4.918   5.987
 7726SOL    HW224078   1.768   4.874   5.931
 7727SOL     OW24079   7.015   2.605   2.143
 7727SOL    HW124080   0.007   2.654   2.057
 7727SOL    HW224081   6.924   2.622   2.180
 7728SOL     OW24082   2.178   2.827   5.123
 7728SOL    HW124083   2.206   2.849   5.216
 7728SOL    HW224084   2.251   2.852   5.059
 7729SOL     OW24085   6.012   1.395   1.629
 7729SOL    HW124086   6.023   1.449   1.546
 7729SOL    HW224087   6.046   1.446   1.707
 7730SOL     OW24088   6.599   4.886   6.021
 7730SOL    HW124089   6.580   4.800   6.069
 7730SOL    HW224090   6.519   4.945   6.026
 7731SOL     OW24091   5.887   0.105   0.067
 7731SOL    HW124092   5.900   0.043   7.009
 7731SOL    HW224093   5.971   0.158   0.082
 7732SOL     OW24094   3.931   0.139   0.418
 7732SOL    HW124095   3.833   0.155   0.406
 7732SOL    HW224096   3.975   0.130   0.329
 7733SOL     OW24097   5.194   6.075   2.075
 7733SOL    HW124098   5.110   6.086   2.128
 7733SOL    HW224099   5.241   6.162   2.067
 7734SOL     OW24100   1.622   4.864   4.738
 7734SOL    HW124101   1.643   4.851   4.835
 7734SOL    HW224102   1.704   4.850   4.683
 7735SOL     OW24103   4.827   6.194   6.444
 7735SOL    HW124104   4.876   6.108   6.458
 7735SOL    HW224105   4.890   6.271   6.453
 7736SOL     OW24106   2.356   3.215   0.055
 7736SOL    HW124107   2.280   3.277   0.033
 7736SOL    HW224108   2.438   3.269   0.075
 7737SOL     OW24109   3.278   0.566   2.758
 7737SOL    HW124110   3.265   0.664   2.747
 7737SOL    HW224111   3.376   0.545   2.756
 7738SOL     OW24112   3.122   5.374   0.275
 7738SOL    HW124113   3.058   5.346   0.204
 7738SOL    HW224114   3.115   5.473   0.290
 7739SOL     OW24115   0.814   2.408   1.871
 7739SOL    HW124116   0.771   2.324   1.838
 7739SOL    HW224117   0.844   2.464   1.793
 7740SOL     OW24118   2.965   0.938   3.079
 7740SOL    HW124119   2.926   0.982   2.998
 7740SOL    HW224120   3.051   0.983   3.103
 7741SOL     OW24121   0.348   4.615   4.994
 7741SOL    HW124122   0.405   4.624   4.912
 7741SOL    HW224123   0.397   4.653   5.072
 7742SOL     OW24124   4.437   2.404   3.010
 7742SOL    HW124125   4.474   2.488   2.971
 7742SOL    HW224126   4.390   2.352   2.939
 7743SOL     OW24127   4.449   1.538   6.979
 7743SOL    HW124128   4.480   1.450   7.016
 7743SOL    HW224129   4.475   1.611   0.023
 7744SOL     OW24130   1.037   0.583   4.164
 7744SOL    HW124131   1.092   0.666   4.175
 7744SOL    HW224132   1.066   0.535   4.081
 7745SOL     OW24133   3.592   0.995   0.055
 7745SOL    HW124134   3.531   1.065   0.017
 7745SOL    HW224135   3.547   0.906   0.051
 7746SOL     OW24136   0.851   0.689   0.452
 7746SOL    HW124137   0.771   0.745   0.474
 7746SOL    HW224138   0.858   0.613   0.516
 7747SOL     OW24139   6.155   6.368   0.955
 7747SOL    HW124140   6.129   6.271   0.958
 7747SOL    HW224141   6.126   6.408   0.868
 7748SOL     OW24142   3.138   3.708   4.048
 7748SOL    HW124143   3.067   3.764   4.091
 7748SOL    HW224144   3.110   3.612   4.050
 7749SOL     OW24145   3.334   3.261   5.119
 7749SOL    HW124146   3.248   3.213   5.100
 7749SOL    HW224147   3.365   3.239   5.211
 7750SOL     OW24148   7.016   5.913   0.113
 7750SOL    HW124149   0.019   5.884   0.020
 7750SOL    HW224150   0.072   5.890   0.175
 7751SOL     OW24151   1.333   2.652   2.607
 7751SOL    HW124152   1.295   2.655   2.514
 7751SOL    HW224153   1.258   2.647   2.673
 7752SOL     OW24154   5.750   6.409   5.808
 7752SOL    HW124155   5.675   6.348   5.837
 7752SOL    HW224156   5.714   6.477   5.744
 7753SOL     OW24157   2.272   0.559   4.078
 7753SOL    HW124158   2.276   0.655   4.051
 7753SOL    HW224159   2.349   0.510   4.037
 7754SOL     OW24160   4.816   6.919   2.064
 7754SOL    HW124161   4.913   6.940   2.059
 7754SOL    HW224162   4.804   6.821   2.084
 7755SOL     OW24163   1.446   2.361   6.003
 7755SOL    HW124164   1.460   2.357   5.904
 7755SOL    HW224165   1.487   2.280   6.045
 7756SOL     OW24166   3.391   5.251   2.491
 7756SOL    HW124167   3.470   5.194   2.514
 7756SOL    HW224168   3.372   5.243   2.393
 7757SOL     OW24169   5.709   5.332   4.835
 7757SOL    HW124170   5.622   5.308   4.878
 7757SOL    HW224171   5.783   5.322   4.902
 7758SOL     OW24172   1.086   1.851   0.264
 7758SOL    HW124173   1.078   1.753   0.245
 7758SOL    HW224174   1.044   1.903   0.189
 7759SOL     OW24175   0.992   1.996   5.387
 7759SOL    HW124176   0.921   2.005   5.316
 7759SOL    HW224177   1.022   1.900   5.391
 7760SOL     OW24178   5.657   3.431   2.825
 7760SOL    HW124179   5.734   3.481   2.865
 7760SOL    HW224180   5.637   3.350   2.880
 7761SOL     OW24181   1.164   6.961   6.184
 7761SOL    HW124182   1.229   6.886   6.195
 7761SOL    HW224183   1.098   6.938   6.112
 7762SOL     OW24184   4.518   0.356   3.978
 7762SOL    HW124185   4.570   0.434   4.011
 7762SOL    HW224186   4.562   0.318   3.896
 7763SOL     OW24187   1.114   1.559   0.310
 7763SOL    HW124188   1.101   1.462   0.293
 7763SOL    HW224189   1.182   1.572   0.382
 7764SOL     OW24190   3.736   2.930   3.309
 7764SOL    HW124191   3.800   2.923   3.386
 7764SOL    HW224192   3.646   2.899   3.338
 7765SOL     OW24193   6.251   2.151   3.800
 7765SOL    HW124194   6.281   2.080   3.735
 7765SOL    HW224195   6.161   2.127   3.836
 7766SOL     OW24196   5.402   2.365   6.587
 7766SOL    HW124197   5.364   2.453   6.561
 7766SOL    HW224198   5.327   2.301   6.606
 7767SOL     OW24199   4.258   6.600   3.983
 7767SOL    HW124200   4.278   6.587   3.886
 7767SOL    HW224201   4.344   6.595   4.035
 7768SOL     OW24202   4.144   4.791   2.502
 7768SOL    HW124203   4.075   4.795   2.574
 7768SOL    HW224204   4.102   4.760   2.417
 7769SOL     OW24205   4.835   3.033   2.534
 7769SOL    HW124206   4.851   3.086   2.451
 7769SOL    HW224207   4.807   3.094   2.608
 7770SOL     OW24208   1.528   4.184   2.086
 7770SOL    HW124209   1.466   4.248   2.040
 7770SOL    HW224210   1.505   4.179   2.183
 7771SOL     OW24211   3.038   2.057   5.158
 7771SOL    HW124212   3.090   2.123   5.105
 7771SOL    HW224213   2.986   2.104   5.229
 7772SOL     OW24214   5.359   0.579   2.517
 7772SOL    HW124215   5.399   0.509   2.576
 7772SOL    HW224216   5.402   0.667   2.535
 7773SOL     OW24217   2.683   5.738   4.528
 7773SOL    HW124218   2.666   5.774   4.436
 7773SOL    HW224219   2.759   5.674   4.525
 7774SOL     OW24220   5.320   1.730   5.901
 7774SOL    HW124221   5.291   1.668   5.973
 7774SOL    HW224222   5.327   1.680   5.815
 7775SOL     OW24223   4.531   6.417   2.372
 7775SOL    HW124224   4.587   6.379   2.446
 7775SOL    HW224225   4.449   6.361   2.360
 7776SOL     OW24226   1.604   4.841   0.420
 7776SOL    HW124227   1.655   4.756   0.404
 7776SOL    HW224228   1.629   4.879   0.509
 7777SOL     OW24229   1.224   0.723   4.749
 7777SOL    HW124230   1.251   0.693   4.840
 7777SOL    HW224231   1.156   0.660   4.711
 7778SOL     OW24232   4.999   4.553   0.520
 7778SOL    HW124233   5.032   4.575   0.428
 7778SOL    HW224234   5.038   4.617   0.585
 7779SOL     OW24235   3.007   2.544   0.952
 7779SOL    HW124236   2.914   2.570   0.980
 7779SOL    HW224237   3.049   2.490   1.025
 7780SOL     OW24238   0.566   5.296   5.438
 7780SOL    HW124239   0.542   5.258   5.349
 7780SOL    HW224240   0.528   5.238   5.511
 7781SOL     OW24241   1.243   4.926   0.322
 7781SOL    HW124242   1.284   4.941   0.412
 7781SOL    HW224243   1.214   5.013   0.283
 7782SOL     OW24244   0.085   4.581   4.722
 7782SOL    HW124245   0.132   4.657   4.677
 7782SOL    HW224246   7.008   4.606   4.737
 7783SOL     OW24247   0.958   5.757   4.465
 7783SOL    HW124248   1.002   5.669   4.481
 7783SOL    HW224249   1.026   5.830   4.473
 7784SOL     OW24250   2.926   3.213   1.246
 7784SOL    HW124251   3.023   3.188   1.254
 7784SOL    HW224252   2.918   3.297   1.193
 7785SOL     OW24253   1.417   6.306   3.797
 7785SOL    HW124254   1.405   6.313   3.698
 7785SOL    HW224255   1.358   6.234   3.833
 7786SOL     OW24256   3.102   6.572   6.712
 7786SOL    HW124257   3.035   6.606   6.646
 7786SOL    HW224258   3.169   6.515   6.665
 7787SOL     OW24259   2.541   2.873   6.133
 7787SOL    HW124260   2.597   2.922   6.200
 7787SOL    HW224261   2.601   2.827   6.067
 7788SOL     OW24262   2.192   5.210   1.491
 7788SOL    HW124263   2.177   5.308   1.505
 7788SOL    HW224264   2.123   5.174   1.428
 7789SOL     OW24265   2.123   6.645   6.472
 7789SOL    HW124266   2.077   6.690   6.548
 7789SOL    HW224267   2.167   6.561   6.505
 7790SOL     OW24268   5.148   4.968   3.181
 7790SOL    HW124269   5.187   4.876   3.180
 7790SOL    HW224270   5.211   5.030   3.227
 7791SOL     OW24271   2.453   6.074   3.630
 7791SOL    HW124272   2.507   6.156   3.650
 7791SOL    HW224273   2.484   5.999   3.689
 7792SOL     OW24274   1.710   4.691   5.314
 7792SOL    HW124275   1.697   4.768   5.376
 7792SOL    HW224276   1.623   4.668   5.270
 7793SOL     OW24277   3.088   0.771   0.057
 7793SOL    HW124278   3.013   0.812   0.108
 7793SOL    HW224279   3.160   0.742   0.120
 7794SOL     OW24280   5.749   4.878   3.122
 7794SOL    HW124281   5.837   4.837   3.147
 7794SOL    HW224282   5.745   4.972   3.156
 7795SOL     OW24283   2.302   3.685   5.376
 7795SOL    HW124284   2.319   3.781   5.400
 7795SOL    HW224285   2.356   3.626   5.436
 7796SOL     OW24286   3.751   4.078   3.528
 7796SOL    HW124287   3.773   4.042   3.619
 7796SOL    HW224288   3.825   4.057   3.465
 7797SOL     OW24289   1.459   6.960   2.776
 7797SOL    HW124290   1.435   0.010   2.844
 7797SOL    HW224291   1.474   7.004   2.688
 7798SOL     OW24292   2.245   4.410   5.794
 7798SOL    HW124293   2.213   4.407   5.699
 7798SOL    HW224294   2.318   4.343   5.807
 7799SOL     OW24295   1.118   6.089   2.246
 7799SOL    HW124296   1.209   6.053   2.225
 7799SOL    HW224297   1.090   6.061   2.338
 7800SOL     OW24298   1.130   5.505   1.061
 7800SOL    HW124299   1.072   5.532   0.984
 7800SOL    HW224300   1.152   5.408   1.054
 7801SOL     OW24301   2.375   1.748   1.805
 7801SOL    HW124302   2.457   1.700   1.838
 7801SOL    HW224303   2.294   1.694   1.826
 7802SOL     OW24304   5.714   2.334   0.758
 7802SOL    HW124305   5.635   2.371   0.806
 7802SOL    HW224306   5.789   2.400   0.762
 7803SOL     OW24307   4.625   1.465   6.319
 7803SOL    HW124308   4.587   1.531   6.255
 7803SOL    HW224309   4.551   1.420   6.369
 7804SOL     OW24310   4.767   2.139   4.417
 7804SOL    HW124311   4.825   2.178   4.489
 7804SOL    HW224312   4.821   2.076   4.361
 7805SOL     OW24313   5.102   2.076   1.046
 7805SOL    HW124314   5.004   2.072   1.068
 7805SOL    HW224315   5.144   1.988   1.067
 7806SOL     OW24316   5.726   2.109   6.506
 7806SOL    HW124317   5.761   2.031   6.454
 7806SOL    HW224318   5.776   2.191   6.481
 7807SOL     OW24319   1.008   4.664   5.188
 7807SOL    HW124320   1.043   4.624   5.103
 7807SOL    HW224321   0.962   4.593   5.241
 7808SOL     OW24322   6.189   2.931   4.017
 7808SOL    HW124323   6.194   2.959   4.113
 7808SOL    HW224324   6.108   2.872   4.004
 7809SOL     OW24325   2.073   5.429   4.115
 7809SOL    HW124326   1.980   5.437   4.079
 7809SOL    HW224327   2.108   5.338   4.097
 7810SOL     OW24328   3.636   0.746   4.618
 7810SOL    HW124329   3.597   0.834   4.592
 7810SOL    HW224330   3.735   0.757   4.633
 7811SOL     OW24331   1.295   5.378   2.692
 7811SOL    HW124332   1.330   5.287   2.715
 7811SOL    HW224333   1.284   5.431   2.776
 7812SOL     OW24334   1.087   1.985   3.889
 7812SOL    HW124335   1.112   1.936   3.806
 7812SOL    HW224336   1.134   2.073   3.892
 7813SOL     OW24337   4.428   2.678   0.108
 7813SOL    HW124338   4.445   2.580   0.121
 7813SOL    HW224339   4.333   2.691   0.080
 7814SOL     OW24340   6.828   3.092   3.131
 7814SOL    HW124341   6.861   3.019   3.071
 7814SOL    HW224342   6.835   3.063   3.226
 7815SOL     OW24343   5.342   0.706   5.340
 7815SOL    HW124344   5.305   0.716   5.433
 7815SOL    HW224345   5.412   0.776   5.325
 7816SOL     OW24346   1.363   2.520   6.258
 7816SOL    HW124347   1.328   2.434   6.295
 7816SOL    HW224348   1.310   2.546   6.178
 7817SOL     OW24349   5.635   4.999   2.878
 7817SOL    HW124350   5.630   5.069   2.949
 7817SOL    HW224351   5.673   4.915   2.917
 7818SOL     OW24352   4.425   0.850   2.295
 7818SOL    HW124353   4.342   0.907   2.299
 7818SOL    HW224354   4.454   0.828   2.388
 7819SOL     OW24355   6.928   3.680   1.771
 7819SOL    HW124356   7.014   3.630   1.761
 7819SOL    HW224357   6.864   3.626   1.826
 7820SOL     OW24358   1.682   2.741   5.555
 7820SOL    HW124359   1.686   2.764   5.457
 7820SOL    HW224360   1.724   2.815   5.608
 7821SOL     OW24361   5.524   6.070   0.505
 7821SOL    HW124362   5.587   6.146   0.520
 7821SOL    HW224363   5.475   6.084   0.419
 7822SOL     OW24364   1.367   1.548   6.174
 7822SOL    HW124365   1.443   1.513   6.118
 7822SOL    HW224366   1.402   1.571   6.265
 7823SOL     OW24367   2.726   3.821   5.254
 7823SOL    HW124368   2.786   3.873   5.315
 7823SOL    HW224369   2.655   3.883   5.218
 7824SOL     OW24370   6.230   0.499   3.916
 7824SOL    HW124371   6.175   0.510   3.999
 7824SOL    HW224372   6.209   0.573   3.853
 7825SOL     OW24373   1.527   2.560   1.249
 7825SOL    HW124374   1.509   2.558   1.347
 7825SOL    HW224375   1.557   2.470   1.219
 7826SOL     OW24376   6.319   1.639   1.266
 7826SOL    HW124377   6.243   1.600   1.214
 7826SOL    HW224378   6.370   1.702   1.208
 7827SOL     OW24379   2.345   5.717   0.890
 7827SOL    HW124380   2.421   5.688   0.948
 7827SOL    HW224381   2.352   5.674   0.801
 7828SOL     OW24382   0.792   4.178   6.432
 7828SOL    HW124383   0.784   4.163   6.334
 7828SOL    HW224384   0.821   4.273   6.449
 7829SOL     OW24385   2.770   4.195   1.459
 7829SOL    HW124386   2.680   4.166   1.426
 7829SOL    HW224387   2.770   4.196   1.559
 7830SOL     OW24388   2.774   4.770   5.221
 7830SOL    HW124389   2.720   4.812   5.148
 7830SOL    HW224390   2.834   4.700   5.183
 7831SOL     OW24391   2.243   6.958   1.133
 7831SOL    HW124392   2.322   6.935   1.077
 7831SOL    HW224393   2.165   6.978   1.074
 7832SOL     OW24394   5.518   1.130   3.254
 7832SOL    HW124395   5.555   1.210   3.300
 7832SOL    HW224396   5.592   1.066   3.235
 7833SOL     OW24397   1.036   1.080   6.458
 7833SOL    HW124398   1.104   1.149   6.433
 7833SOL    HW224399   0.957   1.125   6.500
 7834SOL     OW24400   6.885   1.511   3.812
 7834SOL    HW124401   6.903   1.571   3.734
 7834SOL    HW224402   6.839   1.428   3.780
 7835SOL     OW24403   3.371   1.925   5.581
 7835SOL    HW124404   3.351   1.988   5.656
 7835SOL    HW224405   3.441   1.966   5.521
 7836SOL     OW24406   3.327   2.778   5.145
 7836SOL    HW124407   3.237   2.783   5.187
 7836SOL    HW224408   3.388   2.725   5.204
 7837SOL     OW24409   5.880   5.357   6.871
 7837SOL    HW124410   5.879   5.457   6.865
 7837SOL    HW224411   5.875   5.329   6.967
 7838SOL     OW24412   4.007   0.355   0.583
 7838SOL    HW124413   4.106   0.357   0.577
 7838SOL    HW224414   3.972   0.273   0.538
 7839SOL     OW24415   6.024   4.109   4.990
 7839SOL    HW124416   6.061   4.201   4.975
 7839SOL    HW224417   5.944   4.114   5.049
 7840SOL     OW24418   6.394   2.373   3.768
 7840SOL    HW124419   6.343   2.289   3.782
 7840SOL    HW224420   6.361   2.444   3.830
 7841SOL     OW24421   3.452   2.024   6.251
 7841SOL    HW124422   3.462   1.926   6.262
 7841SOL    HW224423   3.493   2.071   6.330
 7842SOL     OW24424   2.423   1.960   2.708
 7842SOL    HW124425   2.441   1.891   2.777
 7842SOL    HW224426   2.361   2.030   2.745
 7843SOL     OW24427   0.265   6.079   3.237
 7843SOL    HW124428   0.275   6.172   3.271
 7843SOL    HW224429   0.182   6.038   3.275
 7844SOL     OW24430   3.638   6.961   3.082
 7844SOL    HW124431   3.678   7.005   3.001
 7844SOL    HW224432   3.591   0.011   3.138
 7845SOL     OW24433   5.679   2.326   2.626
 7845SOL    HW124434   5.658   2.262   2.700
 7845SOL    HW224435   5.760   2.379   2.650
 7846SOL     OW24436   0.639   1.274   2.419
 7846SOL    HW124437   0.706   1.215   2.464
 7846SOL    HW224438   0.652   1.270   2.320
 7847SOL     OW24439   6.652   1.553   3.207
 7847SOL    HW124440   6.561   1.581   3.176
 7847SOL    HW224441   6.696   1.631   3.252
 7848SOL     OW24442   3.364   3.992   0.562
 7848SOL    HW124443   3.352   3.913   0.502
 7848SOL    HW224444   3.288   3.997   0.627
 7849SOL     OW24445   6.475   4.225   4.180
 7849SOL    HW124446   6.451   4.320   4.160
 7849SOL    HW224447   6.461   4.207   4.277
 7850SOL     OW24448   0.549   1.700   4.511
 7850SOL    HW124449   0.645   1.701   4.539
 7850SOL    HW224450   0.538   1.757   4.429
 7851SOL     OW24451   6.424   1.224   1.836
 7851SOL    HW124452   6.464   1.230   1.745
 7851SOL    HW224453   6.470   1.288   1.898
 7852SOL     OW24454   2.723   1.385   6.323
 7852SOL    HW124455   2.799   1.386   6.388
 7852SOL    HW224456   2.668   1.468   6.334
 7853SOL     OW24457   5.139   2.433   1.981
 7853SOL    HW124458   5.059   2.470   2.028
 7853SOL    HW224459   5.188   2.371   2.042
 7854SOL     OW24460   3.492   3.272   6.596
 7854SOL    HW124461   3.465   3.368   6.588
 7854SOL    HW224462   3.422   3.222   6.647
 7855SOL     OW24463   4.838   6.528   4.642
 7855SOL    HW124464   4.842   6.627   4.632
 7855SOL    HW224465   4.927   6.488   4.617
 7856SOL     OW24466   6.681   5.223   5.072
 7856SOL    HW124467   6.597   5.190   5.028
 7856SOL    HW224468   6.740   5.145   5.093
 7857SOL     OW24469   4.951   2.210   6.632
 7857SOL    HW124470   4.960   2.178   6.727
 7857SOL    HW224471   4.901   2.297   6.631
 7858SOL     OW24472   6.138   6.510   3.784
 7858SOL    HW124473   6.161   6.413   3.788
 7858SOL    HW224474   6.082   6.528   3.703
 7859SOL     OW24475   3.944   2.628   6.426
 7859SOL    HW124476   3.863   2.647   6.483
 7859SOL    HW224477   3.937   2.678   6.340
 7860SOL     OW24478   3.595   0.996   3.020
 7860SOL    HW124479   3.639   1.004   2.931
 7860SOL    HW224480   3.535   1.075   3.035
 7861SOL     OW24481   3.754   4.893   1.708
 7861SOL    HW124482   3.723   4.829   1.778
 7861SOL    HW224483   3.715   4.867   1.619
 7862SOL     OW24484   1.969   4.549   2.056
 7862SOL    HW124485   1.904   4.473   2.060
 7862SOL    HW224486   2.059   4.517   2.086
 7863SOL     OW24487   0.281   4.491   4.526
 7863SOL    HW124488   0.293   4.404   4.478
 7863SOL    HW224489   0.201   4.485   4.585
 7864SOL     OW24490   0.582   5.657   5.152
 7864SOL    HW124491   0.519   5.603   5.207
 7864SOL    HW224492   0.674   5.618   5.158
 7865SOL     OW24493   6.437   6.373   3.627
 7865SOL    HW124494   6.484   6.334   3.548
 7865SOL    HW224495   6.359   6.315   3.651
 7866SOL     OW24496   1.365   1.498   5.860
 7866SOL    HW124497   1.353   1.467   5.766
 7866SOL    HW224498   1.378   1.597   5.860
 7867SOL     OW24499   6.151   6.021   3.601
 7867SOL    HW124500   6.218   5.952   3.575
 7867SOL    HW224501   6.081   5.981   3.659
 7868SOL     OW24502   4.687   6.286   1.307
 7868SOL    HW124503   4.689   6.311   1.210
 7868SOL    HW224504   4.650   6.193   1.316
 7869SOL     OW24505   5.642   3.629   0.040
 7869SOL    HW124506   5.600   3.689   6.991
 7869SOL    HW224507   5.605   3.537   0.032
 7870SOL     OW24508   4.505   5.021   3.987
 7870SOL    HW124509   4.489   5.118   3.973
 7870SOL    HW224510   4.421   4.977   4.017
 7871SOL     OW24511   4.952   1.909   2.348
 7871SOL    HW124512   4.952   1.827   2.291
 7871SOL    HW224513   4.868   1.961   2.332
 7872SOL     OW24514   1.726   3.691   3.171
 7872SOL    HW124515   1.667   3.610   3.172
 7872SOL    HW224516   1.756   3.710   3.078
 7873SOL     OW24517   5.991   6.509   6.280
 7873SOL    HW124518   6.052   6.432   6.298
 7873SOL    HW224519   5.899   6.476   6.261
 7874SOL     OW24520   5.266   2.079   6.983
 7874SOL    HW124521   5.250   2.011   0.036
 7874SOL    HW224522   5.250   2.037   6.894
 7875SOL     OW24523   4.081   2.920   6.513
 7875SOL    HW124524   4.075   2.826   6.547
 7875SOL    HW224525   4.110   2.980   6.588
 7876SOL     OW24526   1.336   6.988   3.914
 7876SOL    HW124527   1.389   0.054   3.909
 7876SOL    HW224528   1.388   6.919   3.965
 7877SOL     OW24529   0.940   1.889   2.744
 7877SOL    HW124530   0.863   1.826   2.733
 7877SOL    HW224531   1.025   1.842   2.724
 7878SOL     OW24532   5.196   4.368   4.951
 7878SOL    HW124533   5.104   4.390   4.920
 7878SOL    HW224534   5.202   4.381   5.050
 7879SOL     OW24535   4.172   5.638   3.613
 7879SOL    HW124536   4.265   5.670   3.633
 7879SOL    HW224537   4.159   5.633   3.514
 7880SOL     OW24538   1.833   5.265   1.049
 7880SOL    HW124539   1.757   5.241   1.110
 7880SOL    HW224540   1.895   5.187   1.042
 7881SOL     OW24541   6.524   5.111   4.863
 7881SOL    HW124542   6.533   5.022   4.906
 7881SOL    HW224543   6.487   5.101   4.771
 7882SOL     OW24544   1.411   2.987   2.161
 7882SOL    HW124545   1.321   2.947   2.183
 7882SOL    HW224546   1.411   3.019   2.066
 7883SOL     OW24547   1.224   0.483   0.615
 7883SOL    HW124548   1.314   0.525   0.608
 7883SOL    HW224549   1.179   0.485   0.526
 7884SOL     OW24550   2.061   3.725   4.709
 7884SOL    HW124551   2.064   3.758   4.615
 7884SOL    HW224552   2.099   3.633   4.713
 7885SOL     OW24553   6.295   5.328   1.328
 7885SOL    HW124554   6.350   5.245   1.336
 7885SOL    HW224555   6.291   5.356   1.232
 7886SOL     OW24556   3.605   5.342   6.992
 7886SOL    HW124557   3.592   5.262   6.934
 7886SOL    HW224558   3.527   5.352   0.034
 7887SOL     OW24559   3.400   2.161   5.740
 7887SOL    HW124560   3.471   2.100   5.775
 7887SOL    HW224561   3.443   2.236   5.689
 7888SOL     OW24562   6.580   0.006   5.381
 7888SOL    HW124563   6.675   7.004   5.359
 7888SOL    HW224564   6.532   6.941   5.406
 7889SOL     OW24565   1.569   4.877   1.193
 7889SOL    HW124566   1.525   4.904   1.279
 7889SOL    HW224567   1.593   4.780   1.198
 7890SOL     OW24568   1.833   2.713   2.833
 7890SOL    HW124569   1.887   2.790   2.868
 7890SOL    HW224570   1.832   2.717   2.733
 7891SOL     OW24571   1.818   3.349   3.776
 7891SOL    HW124572   1.884   3.416   3.810
 7891SOL    HW224573   1.800   3.281   3.847
 7892SOL     OW24574   1.767   0.740   3.877
 7892SOL    HW124575   1.765   0.642   3.899
 7892SOL    HW224576   1.862   0.768   3.859
 7893SOL     OW24577   6.875   6.094   2.695
 7893SOL    HW124578   6.819   6.127   2.618
 7893SOL    HW224579   6.966   6.070   2.662
 7894SOL     OW24580   3.360   6.965   0.775
 7894SOL    HW124581   3.444   6.910   0.771
 7894SOL    HW224582   3.364   0.009   0.853
 7895SOL     OW24583   6.333   0.557   5.562
 7895SOL    HW124584   6.393   0.485   5.526
 7895SOL    HW224585   6.385   0.619   5.620
 7896SOL     OW24586   5.020   4.246   0.431
 7896SOL    HW124587   5.092   4.315   0.438
 7896SOL    HW224588   4.992   4.237   0.336
 7897SOL     OW24589   2.447   4.050   0.168
 7897SOL    HW124590   2.494   4.000   0.241
 7897SOL    HW224591   2.514   4.082   0.102
 7898SOL     OW24592   4.571   2.023   3.413
 7898SOL    HW124593   4.647   1.958   3.414
 7898SOL    HW224594   4.576   2.079   3.330
 7899SOL     OW24595   5.477   1.078   1.425
 7899SOL    HW124596   5.440   1.095   1.517
 7899SOL    HW224597   5.546   1.147   1.404
 7900SOL     OW24598   1.486   5.143   1.553
 7900SOL    HW124599   1.515   5.237   1.571
 7900SOL    HW224600   1.391   5.132   1.580
 7901SOL     OW24601   4.769   1.620   6.774
 7901SOL    HW124602   4.784   1.522   6.792
 7901SOL    HW224603   4.709   1.630   6.694
 7902SOL     OW24604   5.162   6.497   1.377
 7902SOL    HW124605   5.216   6.414   1.387
 7902SOL    HW224606   5.172   6.554   1.459
 7903SOL     OW24607   5.563   1.320   0.859
 7903SOL    HW124608   5.536   1.271   0.776
 7903SOL    HW224609   5.500   1.396   0.875
 7904SOL     OW24610   5.626   6.404   3.663
 7904SOL    HW124611   5.647   6.499   3.686
 7904SOL    HW224612   5.671   6.343   3.727
 7905SOL     OW24613   4.451   2.407   0.169
 7905SOL    HW124614   4.548   2.404   0.196
 7905SOL    HW224615   4.407   2.321   0.196
 7906SOL     OW24616   6.894   5.922   0.641
 7906SOL    HW124617   6.986   5.928   0.603
 7906SOL    HW224618   6.828   5.949   0.571
 7907SOL     OW24619   5.350   2.808   3.189
 7907SOL    HW124620   5.252   2.827   3.181
 7907SOL    HW224621   5.363   2.717   3.228
 7908SOL     OW24622   0.605   1.865   5.518
 7908SOL    HW124623   0.524   1.829   5.472
 7908SOL    HW224624   0.676   1.795   5.518
 7909SOL     OW24625   5.415   3.475   4.760
 7909SOL    HW124626   5.379   3.451   4.850
 7909SOL    HW224627   5.515   3.477   4.764
 7910SOL     OW24628   2.720   3.611   5.877
 7910SOL    HW124629   2.801   3.631   5.823
 7910SOL    HW224630   2.639   3.616   5.819
 7911SOL     OW24631   1.353   3.077   6.964
 7911SOL    HW124632   1.390   3.170   6.957
 7911SOL    HW224633   1.327   3.045   6.873
 7912SOL     OW24634   6.682   4.836   0.105
 7912SOL    HW124635   6.749   4.879   0.165
 7912SOL    HW224636   6.704   4.858   0.010
 7913SOL     OW24637   1.807   4.847   1.289
 7913SOL    HW124638   1.863   4.904   1.229
 7913SOL    HW224639   1.711   4.854   1.260
 7914SOL     OW24640   6.920   4.069   0.098
 7914SOL    HW124641   6.959   4.161   0.091
 7914SOL    HW224642   6.843   4.062   0.035
 7915SOL     OW24643   4.877   3.036   2.261
 7915SOL    HW124644   4.954   2.972   2.260
 7915SOL    HW224645   4.823   3.025   2.177
 7916SOL     OW24646   0.679   3.969   5.196
 7916SOL    HW124647   0.670   4.055   5.146
 7916SOL    HW224648   0.757   3.974   5.258
 7917SOL     OW24649   3.464   4.142   4.411
 7917SOL    HW124650   3.505   4.133   4.502
 7917SOL    HW224651   3.371   4.106   4.412
 7918SOL     OW24652   6.919   1.633   6.445
 7918SOL    HW124653   6.972   1.686   6.511
 7918SOL    HW224654   6.880   1.695   6.376
 7919SOL     OW24655   2.315   4.296   2.251
 7919SOL    HW124656   2.354   4.204   2.263
 7919SOL    HW224657   2.230   4.304   2.303
 7920SOL     OW24658   0.338   5.555   0.795
 7920SOL    HW124659   0.325   5.640   0.846
 7920SOL    HW224660   0.366   5.576   0.701
 7921SOL     OW24661   4.745   6.437   1.093
 7921SOL    HW124662   4.798   6.434   1.008
 7921SOL    HW224663   4.648   6.422   1.072
 7922SOL     OW24664   6.605   6.640   6.997
 7922SOL    HW124665   6.650   6.688   0.053
 7922SOL    HW224666   6.508   6.626   0.001
 7923SOL     OW24667   3.322   0.642   2.128
 7923SOL    HW124668   3.310   0.547   2.159
 7923SOL    HW224669   3.410   0.677   2.162
 7924SOL     OW24670   4.100   6.927   1.638
 7924SOL    HW124671   4.010   6.899   1.604
 7924SOL    HW224672   4.090   6.970   1.728
 7925SOL     OW24673   0.828   1.948   6.308
 7925SOL    HW124674   0.886   1.891   6.366
 7925SOL    HW224675   0.865   1.949   6.215
 7926SOL     OW24676   5.039   1.802   5.201
 7926SOL    HW124677   5.111   1.824   5.267
 7926SOL    HW224678   5.076   1.743   5.129
 7927SOL     OW24679   4.136   4.988   3.824
 7927SOL    HW124680   4.180   5.077   3.810
 7927SOL    HW224681   4.184   4.918   3.769
 7928SOL     OW24682   1.130   2.089   4.616
 7928SOL    HW124683   1.188   2.051   4.545
 7928SOL    HW224684   1.141   2.189   4.618
 7929SOL     OW24685   3.997   4.216   5.707
 7929SOL    HW124686   3.976   4.260   5.795
 7929SOL    HW224687   4.076   4.155   5.718
 7930SOL     OW24688   4.199   5.513   4.191
 7930SOL    HW124689   4.233   5.531   4.099
 7930SOL    HW224690   4.213   5.417   4.214
 7931SOL     OW24691   1.289   1.937   5.977
 7931SOL    HW124692   1.372   1.965   6.025
 7931SOL    HW224693   1.311   1.866   5.911
 7932SOL     OW24694   2.136   5.918   6.400
 7932SOL    HW124695   2.220   5.959   6.363
 7932SOL    HW224696   2.106   5.844   6.340
 7933SOL     OW24697   0.302   5.768   6.660
 7933SOL    HW124698   0.325   5.793   6.754
 7933SOL    HW224699   0.254   5.843   6.616
 7934SOL     OW24700   2.618   4.691   0.372
 7934SOL    HW124701   2.718   4.694   0.366
 7934SOL    HW224702   2.584   4.784   0.387
 7935SOL     OW24703   5.400   6.267   0.218
 7935SOL    HW124704   5.373   6.192   0.157
 7935SOL    HW224705   5.320   6.298   0.269
 7936SOL     OW24706   3.909   6.115   2.172
 7936SOL    HW124707   3.964   6.189   2.135
 7936SOL    HW224708   3.953   6.027   2.152
 7937SOL     OW24709   6.459   6.992   3.969
 7937SOL    HW124710   6.507   6.925   4.025
 7937SOL    HW224711   6.371   6.955   3.940
 7938SOL     OW24712   6.326   5.197   5.070
 7938SOL    HW124713   6.389   5.226   4.997
 7938SOL    HW224714   6.246   5.153   5.030
 7939SOL     OW24715   1.315   2.758   5.150
 7939SOL    HW124716   1.275   2.785   5.237
 7939SOL    HW224717   1.407   2.721   5.166
 7940SOL     OW24718   1.962   4.092   2.042
 7940SOL    HW124719   2.022   4.044   2.106
 7940SOL    HW224720   1.911   4.024   1.988
 7941SOL     OW24721   6.493   0.478   0.566
 7941SOL    HW124722   6.511   0.576   0.556
 7941SOL    HW224723   6.551   0.441   0.639
 7942SOL     OW24724   6.644   5.483   2.547
 7942SOL    HW124725   6.623   5.578   2.526
 7942SOL    HW224726   6.592   5.423   2.487
 7943SOL     OW24727   5.567   3.131   0.184
 7943SOL    HW124728   5.599   3.210   0.237
 7943SOL    HW224729   5.542   3.057   0.246
 7944SOL     OW24730   0.873   2.776   1.563
 7944SOL    HW124731   0.913   2.866   1.582
 7944SOL    HW224732   0.858   2.767   1.464
 7945SOL     OW24733   5.755   6.116   1.677
 7945SOL    HW124734   5.790   6.209   1.674
 7945SOL    HW224735   5.830   6.053   1.699
 7946SOL     OW24736   2.353   1.650   5.501
 7946SOL    HW124737   2.369   1.626   5.405
 7946SOL    HW224738   2.388   1.742   5.518
 7947SOL     OW24739   3.611   2.127   6.441
 7947SOL    HW124740   3.639   2.223   6.437
 7947SOL    HW224741   3.668   2.078   6.507
 7948SOL     OW24742   1.104   6.246   0.621
 7948SOL    HW124743   1.076   6.318   0.557
 7948SOL    HW224744   1.128   6.287   0.709
 7949SOL     OW24745   4.827   4.448   4.453
 7949SOL    HW124746   4.767   4.527   4.469
 7949SOL    HW224747   4.905   4.452   4.515
 7950SOL     OW24748   6.276   4.877   4.810
 7950SOL    HW124749   6.211   4.938   4.765
 7950SOL    HW224750   6.243   4.853   4.901
 7951SOL     OW24751   2.047   4.424   1.447
 7951SOL    HW124752   2.053   4.327   1.424
 7951SOL    HW224753   1.952   4.449   1.466
 7952SOL     OW24754   0.694   3.242   6.678
 7952SOL    HW124755   0.601   3.278   6.672
 7952SOL    HW224756   0.730   3.227   6.586
 7953SOL     OW24757   2.014   2.590   3.488
 7953SOL    HW124758   1.969   2.679   3.482
 7953SOL    HW224759   2.033   2.556   3.395
 7954SOL     OW24760   4.734   4.070   5.167
 7954SOL    HW124761   4.754   4.081   5.070
 7954SOL    HW224762   4.787   4.137   5.219
 7955SOL     OW24763   1.213   6.135   6.631
 7955SOL    HW124764   1.151   6.209   6.607
 7955SOL    HW224765   1.279   6.121   6.557
 7956SOL     OW24766   3.407   5.821   2.386
 7956SOL    HW124767   3.451   5.731   2.390
 7956SOL    HW224768   3.313   5.810   2.352
 7957SOL     OW24769   1.174   0.987   1.674
 7957SOL    HW124770   1.226   1.062   1.632
 7957SOL    HW224771   1.094   1.025   1.720
 7958SOL     OW24772   3.355   4.887   4.307
 7958SOL    HW124773   3.454   4.875   4.301
 7958SOL    HW224774   3.320   4.921   4.220
 7959SOL     OW24775   3.956   5.673   0.800
 7959SOL    HW124776   3.886   5.622   0.751
 7959SOL    HW224777   3.914   5.728   0.873
 7960SOL     OW24778   3.710   1.418   0.563
 7960SOL    HW124779   3.785   1.452   0.619
 7960SOL    HW224780   3.627   1.413   0.618
 7961SOL     OW24781   0.614   6.953   1.310
 7961SOL    HW124782   0.555   6.908   1.377
 7961SOL    HW224783   0.609   6.903   1.223
 7962SOL     OW24784   1.636   6.965   6.985
 7962SOL    HW124785   1.551   6.992   6.939
 7962SOL    HW224786   1.637   6.866   6.997
 7963SOL     OW24787   7.018   1.145   3.745
 7963SOL    HW124788   0.067   1.191   3.688
 7963SOL    HW224789   6.984   1.064   3.698
 7964SOL     OW24790   0.572   4.982   3.464
 7964SOL    HW124791   0.638   5.055   3.450
 7964SOL    HW224792   0.498   5.014   3.523
 7965SOL     OW24793   3.454   2.985   6.829
 7965SOL    HW124794   3.519   3.061   6.834
 7965SOL    HW224795   3.436   2.963   6.733
 7966SOL     OW24796   0.682   3.185   5.389
 7966SOL    HW124797   0.595   3.168   5.341
 7966SOL    HW224798   0.664   3.194   5.487
 7967SOL     OW24799   2.680   5.879   4.256
 7967SOL    HW124800   2.620   5.934   4.313
 7967SOL    HW224801   2.699   5.927   4.171
 7968SOL     OW24802   2.356   2.328   2.962
 7968SOL    HW124803   2.391   2.385   2.888
 7968SOL    HW224804   2.431   2.296   3.018
 7969SOL     OW24805   4.325   6.733   1.275
 7969SOL    HW124806   4.409   6.685   1.251
 7969SOL    HW224807   4.322   6.748   1.374
 7970SOL     OW24808   0.654   2.854   3.344
 7970SOL    HW124809   0.611   2.766   3.363
 7970SOL    HW224810   0.739   2.862   3.395
 7971SOL     OW24811   4.476   1.419   0.845
 7971SOL    HW124812   4.551   1.352   0.850
 7971SOL    HW224813   4.423   1.415   0.930
 7972SOL     OW24814   1.444   3.425   1.307
 7972SOL    HW124815   1.422   3.500   1.245
 7972SOL    HW224816   1.541   3.429   1.332
 7973SOL     OW24817   5.267   4.279   3.812
 7973SOL    HW124818   5.231   4.365   3.848
 7973SOL    HW224819   5.363   4.269   3.838
 7974SOL     OW24820   5.915   1.288   5.228
 7974SOL    HW124821   5.825   1.330   5.238
 7974SOL    HW224822   5.978   1.329   5.294
 7975SOL     OW24823   5.718   0.606   2.787
 7975SOL    HW124824   5.760   0.554   2.862
 7975SOL    HW224825   5.626   0.635   2.814
 7976SOL     OW24826   0.598   0.588   6.597
 7976SOL    HW124827   0.540   0.541   6.664
 7976SOL    HW224828   0.661   0.649   6.645
 7977SOL     OW24829   4.953   5.620   1.571
 7977SOL    HW124830   4.882   5.685   1.544
 7977SOL    HW224831   4.912   5.546   1.625
 7978SOL     OW24832   5.366   3.606   6.021
 7978SOL    HW124833   5.269   3.605   5.998
 7978SOL    HW224834   5.376   3.620   6.120
 7979SOL     OW24835   3.230   0.102   5.228
 7979SOL    HW124836   3.279   0.031   5.278
 7979SOL    HW224837   3.264   0.192   5.254
 7980SOL     OW24838   2.791   5.447   6.767
 7980SOL    HW124839   2.746   5.500   6.839
 7980SOL    HW224840   2.764   5.481   6.677
 7981SOL     OW24841   0.558   5.492   1.854
 7981SOL    HW124842   0.526   5.399   1.836
 7981SOL    HW224843   0.483   5.556   1.839
 7982SOL     OW24844   0.196   1.721   0.350
 7982SOL    HW124845   0.189   1.732   0.250
 7982SOL    HW224846   0.231   1.629   0.370
 7983SOL     OW24847   5.563   1.295   2.312
 7983SOL    HW124848   5.546   1.214   2.255
 7983SOL    HW224849   5.567   1.376   2.254
 7984SOL     OW24850   1.548   2.114   1.665
 7984SOL    HW124851   1.565   2.210   1.682
 7984SOL    HW224852   1.633   2.062   1.673
 7985SOL     OW24853   2.294   6.494   3.969
 7985SOL    HW124854   2.298   6.417   3.906
 7985SOL    HW224855   2.264   6.462   4.059
 7986SOL     OW24856   2.918   0.642   6.880
 7986SOL    HW124857   2.958   0.682   6.963
 7986SOL    HW224858   2.976   0.664   6.801
 7987SOL     OW24859   1.351   3.735   0.098
 7987SOL    HW124860   1.375   3.800   0.170
 7987SOL    HW224861   1.291   3.665   0.136
 7988SOL     OW24862   1.557   2.193   3.671
 7988SOL    HW124863   1.588   2.128   3.601
 7988SOL    HW224864   1.533   2.280   3.627
 7989SOL     OW24865   3.504   2.296   5.520
 7989SOL    HW124866   3.586   2.253   5.483
 7989SOL    HW224867   3.431   2.293   5.452
 7990SOL     OW24868   6.816   3.315   3.406
 7990SOL    HW124869   6.806   3.297   3.308
 7990SOL    HW224870   6.872   3.397   3.419
 7991SOL     OW24871   6.466   0.738   3.943
 7991SOL    HW124872   6.384   0.690   3.913
 7991SOL    HW224873   6.492   0.707   4.034
 7992SOL     OW24874   1.022   6.797   1.207
 7992SOL    HW124875   1.081   6.720   1.187
 7992SOL    HW224876   1.078   6.876   1.233
 7993SOL     OW24877   1.378   5.787   6.424
 7993SOL    HW124878   1.445   5.712   6.434
 7993SOL    HW224879   1.292   5.750   6.391
 7994SOL     OW24880   5.169   0.211   2.783
 7994SOL    HW124881   5.072   0.188   2.787
 7994SOL    HW224882   5.193   0.268   2.861
 7995SOL     OW24883   4.348   5.077   3.330
 7995SOL    HW124884   4.424   5.036   3.279
 7995SOL    HW224885   4.262   5.061   3.280
 7996SOL     OW24886   2.753   0.334   4.581
 7996SOL    HW124887   2.779   0.275   4.505
 7996SOL    HW224888   2.784   0.427   4.563
 7997SOL     OW24889   0.420   0.933   1.253
 7997SOL    HW124890   0.380   0.878   1.327
 7997SOL    HW224891   0.486   0.996   1.292
 7998SOL     OW24892   3.606   5.161   0.885
 7998SOL    HW124893   3.691   5.147   0.836
 7998SOL    HW224894   3.590   5.084   0.947
 7999SOL     OW24895   1.363   6.766   6.265
 7999SOL    HW124896   1.425   6.826   6.316
 7999SOL    HW224897   1.406   6.676   6.253
 8000SOL     OW24898   5.360   6.708   0.161
 8000SOL    HW124899   5.448   6.757   0.163
 8000SOL    HW224900   5.377   6.611   0.140
 8001SOL     OW24901   3.589   5.556   0.821
 8001SOL    HW124902   3.622   5.640   0.777
 8001SOL    HW224903   3.526   5.579   0.895
 8002SOL     OW24904   0.884   2.520   5.840
 8002SOL    HW124905   0.897   2.569   5.754
 8002SOL    HW224906   0.848   2.428   5.821
 8003SOL     OW24907   2.934   4.942   2.669
 8003SOL    HW124908   2.882   4.886   2.605
 8003SOL    HW224909   2.876   4.966   2.747
 8004SOL     OW24910   2.048   3.480   3.830
 8004SOL    HW124911   2.031   3.560   3.773
 8004SOL    HW224912   2.099   3.411   3.778
 8005SOL     OW24913   3.507   0.949   2.636
 8005SOL    HW124914   3.484   1.034   2.590
 8005SOL    HW224915   3.445   0.935   2.713
 8006SOL     OW24916   2.263   6.864   6.662
 8006SOL    HW124917   2.264   6.962   6.643
 8006SOL    HW224918   2.324   6.816   6.600
 8007SOL     OW24919   0.235   1.013   3.871
 8007SOL    HW124920   0.314   1.022   3.811
 8007SOL    HW224921   0.212   1.103   3.910
 8008SOL     OW24922   4.513   6.333   5.886
 8008SOL    HW124923   4.462   6.320   5.971
 8008SOL    HW224924   4.452   6.316   5.808
 8009SOL     OW24925   5.926   0.787   2.596
 8009SOL    HW124926   5.932   0.688   2.587
 8009SOL    HW224927   5.908   0.828   2.507
 8010SOL     OW24928   1.057   1.507   0.650
 8010SOL    HW124929   0.961   1.483   0.635
 8010SOL    HW224930   1.089   1.565   0.576
 8011SOL     OW24931   3.230   2.752   1.050
 8011SOL    HW124932   3.268   2.820   1.112
 8011SOL    HW224933   3.238   2.661   1.091
 8012SOL     OW24934   1.926   5.375   1.651
 8012SOL    HW124935   1.866   5.388   1.730
 8012SOL    HW224936   1.920   5.280   1.620
 8013SOL     OW24937   1.322   4.443   3.566
 8013SOL    HW124938   1.362   4.495   3.491
 8013SOL    HW224939   1.377   4.360   3.581
 8014SOL     OW24940   0.876   6.167   5.153
 8014SOL    HW124941   0.809   6.107   5.196
 8014SOL    HW224942   0.898   6.242   5.216
 8015SOL     OW24943   2.652   1.077   0.470
 8015SOL    HW124944   2.567   1.064   0.418
 8015SOL    HW224945   2.717   1.128   0.414
 8016SOL     OW24946   4.683   6.974   6.647
 8016SOL    HW124947   4.757   6.954   6.711
 8016SOL    HW224948   4.595   6.961   6.693
 8017SOL     OW24949   6.765   6.567   0.398
 8017SOL    HW124950   6.852   6.609   0.425
 8017SOL    HW224951   6.691   6.607   0.452
 8018SOL     OW24952   3.154   2.236   6.020
 8018SOL    HW124953   3.063   2.251   6.057
 8018SOL    HW224954   3.158   2.268   5.925
 8019SOL     OW24955   2.238   3.951   6.564
 8019SOL    HW124956   2.203   3.937   6.471
 8019SOL    HW224957   2.337   3.959   6.561
 8020SOL     OW24958   6.144   6.095   0.989
 8020SOL    HW124959   6.214   6.049   0.935
 8020SOL    HW224960   6.056   6.093   0.940
 8021SOL     OW24961   1.371   1.755   1.810
 8021SOL    HW124962   1.364   1.694   1.731
 8021SOL    HW224963   1.335   1.845   1.785
 8022SOL     OW24964   4.660   0.084   2.914
 8022SOL    HW124965   4.632   0.016   2.981
 8022SOL    HW224966   4.665   0.174   2.957
 8023SOL     OW24967   5.960   5.038   3.481
 8023SOL    HW124968   5.872   5.081   3.461
 8023SOL    HW224969   5.949   4.969   3.553
 8024SOL     OW24970   2.947   5.291   0.080
 8024SOL    HW124971   3.011   5.215   0.064
 8024SOL    HW224972   2.965   5.364   0.014
 8025SOL     OW24973   2.263   6.258   6.272
 8025SOL    HW124974   2.237   6.238   6.177
 8025SOL    HW224975   2.315   6.182   6.309
 8026SOL     OW24976   0.901   4.428   6.459
 8026SOL    HW124977   0.920   4.453   6.553
 8026SOL    HW224978   0.966   4.473   6.398
 8027SOL     OW24979   4.164   1.882   5.380
 8027SOL    HW124980   4.099   1.830   5.436
 8027SOL    HW224981   4.191   1.828   5.301
 8028SOL     OW24982   3.036   5.089   4.942
 8028SOL    HW124983   3.013   5.129   5.031
 8028SOL    HW224984   2.976   5.012   4.923
 8029SOL     OW24985   4.831   2.732   0.793
 8029SOL    HW124986   4.740   2.694   0.811
 8029SOL    HW224987   4.835   2.826   0.826
 8030SOL     OW24988   4.523   4.198   7.004
 8030SOL    HW124989   4.521   4.198   6.904
 8030SOL    HW224990   4.446   4.144   0.020
 8031SOL     OW24991   5.065   6.380   2.913
 8031SOL    HW124992   5.010   6.384   2.830
 8031SOL    HW224993   5.162   6.390   2.889
 8032SOL     OW24994   5.406   4.038   5.987
 8032SOL    HW124995   5.488   3.984   5.970
 8032SOL    HW224996   5.375   4.081   5.902
 8033SOL     OW24997   5.071   3.640   6.538
 8033SOL    HW124998   5.028   3.723   6.503
 8033SOL    HW224999   5.079   3.572   6.465
 8034SOL     OW25000   6.372   0.780   4.770
 8034SOL    HW125001   6.417   0.723   4.839
 8034SOL    HW225002   6.441   0.834   4.721
 8035SOL     OW25003   5.085   1.645   4.629
 8035SOL    HW125004   5.044   1.708   4.696
 8035SOL    HW225005   5.162   1.598   4.671
 8036SOL     OW25006   0.551   4.273   2.870
 8036SOL    HW125007   0.475   4.213   2.896
 8036SOL    HW225008   0.554   4.352   2.931
 8037SOL     OW25009   2.308   3.041   1.633
 8037SOL    HW125010   2.225   3.017   1.683
 8037SOL    HW225011   2.299   3.015   1.537
 8038SOL     OW25012   4.738   0.719   3.154
 8038SOL    HW125013   4.765   0.725   3.059
 8038SOL    HW225014   4.707   0.808   3.186
 8039SOL     OW25015   1.049   1.036   4.487
 8039SOL    HW125016   1.007   1.045   4.397
 8039SOL    HW225017   1.058   0.939   4.511
 8040SOL     OW25018   1.470   6.158   0.427
 8040SOL    HW125019   1.524   6.097   0.486
 8040SOL    HW225020   1.388   6.110   0.396
 8041SOL     OW25021   3.080   1.803   2.001
 8041SOL    HW125022   3.047   1.897   2.009
 8041SOL    HW225023   3.162   1.802   1.943
 8042SOL     OW25024   3.725   2.900   3.985
 8042SOL    HW125025   3.677   2.883   3.898
 8042SOL    HW225026   3.819   2.928   3.966
 8043SOL     OW25027   3.933   0.229   2.247
 8043SOL    HW125028   3.920   0.259   2.341
 8043SOL    HW225029   3.873   0.152   2.227
 8044SOL     OW25030   3.727   3.022   0.560
 8044SOL    HW125031   3.823   3.005   0.584
 8044SOL    HW225032   3.721   3.050   0.464
 8045SOL     OW25033   5.178   0.713   1.286
 8045SOL    HW125034   5.135   0.791   1.240
 8045SOL    HW225035   5.167   0.723   1.384
 8046SOL     OW25036   6.587   5.108   0.287
 8046SOL    HW125037   6.559   5.091   0.382
 8046SOL    HW225038   6.625   5.200   0.280
 8047SOL     OW25039   3.634   5.141   4.318
 8047SOL    HW125040   3.707   5.185   4.266
 8047SOL    HW225041   3.545   5.175   4.286
 8048SOL     OW25042   5.772   0.383   5.994
 8048SOL    HW125043   5.705   0.431   5.937
 8048SOL    HW225044   5.785   0.434   6.079
 8049SOL     OW25045   1.138   0.259   0.766
 8049SOL    HW125046   1.210   0.316   0.726
 8049SOL    HW225047   1.101   0.198   0.696
 8050SOL     OW25048   1.346   3.714   2.516
 8050SOL    HW125049   1.433   3.758   2.539
 8050SOL    HW225050   1.332   3.635   2.576
 8051SOL     OW25051   5.023   5.740   3.031
 8051SOL    HW125052   5.108   5.744   3.082
 8051SOL    HW225053   4.963   5.815   3.061
 8052SOL     OW25054   4.790   1.616   2.073
 8052SOL    HW125055   4.792   1.517   2.061
 8052SOL    HW225056   4.850   1.642   2.148
 8053SOL     OW25057   3.151   3.841   3.680
 8053SOL    HW125058   3.245   3.867   3.703
 8053SOL    HW225059   3.125   3.886   3.594
 8054SOL     OW25060   5.076   0.337   4.578
 8054SOL    HW125061   5.165   0.329   4.534
 8054SOL    HW225062   5.052   0.433   4.589
 8055SOL     OW25063   6.704   0.441   5.733
 8055SOL    HW125064   6.775   0.405   5.794
 8055SOL    HW225065   6.620   0.457   5.785
 8056SOL     OW25066   4.265   1.777   4.147
 8056SOL    HW125067   4.189   1.804   4.205
 8056SOL    HW225068   4.231   1.730   4.066
 8057SOL     OW25069   3.284   2.063   2.830
 8057SOL    HW125070   3.229   2.096   2.753
 8057SOL    HW225071   3.224   2.031   2.903
 8058SOL     OW25072   4.501   0.794   2.564
 8058SOL    HW125073   4.599   0.778   2.579
 8058SOL    HW225074   4.458   0.821   2.650
 8059SOL     OW25075   4.550   2.349   4.659
 8059SOL    HW125076   4.532   2.265   4.608
 8059SOL    HW225077   4.556   2.328   4.757
 8060SOL     OW25078   0.775   2.589   4.479
 8060SOL    HW125079   0.786   2.558   4.384
 8060SOL    HW225080   0.743   2.513   4.535
 8061SOL     OW25081   6.694   0.213   1.913
 8061SOL    HW125082   6.637   0.247   1.987
 8061SOL    HW225083   6.722   0.119   1.933
 8062SOL     OW25084   2.936   5.219   4.269
 8062SOL    HW125085   2.967   5.278   4.194
 8062SOL    HW225086   2.850   5.254   4.305
 8063SOL     OW25087   0.834   2.973   0.347
 8063SOL    HW125088   0.838   3.033   0.426
 8063SOL    HW225089   0.767   3.008   0.281
 8064SOL     OW25090   0.193   4.968   0.820
 8064SOL    HW125091   0.159   5.024   0.744
 8064SOL    HW225092   0.293   4.975   0.823
 8065SOL     OW25093   3.787   6.035   4.534
 8065SOL    HW125094   3.772   6.109   4.599
 8065SOL    HW225095   3.844   5.964   4.577
 8066SOL     OW25096   0.977   2.313   6.190
 8066SOL    HW125097   0.988   2.216   6.170
 8066SOL    HW225098   1.024   2.367   6.120
 8067SOL     OW25099   4.935   3.198   1.496
 8067SOL    HW125100   4.850   3.181   1.547
 8067SOL    HW225101   4.993   3.117   1.500
 8068SOL     OW25102   6.178   4.545   0.311
 8068SOL    HW125103   6.268   4.502   0.302
 8068SOL    HW225104   6.106   4.476   0.300
 8069SOL     OW25105   1.958   6.211   1.181
 8069SOL    HW125106   2.043   6.214   1.233
 8069SOL    HW225107   1.880   6.212   1.244
 8070SOL     OW25108   2.750   2.883   0.193
 8070SOL    HW125109   2.669   2.866   0.137
 8070SOL    HW225110   2.781   2.797   0.234
 8071SOL     OW25111   2.908   6.592   4.790
 8071SOL    HW125112   2.840   6.639   4.733
 8071SOL    HW225113   2.982   6.656   4.812
 8072SOL     OW25114   3.336   0.906   6.757
 8072SOL    HW125115   3.382   0.842   6.818
 8072SOL    HW225116   3.334   0.868   6.664
 8073SOL     OW25117   4.039   5.355   6.073
 8073SOL    HW125118   3.976   5.338   5.996
 8073SOL    HW225119   4.092   5.438   6.055
 8074SOL     OW25120   3.074   2.908   0.527
 8074SOL    HW125121   3.014   2.908   0.606
 8074SOL    HW225122   3.170   2.912   0.557
 8075SOL     OW25123   6.419   1.392   0.635
 8075SOL    HW125124   6.448   1.298   0.653
 8075SOL    HW225125   6.437   1.415   0.540
 8076SOL     OW25126   4.880   2.367   5.609
 8076SOL    HW125127   4.942   2.418   5.551
 8076SOL    HW225128   4.814   2.318   5.551
 8077SOL     OW25129   1.568   5.486   2.186
 8077SOL    HW125130   1.555   5.399   2.232
 8077SOL    HW225131   1.516   5.557   2.234
 8078SOL     OW25132   5.640   0.950   1.025
 8078SOL    HW125133   5.622   0.872   1.084
 8078SOL    HW225134   5.634   1.035   1.078
 8079SOL     OW25135   5.105   1.612   3.536
 8079SOL    HW125136   5.088   1.602   3.438
 8079SOL    HW225137   5.202   1.632   3.550
 8080SOL     OW25138   0.008   3.445   0.147
 8080SOL    HW125139   7.013   3.526   0.090
 8080SOL    HW225140   0.024   3.473   0.241
 8081SOL     OW25141   4.853   0.132   4.431
 8081SOL    HW125142   4.938   0.175   4.461
 8081SOL    HW225143   4.780   0.155   4.495
 8082SOL     OW25144   5.680   0.507   2.011
 8082SOL    HW125145   5.716   0.594   1.978
 8082SOL    HW225146   5.602   0.479   1.955
 8083SOL     OW25147   5.699   3.505   2.570
 8083SOL    HW125148   5.670   3.482   2.663
 8083SOL    HW225149   5.625   3.485   2.506
 8084SOL     OW25150   4.997   6.988   0.138
 8084SOL    HW125151   5.018   6.892   0.117
 8084SOL    HW225152   4.943   0.008   0.064
 8085SOL     OW25153   6.354   0.205   2.884
 8085SOL    HW125154   6.317   0.298   2.880
 8085SOL    HW225155   6.307   0.154   2.956
 8086SOL     OW25156   5.001   0.833   3.930
 8086SOL    HW125157   5.020   0.930   3.946
 8086SOL    HW225158   4.932   0.802   3.996
 8087SOL     OW25159   2.429   0.939   1.098
 8087SOL    HW125160   2.416   0.926   1.197
 8087SOL    HW225161   2.511   0.993   1.082
 8088SOL     OW25162   5.737   2.504   1.105
 8088SOL    HW125163   5.774   2.592   1.078
 8088SOL    HW225164   5.649   2.489   1.060
 8089SOL     OW25165   4.951   2.575   0.277
 8089SOL    HW125166   4.868   2.609   0.233
 8089SOL    HW225167   5.027   2.581   0.211
 8090SOL     OW25168   3.860   2.245   6.661
 8090SOL    HW125169   3.808   2.160   6.654
 8090SOL    HW225170   3.958   2.224   6.662
 8091SOL     OW25171   2.249   4.225   6.456
 8091SOL    HW125172   2.166   4.189   6.497
 8091SOL    HW225173   2.307   4.266   6.527
 8092SOL     OW25174   0.347   2.330   5.086
 8092SOL    HW125175   0.253   2.348   5.056
 8092SOL    HW225176   0.374   2.398   5.154
 8093SOL     OW25177   4.741   5.800   2.172
 8093SOL    HW125178   4.828   5.756   2.147
 8093SOL    HW225179   4.692   5.742   2.238
 8094SOL     OW25180   1.507   4.079   4.486
 8094SOL    HW125181   1.500   3.991   4.533
 8094SOL    HW225182   1.465   4.072   4.395
 8095SOL     OW25183   5.790   3.941   4.094
 8095SOL    HW125184   5.822   3.873   4.160
 8095SOL    HW225185   5.836   4.028   4.110
 8096SOL     OW25186   3.295   5.525   3.929
 8096SOL    HW125187   3.367   5.592   3.944
 8096SOL    HW225188   3.224   5.565   3.870
 8097SOL     OW25189   5.148   6.591   3.343
 8097SOL    HW125190   5.088   6.609   3.265
 8097SOL    HW225191   5.100   6.616   3.427
 8098SOL     OW25192   2.082   6.844   3.870
 8098SOL    HW125193   2.105   6.795   3.954
 8098SOL    HW225194   1.996   6.894   3.882
 8099SOL     OW25195   5.290   6.751   4.156
 8099SOL    HW125196   5.328   6.777   4.067
 8099SOL    HW225197   5.340   6.672   4.192
 8100SOL     OW25198   6.940   0.267   6.978
 8100SOL    HW125199   6.936   0.167   6.985
 8100SOL    HW225200   6.993   0.292   6.896
 8101SOL     OW25201   2.022   0.200   3.813
 8101SOL    HW125202   2.068   0.215   3.725
 8101SOL    HW225203   2.043   0.276   3.875
 8102SOL     OW25204   0.699   4.613   4.737
 8102SOL    HW125205   0.607   4.648   4.757
 8102SOL    HW225206   0.760   4.689   4.716
 8103SOL     OW25207   4.498   0.602   0.710
 8103SOL    HW125208   4.541   0.679   0.758
 8103SOL    HW225209   4.463   0.536   0.777
 8104SOL     OW25210   2.456   7.002   6.053
 8104SOL    HW125211   2.531   0.036   6.014
 8104SOL    HW225212   2.487   6.955   6.136
 8105SOL     OW25213   1.734   2.475   3.150
 8105SOL    HW125214   1.724   2.492   3.052
 8105SOL    HW225215   1.830   2.486   3.176
 8106SOL     OW25216   3.022   5.625   3.264
 8106SOL    HW125217   3.038   5.532   3.233
 8106SOL    HW225218   3.093   5.686   3.228
 8107SOL     OW25219   0.937   5.205   4.924
 8107SOL    HW125220   0.866   5.136   4.936
 8107SOL    HW225221   0.973   5.232   5.014
 8108SOL     OW25222   6.031   3.476   4.835
 8108SOL    HW125223   6.108   3.539   4.840
 8108SOL    HW225224   6.005   3.448   4.927
 8109SOL     OW25225   1.252   3.406   4.143
 8109SOL    HW125226   1.154   3.389   4.130
 8109SOL    HW225227   1.278   3.379   4.235
 8110SOL     OW25228   3.525   6.150   0.385
 8110SOL    HW125229   3.538   6.193   0.474
 8110SOL    HW225230   3.578   6.065   0.382
 8111SOL     OW25231   4.429   1.160   5.239
 8111SOL    HW125232   4.442   1.259   5.247
 8111SOL    HW225233   4.426   1.134   5.142
 8112SOL     OW25234   1.927   1.756   4.410
 8112SOL    HW125235   2.015   1.711   4.393
 8112SOL    HW225236   1.868   1.695   4.462
 8113SOL     OW25237   3.262   3.186   0.625
 8113SOL    HW125238   3.235   3.168   0.530
 8113SOL    HW225239   3.274   3.100   0.673
 8114SOL     OW25240   2.413   3.579   1.410
 8114SOL    HW125241   2.431   3.608   1.504
 8114SOL    HW225242   2.342   3.637   1.371
 8115SOL     OW25243   4.189   0.479   1.594
 8115SOL    HW125244   4.100   0.517   1.619
 8115SOL    HW225245   4.261   0.524   1.647
 8116SOL     OW25246   5.183   6.561   5.150
 8116SOL    HW125247   5.269   6.604   5.179
 8116SOL    HW225248   5.108   6.627   5.158
 8117SOL     OW25249   2.597   0.982   4.020
 8117SOL    HW125250   2.541   0.920   3.966
 8117SOL    HW225251   2.540   1.053   4.061
 8118SOL     OW25252   6.397   2.856   5.650
 8118SOL    HW125253   6.385   2.894   5.741
 8118SOL    HW225254   6.481   2.803   5.647
 8119SOL     OW25255   6.607   5.875   5.037
 8119SOL    HW125256   6.560   5.916   4.959
 8119SOL    HW225257   6.563   5.789   5.062
 8120SOL     OW25258   3.612   4.544   6.961
 8120SOL    HW125259   3.567   4.537   6.873
 8120SOL    HW225260   3.698   4.494   6.959
 8121SOL     OW25261   6.838   5.255   2.033
 8121SOL    HW125262   6.873   5.163   2.048
 8121SOL    HW225263   6.908   5.322   2.056
 8122SOL     OW25264   1.445   5.892   2.773
 8122SOL    HW125265   1.390   5.975   2.778
 8122SOL    HW225266   1.501   5.884   2.855
 8123SOL     OW25267   0.065   0.339   6.760
 8123SOL    HW125268   0.066   0.244   6.727
 8123SOL    HW225269   0.144   0.388   6.723
 8124SOL     OW25270   0.004   6.264   0.902
 8124SOL    HW125271   0.102   6.243   0.912
 8124SOL    HW225272   7.012   6.356   0.865
 8125SOL     OW25273   0.872   6.934   3.002
 8125SOL    HW125274   0.849   0.009   3.027
 8125SOL    HW225275   0.923   6.890   3.076
 8126SOL     OW25276   6.277   4.137   2.081
 8126SOL    HW125277   6.277   4.140   1.981
 8126SOL    HW225278   6.250   4.046   2.112
 8127SOL     OW25279   2.773   6.085   0.717
 8127SOL    HW125280   2.684   6.045   0.695
 8127SOL    HW225281   2.845   6.038   0.666
 8128SOL     OW25282   2.584   3.325   1.018
 8128SOL    HW125283   2.629   3.235   1.013
 8128SOL    HW225284   2.607   3.367   1.106
 8129SOL     OW25285   4.150   0.862   5.533
 8129SOL    HW125286   4.184   0.928   5.467
 8129SOL    HW225287   4.228   0.816   5.576
 8130SOL     OW25288   0.223   4.577   6.674
 8130SOL    HW125289   0.263   4.489   6.646
 8130SOL    HW225290   0.130   4.561   6.708
 8131SOL     OW25291   3.515   0.960   0.854
 8131SOL    HW125292   3.560   0.970   0.943
 8131SOL    HW225293   3.430   1.012   0.854
 8132SOL     OW25294   5.506   6.349   6.921
 8132SOL    HW125295   5.535   6.256   6.941
 8132SOL    HW225296   5.517   6.368   6.823
 8133SOL     OW25297   3.482   4.968   1.820
 8133SOL    HW125298   3.516   4.878   1.849
 8133SOL    HW225299   3.558   5.024   1.790
 8134SOL     OW25300   0.803   1.700   4.595
 8134SOL    HW125301   0.855   1.617   4.615
 8134SOL    HW225302   0.812   1.764   4.671
 8135SOL     OW25303   2.414   5.889   1.209
 8135SOL    HW125304   2.350   5.888   1.132
 8135SOL    HW225305   2.467   5.805   1.209
 8136SOL     OW25306   4.830   4.647   2.679
 8136SOL    HW125307   4.822   4.589   2.598
 8136SOL    HW225308   4.917   4.627   2.725
 8137SOL     OW25309   2.551   1.308   4.657
 8137SOL    HW125310   2.502   1.221   4.658
 8137SOL    HW225311   2.485   1.383   4.657
 8138SOL     OW25312   5.689   1.937   0.673
 8138SOL    HW125313   5.692   1.848   0.627
 8138SOL    HW225314   5.618   1.935   0.744
 8139SOL     OW25315   2.120   2.171   3.548
 8139SOL    HW125316   2.192   2.105   3.570
 8139SOL    HW225317   2.050   2.127   3.491
 8140SOL     OW25318   3.637   6.921   0.464
 8140SOL    HW125319   3.677   6.864   0.392
 8140SOL    HW225320   3.675   7.014   0.457
 8141SOL     OW25321   4.282   0.013   5.561
 8141SOL    HW125322   4.358   6.988   5.608
 8141SOL    HW225323   4.202   6.973   5.564
 8142SOL     OW25324   1.779   5.159   0.354
 8142SOL    HW125325   1.772   5.099   0.434
 8142SOL    HW225326   1.875   5.168   0.327
 8143SOL     OW25327   5.602   5.408   0.342
 8143SOL    HW125328   5.595   5.332   0.278
 8143SOL    HW225329   5.510   5.436   0.371
 8144SOL     OW25330   0.548   5.769   5.881
 8144SOL    HW125331   0.460   5.727   5.902
 8144SOL    HW225332   0.574   5.747   5.787
 8145SOL     OW25333   5.277   5.859   0.658
 8145SOL    HW125334   5.201   5.857   0.722
 8145SOL    HW225335   5.352   5.804   0.694
 8146SOL     OW25336   5.445   0.322   5.455
 8146SOL    HW125337   5.524   0.360   5.502
 8146SOL    HW225338   5.421   0.380   5.377
 8147SOL     OW25339   6.149   0.819   0.903
 8147SOL    HW125340   6.127   0.880   0.980
 8147SOL    HW225341   6.139   0.724   0.932
 8148SOL     OW25342   5.154   5.272   0.339
 8148SOL    HW125343   5.226   5.203   0.328
 8148SOL    HW225344   5.066   5.231   0.316
 8149SOL     OW25345   1.702   6.827   3.311
 8149SOL    HW125346   1.619   6.853   3.361
 8149SOL    HW225347   1.710   6.727   3.308
 8150SOL     OW25348   1.210   4.008   0.862
 8150SOL    HW125349   1.180   4.053   0.778
 8150SOL    HW225350   1.205   4.073   0.938
 8151SOL     OW25351   5.719   5.156   3.471
 8151SOL    HW125352   5.717   5.174   3.569
 8151SOL    HW225353   5.739   5.240   3.422
 8152SOL     OW25354   6.178   2.960   3.294
 8152SOL    HW125355   6.137   2.968   3.385
 8152SOL    HW225356   6.109   2.983   3.225
 8153SOL     OW25357   1.353   1.179   3.650
 8153SOL    HW125358   1.440   1.223   3.673
 8153SOL    HW225359   1.363   1.128   3.565
 8154SOL     OW25360   3.792   6.374   2.930
 8154SOL    HW125361   3.808   6.464   2.889
 8154SOL    HW225362   3.879   6.328   2.944
 8155SOL     OW25363   1.485   4.013   2.329
 8155SOL    HW125364   1.492   3.950   2.407
 8155SOL    HW225365   1.511   3.965   2.245
 8156SOL     OW25366   4.673   6.289   0.583
 8156SOL    HW125367   4.676   6.271   0.484
 8156SOL    HW225368   4.647   6.205   0.631
 8157SOL     OW25369   6.376   4.396   6.419
 8157SOL    HW125370   6.381   4.462   6.344
 8157SOL    HW225371   6.288   4.406   6.466
 8158SOL     OW25372   5.324   4.234   0.137
 8158SOL    HW125373   5.343   4.181   0.054
 8158SOL    HW225374   5.384   4.314   0.140
 8159SOL     OW25375   3.264   5.451   4.172
 8159SOL    HW125376   3.216   5.527   4.216
 8159SOL    HW225377   3.296   5.480   4.081
 8160SOL     OW25378   5.174   6.967   3.638
 8160SOL    HW125379   5.090   6.927   3.601
 8160SOL    HW225380   5.190   6.931   3.730
 8161SOL     OW25381   5.782   3.599   6.095
 8161SOL    HW125382   5.768   3.505   6.063
 8161SOL    HW225383   5.812   3.599   6.190
 8162SOL     OW25384   6.746   6.088   6.786
 8162SOL    HW125385   6.655   6.103   6.747
 8162SOL    HW225386   6.736   6.047   6.877
 8163SOL     OW25387   2.337   4.667   5.386
 8163SOL    HW125388   2.393   4.595   5.346
 8163SOL    HW225389   2.294   4.721   5.312
 8164SOL     OW25390   4.298   1.135   0.683
 8164SOL    HW125391   4.313   1.110   0.587
 8164SOL    HW225392   4.378   1.109   0.737
 8165SOL     OW25393   6.608   3.800   5.734
 8165SOL    HW125394   6.544   3.799   5.657
 8165SOL    HW225395   6.556   3.796   5.819
 8166SOL     OW25396   1.229   0.439   3.401
 8166SOL    HW125397   1.176   0.435   3.486
 8166SOL    HW225398   1.319   0.397   3.416
 8167SOL     OW25399   0.172   0.665   3.386
 8167SOL    HW125400   0.268   0.637   3.398
 8167SOL    HW225401   0.141   0.712   3.468
 8168SOL     OW25402   2.807   0.569   1.327
 8168SOL    HW125403   2.740   0.569   1.254
 8168SOL    HW225404   2.864   0.487   1.320
 8169SOL     OW25405   4.797   2.053   0.668
 8169SOL    HW125406   4.884   2.062   0.619
 8169SOL    HW225407   4.798   1.968   0.722
 8170SOL     OW25408   1.126   5.005   1.622
 8170SOL    HW125409   1.065   5.063   1.568
 8170SOL    HW225410   1.171   5.061   1.692
 8171SOL     OW25411   1.713   2.123   6.948
 8171SOL    HW125412   1.798   2.170   6.924
 8171SOL    HW225413   1.641   2.190   6.963
 8172SOL     OW25414   6.974   1.847   1.877
 8172SOL    HW125415   6.913   1.883   1.948
 8172SOL    HW225416   6.951   1.751   1.859
 8173SOL     OW25417   5.736   2.517   2.019
 8173SOL    HW125418   5.733   2.484   1.925
 8173SOL    HW225419   5.830   2.541   2.044
 8174SOL     OW25420   6.886   7.007   2.480
 8174SOL    HW125421   6.957   0.013   2.545
 8174SOL    HW225422   6.797   0.014   2.517
 8175SOL     OW25423   6.987   2.947   4.945
 8175SOL    HW125424   6.887   2.950   4.939
 8175SOL    HW225425   7.015   2.882   5.015
 8176SOL     OW25426   2.761   4.699   1.370
 8176SOL    HW125427   2.777   4.652   1.457
 8176SOL    HW225428   2.808   4.787   1.371
 8177SOL     OW25429   5.219   0.243   3.651
 8177SOL    HW125430   5.157   0.281   3.721
 8177SOL    HW225431   5.222   0.144   3.660
 8178SOL     OW25432   2.808   6.966   0.687
 8178SOL    HW125433   2.906   6.961   0.668
 8178SOL    HW225434   2.778   0.042   0.689
 8179SOL     OW25435   5.455   1.231   5.147
 8179SOL    HW125436   5.481   1.135   5.140
 8179SOL    HW225437   5.379   1.241   5.212
 8180SOL     OW25438   6.222   0.627   6.311
 8180SOL    HW125439   6.182   0.674   6.389
 8180SOL    HW225440   6.303   0.677   6.280
 8181SOL     OW25441   1.313   1.970   0.680
 8181SOL    HW125442   1.258   2.011   0.753
 8181SOL    HW225443   1.270   1.988   0.592
 8182SOL     OW25444   3.252   3.245   5.689
 8182SOL    HW125445   3.334   3.213   5.737
 8182SOL    HW225446   3.280   3.300   5.610
 8183SOL     OW25447   6.945   2.216   4.642
 8183SOL    HW125448   6.919   2.312   4.633
 8183SOL    HW225449   6.909   2.164   4.564
 8184SOL     OW25450   0.391   6.945   0.485
 8184SOL    HW125451   0.337   0.008   0.506
 8184SOL    HW225452   0.488   6.965   0.496
 8185SOL     OW25453   1.422   0.432   6.883
 8185SOL    HW125454   1.373   0.368   6.942
 8185SOL    HW225455   1.510   0.456   6.924
 8186SOL     OW25456   2.870   4.582   5.840
 8186SOL    HW125457   2.863   4.619   5.747
 8186SOL    HW225458   2.866   4.658   5.906
 8187SOL     OW25459   1.960   1.482   4.998
 8187SOL    HW125460   2.033   1.418   4.975
 8187SOL    HW225461   1.912   1.509   4.915
 8188SOL     OW25462   4.905   3.099   3.827
 8188SOL    HW125463   4.976   3.032   3.805
 8188SOL    HW225464   4.876   3.145   3.743
 8189SOL     OW25465   5.298   5.180   2.930
 8189SOL    HW125466   5.205   5.206   2.956
 8189SOL    HW225467   5.295   5.096   2.875
 8190SOL     OW25468   4.887   3.757   4.347
 8190SOL    HW125469   4.887   3.753   4.247
 8190SOL    HW225470   4.911   3.667   4.383
 8191SOL     OW25471   3.565   5.816   2.008
 8191SOL    HW125472   3.601   5.732   2.049
 8191SOL    HW225473   3.554   5.886   2.079
 8192SOL     OW25474   2.508   5.472   1.548
 8192SOL    HW125475   2.468   5.428   1.628
 8192SOL    HW225476   2.608   5.466   1.554
 8193SOL     OW25477   5.937   5.516   5.581
 8193SOL    HW125478   5.974   5.471   5.662
 8193SOL    HW225479   5.859   5.572   5.607
 8194SOL     OW25480   5.024   1.046   1.411
 8194SOL    HW125481   4.963   1.125   1.408
 8194SOL    HW225482   5.052   1.021   1.319
 8195SOL     OW25483   0.871   6.383   3.308
 8195SOL    HW125484   0.834   6.385   3.215
 8195SOL    HW225485   0.799   6.405   3.374
 8196SOL     OW25486   3.853   6.115   6.240
 8196SOL    HW125487   3.792   6.189   6.268
 8196SOL    HW225488   3.938   6.153   6.204
 8197SOL     OW25489   3.212   1.116   0.288
 8197SOL    HW125490   3.139   1.138   0.352
 8197SOL    HW225491   3.255   1.030   0.315
 8198SOL     OW25492   3.329   6.027   2.599
 8198SOL    HW125493   3.397   6.098   2.617
 8198SOL    HW225494   3.369   5.957   2.540
 8199SOL     OW25495   5.717   2.753   6.006
 8199SOL    HW125496   5.815   2.732   6.003
 8199SOL    HW225497   5.671   2.686   6.064
 8200SOL     OW25498   5.727   4.832   1.819
 8200SOL    HW125499   5.661   4.832   1.894
 8200SOL    HW225500   5.694   4.773   1.746
 8201SOL     OW25501   5.765   1.098   4.943
 8201SOL    HW125502   5.843   1.053   4.986
 8201SOL    HW225503   5.793   1.186   4.905
 8202SOL     OW25504   0.273   5.369   3.905
 8202SOL    HW125505   0.211   5.404   3.976
 8202SOL    HW225506   0.353   5.428   3.899
 8203SOL     OW25507   2.870   2.241   6.947
 8203SOL    HW125508   2.961   2.255   6.908
 8203SOL    HW225509   2.803   2.292   6.893
 8204SOL     OW25510   3.871   4.927   0.092
 8204SOL    HW125511   3.945   4.864   0.070
 8204SOL    HW225512   3.785   4.876   0.098
 8205SOL     OW25513   0.292   4.780   0.266
 8205SOL    HW125514   0.377   4.753   0.311
 8205SOL    HW225515   0.277   4.721   0.186
 8206SOL     OW25516   5.080   1.710   6.518
 8206SOL    HW125517   5.088   1.666   6.607
 8206SOL    HW225518   4.994   1.761   6.513
 8207SOL     OW25519   3.070   3.132   4.375
 8207SOL    HW125520   3.008   3.174   4.308
 8207SOL    HW225521   3.142   3.081   4.327
 8208SOL     OW25522   1.203   0.175   1.496
 8208SOL    HW125523   1.263   0.152   1.573
 8208SOL    HW225524   1.228   0.118   1.417
 8209SOL     OW25525   0.637   1.206   5.079
 8209SOL    HW125526   0.544   1.169   5.080
 8209SOL    HW225527   0.689   1.163   5.006
 8210SOL     OW25528   2.026   1.502   0.682
 8210SOL    HW125529   2.046   1.479   0.586
 8210SOL    HW225530   2.087   1.575   0.712
 8211SOL     OW25531   3.865   4.161   1.782
 8211SOL    HW125532   3.808   4.090   1.825
 8211SOL    HW225533   3.818   4.249   1.787
 8212SOL     OW25534   2.177   2.419   2.218
 8212SOL    HW125535   2.122   2.503   2.226
 8212SOL    HW225536   2.193   2.399   2.121
 8213SOL     OW25537   6.864   4.099   1.529
 8213SOL    HW125538   6.871   4.004   1.556
 8213SOL    HW225539   6.807   4.106   1.447
 8214SOL     OW25540   5.675   5.796   3.996
 8214SOL    HW125541   5.582   5.759   3.999
 8214SOL    HW225542   5.717   5.775   3.908
 8215SOL     OW25543   2.740   5.363   6.050
 8215SOL    HW125544   2.764   5.269   6.024
 8215SOL    HW225545   2.653   5.388   6.006
 8216SOL     OW25546   5.045   5.326   3.906
 8216SOL    HW125547   5.119   5.353   3.967
 8216SOL    HW225548   4.984   5.262   3.952
 8217SOL     OW25549   1.644   4.233   0.057
 8217SOL    HW125550   1.739   4.260   0.070
 8217SOL    HW225551   1.600   4.218   0.145
 8218SOL     OW25552   0.476   0.172   5.965
 8218SOL    HW125553   0.531   0.096   5.998
 8218SOL    HW225554   0.390   0.177   6.017
 8219SOL     OW25555   4.466   2.507   0.624
 8219SOL    HW125556   4.446   2.412   0.649
 8219SOL    HW225557   4.545   2.510   0.564
 8220SOL     OW25558   3.496   2.858   3.444
 8220SOL    HW125559   3.459   2.840   3.535
 8220SOL    HW225560   3.424   2.894   3.385
 8221SOL     OW25561   5.724   6.424   3.370
 8221SOL    HW125562   5.815   6.451   3.338
 8221SOL    HW225563   5.729   6.398   3.467
 8222SOL     OW25564   5.878   1.244   1.372
 8222SOL    HW125565   5.794   1.299   1.367
 8222SOL    HW225566   5.930   1.269   1.453
 8223SOL     OW25567   0.603   4.872   5.335
 8223SOL    HW125568   0.591   4.969   5.315
 8223SOL    HW225569   0.648   4.862   5.423
 8224SOL     OW25570   6.358   0.762   2.650
 8224SOL    HW125571   6.344   0.814   2.566
 8224SOL    HW225572   6.295   0.795   2.721
 8225SOL     OW25573   3.147   1.314   0.853
 8225SOL    HW125574   3.091   1.321   0.771
 8225SOL    HW225575   3.214   1.389   0.854
 8226SOL     OW25576   3.955   0.498   0.792
 8226SOL    HW125577   3.995   0.583   0.758
 8226SOL    HW225578   3.954   0.429   0.719
 8227SOL     OW25579   6.970   1.587   2.856
 8227SOL    HW125580   6.995   1.499   2.816
 8227SOL    HW225581   6.954   1.654   2.783
 8228SOL     OW25582   6.601   1.681   5.807
 8228SOL    HW125583   6.602   1.774   5.844
 8228SOL    HW225584   6.509   1.658   5.777
 8229SOL     OW25585   4.538   2.681   0.847
 8229SOL    HW125586   4.509   2.600   0.795
 8229SOL    HW225587   4.475   2.697   0.923
 8230SOL     OW25588   4.187   0.211   5.414
 8230SOL    HW125589   4.254   0.280   5.441
 8230SOL    HW225590   4.212   0.122   5.452
 8231SOL     OW25591   3.084   4.350   0.976
 8231SOL    HW125592   3.000   4.309   1.013
 8231SOL    HW225593   3.076   4.450   0.978
 8232SOL     OW25594   5.144   1.461   1.877
 8232SOL    HW125595   5.225   1.451   1.820
 8232SOL    HW225596   5.077   1.391   1.853
 8233SOL     OW25597   1.675   5.639   5.975
 8233SOL    HW125598   1.758   5.587   5.996
 8233SOL    HW225599   1.700   5.733   5.949
 8234SOL     OW25600   2.565   4.133   6.800
 8234SOL    HW125601   2.485   4.160   6.853
 8234SOL    HW225602   2.536   4.100   6.710
 8235SOL     OW25603   0.407   3.017   0.177
 8235SOL    HW125604   0.355   3.076   0.239
 8235SOL    HW225605   0.349   2.989   0.101
 8236SOL     OW25606   1.118   4.909   0.657
 8236SOL    HW125607   1.193   4.889   0.593
 8236SOL    HW225608   1.045   4.956   0.608
 8237SOL     OW25609   4.045   6.536   4.163
 8237SOL    HW125610   4.047   6.618   4.220
 8237SOL    HW225611   4.113   6.544   4.090
 8238SOL     OW25612   0.517   4.872   6.419
 8238SOL    HW125613   0.443   4.805   6.423
 8238SOL    HW225614   0.567   4.863   6.333
 8239SOL     OW25615   6.514   0.931   6.019
 8239SOL    HW125616   6.481   1.023   5.995
 8239SOL    HW225617   6.598   0.912   5.969
 8240SOL     OW25618   3.462   4.113   2.501
 8240SOL    HW125619   3.430   4.136   2.593
 8240SOL    HW225620   3.548   4.062   2.507
 8241SOL     OW25621   3.956   6.889   5.847
 8241SOL    HW125622   3.955   6.922   5.753
 8241SOL    HW225623   4.037   6.925   5.894
 8242SOL     OW25624   0.557   4.788   5.937
 8242SOL    HW125625   0.458   4.776   5.939
 8242SOL    HW225626   0.596   4.729   5.866
 8243SOL     OW25627   0.263   2.399   0.338
 8243SOL    HW125628   0.242   2.301   0.340
 8243SOL    HW225629   0.323   2.419   0.260
 8244SOL     OW25630   0.276   0.474   4.377
 8244SOL    HW125631   0.314   0.381   4.372
 8244SOL    HW225632   0.176   0.468   4.380
 8245SOL     OW25633   4.318   1.926   2.415
 8245SOL    HW125634   4.351   1.910   2.508
 8245SOL    HW225635   4.362   1.861   2.353
 8246SOL     OW25636   1.084   3.243   5.680
 8246SOL    HW125637   0.984   3.242   5.685
 8246SOL    HW225638   1.118   3.329   5.718
 8247SOL     OW25639   1.975   0.444   2.327
 8247SOL    HW125640   1.936   0.386   2.398
 8247SOL    HW225641   1.955   0.540   2.347
 8248SOL     OW25642   6.427   5.526   4.674
 8248SOL    HW125643   6.379   5.541   4.588
 8248SOL    HW225644   6.489   5.448   4.665
 8249SOL     OW25645   1.787   2.699   6.007
 8249SOL    HW125646   1.726   2.667   6.079
 8249SOL    HW225647   1.740   2.697   5.919
 8250SOL     OW25648   3.180   3.928   1.930
 8250SOL    HW125649   3.204   3.992   2.003
 8250SOL    HW225650   3.262   3.879   1.900
 8251SOL     OW25651   4.944   3.169   4.330
 8251SOL    HW125652   4.958   3.202   4.423
 8251SOL    HW225653   5.020   3.109   4.304
 8252SOL     OW25654   2.865   1.752   4.956
 8252SOL    HW125655   2.887   1.706   4.870
 8252SOL    HW225656   2.864   1.686   5.030
 8253SOL     OW25657   4.095   4.884   5.638
 8253SOL    HW125658   4.138   4.952   5.578
 8253SOL    HW225659   4.063   4.807   5.583
 8254SOL     OW25660   4.546   4.247   5.263
 8254SOL    HW125661   4.577   4.199   5.181
 8254SOL    HW225662   4.469   4.198   5.303
 8255SOL     OW25663   2.146   0.126   5.360
 8255SOL    HW125664   2.047   0.130   5.349
 8255SOL    HW225665   2.188   0.202   5.311
 8256SOL     OW25666   6.471   6.708   1.970
 8256SOL    HW125667   6.433   6.779   1.911
 8256SOL    HW225668   6.537   6.654   1.919
 8257SOL     OW25669   5.061   4.292   3.037
 8257SOL    HW125670   5.081   4.199   3.069
 8257SOL    HW225671   5.138   4.352   3.061
 8258SOL     OW25672   5.466   1.660   1.060
 8258SOL    HW125673   5.536   1.719   1.019
 8258SOL    HW225674   5.490   1.642   1.156
 8259SOL     OW25675   3.772   1.631   4.098
 8259SOL    HW125676   3.773   1.725   4.062
 8259SOL    HW225677   3.765   1.634   4.198
 8260SOL     OW25678   2.095   6.573   0.949
 8260SOL    HW125679   2.052   6.484   0.938
 8260SOL    HW225680   2.096   6.621   0.861
 8261SOL     OW25681   6.194   6.631   2.029
 8261SOL    HW125682   6.163   6.548   1.984
 8261SOL    HW225683   6.276   6.665   1.984
 8262SOL     OW25684   0.747   3.431   0.379
 8262SOL    HW125685   0.797   3.400   0.299
 8262SOL    HW225686   0.663   3.379   0.388
 8263SOL     OW25687   0.508   2.617   6.095
 8263SOL    HW125688   0.483   2.609   5.999
 8263SOL    HW225689   0.433   2.659   6.146
 8264SOL     OW25690   2.409   6.502   2.370
 8264SOL    HW125691   2.481   6.494   2.300
 8264SOL    HW225692   2.427   6.437   2.443
 8265SOL     OW25693   6.424   0.699   1.276
 8265SOL    HW125694   6.336   0.650   1.281
 8265SOL    HW225695   6.489   0.645   1.223
 8266SOL     OW25696   2.450   1.250   3.611
 8266SOL    HW125697   2.509   1.312   3.559
 8266SOL    HW225698   2.506   1.200   3.678
 8267SOL     OW25699   1.877   3.178   1.079
 8267SOL    HW125700   1.883   3.239   1.158
 8267SOL    HW225701   1.795   3.200   1.026
 8268SOL     OW25702   1.733   6.518   5.942
 8268SOL    HW125703   1.662   6.470   5.892
 8268SOL    HW225704   1.792   6.566   5.877
 8269SOL     OW25705   4.564   1.335   2.279
 8269SOL    HW125706   4.542   1.263   2.345
 8269SOL    HW225707   4.480   1.380   2.248
 8270SOL     OW25708   3.044   6.625   5.160
 8270SOL    HW125709   2.945   6.615   5.166
 8270SOL    HW225710   3.078   6.672   5.242
 8271SOL     OW25711   0.630   0.277   3.426
 8271SOL    HW125712   0.629   0.356   3.365
 8271SOL    HW225713   0.573   0.295   3.506
 8272SOL     OW25714   6.062   2.346   2.211
 8272SOL    HW125715   6.020   2.430   2.176
 8272SOL    HW225716   6.134   2.370   2.276
 8273SOL     OW25717   2.114   1.122   0.059
 8273SOL    HW125718   2.036   1.155   0.112
 8273SOL    HW225719   2.182   1.195   0.051
 8274SOL     OW25720   5.120   4.871   4.285
 8274SOL    HW125721   5.108   4.928   4.204
 8274SOL    HW225722   5.216   4.877   4.316
 8275SOL     OW25723   6.229   1.020   5.498
 8275SOL    HW125724   6.138   1.004   5.460
 8275SOL    HW225725   6.282   1.076   5.434
 8276SOL     OW25726   0.788   2.623   3.633
 8276SOL    HW125727   0.735   2.697   3.674
 8276SOL    HW225728   0.833   2.656   3.550
 8277SOL     OW25729   0.315   6.046   6.109
 8277SOL    HW125730   0.392   5.991   6.077
 8277SOL    HW225731   0.257   5.991   6.169
 8278SOL     OW25732   3.193   1.333   6.130
 8278SOL    HW125733   3.143   1.247   6.121
 8278SOL    HW225734   3.130   1.407   6.151
 8279SOL     OW25735   1.543   6.237   4.466
 8279SOL    HW125736   1.448   6.247   4.434
 8279SOL    HW225737   1.586   6.161   4.419
 8280SOL     OW25738   2.219   3.528   0.333
 8280SOL    HW125739   2.233   3.627   0.336
 8280SOL    HW225740   2.307   3.481   0.347
 8281SOL     OW25741   2.991   4.367   1.694
 8281SOL    HW125742   2.938   4.416   1.762
 8281SOL    HW225743   2.969   4.401   1.603
 8282SOL     OW25744   4.521   3.400   6.900
 8282SOL    HW125745   4.524   3.452   6.986
 8282SOL    HW225746   4.614   3.388   6.865
 8283SOL     OW25747   1.939   5.283   5.490
 8283SOL    HW125748   1.849   5.286   5.532
 8283SOL    HW225749   1.941   5.213   5.419
 8284SOL     OW25750   0.712   3.443   1.178
 8284SOL    HW125751   0.802   3.474   1.209
 8284SOL    HW225752   0.695   3.478   1.086
 8285SOL     OW25753   3.208   3.907   4.711
 8285SOL    HW125754   3.270   3.841   4.754
 8285SOL    HW225755   3.140   3.937   4.777
 8286SOL     OW25756   5.578   1.720   5.678
 8286SOL    HW125757   5.540   1.802   5.635
 8286SOL    HW225758   5.574   1.643   5.615
 8287SOL     OW25759   1.412   5.222   4.340
 8287SOL    HW125760   1.470   5.141   4.346
 8287SOL    HW225761   1.375   5.229   4.247
 8288SOL     OW25762   2.987   2.041   1.957
 8288SOL    HW125763   3.055   2.109   1.931
 8288SOL    HW225764   2.908   2.087   1.999
 8289SOL     OW25765   0.620   6.071   0.727
 8289SOL    HW125766   0.686   6.117   0.668
 8289SOL    HW225767   0.634   5.972   0.723
 8290SOL     OW25768   5.139   1.458   1.250
 8290SOL    HW125769   5.120   1.556   1.244
 8290SOL    HW225770   5.233   1.444   1.281
 8291SOL     OW25771   4.794   6.225   4.836
 8291SOL    HW125772   4.890   6.197   4.840
 8291SOL    HW225773   4.788   6.324   4.825
 8292SOL     OW25774   3.118   6.827   6.908
 8292SOL    HW125775   3.157   6.739   6.882
 8292SOL    HW225776   3.162   6.859   6.992
 8293SOL     OW25777   2.553   5.463   0.506
 8293SOL    HW125778   2.627   5.478   0.572
 8293SOL    HW225779   2.567   5.375   0.459
 8294SOL     OW25780   5.560   3.147   5.410
 8294SOL    HW125781   5.526   3.053   5.403
 8294SOL    HW225782   5.660   3.146   5.416
 8295SOL     OW25783   5.043   5.345   1.798
 8295SOL    HW125784   5.114   5.415   1.803
 8295SOL    HW225785   4.954   5.389   1.780
 8296SOL     OW25786   1.614   4.484   6.730
 8296SOL    HW125787   1.586   4.528   6.645
 8296SOL    HW225788   1.535   4.438   6.771
 8297SOL     OW25789   0.083   3.113   2.544
 8297SOL    HW125790   7.019   3.143   2.590
 8297SOL    HW225791   0.124   3.037   2.595
 8298SOL     OW25792   6.071   1.601   1.429
 8298SOL    HW125793   6.162   1.593   1.387
 8298SOL    HW225794   6.025   1.682   1.392
 8299SOL     OW25795   6.919   2.286   2.310
 8299SOL    HW125796   6.974   2.350   2.366
 8299SOL    HW225797   6.909   2.200   2.360
 8300SOL     OW25798   0.384   5.443   4.397
 8300SOL    HW125799   0.436   5.437   4.311
 8300SOL    HW225800   0.447   5.441   4.474
 8301SOL     OW25801   3.555   1.674   1.106
 8301SOL    HW125802   3.606   1.681   1.020
 8301SOL    HW225803   3.462   1.705   1.091
 8302SOL     OW25804   5.761   6.918   6.689
 8302SOL    HW125805   5.793   6.869   6.607
 8302SOL    HW225806   5.839   6.942   6.746
 8303SOL     OW25807   6.174   0.752   3.783
 8303SOL    HW125808   6.165   0.825   3.850
 8303SOL    HW225809   6.220   0.787   3.701
 8304SOL     OW25810   7.004   3.042   1.052
 8304SOL    HW125811   6.948   3.084   0.981
 8304SOL    HW225812   6.970   3.069   1.142
 8305SOL     OW25813   4.680   4.801   4.133
 8305SOL    HW125814   4.625   4.756   4.203
 8305SOL    HW225815   4.630   4.879   4.095
 8306SOL     OW25816   5.796   1.791   5.831
 8306SOL    HW125817   5.712   1.769   5.781
 8306SOL    HW225818   5.864   1.719   5.815
 8307SOL     OW25819   3.357   5.505   1.678
 8307SOL    HW125820   3.402   5.575   1.734
 8307SOL    HW225821   3.313   5.439   1.738
 8308SOL     OW25822   3.349   5.451   1.412
 8308SOL    HW125823   3.345   5.487   1.505
 8308SOL    HW225824   3.258   5.419   1.385
 8309SOL     OW25825   6.663   5.682   3.688
 8309SOL    HW125826   6.586   5.656   3.629
 8309SOL    HW225827   6.704   5.600   3.727
 8310SOL     OW25828   7.014   5.259   1.250
 8310SOL    HW125829   7.009   5.330   1.320
 8310SOL    HW225830   6.988   5.297   1.162
 8311SOL     OW25831   1.114   1.899   4.792
 8311SOL    HW125832   1.146   1.962   4.720
 8311SOL    HW225833   1.167   1.914   4.875
 8312SOL     OW25834   5.092   0.306   6.828
 8312SOL    HW125835   5.110   0.359   6.910
 8312SOL    HW225836   5.153   0.337   6.755
 8313SOL     OW25837   5.384   6.982   0.499
 8313SOL    HW125838   5.337   0.017   0.569
 8313SOL    HW225839   5.317   6.947   0.433
 8314SOL     OW25840   5.094   0.480   0.057
 8314SOL    HW125841   5.085   0.402   0.118
 8314SOL    HW225842   5.115   0.562   0.111
 8315SOL     OW25843   4.177   3.185   1.155
 8315SOL    HW125844   4.080   3.164   1.143
 8315SOL    HW225845   4.210   3.239   1.078
 8316SOL     OW25846   1.297   2.021   1.745
 8316SOL    HW125847   1.230   2.094   1.740
 8316SOL    HW225848   1.389   2.059   1.752
 8317SOL     OW25849   1.725   3.117   2.332
 8317SOL    HW125850   1.697   3.032   2.288
 8317SOL    HW225851   1.747   3.099   2.428
 8318SOL     OW25852   4.452   1.624   5.290
 8318SOL    HW125853   4.405   1.612   5.203
 8318SOL    HW225854   4.468   1.721   5.306
 8319SOL     OW25855   1.895   1.883   0.695
 8319SOL    HW125856   1.930   1.951   0.759
 8319SOL    HW225857   1.887   1.924   0.604
 8320SOL     OW25858   3.040   3.702   2.496
 8320SOL    HW125859   2.986   3.670   2.574
 8320SOL    HW225860   3.063   3.624   2.438
 8321SOL     OW25861   6.948   0.082   6.411
 8321SOL    HW125862   6.940   0.005   6.347
 8321SOL    HW225863   6.967   0.166   6.361
 8322SOL     OW25864   6.516   0.050   1.196
 8322SOL    HW125865   6.457   0.110   1.250
 8322SOL    HW225866   6.500   0.067   1.098
 8323SOL     OW25867   5.062   5.407   2.353
 8323SOL    HW125868   5.059   5.507   2.358
 8323SOL    HW225869   4.996   5.375   2.285
 8324SOL     OW25870   5.592   6.553   0.910
 8324SOL    HW125871   5.620   6.472   0.858
 8324SOL    HW225872   5.670   6.615   0.920
 8325SOL     OW25873   2.536   4.133   5.538
 8325SOL    HW125874   2.599   4.073   5.587
 8325SOL    HW225875   2.463   4.079   5.497
 8326SOL     OW25876   4.995   3.275   5.499
 8326SOL    HW125877   4.951   3.348   5.447
 8326SOL    HW225878   4.977   3.289   5.597
 8327SOL     OW25879   5.890   0.938   6.092
 8327SOL    HW125880   5.855   1.024   6.129
 8327SOL    HW225881   5.986   0.926   6.118
 8328SOL     OW25882   2.662   6.429   6.223
 8328SOL    HW125883   2.568   6.452   6.250
 8328SOL    HW225884   2.663   6.339   6.179
 8329SOL     OW25885   1.400   3.317   5.944
 8329SOL    HW125886   1.450   3.298   5.860
 8329SOL    HW225887   1.310   3.353   5.922
 8330SOL     OW25888   2.480   1.485   6.914
 8330SOL    HW125889   2.565   1.480   6.966
 8330SOL    HW225890   2.443   1.392   6.902
 8331SOL     OW25891   3.018   0.595   1.076
 8331SOL    HW125892   2.984   0.684   1.047
 8331SOL    HW225893   3.069   0.606   1.162
 8332SOL     OW25894   4.729   5.160   2.224
 8332SOL    HW125895   4.775   5.222   2.160
 8332SOL    HW225896   4.652   5.208   2.267
 8333SOL     OW25897   0.179   6.305   6.184
 8333SOL    HW125898   0.248   6.238   6.157
 8333SOL    HW225899   0.094   6.259   6.207
 8334SOL     OW25900   4.069   1.035   4.072
 8334SOL    HW125901   4.047   1.088   4.154
 8334SOL    HW225902   4.011   0.953   4.068
 8335SOL     OW25903   5.077   0.246   0.244
 8335SOL    HW125904   5.051   0.151   0.226
 8335SOL    HW225905   5.036   0.276   0.330
 8336SOL     OW25906   0.175   4.738   3.131
 8336SOL    HW125907   0.234   4.725   3.052
 8336SOL    HW225908   0.199   4.824   3.177
 8337SOL     OW25909   2.606   6.414   2.944
 8337SOL    HW125910   2.662   6.496   2.939
 8337SOL    HW225911   2.665   6.333   2.936
 8338SOL     OW25912   4.172   5.547   1.931
 8338SOL    HW125913   4.131   5.560   1.841
 8338SOL    HW225914   4.141   5.461   1.971
 8339SOL     OW25915   6.323   0.407   1.909
 8339SOL    HW125916   6.382   0.347   1.855
 8339SOL    HW225917   6.349   0.502   1.894
 8340SOL     OW25918   4.600   3.162   1.002
 8340SOL    HW125919   4.558   3.162   1.093
 8340SOL    HW225920   4.562   3.086   0.948
 8341SOL     OW25921   3.024   6.132   0.248
 8341SOL    HW125922   3.101   6.120   0.312
 8341SOL    HW225923   2.950   6.180   0.294
 8342SOL     OW25924   4.056   6.424   0.877
 8342SOL    HW125925   4.101   6.506   0.844
 8342SOL    HW225926   4.002   6.445   0.959
 8343SOL     OW25927   1.874   5.676   5.273
 8343SOL    HW125928   1.911   5.734   5.202
 8343SOL    HW225929   1.847   5.732   5.352
 8344SOL     OW25930   4.499   5.877   4.814
 8344SOL    HW125931   4.525   5.864   4.718
 8344SOL    HW225932   4.482   5.788   4.856
 8345SOL     OW25933   4.575   1.489   2.566
 8345SOL    HW125934   4.556   1.446   2.477
 8345SOL    HW225935   4.493   1.485   2.623
 8346SOL     OW25936   3.345   5.214   0.440
 8346SOL    HW125937   3.278   5.271   0.392
 8346SOL    HW225938   3.348   5.240   0.536
 8347SOL     OW25939   3.363   5.553   4.436
 8347SOL    HW125940   3.300   5.620   4.475
 8347SOL    HW225941   3.372   5.476   4.498
 8348SOL     OW25942   2.445   0.209   2.038
 8348SOL    HW125943   2.397   0.277   1.983
 8348SOL    HW225944   2.417   0.117   2.011
 8349SOL     OW25945   5.902   6.377   1.552
 8349SOL    HW125946   5.819   6.369   1.497
 8349SOL    HW225947   5.932   6.472   1.555
 8350SOL     OW25948   3.731   0.078   6.083
 8350SOL    HW125949   3.789   0.158   6.071
 8350SOL    HW225950   3.651   0.102   6.138
 8351SOL     OW25951   5.309   5.357   4.070
 8351SOL    HW125952   5.340   5.439   4.022
 8351SOL    HW225953   5.278   5.382   4.162
 8352SOL     OW25954   0.680   0.009   3.316
 8352SOL    HW125955   0.623   6.981   3.383
 8352SOL    HW225956   0.680   0.107   3.336
 8353SOL     OW25957   6.763   3.451   1.765
 8353SOL    HW125958   6.795   3.407   1.848
 8353SOL    HW225959   6.828   3.435   1.691
 8354SOL     OW25960   4.350   6.840   5.748
 8354SOL    HW125961   4.448   6.842   5.770
 8354SOL    HW225962   4.327   6.750   5.709
 8355SOL     OW25963   2.662   0.887   5.907
 8355SOL    HW125964   2.606   0.804   5.903
 8355SOL    HW225965   2.615   0.955   5.963
 8356SOL     OW25966   0.770   6.444   0.761
 8356SOL    HW125967   0.804   6.439   0.855
 8356SOL    HW225968   0.817   6.517   0.711
 8357SOL     OW25969   4.049   0.016   4.592
 8357SOL    HW125970   4.044   6.973   4.513
 8357SOL    HW225971   3.956   0.034   4.626
 8358SOL     OW25972   1.072   4.417   5.420
 8358SOL    HW125973   1.000   4.443   5.356
 8358SOL    HW225974   1.136   4.492   5.431
 8359SOL     OW25975   3.187   0.646   5.106
 8359SOL    HW125976   3.175   0.553   5.071
 8359SOL    HW225977   3.098   0.690   5.116
 8360SOL     OW25978   3.729   6.607   0.925
 8360SOL    HW125979   3.724   6.514   0.889
 8360SOL    HW225980   3.688   6.610   1.016
 8361SOL     OW25981   3.017   0.421   2.419
 8361SOL    HW125982   2.964   0.360   2.479
 8361SOL    HW225983   2.959   0.450   2.343
 8362SOL     OW25984   3.889   2.089   0.387
 8362SOL    HW125985   3.907   2.187   0.387
 8362SOL    HW225986   3.822   2.067   0.317
 8363SOL     OW25987   6.737   2.686   6.315
 8363SOL    HW125988   6.819   2.642   6.279
 8363SOL    HW225989   6.720   2.655   6.408
 8364SOL     OW25990   1.455   2.473   3.132
 8364SOL    HW125991   1.549   2.438   3.139
 8364SOL    HW225992   1.418   2.486   3.224
 8365SOL     OW25993   1.819   3.888   1.912
 8365SOL    HW125994   1.833   3.789   1.922
 8365SOL    HW225995   1.852   3.917   1.822
 8366SOL     OW25996   2.087   5.936   1.980
 8366SOL    HW125997   2.181   5.907   1.964
 8366SOL    HW225998   2.033   5.857   2.011
 8367SOL     OW25999   3.971   5.670   4.254
 8367SOL    HW126000   4.008   5.753   4.297
 8367SOL    HW226001   4.046   5.613   4.221
 8368SOL     OW26002   2.061   5.663   6.211
 8368SOL    HW126003   2.009   5.633   6.131
 8368SOL    HW226004   2.027   5.616   6.293
 8369SOL     OW26005   1.459   6.511   6.310
 8369SOL    HW126006   1.459   6.432   6.248
 8369SOL    HW226007   1.553   6.533   6.336
 8370SOL     OW26008   3.093   1.691   5.816
 8370SOL    HW126009   3.063   1.773   5.768
 8370SOL    HW226010   3.013   1.634   5.838
 8371SOL     OW26011   2.170   4.517   1.013
 8371SOL    HW126012   2.207   4.592   1.068
 8371SOL    HW226013   2.235   4.440   1.015
 8372SOL     OW26014   1.187   5.262   2.316
 8372SOL    HW126015   1.108   5.314   2.345
 8372SOL    HW226016   1.270   5.305   2.350
 8373SOL     OW26017   1.532   0.165   3.868
 8373SOL    HW126018   1.517   0.186   3.964
 8373SOL    HW226019   1.613   0.214   3.835
 8374SOL     OW26020   0.096   0.484   5.035
 8374SOL    HW126021   0.153   0.411   5.074
 8374SOL    HW226022   0.002   0.472   5.066
 8375SOL     OW26023   3.472   6.583   5.001
 8375SOL    HW126024   3.528   6.501   5.014
 8375SOL    HW226025   3.376   6.557   4.993
 8376SOL     OW26026   1.291   0.971   4.289
 8376SOL    HW126027   1.299   0.942   4.384
 8376SOL    HW226028   1.276   1.070   4.286
 8377SOL     OW26029   4.731   6.190   0.903
 8377SOL    HW126030   4.716   6.145   0.815
 8377SOL    HW226031   4.781   6.275   0.889
 8378SOL     OW26032   4.344   5.514   2.584
 8378SOL    HW126033   4.316   5.605   2.614
 8378SOL    HW226034   4.427   5.487   2.632
 8379SOL     OW26035   5.667   3.037   1.159
 8379SOL    HW126036   5.667   2.996   1.068
 8379SOL    HW226037   5.573   3.049   1.190
 8380SOL     OW26038   6.730   0.713   2.251
 8380SOL    HW126039   6.633   0.687   2.254
 8380SOL    HW226040   6.753   0.746   2.160
 8381SOL     OW26041   0.013   2.886   5.213
 8381SOL    HW126042   0.063   2.972   5.222
 8381SOL    HW226043   6.962   2.882   5.285
 8382SOL     OW26044   2.958   0.660   3.023
 8382SOL    HW126045   2.959   0.754   3.057
 8382SOL    HW226046   2.876   0.646   2.967
 8383SOL     OW26047   2.714   0.066   5.982
 8383SOL    HW126048   2.748   7.009   5.926
 8383SOL    HW226049   2.790   0.124   6.009
 8384SOL     OW26050   6.170   0.598   1.308
 8384SOL    HW126051   6.160   0.596   1.408
 8384SOL    HW226052   6.080   0.606   1.266
 8385SOL     OW26053   5.886   1.736   0.891
 8385SOL    HW126054   5.965   1.790   0.862
 8385SOL    HW226055   5.893   1.645   0.851
 8386SOL     OW26056   1.991   5.481   2.531
 8386SOL    HW126057   1.897   5.467   2.502
 8386SOL    HW226058   2.028   5.563   2.487
 8387SOL     OW26059   1.588   1.295   2.213
 8387SOL    HW126060   1.520   1.350   2.262
 8387SOL    HW226061   1.680   1.323   2.240
 8388SOL     OW26062   2.507   6.301   0.355
 8388SOL    HW126063   2.470   6.350   0.276
 8388SOL    HW226064   2.438   6.298   0.427
 8389SOL     OW26065   0.516   3.523   2.604
 8389SOL    HW126066   0.434   3.574   2.578
 8389SOL    HW226067   0.490   3.444   2.660
 8390SOL     OW26068   4.369   1.045   6.772
 8390SOL    HW126069   4.355   1.142   6.791
 8390SOL    HW226070   4.287   0.993   6.797
 8391SOL     OW26071   6.402   4.819   0.928
 8391SOL    HW126072   6.319   4.870   0.906
 8391SOL    HW226073   6.395   4.726   0.891
 8392SOL     OW26074   6.348   3.853   4.580
 8392SOL    HW126075   6.394   3.927   4.629
 8392SOL    HW226076   6.316   3.785   4.645
 8393SOL     OW26077   0.513   6.818   3.067
 8393SOL    HW126078   0.524   6.904   3.018
 8393SOL    HW226079   0.588   6.756   3.043
 8394SOL     OW26080   5.952   2.689   1.436
 8394SOL    HW126081   5.966   2.606   1.382
 8394SOL    HW226082   5.857   2.720   1.426
 8395SOL     OW26083   2.431   6.831   5.046
 8395SOL    HW126084   2.402   6.909   5.101
 8395SOL    HW226085   2.522   6.848   5.009
 8396SOL     OW26086   4.761   5.375   2.475
 8396SOL    HW126087   4.838   5.356   2.536
 8396SOL    HW226088   4.778   5.459   2.425
 8397SOL     OW26089   1.688   0.586   2.825
 8397SOL    HW126090   1.597   0.600   2.785
 8397SOL    HW226091   1.744   0.531   2.763
 8398SOL     OW26092   4.082   1.600   6.483
 8398SOL    HW126093   4.090   1.509   6.526
 8398SOL    HW226094   4.171   1.627   6.446
 8399SOL     OW26095   5.899   6.673   6.827
 8399SOL    HW126096   5.886   6.771   6.846
 8399SOL    HW226097   5.974   6.638   6.883
 8400SOL     OW26098   1.922   1.187   4.714
 8400SOL    HW126099   1.845   1.237   4.754
 8400SOL    HW226100   1.898   1.090   4.705
 8401SOL     OW26101   2.107   1.124   5.252
 8401SOL    HW126102   2.168   1.191   5.295
 8401SOL    HW226103   2.084   1.053   5.319
 8402SOL     OW26104   4.658   1.834   5.945
 8402SOL    HW126105   4.726   1.763   5.958
 8402SOL    HW226106   4.703   1.923   5.936
 8403SOL     OW26107   0.467   3.084   4.549
 8403SOL    HW126108   0.565   3.103   4.557
 8403SOL    HW226109   0.427   3.144   4.480
 8404SOL     OW26110   3.718   6.818   5.944
 8404SOL    HW126111   3.802   6.850   5.899
 8404SOL    HW226112   3.691   6.883   6.015
 8405SOL     OW26113   1.837   1.222   5.570
 8405SOL    HW126114   1.873   1.291   5.507
 8405SOL    HW226115   1.817   1.266   5.658
 8406SOL     OW26116   4.458   0.824   0.340
 8406SOL    HW126117   4.490   0.835   0.246
 8406SOL    HW226118   4.531   0.848   0.404
 8407SOL     OW26119   3.551   6.760   3.542
 8407SOL    HW126120   3.630   6.716   3.584
 8407SOL    HW226121   3.485   6.691   3.514
 8408SOL     OW26122   5.944   4.132   1.449
 8408SOL    HW126123   5.914   4.189   1.373
 8408SOL    HW226124   5.921   4.037   1.432
 8409SOL     OW26125   5.506   2.172   2.787
 8409SOL    HW126126   5.548   2.084   2.762
 8409SOL    HW226127   5.527   2.193   2.882
 8410SOL     OW26128   5.522   0.877   1.813
 8410SOL    HW126129   5.480   0.841   1.896
 8410SOL    HW226130   5.504   0.815   1.736
 8411SOL     OW26131   0.940   5.160   0.173
 8411SOL    HW126132   0.889   5.093   0.119
 8411SOL    HW226133   1.004   5.209   0.113
 8412SOL     OW26134   3.411   1.921   1.479
 8412SOL    HW126135   3.390   1.823   1.482
 8412SOL    HW226136   3.382   1.964   1.565
 8413SOL     OW26137   3.735   5.644   6.639
 8413SOL    HW126138   3.664   5.597   6.691
 8413SOL    HW226139   3.720   5.743   6.642
 8414SOL     OW26140   4.169   5.835   4.015
 8414SOL    HW126141   4.072   5.859   4.011
 8414SOL    HW226142   4.217   5.898   4.076
 8415SOL     OW26143   0.022   6.142   3.835
 8415SOL    HW126144   0.064   6.212   3.892
 8415SOL    HW226145   6.954   6.114   3.876
 8416SOL     OW26146   6.279   3.281   2.924
 8416SOL    HW126147   6.330   3.363   2.951
 8416SOL    HW226148   6.342   3.212   2.889
 8417SOL     OW26149   1.116   4.117   5.691
 8417SOL    HW126150   1.200   4.091   5.738
 8417SOL    HW226151   1.059   4.037   5.677
 8418SOL     OW26152   5.494   5.291   0.962
 8418SOL    HW126153   5.413   5.296   1.020
 8418SOL    HW226154   5.513   5.195   0.940
 8419SOL     OW26155   5.631   0.117   1.860
 8419SOL    HW126156   5.669   0.091   1.948
 8419SOL    HW226157   5.634   0.217   1.850
 8420SOL     OW26158   4.547   6.728   0.147
 8420SOL    HW126159   4.465   6.746   0.093
 8420SOL    HW226160   4.521   6.715   0.243
 8421SOL     OW26161   3.048   5.480   6.868
 8421SOL    HW126162   2.956   5.478   6.831
 8421SOL    HW226163   3.092   5.391   6.852
 8422SOL     OW26164   4.388   1.459   1.667
 8422SOL    HW126165   4.387   1.379   1.727
 8422SOL    HW226166   4.452   1.527   1.704
 8423SOL     OW26167   2.833   5.109   5.867
 8423SOL    HW126168   2.887   5.062   5.937
 8423SOL    HW226169   2.818   5.047   5.790
 8424SOL     OW26170   2.057   2.079   2.257
 8424SOL    HW126171   2.018   2.043   2.342
 8424SOL    HW226172   2.121   2.153   2.279
 8425SOL     OW26173   4.803   4.522   6.326
 8425SOL    HW126174   4.848   4.461   6.261
 8425SOL    HW226175   4.782   4.609   6.281
 8426SOL     OW26176   3.681   3.177   3.403
 8426SOL    HW126177   3.581   3.175   3.400
 8426SOL    HW226178   3.717   3.103   3.347
 8427SOL     OW26179   3.365   4.139   4.697
 8427SOL    HW126180   3.300   4.074   4.736
 8427SOL    HW226181   3.319   4.194   4.627
 8428SOL     OW26182   0.592   5.867   1.489
 8428SOL    HW126183   0.502   5.829   1.471
 8428SOL    HW226184   0.662   5.814   1.440
 8429SOL     OW26185   1.110   6.031   4.789
 8429SOL    HW126186   1.093   6.016   4.692
 8429SOL    HW226187   1.165   5.956   4.826
 8430SOL     OW26188   3.749   5.637   3.195
 8430SOL    HW126189   3.679   5.621   3.265
 8430SOL    HW226190   3.805   5.556   3.183
 8431SOL     OW26191   3.281   4.132   1.000
 8431SOL    HW126192   3.360   4.148   0.942
 8431SOL    HW226193   3.216   4.208   0.990
 8432SOL     OW26194   6.014   6.341   5.872
 8432SOL    HW126195   6.072   6.420   5.888
 8432SOL    HW226196   5.919   6.370   5.863
 8433SOL     OW26197   4.963   2.480   0.671
 8433SOL    HW126198   4.907   2.405   0.707
 8433SOL    HW226199   4.955   2.559   0.732
 8434SOL     OW26200   2.848   0.173   4.789
 8434SOL    HW126201   2.924   0.126   4.745
 8434SOL    HW226202   2.808   0.239   4.726
 8435SOL     OW26203   6.257   0.906   1.626
 8435SOL    HW126204   6.279   0.975   1.556
 8435SOL    HW226205   6.331   0.903   1.694
 8436SOL     OW26206   3.596   6.312   3.239
 8436SOL    HW126207   3.635   6.223   3.214
 8436SOL    HW226208   3.499   6.314   3.219
 8437SOL     OW26209   2.309   1.447   4.378
 8437SOL    HW126210   2.274   1.356   4.399
 8437SOL    HW226211   2.336   1.450   4.281
 8438SOL     OW26212   2.383   4.792   2.769
 8438SOL    HW126213   2.387   4.878   2.820
 8438SOL    HW226214   2.349   4.719   2.829
 8439SOL     OW26215   5.821   5.188   2.748
 8439SOL    HW126216   5.804   5.261   2.814
 8439SOL    HW226217   5.763   5.109   2.770
 8440SOL     OW26218   2.213   1.872   3.441
 8440SOL    HW126219   2.262   1.835   3.520
 8440SOL    HW226220   2.275   1.929   3.387
 8441SOL     OW26221   5.587   6.870   0.096
 8441SOL    HW126222   5.613   6.792   0.038
 8441SOL    HW226223   5.658   6.884   0.165
 8442SOL     OW26224   3.620   1.649   4.953
 8442SOL    HW126225   3.697   1.707   4.979
 8442SOL    HW226226   3.535   1.688   4.988
 8443SOL     OW26227   2.546   4.602   3.504
 8443SOL    HW126228   2.532   4.517   3.454
 8443SOL    HW226229   2.486   4.604   3.584
 8444SOL     OW26230   3.320   6.458   4.449
 8444SOL    HW126231   3.313   6.359   4.448
 8444SOL    HW226232   3.402   6.487   4.400
 8445SOL     OW26233   3.102   7.004   1.377
 8445SOL    HW126234   3.044   0.000   1.457
 8445SOL    HW226235   3.193   0.024   1.394
 8446SOL     OW26236   4.996   5.701   6.941
 8446SOL    HW126237   4.933   5.647   6.885
 8446SOL    HW226238   5.089   5.689   6.907
 8447SOL     OW26239   5.280   2.036   2.020
 8447SOL    HW126240   5.226   2.070   2.097
 8447SOL    HW226241   5.220   1.986   1.957
 8448SOL     OW26242   4.340   5.693   4.327
 8448SOL    HW126243   4.272   5.646   4.271
 8448SOL    HW226244   4.331   5.665   4.423
 8449SOL     OW26245   0.218   2.925   3.547
 8449SOL    HW126246   0.313   2.955   3.538
 8449SOL    HW226247   0.180   2.906   3.456
 8450SOL     OW26248   0.267   6.999   1.000
 8450SOL    HW126249   0.267   0.066   1.052
 8450SOL    HW226250   0.361   6.967   0.989
 8451SOL     OW26251   3.570   1.451   0.067
 8451SOL    HW126252   3.515   1.378   0.026
 8451SOL    HW226253   3.564   1.533   0.010
 8452SOL     OW26254   6.004   1.895   2.656
 8452SOL    HW126255   6.079   1.856   2.709
 8452SOL    HW226256   5.968   1.975   2.704
 8453SOL     OW26257   0.446   4.257   6.810
 8453SOL    HW126258   0.417   4.238   6.904
 8453SOL    HW226259   0.545   4.264   6.806
 8454SOL     OW26260   6.659   6.506   1.449
 8454SOL    HW126261   6.573   6.551   1.475
 8454SOL    HW226262   6.641   6.410   1.426
 8455SOL     OW26263   6.608   1.784   1.708
 8455SOL    HW126264   6.541   1.765   1.637
 8455SOL    HW226265   6.689   1.826   1.668
 8456SOL     OW26266   4.192   5.965   3.422
 8456SOL    HW126267   4.266   6.032   3.428
 8456SOL    HW226268   4.186   5.914   3.508
 8457SOL     OW26269   6.980   6.704   4.860
 8457SOL    HW126270   6.963   6.646   4.781
 8457SOL    HW226271   0.036   6.767   4.839
 8458SOL     OW26272   3.228   0.593   0.206
 8458SOL    HW126273   3.211   0.539   0.289
 8458SOL    HW226274   3.207   0.538   0.125
 8459SOL     OW26275   2.781   5.756   2.092
 8459SOL    HW126276   2.804   5.676   2.038
 8459SOL    HW226277   2.683   5.755   2.114
 8460SOL     OW26278   4.071   4.256   5.291
 8460SOL    HW126279   4.131   4.312   5.234
 8460SOL    HW226280   4.048   4.172   5.242
 8461SOL     OW26281   1.099   4.022   4.783
 8461SOL    HW126282   1.169   4.092   4.797
 8461SOL    HW226283   1.142   3.932   4.778
 8462SOL     OW26284   2.391   2.715   6.581
 8462SOL    HW126285   2.392   2.808   6.617
 8462SOL    HW226286   2.389   2.718   6.481
 8463SOL     OW26287   6.873   0.261   1.066
 8463SOL    HW126288   6.905   0.314   0.987
 8463SOL    HW226289   6.952   0.231   1.119
 8464SOL     OW26290   5.883   3.895   3.828
 8464SOL    HW126291   5.839   3.905   3.917
 8464SOL    HW226292   5.857   3.807   3.787
 8465SOL     OW26293   1.156   3.228   0.390
 8465SOL    HW126294   1.156   3.157   0.320
 8465SOL    HW226295   1.233   3.215   0.452
 8466SOL     OW26296   0.840   6.421   4.193
 8466SOL    HW126297   0.792   6.390   4.112
 8466SOL    HW226298   0.904   6.494   4.169
 8467SOL     OW26299   3.532   6.922   6.760
 8467SOL    HW126300   3.525   7.015   6.726
 8467SOL    HW226301   3.523   6.857   6.684
 8468SOL     OW26302   3.801   1.617   6.501
 8468SOL    HW126303   3.775   1.524   6.477
 8468SOL    HW226304   3.887   1.640   6.455
 8469SOL     OW26305   3.123   1.555   6.705
 8469SOL    HW126306   3.164   1.644   6.728
 8469SOL    HW226307   3.058   1.529   6.777
 8470SOL     OW26308   0.837   4.079   0.022
 8470SOL    HW126309   0.761   4.015   0.010
 8470SOL    HW226310   0.911   4.034   0.072
 8471SOL     OW26311   3.191   1.064   3.168
 8471SOL    HW126312   3.277   1.043   3.215
 8471SOL    HW226313   3.184   1.163   3.156
 8472SOL     OW26314   0.239   0.916   4.303
 8472SOL    HW126315   0.270   0.846   4.367
 8472SOL    HW226316   0.309   0.986   4.293
 8473SOL     OW26317   6.451   5.300   6.373
 8473SOL    HW126318   6.398   5.346   6.444
 8473SOL    HW226319   6.416   5.207   6.360
 8474SOL     OW26320   3.108   3.495   2.321
 8474SOL    HW126321   3.050   3.423   2.283
 8474SOL    HW226322   3.171   3.456   2.388
 8475SOL     OW26323   0.555   2.170   3.098
 8475SOL    HW126324   0.649   2.164   3.131
 8475SOL    HW226325   0.492   2.156   3.175
 8476SOL     OW26326   6.175   1.838   0.963
 8476SOL    HW126327   6.167   1.881   0.873
 8476SOL    HW226328   6.168   1.908   1.034
 8477SOL     OW26329   4.513   6.966   1.738
 8477SOL    HW126330   4.600   7.015   1.731
 8477SOL    HW226331   4.438   0.008   1.710
 8478SOL     OW26332   0.930   0.460   6.235
 8478SOL    HW126333   0.893   0.435   6.145
 8478SOL    HW226334   0.912   0.386   6.300
 8479SOL     OW26335   6.485   2.481   1.109
 8479SOL    HW126336   6.517   2.570   1.141
 8479SOL    HW226337   6.447   2.429   1.185
 8480SOL     OW26338   4.479   1.260   6.994
 8480SOL    HW126339   4.542   1.208   6.937
 8480SOL    HW226340   4.397   1.282   6.941
 8481SOL     OW26341   5.032   2.300   3.605
 8481SOL    HW126342   4.991   2.213   3.631
 8481SOL    HW226343   4.961   2.361   3.569
 8482SOL     OW26344   4.714   6.307   2.548
 8482SOL    HW126345   4.783   6.337   2.614
 8482SOL    HW226346   4.709   6.207   2.548
 8483SOL     OW26347   4.068   6.308   2.075
 8483SOL    HW126348   4.056   6.401   2.110
 8483SOL    HW226349   4.164   6.294   2.051
 8484SOL     OW26350   0.486   5.767   2.865
 8484SOL    HW126351   0.510   5.709   2.787
 8484SOL    HW226352   0.493   5.863   2.838
 8485SOL     OW26353   2.949   3.050   0.324
 8485SOL    HW126354   3.004   2.994   0.386
 8485SOL    HW226355   2.864   3.003   0.303
 8486SOL     OW26356   4.391   1.129   2.662
 8486SOL    HW126357   4.404   1.053   2.726
 8486SOL    HW226358   4.473   1.139   2.605
 8487SOL     OW26359   5.425   1.287   6.456
 8487SOL    HW126360   5.495   1.357   6.471
 8487SOL    HW226361   5.348   1.304   6.517
 8488SOL     OW26362   5.603   4.840   5.580
 8488SOL    HW126363   5.655   4.776   5.637
 8488SOL    HW226364   5.562   4.790   5.504
 8489SOL     OW26365   6.720   1.053   0.672
 8489SOL    HW126366   6.657   1.024   0.601
 8489SOL    HW226367   6.668   1.092   0.749
 8490SOL     OW26368   4.079   6.520   4.508
 8490SOL    HW126369   4.106   6.436   4.555
 8490SOL    HW226370   4.157   6.559   4.460
 8491SOL     OW26371   2.123   6.881   0.785
 8491SOL    HW126372   2.084   6.797   0.746
 8491SOL    HW226373   2.063   6.914   0.858
 8492SOL     OW26374   4.658   4.437   6.530
 8492SOL    HW126375   4.687   4.455   6.436
 8492SOL    HW226376   4.692   4.347   6.559
 8493SOL     OW26377   2.596   2.227   6.184
 8493SOL    HW126378   2.644   2.297   6.131
 8493SOL    HW226379   2.646   2.208   6.268
 8494SOL     OW26380   2.962   4.323   1.320
 8494SOL    HW126381   2.876   4.278   1.342
 8494SOL    HW226382   2.943   4.407   1.268
 8495SOL     OW26383   6.629   4.415   1.251
 8495SOL    HW126384   6.570   4.408   1.332
 8495SOL    HW226385   6.604   4.496   1.199
 8496SOL     OW26386   0.828   1.686   1.953
 8496SOL    HW126387   0.927   1.691   1.947
 8496SOL    HW226388   0.793   1.629   1.878
 8497SOL     OW26389   6.191   1.092   3.655
 8497SOL    HW126390   6.247   1.019   3.617
 8497SOL    HW226391   6.223   1.180   3.621
 8498SOL     OW26392   0.387   6.175   2.594
 8498SOL    HW126393   0.334   6.102   2.551
 8498SOL    HW226394   0.345   6.263   2.573
 8499SOL     OW26395   2.600   5.213   6.387
 8499SOL    HW126396   2.577   5.120   6.358
 8499SOL    HW226397   2.675   5.210   6.453
 8500SOL     OW26398   2.487   6.544   5.481
 8500SOL    HW126399   2.566   6.528   5.540
 8500SOL    HW226400   2.426   6.465   5.485
 8501SOL     OW26401   0.422   2.028   6.734
 8501SOL    HW126402   0.467   2.053   6.648
 8501SOL    HW226403   0.323   2.040   6.724
 8502SOL     OW26404   1.868   4.630   1.460
 8502SOL    HW126405   1.852   4.719   1.417
 8502SOL    HW226406   1.961   4.626   1.497
 8503SOL     OW26407   1.512   6.856   3.512
 8503SOL    HW126408   1.509   6.954   3.531
 8503SOL    HW226409   1.519   6.806   3.598
 8504SOL     OW26410   2.689   5.582   3.379
 8504SOL    HW126411   2.647   5.668   3.408
 8504SOL    HW226412   2.769   5.563   3.436
 8505SOL     OW26413   4.836   3.950   3.916
 8505SOL    HW126414   4.888   3.878   3.868
 8505SOL    HW226415   4.818   3.921   4.010
 8506SOL     OW26416   6.474   1.210   0.223
 8506SOL    HW126417   6.521   1.255   0.147
 8506SOL    HW226418   6.383   1.181   0.193
 8507SOL     OW26419   3.809   1.082   5.155
 8507SOL    HW126420   3.813   1.180   5.138
 8507SOL    HW226421   3.837   1.063   5.250
 8508SOL     OW26422   6.823   1.859   4.824
 8508SOL    HW126423   6.724   1.867   4.818
 8508SOL    HW226424   6.865   1.937   4.776
 8509SOL     OW26425   4.852   1.706   3.572
 8509SOL    HW126426   4.943   1.666   3.573
 8509SOL    HW226427   4.788   1.644   3.526
 8510SOL     OW26428   5.404   4.436   3.459
 8510SOL    HW126429   5.422   4.429   3.557
 8510SOL    HW226430   5.476   4.390   3.408
 8511SOL     OW26431   6.231   4.055   1.813
 8511SOL    HW126432   6.164   4.000   1.763
 8511SOL    HW226433   6.294   3.994   1.863
 8512SOL     OW26434   3.349   2.064   1.234
 8512SOL    HW126435   3.415   2.063   1.158
 8512SOL    HW226436   3.390   2.020   1.314
 8513SOL     OW26437   4.804   4.170   1.749
 8513SOL    HW126438   4.897   4.188   1.716
 8513SOL    HW226439   4.761   4.256   1.774
 8514SOL     OW26440   3.142   1.988   3.758
 8514SOL    HW126441   3.076   1.913   3.770
 8514SOL    HW226442   3.109   2.069   3.806
 8515SOL     OW26443   5.470   1.246   0.203
 8515SOL    HW126444   5.545   1.290   0.252
 8515SOL    HW226445   5.390   1.239   0.262
 8516SOL     OW26446   6.569   1.306   1.592
 8516SOL    HW126447   6.584   1.376   1.521
 8516SOL    HW226448   6.566   1.215   1.549
 8517SOL     OW26449   1.451   3.344   6.949
 8517SOL    HW126450   1.516   3.328   6.875
 8517SOL    HW226451   1.404   3.431   6.934
 8518SOL     OW26452   5.040   4.587   6.493
 8518SOL    HW126453   4.954   4.619   6.452
 8518SOL    HW226454   5.097   4.666   6.515
 8519SOL     OW26455   1.145   4.065   1.634
 8519SOL    HW126456   1.157   3.976   1.678
 8519SOL    HW226457   1.089   4.053   1.552
 8520SOL     OW26458   3.412   3.134   0.105
 8520SOL    HW126459   3.389   3.198   0.033
 8520SOL    HW226460   3.394   3.040   0.074
 8521SOL     OW26461   2.433   5.118   5.903
 8521SOL    HW126462   2.400   5.070   5.984
 8521SOL    HW226463   2.406   5.067   5.821
 8522SOL     OW26464   1.170   6.398   0.862
 8522SOL    HW126465   1.136   6.357   0.947
 8522SOL    HW226466   1.265   6.427   0.874
 8523SOL     OW26467   2.251   6.228   6.841
 8523SOL    HW126468   2.234   6.324   6.864
 8523SOL    HW226469   2.286   6.180   6.921
 8524SOL     OW26470   0.590   2.947   5.712
 8524SOL    HW126471   0.523   3.004   5.665
 8524SOL    HW226472   0.682   2.983   5.697
 8525SOL     OW26473   6.097   4.524   1.903
 8525SOL    HW126474   6.094   4.510   2.002
 8525SOL    HW226475   6.156   4.454   1.862
 8526SOL     OW26476   4.348   6.522   6.810
 8526SOL    HW126477   4.388   6.596   6.756
 8526SOL    HW226478   4.305   6.456   6.748
 8527SOL     OW26479   2.517   1.056   6.479
 8527SOL    HW126480   2.600   1.071   6.426
 8527SOL    HW226481   2.445   1.021   6.419
 8528SOL     OW26482   3.504   1.651   6.786
 8528SOL    HW126483   3.505   1.551   6.787
 8528SOL    HW226484   3.522   1.683   6.693
 8529SOL     OW26485   0.915   0.292   0.930
 8529SOL    HW126486   0.939   0.385   0.903
 8529SOL    HW226487   0.969   0.227   0.876
 8530SOL     OW26488   3.583   4.157   5.828
 8530SOL    HW126489   3.491   4.120   5.817
 8530SOL    HW226490   3.650   4.087   5.801
 8531SOL     OW26491   6.286   4.947   2.592
 8531SOL    HW126492   6.381   4.925   2.617
 8531SOL    HW226493   6.236   4.974   2.673
 8532SOL     OW26494   4.055   4.852   4.843
 8532SOL    HW126495   4.053   4.863   4.942
 8532SOL    HW226496   3.964   4.826   4.810
 8533SOL     OW26497   1.404   0.013   6.821
 8533SOL    HW126498   1.313   0.048   6.795
 8533SOL    HW226499   1.430   6.959   6.758
 8534SOL     OW26500   6.190   2.570   4.081
 8534SOL    HW126501   6.215   2.622   3.999
 8534SOL    HW226502   6.094   2.542   4.075
 8535SOL     OW26503   5.939   1.331   3.676
 8535SOL    HW126504   5.939   1.249   3.620
 8535SOL    HW226505   6.031   1.348   3.712
 8536SOL     OW26506   0.171   2.474   4.620
 8536SOL    HW126507   0.121   2.515   4.696
 8536SOL    HW226508   0.131   2.385   4.598
 8537SOL     OW26509   5.095   0.810   2.995
 8537SOL    HW126510   5.022   0.849   3.052
 8537SOL    HW226511   5.181   0.858   3.013
 8538SOL     OW26512   0.537   1.070   6.980
 8538SOL    HW126513   0.583   1.150   6.941
 8538SOL    HW226514   0.520   1.003   6.908
 8539SOL     OW26515   5.203   1.097   2.869
 8539SOL    HW126516   5.275   1.039   2.906
 8539SOL    HW226517   5.211   1.189   2.907
 8540SOL     OW26518   5.098   0.019   6.171
 8540SOL    HW126519   5.162   0.093   6.193
 8540SOL    HW226520   5.072   6.991   6.256
 8541SOL     OW26521   2.620   1.648   4.629
 8541SOL    HW126522   2.615   1.748   4.631
 8541SOL    HW226523   2.527   1.610   4.623
 8542SOL     OW26524   4.098   4.763   0.034
 8542SOL    HW126525   4.156   4.814   0.098
 8542SOL    HW226526   4.152   4.690   7.011
 8543SOL     OW26527   3.000   0.880   0.940
 8543SOL    HW126528   3.063   0.846   0.870
 8543SOL    HW226529   2.930   0.937   0.898
 8544SOL     OW26530   5.420   2.785   4.326
 8544SOL    HW126531   5.388   2.690   4.333
 8544SOL    HW226532   5.402   2.833   4.411
 8545SOL     OW26533   4.714   0.109   5.437
 8545SOL    HW126534   4.807   0.087   5.408
 8545SOL    HW226535   4.668   0.160   5.364
 8546SOL     OW26536   0.062   1.638   3.948
 8546SOL    HW126537   0.096   1.706   3.882
 8546SOL    HW226538   0.002   1.573   3.902
 8547SOL     OW26539   1.748   6.671   6.179
 8547SOL    HW126540   1.726   6.613   6.100
 8547SOL    HW226541   1.740   6.618   6.263
 8548SOL     OW26542   5.768   2.002   5.452
 8548SOL    HW126543   5.842   2.022   5.516
 8548SOL    HW226544   5.687   1.974   5.504
 8549SOL     OW26545   1.610   2.945   3.810
 8549SOL    HW126546   1.650   3.025   3.763
 8549SOL    HW226547   1.673   2.915   3.882
 8550SOL     OW26548   1.831   4.646   0.342
 8550SOL    HW126549   1.895   4.596   0.399
 8550SOL    HW226550   1.881   4.713   0.286
 8551SOL     OW26551   3.548   3.941   6.566
 8551SOL    HW126552   3.465   3.920   6.617
 8551SOL    HW226553   3.523   3.984   6.479
 8552SOL     OW26554   2.057   0.334   4.045
 8552SOL    HW126555   2.107   0.273   4.106
 8552SOL    HW226556   2.102   0.424   4.043
 8553SOL     OW26557   4.565   4.659   0.175
 8553SOL    HW126558   4.576   4.611   0.088
 8553SOL    HW226559   4.654   4.691   0.208
 8554SOL     OW26560   1.005   4.702   0.756
 8554SOL    HW126561   0.954   4.727   0.838
 8554SOL    HW226562   1.047   4.784   0.716
 8555SOL     OW26563   2.022   1.412   2.481
 8555SOL    HW126564   2.121   1.424   2.494
 8555SOL    HW226565   1.979   1.398   2.570
 8556SOL     OW26566   1.512   6.241   5.278
 8556SOL    HW126567   1.567   6.297   5.216
 8556SOL    HW226568   1.416   6.267   5.270
 8557SOL     OW26569   5.756   0.267   2.872
 8557SOL    HW126570   5.738   0.173   2.900
 8557SOL    HW226571   5.779   0.269   2.775
 8558SOL     OW26572   3.366   5.179   3.312
 8558SOL    HW126573   3.449   5.125   3.298
 8558SOL    HW226574   3.285   5.120   3.304
 8559SOL     OW26575   0.054   0.567   2.486
 8559SOL    HW126576   0.138   0.591   2.436
 8559SOL    HW226577   0.008   0.651   2.516
 8560SOL     OW26578   6.377   6.129   2.199
 8560SOL    HW126579   6.460   6.159   2.151
 8560SOL    HW226580   6.365   6.183   2.282
 8561SOL     OW26581   3.103   1.102   2.060
 8561SOL    HW126582   3.165   1.172   2.095
 8561SOL    HW226583   3.097   1.109   1.961
 8562SOL     OW26584   3.304   4.965   5.432
 8562SOL    HW126585   3.340   4.960   5.339
 8562SOL    HW226586   3.328   4.882   5.482
 8563SOL     OW26587   2.028   4.231   6.895
 8563SOL    HW126588   2.058   4.318   6.934
 8563SOL    HW226589   1.944   4.245   6.843
 8564SOL     OW26590   2.995   1.148   3.997
 8564SOL    HW126591   2.961   1.068   3.947
 8564SOL    HW226592   2.919   1.197   4.038
 8565SOL     OW26593   4.167   5.505   0.995
 8565SOL    HW126594   4.231   5.565   1.043
 8565SOL    HW226595   4.115   5.559   0.929
 8566SOL     OW26596   1.625   0.654   1.298
 8566SOL    HW126597   1.704   0.634   1.356
 8566SOL    HW226598   1.544   0.609   1.335
 8567SOL     OW26599   0.350   2.221   2.530
 8567SOL    HW126600   0.432   2.220   2.586
 8567SOL    HW226601   0.365   2.166   2.448
 8568SOL     OW26602   5.521   1.239   6.180
 8568SOL    HW126603   5.481   1.216   6.269
 8568SOL    HW226604   5.477   1.183   6.110
 8569SOL     OW26605   5.051   1.138   5.988
 8569SOL    HW126606   5.012   1.225   6.019
 8569SOL    HW226607   5.103   1.097   6.063
 8570SOL     OW26608   1.327   2.899   4.923
 8570SOL    HW126609   1.335   2.838   4.844
 8570SOL    HW226610   1.305   2.845   5.004
 8571SOL     OW26611   1.360   5.453   5.656
 8571SOL    HW126612   1.406   5.499   5.580
 8571SOL    HW226613   1.419   5.456   5.736
 8572SOL     OW26614   3.028   4.936   0.068
 8572SOL    HW126615   3.076   5.016   0.034
 8572SOL    HW226616   3.037   4.861   0.002
 8573SOL     OW26617   3.715   6.367   5.868
 8573SOL    HW126618   3.709   6.410   5.958
 8573SOL    HW226619   3.623   6.356   5.830
 8574SOL     OW26620   6.918   5.537   5.342
 8574SOL    HW126621   6.867   5.513   5.260
 8574SOL    HW226622   6.903   5.633   5.365
 8575SOL     OW26623   2.620   2.296   4.982
 8575SOL    HW126624   2.584   2.242   5.058
 8575SOL    HW226625   2.628   2.238   4.901
 8576SOL     OW26626   1.953   5.205   6.974
 8576SOL    HW126627   1.934   5.111   6.946
 8576SOL    HW226628   1.949   5.213   0.054
 8577SOL     OW26629   6.787   6.068   3.953
 8577SOL    HW126630   6.709   6.095   4.009
 8577SOL    HW226631   6.756   6.042   3.862
 8578SOL     OW26632   5.843   1.347   4.856
 8578SOL    HW126633   5.809   1.344   4.763
 8578SOL    HW226634   5.942   1.334   4.856
 8579SOL     OW26635   1.217   6.861   2.688
 8579SOL    HW126636   1.301   6.902   2.725
 8579SOL    HW226637   1.138   6.911   2.723
 8580SOL     OW26638   2.898   6.402   2.589
 8580SOL    HW126639   2.872   6.480   2.532
 8580SOL    HW226640   2.886   6.427   2.686
 8581SOL     OW26641   3.497   3.861   2.178
 8581SOL    HW126642   3.592   3.834   2.198
 8581SOL    HW226643   3.439   3.779   2.175
 8582SOL     OW26644   4.559   4.577   2.765
 8582SOL    HW126645   4.605   4.514   2.703
 8582SOL    HW226646   4.494   4.633   2.714
 8583SOL     OW26647   5.604   0.819   4.738
 8583SOL    HW126648   5.610   0.765   4.654
 8583SOL    HW226649   5.608   0.917   4.714
 8584SOL     OW26650   0.798   4.134   5.835
 8584SOL    HW126651   0.762   4.154   5.926
 8584SOL    HW226652   0.845   4.045   5.836
 8585SOL     OW26653   0.586   5.917   6.233
 8585SOL    HW126654   0.529   5.835   6.241
 8585SOL    HW226655   0.594   5.943   6.137
 8586SOL     OW26656   2.709   0.018   3.318
 8586SOL    HW126657   2.774   6.976   3.271
 8586SOL    HW226658   2.728   0.113   3.292
 8587SOL     OW26659   1.819   0.080   3.389
 8587SOL    HW126660   1.752   0.021   3.433
 8587SOL    HW226661   1.837   0.159   3.447
 8588SOL     OW26662   2.263   0.521   0.301
 8588SOL    HW126663   2.289   0.478   0.214
 8588SOL    HW226664   2.251   0.451   0.371
 8589SOL     OW26665   4.966   2.642   4.784
 8589SOL    HW126666   4.901   2.567   4.772
 8589SOL    HW226667   5.039   2.613   4.845
 8590SOL     OW26668   0.121   6.338   4.019
 8590SOL    HW126669   0.108   6.437   4.012
 8590SOL    HW226670   0.194   6.319   4.085
 8591SOL     OW26671   6.599   4.326   6.842
 8591SOL    HW126672   6.569   4.421   6.834
 8591SOL    HW226673   6.630   4.308   6.936
 8592SOL     OW26674   6.889   2.741   6.719
 8592SOL    HW126675   6.879   2.672   6.791
 8592SOL    HW226676   6.807   2.797   6.715
 8593SOL     OW26677   2.866   0.067   1.664
 8593SOL    HW126678   2.859   0.158   1.704
 8593SOL    HW226679   2.781   0.045   1.615
 8594SOL     OW26680   3.770   2.748   5.232
 8594SOL    HW126681   3.724   2.667   5.196
 8594SOL    HW226682   3.714   2.829   5.212
 8595SOL     OW26683   1.495   2.826   2.902
 8595SOL    HW126684   1.546   2.815   2.817
 8595SOL    HW226685   1.397   2.818   2.883
 8596SOL     OW26686   6.200   5.243   3.476
 8596SOL    HW126687   6.241   5.271   3.562
 8596SOL    HW226688   6.132   5.171   3.493
 8597SOL     OW26689   4.054   1.121   0.805
 8597SOL    HW126690   4.127   1.129   0.738
 8597SOL    HW226691   3.967   1.111   0.758
 8598SOL     OW26692   6.759   6.557   0.950
 8598SOL    HW126693   6.715   6.607   1.025
 8598SOL    HW226694   6.734   6.460   0.956
 8599SOL     OW26695   1.308   2.662   4.455
 8599SOL    HW126696   1.267   2.639   4.543
 8599SOL    HW226697   1.246   2.724   4.405
 8600SOL     OW26698   4.796   5.028   6.123
 8600SOL    HW126699   4.754   5.036   6.032
 8600SOL    HW226700   4.884   5.075   6.123
 8601SOL     OW26701   0.943   0.599   4.978
 8601SOL    HW126702   0.963   0.684   4.929
 8601SOL    HW226703   0.874   0.547   4.928
 8602SOL     OW26704   3.367   5.393   3.145
 8602SOL    HW126705   3.435   5.457   3.182
 8602SOL    HW226706   3.361   5.313   3.204
 8603SOL     OW26707   3.919   5.281   0.603
 8603SOL    HW126708   3.898   5.207   0.666
 8603SOL    HW226709   3.882   5.259   0.513
 8604SOL     OW26710   0.698   3.225   3.790
 8604SOL    HW126711   0.662   3.261   3.876
 8604SOL    HW226712   0.795   3.204   3.800
 8605SOL     OW26713   2.775   5.469   4.696
 8605SOL    HW126714   2.731   5.380   4.680
 8605SOL    HW226715   2.719   5.523   4.758
 8606SOL     OW26716   1.391   3.256   6.195
 8606SOL    HW126717   1.400   3.269   6.097
 8606SOL    HW226718   1.450   3.321   6.243
 8607SOL     OW26719   3.722   6.159   1.357
 8607SOL    HW126720   3.816   6.183   1.333
 8607SOL    HW226721   3.718   6.063   1.382
 8608SOL     OW26722   4.205   5.637   2.881
 8608SOL    HW126723   4.133   5.699   2.911
 8608SOL    HW226724   4.166   5.547   2.863
 8609SOL     OW26725   5.761   0.926   3.247
 8609SOL    HW126726   5.707   0.857   3.296
 8609SOL    HW226727   5.792   0.888   3.160
 8610SOL     OW26728   1.843   2.199   2.744
 8610SOL    HW126729   1.920   2.252   2.709
 8610SOL    HW226730   1.857   2.102   2.725
 8611SOL     OW26731   2.786   1.711   4.408
 8611SOL    HW126732   2.810   1.642   4.340
 8611SOL    HW226733   2.730   1.669   4.480
 8612SOL     OW26734   3.443   3.132   0.863
 8612SOL    HW126735   3.368   3.133   0.929
 8612SOL    HW226736   3.529   3.156   0.908
 8613SOL     OW26737   2.191   2.056   1.111
 8613SOL    HW126738   2.259   2.125   1.137
 8613SOL    HW226739   2.182   1.988   1.184
 8614SOL     OW26740   1.082   3.392   2.386
 8614SOL    HW126741   1.080   3.293   2.370
 8614SOL    HW226742   1.036   3.439   2.310
 8615SOL     OW26743   4.933   2.048   5.320
 8615SOL    HW126744   4.909   2.015   5.411
 8615SOL    HW226745   4.944   1.970   5.258
 8616SOL     OW26746   3.220   4.809   1.605
 8616SOL    HW126747   3.160   4.796   1.526
 8616SOL    HW226748   3.165   4.805   1.689
 8617SOL     OW26749   0.088   0.854   6.260
 8617SOL    HW126750   0.183   0.877   6.283
 8617SOL    HW226751   0.026   0.905   6.320
 8618SOL     OW26752   6.327   5.989   0.760
 8618SOL    HW126753   6.422   5.970   0.781
 8618SOL    HW226754   6.322   6.057   0.686
 8619SOL     OW26755   3.795   4.891   2.244
 8619SOL    HW126756   3.767   4.846   2.328
 8619SOL    HW226757   3.715   4.906   2.185
 8620SOL     OW26758   0.783   0.377   3.855
 8620SOL    HW126759   0.855   0.442   3.832
 8620SOL    HW226760   0.792   0.349   3.950
 8621SOL     OW26761   6.080   1.517   2.733
 8621SOL    HW126762   5.992   1.547   2.695
 8621SOL    HW226763   6.122   1.451   2.670
 8622SOL     OW26764   4.739   2.540   0.519
 8622SOL    HW126765   4.751   2.618   0.458
 8622SOL    HW226766   4.823   2.525   0.571
 8623SOL     OW26767   0.903   3.960   3.479
 8623SOL    HW126768   0.850   4.022   3.421
 8623SOL    HW226769   0.871   3.867   3.468
 8624SOL     OW26770   0.683   3.844   4.757
 8624SOL    HW126771   0.732   3.759   4.740
 8624SOL    HW226772   0.621   3.863   4.681
 8625SOL     OW26773   4.392   0.287   5.628
 8625SOL    HW126774   4.485   0.268   5.660
 8625SOL    HW226775   4.349   0.202   5.598
 8626SOL     OW26776   3.764   2.740   5.533
 8626SOL    HW126777   3.787   2.723   5.437
 8626SOL    HW226778   3.848   2.743   5.587
 8627SOL     OW26779   0.396   1.323   3.347
 8627SOL    HW126780   0.361   1.294   3.258
 8627SOL    HW226781   0.483   1.277   3.365
 8628SOL     OW26782   6.288   6.425   1.342
 8628SOL    HW126783   6.270   6.424   1.243
 8628SOL    HW226784   6.226   6.362   1.388
 8629SOL     OW26785   1.287   4.773   5.219
 8629SOL    HW126786   1.288   4.838   5.142
 8629SOL    HW226787   1.201   4.721   5.217
 8630SOL     OW26788   4.980   4.279   3.356
 8630SOL    HW126789   4.911   4.308   3.422
 8630SOL    HW226790   5.014   4.188   3.382
 8631SOL     OW26791   2.272   5.822   6.042
 8631SOL    HW126792   2.210   5.756   6.084
 8631SOL    HW226793   2.361   5.779   6.025
 8632SOL     OW26794   3.315   5.923   3.683
 8632SOL    HW126795   3.281   5.831   3.660
 8632SOL    HW226796   3.415   5.920   3.691
 8633SOL     OW26797   5.309   1.936   4.987
 8633SOL    HW126798   5.299   2.020   5.041
 8633SOL    HW226799   5.248   1.866   5.024
 8634SOL     OW26800   5.619   3.373   7.009
 8634SOL    HW126801   5.520   3.373   6.997
 8634SOL    HW226802   5.642   3.328   0.077
 8635SOL     OW26803   5.543   4.438   6.233
 8635SOL    HW126804   5.447   4.438   6.263
 8635SOL    HW226805   5.548   4.398   6.141
 8636SOL     OW26806   5.199   5.983   0.432
 8636SOL    HW126807   5.103   6.010   0.441
 8636SOL    HW226808   5.221   5.915   0.502
 8637SOL     OW26809   1.808   0.946   0.214
 8637SOL    HW126810   1.731   0.945   0.150
 8637SOL    HW226811   1.786   1.007   0.290
 8638SOL     OW26812   2.763   2.892   6.575
 8638SOL    HW126813   2.785   2.970   6.634
 8638SOL    HW226814   2.832   2.820   6.587
 8639SOL     OW26815   5.051   2.181   1.795
 8639SOL    HW126816   5.129   2.242   1.781
 8639SOL    HW226817   4.971   2.218   1.750
 8640SOL     OW26818   4.454   3.845   0.571
 8640SOL    HW126819   4.499   3.767   0.615
 8640SOL    HW226820   4.523   3.908   0.536
 8641SOL     OW26821   5.738   5.027   4.185
 8641SOL    HW126822   5.639   5.041   4.187
 8641SOL    HW226823   5.770   5.004   4.277
 8642SOL     OW26824   2.541   0.212   3.416
 8642SOL    HW126825   2.586   0.126   3.396
 8642SOL    HW226826   2.525   0.219   3.515
 8643SOL     OW26827   3.094   0.651   6.670
 8643SOL    HW126828   3.042   0.582   6.618
 8643SOL    HW226829   3.064   0.742   6.642
 8644SOL     OW26830   4.630   2.069   5.629
 8644SOL    HW126831   4.546   2.026   5.595
 8644SOL    HW226832   4.620   2.090   5.726
 8645SOL     OW26833   4.242   4.542   1.072
 8645SOL    HW126834   4.244   4.457   1.019
 8645SOL    HW226835   4.175   4.534   1.146
 8646SOL     OW26836   6.172   1.158   1.791
 8646SOL    HW126837   6.271   1.173   1.801
 8646SOL    HW226838   6.131   1.238   1.748
 8647SOL     OW26839   2.277   5.638   5.736
 8647SOL    HW126840   2.343   5.606   5.668
 8647SOL    HW226841   2.308   5.612   5.828
 8648SOL     OW26842   6.352   0.816   3.563
 8648SOL    HW126843   6.419   0.873   3.515
 8648SOL    HW226844   6.364   0.720   3.537
 8649SOL     OW26845   5.289   4.388   5.978
 8649SOL    HW126846   5.249   4.461   5.923
 8649SOL    HW226847   5.346   4.330   5.920
 8650SOL     OW26848   2.084   4.917   5.908
 8650SOL    HW126849   2.105   4.965   5.823
 8650SOL    HW226850   2.117   4.823   5.902
 8651SOL     OW26851   3.704   0.549   0.956
 8651SOL    HW126852   3.796   0.536   0.920
 8651SOL    HW226853   3.639   0.496   0.902
 8652SOL     OW26854   1.715   3.638   3.982
 8652SOL    HW126855   1.711   3.549   4.027
 8652SOL    HW226856   1.809   3.672   3.984
 8653SOL     OW26857   6.093   1.071   6.259
 8653SOL    HW126858   6.143   1.156   6.251
 8653SOL    HW226859   6.022   1.080   6.330
 8654SOL     OW26860   0.949   5.253   1.238
 8654SOL    HW126861   1.015   5.321   1.270
 8654SOL    HW226862   0.885   5.295   1.174
 8655SOL     OW26863   6.545   1.514   3.695
 8655SOL    HW126864   6.596   1.428   3.696
 8655SOL    HW226865   6.556   1.560   3.783
 8656SOL     OW26866   6.511   1.162   0.860
 8656SOL    HW126867   6.455   1.080   0.853
 8656SOL    HW226868   6.457   1.237   0.898
 8657SOL     OW26869   5.229   4.433   0.376
 8657SOL    HW126870   5.196   4.512   0.325
 8657SOL    HW226871   5.299   4.386   0.323
 8658SOL     OW26872   3.997   6.729   0.239
 8658SOL    HW126873   3.897   6.726   0.247
 8658SOL    HW226874   4.038   6.690   0.321
 8659SOL     OW26875   4.542   1.290   3.042
 8659SOL    HW126876   4.447   1.312   3.062
 8659SOL    HW226877   4.589   1.371   3.006
 8660SOL     OW26878   5.528   3.609   0.650
 8660SOL    HW126879   5.558   3.704   0.655
 8660SOL    HW226880   5.428   3.605   0.652
 8661SOL     OW26881   5.852   4.275   1.190
 8661SOL    HW126882   5.906   4.349   1.149
 8661SOL    HW226883   5.794   4.234   1.119
 8662SOL     OW26884   4.411   6.128   0.834
 8662SOL    HW126885   4.335   6.163   0.779
 8662SOL    HW226886   4.490   6.111   0.775
 8663SOL     OW26887   2.836   6.161   1.582
 8663SOL    HW126888   2.927   6.122   1.591
 8663SOL    HW226889   2.817   6.218   1.663
 8664SOL     OW26890   3.027   6.407   1.150
 8664SOL    HW126891   2.929   6.415   1.134
 8664SOL    HW226892   3.046   6.324   1.201
 8665SOL     OW26893   5.728   6.298   4.814
 8665SOL    HW126894   5.682   6.231   4.873
 8665SOL    HW226895   5.723   6.388   4.855
 8666SOL     OW26896   5.377   1.240   4.183
 8666SOL    HW126897   5.362   1.290   4.097
 8666SOL    HW226898   5.291   1.236   4.234
 8667SOL     OW26899   5.232   2.369   2.931
 8667SOL    HW126900   5.272   2.436   2.868
 8667SOL    HW226901   5.143   2.401   2.962
 8668SOL     OW26902   5.517   4.044   3.325
 8668SOL    HW126903   5.597   4.104   3.333
 8668SOL    HW226904   5.448   4.088   3.268
 8669SOL     OW26905   2.504   5.926   0.078
 8669SOL    HW126906   2.544   5.930   0.169
 8669SOL    HW226907   2.468   5.834   0.062
 8670SOL     OW26908   3.844   4.406   5.371
 8670SOL    HW126909   3.766   4.354   5.335
 8670SOL    HW226910   3.929   4.357   5.350
 8671SOL     OW26911   5.523   2.204   3.358
 8671SOL    HW126912   5.515   2.143   3.437
 8671SOL    HW226913   5.443   2.192   3.298
 8672SOL     OW26914   2.044   4.823   3.833
 8672SOL    HW126915   2.134   4.827   3.789
 8672SOL    HW226916   2.012   4.916   3.851
 8673SOL     OW26917   6.070   2.518   0.717
 8673SOL    HW126918   6.124   2.524   0.801
 8673SOL    HW226919   5.977   2.548   0.735
 8674SOL     OW26920   5.437   5.540   3.742
 8674SOL    HW126921   5.485   5.583   3.665
 8674SOL    HW226922   5.343   5.522   3.715
 8675SOL     OW26923   3.405   2.048   3.859
 8675SOL    HW126924   3.319   2.025   3.815
 8675SOL    HW226925   3.391   2.060   3.958
 8676SOL     OW26926   4.146   0.307   2.663
 8676SOL    HW126927   4.201   0.225   2.651
 8676SOL    HW226928   4.116   0.313   2.759
 8677SOL     OW26929   2.548   5.776   5.347
 8677SOL    HW126930   2.453   5.755   5.326
 8677SOL    HW226931   2.579   5.852   5.289
 8678SOL     OW26932   6.442   0.260   1.339
 8678SOL    HW126933   6.379   0.319   1.391
 8678SOL    HW226934   6.532   0.304   1.335
 8679SOL     OW26935   6.889   2.673   3.175
 8679SOL    HW126936   6.810   2.684   3.235
 8679SOL    HW226937   6.890   2.581   3.136
 8680SOL     OW26938   1.027   3.820   1.042
 8680SOL    HW126939   1.068   3.908   1.020
 8680SOL    HW226940   0.984   3.781   0.961
 8681SOL     OW26941   4.865   5.503   0.299
 8681SOL    HW126942   4.829   5.529   0.209
 8681SOL    HW226943   4.855   5.404   0.311
 8682SOL     OW26944   5.772   0.003   1.656
 8682SOL    HW126945   5.840   0.072   1.631
 8682SOL    HW226946   5.700   0.045   1.711
 8683SOL     OW26947   1.993   2.502   2.728
 8683SOL    HW126948   1.954   2.577   2.782
 8683SOL    HW226949   2.047   2.540   2.653
 8684SOL     OW26950   0.567   2.788   5.207
 8684SOL    HW126951   0.504   2.859   5.238
 8684SOL    HW226952   0.658   2.807   5.242
 8685SOL     OW26953   0.984   1.987   6.085
 8685SOL    HW126954   0.921   1.956   6.014
 8685SOL    HW226955   1.075   1.947   6.069
 8686SOL     OW26956   0.297   1.210   1.378
 8686SOL    HW126957   0.245   1.285   1.338
 8686SOL    HW226958   0.367   1.180   1.312
 8687SOL     OW26959   4.347   5.617   2.118
 8687SOL    HW126960   4.353   5.711   2.152
 8687SOL    HW226961   4.293   5.615   2.034
 8688SOL     OW26962   2.853   5.975   0.110
 8688SOL    HW126963   2.857   6.003   0.014
 8688SOL    HW226964   2.921   6.026   0.162
 8689SOL     OW26965   3.713   3.904   1.699
 8689SOL    HW126966   3.691   3.930   1.793
 8689SOL    HW226967   3.731   3.805   1.695
 8690SOL     OW26968   1.629   3.131   2.984
 8690SOL    HW126969   1.557   3.130   2.914
 8690SOL    HW226970   1.644   3.038   3.018
 8691SOL     OW26971   3.171   2.104   6.547
 8691SOL    HW126972   3.261   2.091   6.589
 8691SOL    HW226973   3.177   2.175   6.477
 8692SOL     OW26974   2.031   1.400   3.855
 8692SOL    HW126975   1.958   1.356   3.908
 8692SOL    HW226976   2.017   1.382   3.758
 8693SOL     OW26977   6.710   0.944   6.980
 8693SOL    HW126978   6.681   1.013   6.913
 8693SOL    HW226979   6.796   0.903   6.951
 8694SOL     OW26980   4.608   1.191   4.728
 8694SOL    HW126981   4.705   1.175   4.708
 8694SOL    HW226982   4.553   1.152   4.654
 8695SOL     OW26983   3.582   2.391   5.899
 8695SOL    HW126984   3.516   2.414   5.971
 8695SOL    HW226985   3.558   2.440   5.815
 8696SOL     OW26986   2.350   5.596   0.344
 8696SOL    HW126987   2.332   5.498   0.338
 8696SOL    HW226988   2.446   5.610   0.369
 8697SOL     OW26989   6.527   2.584   0.237
 8697SOL    HW126990   6.469   2.512   0.275
 8697SOL    HW226991   6.475   2.638   0.171
 8698SOL     OW26992   5.573   5.861   4.775
 8698SOL    HW126993   5.513   5.862   4.695
 8698SOL    HW226994   5.635   5.784   4.769
 8699SOL     OW26995   2.813   2.241   5.801
 8699SOL    HW126996   2.721   2.205   5.790
 8699SOL    HW226997   2.880   2.173   5.771
 8700SOL     OW26998   0.741   0.754   4.481
 8700SOL    HW126999   0.732   0.773   4.578
 8700SOL    HW227000   0.687   0.821   4.429
 8701SOL     OW27001   0.585   1.354   0.576
 8701SOL    HW127002   0.582   1.420   0.501
 8701SOL    HW227003   0.670   1.366   0.627
 8702SOL     OW27004   4.505   5.020   1.495
 8702SOL    HW127005   4.601   5.042   1.513
 8702SOL    HW227006   4.448   5.101   1.511
 8703SOL     OW27007   3.279   4.807   0.404
 8703SOL    HW127008   3.242   4.766   0.320
 8703SOL    HW227009   3.222   4.780   0.482
 8704SOL     OW27010   6.966   3.576   2.984
 8704SOL    HW127011   6.911   3.496   2.959
 8704SOL    HW227012   6.905   3.651   3.011
 8705SOL     OW27013   4.927   0.950   6.288
 8705SOL    HW127014   4.857   0.968   6.218
 8705SOL    HW227015   4.921   0.854   6.317
 8706SOL     OW27016   4.308   1.767   6.502
 8706SOL    HW127017   4.400   1.806   6.501
 8706SOL    HW227018   4.256   1.802   6.425
 8707SOL     OW27019   6.845   2.541   6.888
 8707SOL    HW127020   6.799   2.583   6.967
 8707SOL    HW227021   6.899   2.463   6.919
 8708SOL     OW27022   4.951   2.543   2.152
 8708SOL    HW127023   4.993   2.568   2.240
 8708SOL    HW227024   4.887   2.615   2.124
 8709SOL     OW27025   6.898   6.159   0.264
 8709SOL    HW127026   6.986   6.116   0.241
 8709SOL    HW227027   6.834   6.144   0.189
 8710SOL     OW27028   2.119   2.994   4.307
 8710SOL    HW127029   2.109   2.898   4.335
 8710SOL    HW227030   2.182   3.040   4.370
 8711SOL     OW27031   1.405   6.530   2.853
 8711SOL    HW127032   1.320   6.548   2.804
 8711SOL    HW227033   1.458   6.615   2.861
 8712SOL     OW27034   4.132   2.238   4.855
 8712SOL    HW127035   4.167   2.299   4.926
 8712SOL    HW227036   4.209   2.204   4.801
 8713SOL     OW27037   0.448   3.243   4.217
 8713SOL    HW127038   0.430   3.201   4.128
 8713SOL    HW227039   0.541   3.281   4.217
 8714SOL     OW27040   1.202   1.314   5.995
 8714SOL    HW127041   1.122   1.362   6.030
 8714SOL    HW227042   1.250   1.372   5.929
 8715SOL     OW27043   4.572   0.240   1.545
 8715SOL    HW127044   4.488   0.217   1.594
 8715SOL    HW227045   4.560   0.224   1.447
 8716SOL     OW27046   0.294   0.212   1.160
 8716SOL    HW127047   0.269   0.307   1.144
 8716SOL    HW227048   0.383   0.207   1.205
 8717SOL     OW27049   3.561   3.476   4.160
 8717SOL    HW127050   3.646   3.431   4.131
 8717SOL    HW227051   3.540   3.551   4.097
 8718SOL     OW27052   0.816   3.593   4.744
 8718SOL    HW127053   0.914   3.608   4.760
 8718SOL    HW227054   0.782   3.525   4.808
 8719SOL     OW27055   3.340   0.676   6.327
 8719SOL    HW127056   3.302   0.757   6.281
 8719SOL    HW227057   3.315   0.594   6.276
 8720SOL     OW27058   6.190   4.945   5.843
 8720SOL    HW127059   6.126   4.917   5.915
 8720SOL    HW227060   6.230   4.864   5.801
 8721SOL     OW27061   6.978   2.820   2.467
 8721SOL    HW127062   6.909   2.829   2.538
 8721SOL    HW227063   6.941   2.850   2.379
 8722SOL     OW27064   4.145   1.586   6.950
 8722SOL    HW127065   4.172   1.493   6.929
 8722SOL    HW227066   4.221   1.634   6.994
 8723SOL     OW27067   4.600   5.811   1.101
 8723SOL    HW127068   4.572   5.803   1.006
 8723SOL    HW227069   4.586   5.906   1.131
 8724SOL     OW27070   4.973   0.496   5.526
 8724SOL    HW127071   4.898   0.515   5.589
 8724SOL    HW227072   5.052   0.463   5.578
 8725SOL     OW27073   1.538   6.944   6.387
 8725SOL    HW127074   1.635   6.943   6.412
 8725SOL    HW227075   1.499   0.015   6.409
 8726SOL     OW27076   6.645   0.523   1.901
 8726SOL    HW127077   6.557   0.570   1.909
 8726SOL    HW227078   6.653   0.456   1.975
 8727SOL     OW27079   0.233   5.742   2.521
 8727SOL    HW127080   0.209   5.758   2.617
 8727SOL    HW227081   0.289   5.817   2.487
 8728SOL     OW27082   5.559   0.373   3.283
 8728SOL    HW127083   5.633   0.382   3.349
 8728SOL    HW227084   5.547   0.276   3.260
 8729SOL     OW27085   4.356   5.607   4.829
 8729SOL    HW127086   4.421   5.574   4.760
 8729SOL    HW227087   4.357   5.546   4.908
 8730SOL     OW27088   6.494   4.260   2.192
 8730SOL    HW127089   6.426   4.209   2.138
 8730SOL    HW227090   6.503   4.352   2.156
 8731SOL     OW27091   2.564   2.392   2.761
 8731SOL    HW127092   2.633   2.321   2.747
 8731SOL    HW227093   2.546   2.439   2.674
 8732SOL     OW27094   5.633   4.711   1.584
 8732SOL    HW127095   5.689   4.766   1.522
 8732SOL    HW227096   5.548   4.685   1.538
 8733SOL     OW27097   1.551   5.619   1.184
 8733SOL    HW127098   1.648   5.603   1.166
 8733SOL    HW227099   1.498   5.602   1.101
 8734SOL     OW27100   2.057   4.714   2.275
 8734SOL    HW127101   2.015   4.802   2.257
 8734SOL    HW227102   2.011   4.643   2.221
 8735SOL     OW27103   1.079   2.571   0.514
 8735SOL    HW127104   1.151   2.503   0.532
 8735SOL    HW227105   1.042   2.604   0.601
 8736SOL     OW27106   1.040   5.957   6.362
 8736SOL    HW127107   1.002   6.044   6.396
 8736SOL    HW227108   1.140   5.961   6.367
 8737SOL     OW27109   2.155   6.927   6.018
 8737SOL    HW127110   2.100   6.973   6.088
 8737SOL    HW227111   2.246   6.969   6.015
 8738SOL     OW27112   2.267   5.711   4.323
 8738SOL    HW127113   2.317   5.682   4.242
 8738SOL    HW227114   2.322   5.689   4.405
 8739SOL     OW27115   5.607   5.543   5.893
 8739SOL    HW127116   5.635   5.533   5.798
 8739SOL    HW227117   5.604   5.454   5.937
 8740SOL     OW27118   4.821   1.111   4.982
 8740SOL    HW127119   4.753   1.037   4.986
 8740SOL    HW227120   4.908   1.078   5.018
 8741SOL     OW27121   2.765   1.572   1.653
 8741SOL    HW127122   2.775   1.624   1.569
 8741SOL    HW227123   2.816   1.486   1.646
 8742SOL     OW27124   5.918   6.103   0.808
 8742SOL    HW127125   5.834   6.154   0.825
 8742SOL    HW227126   5.926   6.083   0.710
 8743SOL     OW27127   1.399   0.538   2.148
 8743SOL    HW127128   1.302   0.530   2.170
 8743SOL    HW227129   1.437   0.619   2.192
 8744SOL     OW27130   3.098   2.526   6.441
 8744SOL    HW127131   3.063   2.433   6.430
 8744SOL    HW227132   3.114   2.566   6.351
 8745SOL     OW27133   5.674   2.989   6.153
 8745SOL    HW127134   5.763   3.023   6.184
 8745SOL    HW227135   5.683   2.895   6.122
 8746SOL     OW27136   5.401   3.801   4.908
 8746SOL    HW127137   5.304   3.820   4.894
 8746SOL    HW227138   5.411   3.718   4.963
 8747SOL     OW27139   0.817   2.673   3.094
 8747SOL    HW127140   0.892   2.609   3.077
 8747SOL    HW227141   0.792   2.671   3.191
 8748SOL     OW27142   0.157   1.342   4.930
 8748SOL    HW127143   0.208   1.305   5.008
 8748SOL    HW227144   0.101   1.419   4.960
 8749SOL     OW27145   2.613   0.731   6.258
 8749SOL    HW127146   2.542   0.798   6.281
 8749SOL    HW227147   2.571   0.650   6.218
 8750SOL     OW27148   3.600   3.472   5.626
 8750SOL    HW127149   3.698   3.452   5.615
 8750SOL    HW227150   3.554   3.394   5.668
 8751SOL     OW27151   6.027   1.128   2.451
 8751SOL    HW127152   5.927   1.132   2.450
 8751SOL    HW227153   6.062   1.157   2.362
 8752SOL     OW27154   2.819   4.063   0.566
 8752SOL    HW127155   2.831   3.966   0.546
 8752SOL    HW227156   2.907   4.104   0.591
 8753SOL     OW27157   4.192   1.946   5.707
 8753SOL    HW127158   4.248   1.993   5.775
 8753SOL    HW227159   4.098   1.980   5.713
 8754SOL     OW27160   1.136   3.185   5.390
 8754SOL    HW127161   1.229   3.194   5.353
 8754SOL    HW227162   1.134   3.220   5.484
 8755SOL     OW27163   2.421   0.116   0.909
 8755SOL    HW127164   2.327   0.136   0.934
 8755SOL    HW227165   2.428   0.019   0.882
 8756SOL     OW27166   1.804   2.859   3.548
 8756SOL    HW127167   1.814   2.917   3.629
 8756SOL    HW227168   1.779   2.915   3.470
 8757SOL     OW27169   4.225   6.380   5.663
 8757SOL    HW127170   4.125   6.382   5.668
 8757SOL    HW227171   4.259   6.473   5.650
 8758SOL     OW27172   5.224   6.224   2.534
 8758SOL    HW127173   5.277   6.291   2.586
 8758SOL    HW227174   5.174   6.271   2.461
 8759SOL     OW27175   4.210   2.229   0.279
 8759SOL    HW127176   4.187   2.136   0.250
 8759SOL    HW227177   4.156   2.295   0.227
 8760SOL     OW27178   1.271   1.314   4.964
 8760SOL    HW127179   1.327   1.314   5.047
 8760SOL    HW227180   1.311   1.375   4.896
 8761SOL     OW27181   5.645   2.728   2.602
 8761SOL    HW127182   5.679   2.681   2.684
 8761SOL    HW227183   5.588   2.666   2.549
 8762SOL     OW27184   1.020   4.287   2.811
 8762SOL    HW127185   0.999   4.206   2.757
 8762SOL    HW227186   1.071   4.261   2.893
 8763SOL     OW27187   6.804   6.321   6.087
 8763SOL    HW127188   6.854   6.297   6.004
 8763SOL    HW227189   6.770   6.415   6.080
 8764SOL     OW27190   5.161   0.751   5.087
 8764SOL    HW127191   5.258   0.763   5.068
 8764SOL    HW227192   5.150   0.711   5.178
 8765SOL     OW27193   5.632   0.067   4.741
 8765SOL    HW127194   5.705   0.114   4.790
 8765SOL    HW227195   5.548   0.121   4.746
 8766SOL     OW27196   4.737   4.521   3.910
 8766SOL    HW127197   4.707   4.535   3.815
 8766SOL    HW227198   4.803   4.592   3.935
 8767SOL     OW27199   4.720   6.336   3.087
 8767SOL    HW127200   4.809   6.293   3.075
 8767SOL    HW227201   4.718   6.387   3.173
 8768SOL     OW27202   1.567   2.970   0.498
 8768SOL    HW127203   1.589   2.924   0.584
 8768SOL    HW227204   1.526   2.905   0.434
 8769SOL     OW27205   0.686   0.683   4.020
 8769SOL    HW127206   0.707   0.620   4.094
 8769SOL    HW227207   0.759   0.751   4.012
 8770SOL     OW27208   5.174   4.336   2.365
 8770SOL    HW127209   5.247   4.351   2.433
 8770SOL    HW227210   5.170   4.240   2.341
 8771SOL     OW27211   1.070   0.556   6.649
 8771SOL    HW127212   0.983   0.525   6.610
 8771SOL    HW227213   1.145   0.503   6.607
 8772SOL     OW27214   4.748   6.755   6.978
 8772SOL    HW127215   4.815   6.705   0.013
 8772SOL    HW227216   4.670   6.780   0.017
 8773SOL     OW27217   4.638   2.621   3.592
 8773SOL    HW127218   4.603   2.576   3.510
 8773SOL    HW227219   4.610   2.570   3.673
 8774SOL     OW27220   1.374   1.500   6.830
 8774SOL    HW127221   1.370   1.438   6.908
 8774SOL    HW227222   1.372   1.447   6.745
 8775SOL     OW27223   6.209   0.051   5.974
 8775SOL    HW127224   6.251   0.101   6.049
 8775SOL    HW227225   6.281   0.013   5.915
 8776SOL     OW27226   3.848   3.603   6.179
 8776SOL    HW127227   3.788   3.592   6.258
 8776SOL    HW227228   3.897   3.517   6.163
 8777SOL     OW27229   0.131   3.752   1.502
 8777SOL    HW127230   0.038   3.764   1.466
 8777SOL    HW227231   0.138   3.794   1.592
 8778SOL     OW27232   6.497   2.792   4.798
 8778SOL    HW127233   6.406   2.802   4.838
 8778SOL    HW227234   6.566   2.803   4.868
 8779SOL     OW27235   2.990   5.397   2.283
 8779SOL    HW127236   2.931   5.318   2.262
 8779SOL    HW227237   3.086   5.371   2.273
 8780SOL     OW27238   0.873   5.772   2.799
 8780SOL    HW127239   0.858   5.745   2.704
 8780SOL    HW227240   0.919   5.698   2.848
 8781SOL     OW27241   5.720   1.425   3.102
 8781SOL    HW127242   5.783   1.349   3.089
 8781SOL    HW227243   5.671   1.414   3.188
 8782SOL     OW27244   5.116   6.857   1.750
 8782SOL    HW127245   5.212   6.876   1.730
 8782SOL    HW227246   5.107   6.824   1.844
 8783SOL     OW27247   6.292   3.785   3.425
 8783SOL    HW127248   6.278   3.775   3.326
 8783SOL    HW227249   6.357   3.717   3.457
 8784SOL     OW27250   5.739   4.362   6.405
 8784SOL    HW127251   5.677   4.389   6.331
 8784SOL    HW227252   5.698   4.287   6.457
 8785SOL     OW27253   5.969   3.297   6.642
 8785SOL    HW127254   6.060   3.317   6.606
 8785SOL    HW227255   5.938   3.209   6.606
 8786SOL     OW27256   1.810   6.839   0.323
 8786SOL    HW127257   1.861   6.822   0.407
 8786SOL    HW227258   1.784   6.936   0.320
 8787SOL     OW27259   2.948   2.616   1.730
 8787SOL    HW127260   3.047   2.621   1.743
 8787SOL    HW227261   2.914   2.531   1.772
 8788SOL     OW27262   0.580   2.331   5.932
 8788SOL    HW127263   0.631   2.327   5.846
 8788SOL    HW227264   0.494   2.280   5.922
 8789SOL     OW27265   6.071   6.909   5.640
 8789SOL    HW127266   5.980   6.877   5.615
 8789SOL    HW227267   6.110   6.962   5.565
 8790SOL     OW27268   0.539   0.802   6.876
 8790SOL    HW127269   0.483   0.769   6.952
 8790SOL    HW227270   0.630   0.762   6.883
 8791SOL     OW27271   5.453   0.106   5.275
 8791SOL    HW127272   5.440   0.175   5.346
 8791SOL    HW227273   5.549   0.105   5.246
 8792SOL     OW27274   3.667   6.545   3.105
 8792SOL    HW127275   3.674   6.447   3.089
 8792SOL    HW227276   3.736   6.573   3.172
 8793SOL     OW27277   2.115   4.598   3.383
 8793SOL    HW127278   2.039   4.662   3.372
 8793SOL    HW227279   2.114   4.531   3.309
 8794SOL     OW27280   3.939   6.598   1.719
 8794SOL    HW127281   3.990   6.626   1.638
 8794SOL    HW227282   3.994   6.613   1.801
 8795SOL     OW27283   1.524   5.758   5.604
 8795SOL    HW127284   1.431   5.794   5.612
 8795SOL    HW227285   1.590   5.833   5.618
 8796SOL     OW27286   4.192   2.184   4.113
 8796SOL    HW127287   4.101   2.200   4.074
 8796SOL    HW227288   4.252   2.144   4.043
 8797SOL     OW27289   0.598   6.911   6.235
 8797SOL    HW127290   0.694   6.893   6.218
 8797SOL    HW227291   0.588   6.998   6.285
 8798SOL     OW27292   5.067   5.508   5.982
 8798SOL    HW127293   5.138   5.461   6.035
 8798SOL    HW227294   4.990   5.447   5.967
 8799SOL     OW27295   2.368   4.802   4.069
 8799SOL    HW127296   2.401   4.786   4.163
 8799SOL    HW227297   2.269   4.812   4.071
 8800SOL     OW27298   5.795   3.679   5.319
 8800SOL    HW127299   5.838   3.593   5.292
 8800SOL    HW227300   5.706   3.689   5.273
 8801SOL     OW27301   0.378   2.080   5.189
 8801SOL    HW127302   0.371   2.173   5.151
 8801SOL    HW227303   0.302   2.025   5.156
 8802SOL     OW27304   1.634   6.753   0.799
 8802SOL    HW127305   1.537   6.774   0.786
 8802SOL    HW227306   1.654   6.664   0.758
 8803SOL     OW27307   6.710   5.415   6.539
 8803SOL    HW127308   6.655   5.364   6.473
 8803SOL    HW227309   6.681   5.392   6.632
 8804SOL     OW27310   2.790   0.406   2.172
 8804SOL    HW127311   2.782   0.333   2.103
 8804SOL    HW227312   2.845   0.481   2.135
 8805SOL     OW27313   2.756   6.952   4.202
 8805SOL    HW127314   2.769   6.955   4.103
 8805SOL    HW227315   2.815   6.882   4.241
 8806SOL     OW27316   2.683   5.550   2.611
 8806SOL    HW127317   2.708   5.588   2.522
 8806SOL    HW227318   2.748   5.478   2.636
 8807SOL     OW27319   5.203   0.035   6.855
 8807SOL    HW127320   5.298   0.029   6.886
 8807SOL    HW227321   5.170   0.128   6.866
 8808SOL     OW27322   5.619   2.707   0.016
 8808SOL    HW127323   5.709   2.742   0.041
 8808SOL    HW227324   5.619   2.607   0.018
 8809SOL     OW27325   4.584   5.476   4.049
 8809SOL    HW127326   4.534   5.410   3.994
 8809SOL    HW227327   4.679   5.445   4.060
 8810SOL     OW27328   4.916   0.806   5.923
 8810SOL    HW127329   4.864   0.733   5.968
 8810SOL    HW227330   5.014   0.790   5.938
 8811SOL     OW27331   2.894   1.238   3.581
 8811SOL    HW127332   2.865   1.144   3.568
 8811SOL    HW227333   2.994   1.243   3.578
 8812SOL     OW27334   2.134   0.159   0.762
 8812SOL    HW127335   2.096   0.081   0.713
 8812SOL    HW227336   2.094   0.244   0.727
 8813SOL     OW27337   1.657   4.802   1.750
 8813SOL    HW127338   1.637   4.813   1.848
 8813SOL    HW227339   1.752   4.774   1.738
 8814SOL     OW27340   5.636   6.916   0.972
 8814SOL    HW127341   5.572   6.922   0.895
 8814SOL    HW227342   5.705   6.988   0.963
 8815SOL     OW27343   6.450   6.928   0.489
 8815SOL    HW127344   6.375   6.961   0.547
 8815SOL    HW227345   6.469   6.833   0.511
 8816SOL     OW27346   1.393   0.101   0.262
 8816SOL    HW127347   1.348   0.110   0.351
 8816SOL    HW227348   1.402   0.191   0.220
 8817SOL     OW27349   1.031   5.442   4.784
 8817SOL    HW127350   1.092   5.460   4.707
 8817SOL    HW227351   1.030   5.344   4.803
 8818SOL     OW27352   0.308   4.211   4.562
 8818SOL    HW127353   0.358   4.256   4.637
 8818SOL    HW227354   0.210   4.227   4.574
 8819SOL     OW27355   5.380   5.065   4.966
 8819SOL    HW127356   5.380   5.165   4.956
 8819SOL    HW227357   5.466   5.036   5.006
 8820SOL     OW27358   1.722   1.030   5.111
 8820SOL    HW127359   1.650   1.005   5.175
 8820SOL    HW227360   1.765   1.115   5.141
 8821SOL     OW27361   3.179   6.188   0.012
 8821SOL    HW127362   3.129   6.253   6.974
 8821SOL    HW227363   3.115   6.134   0.066
 8822SOL     OW27364   0.531   0.026   4.744
 8822SOL    HW127365   0.506   6.961   4.697
 8822SOL    HW227366   0.562   0.004   4.837
 8823SOL     OW27367   2.608   0.590   1.131
 8823SOL    HW127368   2.537   0.616   1.196
 8823SOL    HW227369   2.643   0.672   1.086
 8824SOL     OW27370   0.806   3.104   0.575
 8824SOL    HW127371   0.828   3.029   0.638
 8824SOL    HW227372   0.814   3.191   0.624
 8825SOL     OW27373   2.160   0.289   2.690
 8825SOL    HW127374   2.081   0.234   2.662
 8825SOL    HW227375   2.244   0.242   2.663
 8826SOL     OW27376   6.467   3.421   1.085
 8826SOL    HW127377   6.388   3.468   1.125
 8826SOL    HW227378   6.441   3.327   1.063
 8827SOL     OW27379   3.836   1.403   3.038
 8827SOL    HW127380   3.892   1.456   2.975
 8827SOL    HW227381   3.880   1.316   3.058
 8828SOL     OW27382   4.792   5.743   5.384
 8828SOL    HW127383   4.833   5.785   5.303
 8828SOL    HW227384   4.744   5.813   5.437
 8829SOL     OW27385   5.256   2.190   0.733
 8829SOL    HW127386   5.242   2.275   0.785
 8829SOL    HW227387   5.324   2.133   0.780
 8830SOL     OW27388   1.250   1.703   2.470
 8830SOL    HW127389   1.277   1.798   2.453
 8830SOL    HW227390   1.215   1.694   2.563
 8831SOL     OW27391   5.013   1.805   4.109
 8831SOL    HW127392   4.937   1.779   4.049
 8831SOL    HW227393   5.064   1.723   4.135
 8832SOL     OW27394   6.955   5.211   3.155
 8832SOL    HW127395   6.977   5.128   3.207
 8832SOL    HW227396   6.856   5.219   3.146
 8833SOL     OW27397   2.306   5.627   5.261
 8833SOL    HW127398   2.223   5.602   5.310
 8833SOL    HW227399   2.341   5.548   5.211
 8834SOL     OW27400   5.118   3.140   4.831
 8834SOL    HW127401   5.098   3.236   4.848
 8834SOL    HW227402   5.041   3.098   4.782
 8835SOL     OW27403   5.391   1.082   6.001
 8835SOL    HW127404   5.372   1.138   5.920
 8835SOL    HW227405   5.305   1.056   6.044
 8836SOL     OW27406   4.922   2.948   0.213
 8836SOL    HW127407   5.016   2.912   0.213
 8836SOL    HW227408   4.861   2.881   0.172
 8837SOL     OW27409   6.983   6.042   3.133
 8837SOL    HW127410   6.908   6.078   3.077
 8837SOL    HW227411   6.949   6.026   3.226
 8838SOL     OW27412   2.801   5.678   3.077
 8838SOL    HW127413   2.831   5.684   3.172
 8838SOL    HW227414   2.715   5.627   3.072
 8839SOL     OW27415   5.400   5.093   3.786
 8839SOL    HW127416   5.466   5.018   3.781
 8839SOL    HW227417   5.448   5.180   3.795
 8840SOL     OW27418   6.796   1.920   2.347
 8840SOL    HW127419   6.863   1.965   2.406
 8840SOL    HW227420   6.708   1.916   2.393
 8841SOL     OW27421   0.650   0.840   5.032
 8841SOL    HW127422   0.610   0.837   5.123
 8841SOL    HW227423   0.726   0.904   5.031
 8842SOL     OW27424   3.232   2.920   2.376
 8842SOL    HW127425   3.291   2.879   2.446
 8842SOL    HW227426   3.196   3.007   2.410
 8843SOL     OW27427   1.699   3.061   6.085
 8843SOL    HW127428   1.621   3.058   6.023
 8843SOL    HW227429   1.773   3.113   6.043
 8844SOL     OW27430   6.794   2.380   6.653
 8844SOL    HW127431   6.850   2.416   6.728
 8844SOL    HW227432   6.730   2.313   6.690
 8845SOL     OW27433   3.423   3.320   6.941
 8845SOL    HW127434   3.514   3.353   6.914
 8845SOL    HW227435   3.363   3.321   6.861
 8846SOL     OW27436   3.535   5.660   3.772
 8846SOL    HW127437   3.454   5.643   3.715
 8846SOL    HW227438   3.617   5.643   3.718
 8847SOL     OW27439   2.579   0.790   3.177
 8847SOL    HW127440   2.619   0.861   3.235
 8847SOL    HW227441   2.590   0.815   3.080
 8848SOL     OW27442   2.162   0.851   1.260
 8848SOL    HW127443   2.080   0.906   1.246
 8848SOL    HW227444   2.241   0.911   1.270
 8849SOL     OW27445   3.418   6.401   3.515
 8849SOL    HW127446   3.405   6.465   3.439
 8849SOL    HW227447   3.514   6.374   3.519
 8850SOL     OW27448   0.907   2.266   0.062
 8850SOL    HW127449   0.966   2.343   0.040
 8850SOL    HW227450   0.812   2.287   0.036
 8851SOL     OW27451   1.206   3.848   3.742
 8851SOL    HW127452   1.200   3.897   3.655
 8851SOL    HW227453   1.174   3.908   3.816
 8852SOL     OW27454   0.199   2.643   5.363
 8852SOL    HW127455   0.294   2.641   5.392
 8852SOL    HW227456   0.186   2.713   5.294
 8853SOL     OW27457   3.189   0.898   1.407
 8853SOL    HW127458   3.191   0.984   1.457
 8853SOL    HW227459   3.095   0.877   1.380
 8854SOL     OW27460   2.822   2.510   5.814
 8854SOL    HW127461   2.796   2.416   5.792
 8854SOL    HW227462   2.865   2.512   5.904
 8855SOL     OW27463   6.602   5.386   1.163
 8855SOL    HW127464   6.615   5.355   1.257
 8855SOL    HW227465   6.673   5.346   1.105
 8856SOL     OW27466   0.716   6.153   6.234
 8856SOL    HW127467   0.632   6.100   6.227
 8856SOL    HW227468   0.704   6.241   6.187
 8857SOL     OW27469   6.978   1.847   4.477
 8857SOL    HW127470   6.934   1.764   4.442
 8857SOL    HW227471   0.017   1.822   4.555
 8858SOL     OW27472   0.078   4.005   4.330
 8858SOL    HW127473   0.174   4.032   4.318
 8858SOL    HW227474   0.019   4.067   4.278
 8859SOL     OW27475   1.600   1.278   3.681
 8859SOL    HW127476   1.627   1.344   3.611
 8859SOL    HW227477   1.682   1.233   3.717
 8860SOL     OW27478   6.587   2.143   2.060
 8860SOL    HW127479   6.588   2.153   1.961
 8860SOL    HW227480   6.614   2.230   2.103
 8861SOL     OW27481   4.118   1.143   6.023
 8861SOL    HW127482   4.167   1.062   5.993
 8861SOL    HW227483   4.152   1.223   5.973
 8862SOL     OW27484   5.431   6.675   3.900
 8862SOL    HW127485   5.369   6.625   3.839
 8862SOL    HW227486   5.519   6.686   3.855
 8863SOL     OW27487   2.577   4.685   3.943
 8863SOL    HW127488   2.501   4.749   3.952
 8863SOL    HW227489   2.550   4.595   3.976
 8864SOL     OW27490   2.810   4.959   6.345
 8864SOL    HW127491   2.876   4.884   6.341
 8864SOL    HW227492   2.808   5.007   6.257
 8865SOL     OW27493   3.116   0.542   4.677
 8865SOL    HW127494   3.153   0.634   4.664
 8865SOL    HW227495   3.190   0.478   4.696
 8866SOL     OW27496   5.360   0.143   3.051
 8866SOL    HW127497   5.302   0.220   3.025
 8866SOL    HW227498   5.328   0.060   3.004
 8867SOL     OW27499   5.856   4.704   3.624
 8867SOL    HW127500   5.836   4.637   3.553
 8867SOL    HW227501   5.772   4.755   3.646
 8868SOL     OW27502   0.260   3.085   1.494
 8868SOL    HW127503   0.314   3.115   1.573
 8868SOL    HW227504   0.320   3.047   1.424
 8869SOL     OW27505   3.737   6.204   5.230
 8869SOL    HW127506   3.789   6.120   5.213
 8869SOL    HW227507   3.706   6.243   5.143
 8870SOL     OW27508   2.607   6.688   1.108
 8870SOL    HW127509   2.633   6.738   1.025
 8870SOL    HW227510   2.644   6.736   1.188
 8871SOL     OW27511   1.643   0.836   4.098
 8871SOL    HW127512   1.561   0.880   4.064
 8871SOL    HW227513   1.686   0.783   4.025
 8872SOL     OW27514   1.479   4.496   5.428
 8872SOL    HW127515   1.490   4.528   5.334
 8872SOL    HW227516   1.477   4.396   5.430
 8873SOL     OW27517   1.123   6.970   2.211
 8873SOL    HW127518   1.135   6.887   2.157
 8873SOL    HW227519   1.171   6.961   2.298
 8874SOL     OW27520   2.443   5.459   2.472
 8874SOL    HW127521   2.441   5.520   2.393
 8874SOL    HW227522   2.536   5.457   2.510
 8875SOL     OW27523   6.915   3.795   4.422
 8875SOL    HW127524   6.968   3.879   4.412
 8875SOL    HW227525   6.921   3.742   4.337
 8876SOL     OW27526   2.138   6.976   5.598
 8876SOL    HW127527   2.128   0.009   5.513
 8876SOL    HW227528   2.200   6.899   5.582
 8877SOL     OW27529   2.586   1.792   4.171
 8877SOL    HW127530   2.653   1.724   4.139
 8877SOL    HW227531   2.631   1.858   4.231
 8878SOL     OW27532   4.728   5.183   0.828
 8878SOL    HW127533   4.673   5.262   0.801
 8878SOL    HW227534   4.813   5.214   0.871
 8879SOL     OW27535   4.368   4.632   2.509
 8879SOL    HW127536   4.375   4.625   2.409
 8879SOL    HW227537   4.282   4.676   2.533
 8880SOL     OW27538   4.422   6.433   5.057
 8880SOL    HW127539   4.441   6.413   5.153
 8880SOL    HW227540   4.508   6.454   5.010
 8881SOL     OW27541   5.446   6.290   4.017
 8881SOL    HW127542   5.441   6.203   3.968
 8881SOL    HW227543   5.493   6.277   4.104
 8882SOL     OW27544   5.154   0.822   1.584
 8882SOL    HW127545   5.126   0.906   1.540
 8882SOL    HW227546   5.148   0.832   1.684
 8883SOL     OW27547   2.210   6.257   5.994
 8883SOL    HW127548   2.182   6.167   5.962
 8883SOL    HW227549   2.130   6.317   5.998
 8884SOL     OW27550   5.817   3.119   5.410
 8884SOL    HW127551   5.914   3.140   5.400
 8884SOL    HW227552   5.802   3.022   5.391
 8885SOL     OW27553   5.265   4.502   1.143
 8885SOL    HW127554   5.207   4.420   1.149
 8885SOL    HW227555   5.352   4.484   1.188
 8886SOL     OW27556   2.800   6.212   5.035
 8886SOL    HW127557   2.898   6.198   5.050
 8886SOL    HW227558   2.785   6.299   4.988
 8887SOL     OW27559   3.908   1.050   1.059
 8887SOL    HW127560   3.953   1.057   0.970
 8887SOL    HW227561   3.810   1.061   1.048
 8888SOL     OW27562   2.125   1.522   5.318
 8888SOL    HW127563   2.155   1.578   5.241
 8888SOL    HW227564   2.188   1.445   5.329
 8889SOL     OW27565   6.664   0.052   0.141
 8889SOL    HW127566   6.605   0.052   0.060
 8889SOL    HW227567   6.648   0.135   0.194
 8890SOL     OW27568   0.308   5.979   5.528
 8890SOL    HW127569   0.361   6.047   5.578
 8890SOL    HW227570   0.274   6.019   5.443
 8891SOL     OW27571   3.630   3.487   6.836
 8891SOL    HW127572   3.685   3.565   6.866
 8891SOL    HW227573   3.582   3.510   6.752
 8892SOL     OW27574   3.737   4.860   2.838
 8892SOL    HW127575   3.650   4.907   2.852
 8892SOL    HW227576   3.725   4.762   2.855
 8893SOL     OW27577   1.005   5.227   4.033
 8893SOL    HW127578   0.921   5.234   3.980
 8893SOL    HW227579   0.988   5.258   4.126
 8894SOL     OW27580   3.173   1.591   6.377
 8894SOL    HW127581   3.126   1.583   6.289
 8894SOL    HW227582   3.243   1.520   6.384
 8895SOL     OW27583   0.114   2.382   2.142
 8895SOL    HW127584   0.049   2.325   2.191
 8895SOL    HW227585   0.073   2.472   2.124
 8896SOL     OW27586   2.179   3.122   4.935
 8896SOL    HW127587   2.264   3.075   4.956
 8896SOL    HW227588   2.118   3.060   4.886
 8897SOL     OW27589   2.442   2.345   3.729
 8897SOL    HW127590   2.531   2.389   3.714
 8897SOL    HW227591   2.394   2.392   3.802
 8898SOL     OW27592   4.897   3.611   2.615
 8898SOL    HW127593   4.911   3.599   2.517
 8898SOL    HW227594   4.834   3.688   2.630
 8899SOL     OW27595   1.091   4.496   0.901
 8899SOL    HW127596   1.065   4.580   0.854
 8899SOL    HW227597   1.137   4.519   0.987
 8900SOL     OW27598   5.252   3.115   3.345
 8900SOL    HW127599   5.265   3.200   3.396
 8900SOL    HW227600   5.267   3.132   3.247
 8901SOL     OW27601   1.349   1.702   4.966
 8901SOL    HW127602   1.328   1.668   4.875
 8901SOL    HW227603   1.443   1.677   4.991
 8902SOL     OW27604   0.553   5.580   0.535
 8902SOL    HW127605   0.519   5.601   0.443
 8902SOL    HW227606   0.583   5.484   0.538
 8903SOL     OW27607   0.977   1.894   4.397
 8903SOL    HW127608   1.064   1.924   4.436
 8903SOL    HW227609   0.930   1.835   4.463
 8904SOL     OW27610   0.332   0.712   4.451
 8904SOL    HW127611   0.329   0.744   4.546
 8904SOL    HW227612   0.308   0.615   4.448
 8905SOL     OW27613   2.166   3.422   3.419
 8905SOL    HW127614   2.149   3.520   3.409
 8905SOL    HW227615   2.166   3.379   3.329
 8906SOL     OW27616   0.547   6.301   0.822
 8906SOL    HW127617   0.611   6.369   0.786
 8906SOL    HW227618   0.580   6.209   0.800
 8907SOL     OW27619   3.368   2.680   5.672
 8907SOL    HW127620   3.453   2.631   5.689
 8907SOL    HW227621   3.324   2.643   5.590
 8908SOL     OW27622   1.850   5.578   0.230
 8908SOL    HW127623   1.793   5.652   0.267
 8908SOL    HW227624   1.880   5.603   0.138
 8909SOL     OW27625   2.384   1.589   5.748
 8909SOL    HW127626   2.383   1.615   5.651
 8909SOL    HW227627   2.291   1.595   5.785
 8910SOL     OW27628   0.772   3.314   5.616
 8910SOL    HW127629   0.765   3.388   5.549
 8910SOL    HW227630   0.781   3.352   5.708
 8911SOL     OW27631   4.692   2.734   4.575
 8911SOL    HW127632   4.670   2.780   4.662
 8911SOL    HW227633   4.712   2.803   4.505
 8912SOL     OW27634   3.045   3.752   0.198
 8912SOL    HW127635   3.066   3.676   0.260
 8912SOL    HW227636   2.983   3.720   0.126
 8913SOL     OW27637   3.809   5.349   6.661
 8913SOL    HW127638   3.827   5.444   6.635
 8913SOL    HW227639   3.736   5.312   6.603
 8914SOL     OW27640   4.599   0.219   4.670
 8914SOL    HW127641   4.638   0.240   4.760
 8914SOL    HW227642   4.611   0.122   4.651
 8915SOL     OW27643   1.555   2.425   3.523
 8915SOL    HW127644   1.480   2.453   3.464
 8915SOL    HW227645   1.607   2.505   3.552
 8916SOL     OW27646   6.591   3.140   1.079
 8916SOL    HW127647   6.667   3.183   1.030
 8916SOL    HW227648   6.525   3.104   1.013
 8917SOL     OW27649   6.022   2.823   0.109
 8917SOL    HW127650   6.084   2.839   0.186
 8917SOL    HW227651   6.064   2.757   0.046
 8918SOL     OW27652   0.407   4.674   1.197
 8918SOL    HW127653   0.496   4.631   1.179
 8918SOL    HW227654   0.336   4.624   1.148
 8919SOL     OW27655   4.872   4.151   0.175
 8919SOL    HW127656   4.788   4.162   0.228
 8919SOL    HW227657   4.863   4.073   0.113
 8920SOL     OW27658   0.050   1.757   6.649
 8920SOL    HW127659   0.076   1.684   6.712
 8920SOL    HW227660   0.086   1.844   6.682
 8921SOL     OW27661   1.786   3.086   1.486
 8921SOL    HW127662   1.864   3.032   1.517
 8921SOL    HW227663   1.748   3.138   1.563
 8922SOL     OW27664   4.139   5.252   2.043
 8922SOL    HW127665   4.183   5.307   2.115
 8922SOL    HW227666   4.067   5.195   2.084
 8923SOL     OW27667   1.817   1.971   6.410
 8923SOL    HW127668   1.915   1.982   6.391
 8923SOL    HW227669   1.775   2.061   6.421
 8924SOL     OW27670   5.249   5.562   5.304
 8924SOL    HW127671   5.171   5.584   5.245
 8924SOL    HW227672   5.224   5.581   5.399
 8925SOL     OW27673   0.828   0.842   3.318
 8925SOL    HW127674   0.738   0.868   3.352
 8925SOL    HW227675   0.833   0.861   3.220
 8926SOL     OW27676   6.327   3.180   6.100
 8926SOL    HW127677   6.408   3.135   6.062
 8926SOL    HW227678   6.245   3.127   6.078
 8927SOL     OW27679   0.511   0.994   4.665
 8927SOL    HW127680   0.415   0.973   4.681
 8927SOL    HW227681   0.568   0.932   4.719
 8928SOL     OW27682   1.383   0.121   6.171
 8928SOL    HW127683   1.407   0.152   6.079
 8928SOL    HW227684   1.296   0.072   6.168
 8929SOL     OW27685   5.716   1.776   4.855
 8929SOL    HW127686   5.657   1.817   4.924
 8929SOL    HW227687   5.791   1.838   4.834
 8930SOL     OW27688   1.282   2.913   4.648
 8930SOL    HW127689   1.330   2.998   4.628
 8930SOL    HW227690   1.347   2.837   4.649
 8931SOL     OW27691   3.067   3.790   1.166
 8931SOL    HW127692   2.994   3.838   1.216
 8931SOL    HW227693   3.083   3.701   1.208
 8932SOL     OW27694   5.987   2.284   1.912
 8932SOL    HW127695   6.028   2.367   1.951
 8932SOL    HW227696   5.914   2.311   1.848
 8933SOL     OW27697   2.896   3.030   5.967
 8933SOL    HW127698   2.832   3.017   5.891
 8933SOL    HW227699   2.949   3.114   5.952
 8934SOL     OW27700   2.473   6.006   4.383
 8934SOL    HW127701   2.386   5.959   4.369
 8934SOL    HW227702   2.485   6.025   4.481
 8935SOL     OW27703   0.733   4.568   0.309
 8935SOL    HW127704   0.765   4.521   0.392
 8935SOL    HW227705   0.698   4.500   0.245
 8936SOL     OW27706   1.188   4.032   2.255
 8936SOL    HW127707   1.141   3.949   2.224
 8936SOL    HW227708   1.286   4.013   2.265
 8937SOL     OW27709   0.429   0.090   5.712
 8937SOL    HW127710   0.455   0.104   5.807
 8937SOL    HW227711   0.339   0.131   5.695
 8938SOL     OW27712   0.698   6.422   0.413
 8938SOL    HW127713   0.719   6.328   0.386
 8938SOL    HW227714   0.733   6.439   0.505
 8939SOL     OW27715   4.913   3.241   4.596
 8939SOL    HW127716   4.919   3.339   4.578
 8939SOL    HW227717   4.830   3.222   4.648
 8940SOL     OW27718   0.123   1.342   2.245
 8940SOL    HW127719   0.057   1.365   2.318
 8940SOL    HW227720   0.215   1.345   2.282
 8941SOL     OW27721   6.311   2.594   5.642
 8941SOL    HW127722   6.336   2.691   5.642
 8941SOL    HW227723   6.273   2.569   5.552
 8942SOL     OW27724   6.818   4.525   4.793
 8942SOL    HW127725   6.760   4.600   4.761
 8942SOL    HW227726   6.842   4.540   4.889
 8943SOL     OW27727   3.560   4.977   6.113
 8943SOL    HW127728   3.501   4.918   6.057
 8943SOL    HW227729   3.629   5.020   6.055
 8944SOL     OW27730   5.507   4.626   5.358
 8944SOL    HW127731   5.605   4.631   5.340
 8944SOL    HW227732   5.458   4.676   5.287
 8945SOL     OW27733   0.919   0.397   2.905
 8945SOL    HW127734   0.884   0.339   2.832
 8945SOL    HW227735   1.005   0.361   2.940
 8946SOL     OW27736   3.224   1.606   4.960
 8946SOL    HW127737   3.258   1.542   5.029
 8946SOL    HW227738   3.287   1.608   4.883
 8947SOL     OW27739   2.083   3.601   5.537
 8947SOL    HW127740   2.167   3.549   5.553
 8947SOL    HW227741   2.100   3.698   5.551
 8948SOL     OW27742   6.444   6.448   4.682
 8948SOL    HW127743   6.506   6.441   4.603
 8948SOL    HW227744   6.476   6.386   4.754
 8949SOL     OW27745   2.717   6.758   0.875
 8949SOL    HW127746   2.768   6.671   0.877
 8949SOL    HW227747   2.742   6.809   0.793
 8950SOL     OW27748   4.698   4.504   6.041
 8950SOL    HW127749   4.670   4.419   6.086
 8950SOL    HW227750   4.663   4.504   5.947
 8951SOL     OW27751   1.118   2.205   5.232
 8951SOL    HW127752   1.074   2.116   5.246
 8951SOL    HW227753   1.103   2.262   5.313
 8952SOL     OW27754   1.165   6.583   2.735
 8952SOL    HW127755   1.175   6.682   2.737
 8952SOL    HW227756   1.075   6.557   2.770
 8953SOL     OW27757   1.319   4.212   6.442
 8953SOL    HW127758   1.293   4.149   6.516
 8953SOL    HW227759   1.240   4.228   6.383
 8954SOL     OW27760   0.748   0.415   4.878
 8954SOL    HW127761   0.690   0.416   4.959
 8954SOL    HW227762   0.731   0.331   4.826
 8955SOL     OW27763   0.010   5.149   2.435
 8955SOL    HW127764   6.971   5.230   2.431
 8955SOL    HW227765   0.103   5.175   2.462
 8956SOL     OW27766   1.411   1.053   6.669
 8956SOL    HW127767   1.357   1.022   6.591
 8956SOL    HW227768   1.483   0.986   6.688
 8957SOL     OW27769   2.890   4.537   1.186
 8957SOL    HW127770   2.935   4.584   1.110
 8957SOL    HW227771   2.849   4.604   1.247
 8958SOL     OW27772   0.716   1.188   4.788
 8958SOL    HW127773   0.642   1.122   4.772
 8958SOL    HW227774   0.689   1.277   4.751
 8959SOL     OW27775   1.688   4.442   1.410
 8959SOL    HW127776   1.661   4.420   1.504
 8959SOL    HW227777   1.733   4.531   1.408
 8960SOL     OW27778   5.071   4.542   2.838
 8960SOL    HW127779   5.070   4.442   2.833
 8960SOL    HW227780   5.080   4.570   2.933
 8961SOL     OW27781   2.404   1.062   4.648
 8961SOL    HW127782   2.447   1.005   4.718
 8961SOL    HW227783   2.309   1.034   4.636
 8962SOL     OW27784   6.056   5.812   2.142
 8962SOL    HW127785   5.984   5.862   2.094
 8962SOL    HW227786   6.025   5.720   2.164
 8963SOL     OW27787   4.033   5.913   4.352
 8963SOL    HW127788   3.954   5.972   4.338
 8963SOL    HW227789   4.098   5.957   4.413
 8964SOL     OW27790   4.924   3.303   3.217
 8964SOL    HW127791   4.927   3.328   3.121
 8964SOL    HW227792   4.929   3.204   3.226
 8965SOL     OW27793   2.491   4.935   0.469
 8965SOL    HW127794   2.560   5.003   0.494
 8965SOL    HW227795   2.410   4.981   0.433
 8966SOL     OW27796   6.722   4.012   6.913
 8966SOL    HW127797   6.704   4.033   6.817
 8966SOL    HW227798   6.649   3.953   6.948
 8967SOL     OW27799   4.057   0.243   1.674
 8967SOL    HW127800   4.116   0.320   1.650
 8967SOL    HW227801   3.993   0.225   1.599
 8968SOL     OW27802   4.882   4.965   3.140
 8968SOL    HW127803   4.981   4.977   3.147
 8968SOL    HW227804   4.863   4.885   3.084
 8969SOL     OW27805   6.902   1.288   4.372
 8969SOL    HW127806   6.995   1.311   4.343
 8969SOL    HW227807   6.899   1.280   4.472
 8970SOL     OW27808   2.308   3.294   0.603
 8970SOL    HW127809   2.221   3.268   0.645
 8970SOL    HW227810   2.328   3.231   0.527
 8971SOL     OW27811   5.408   5.588   1.535
 8971SOL    HW127812   5.403   5.575   1.634
 8971SOL    HW227813   5.322   5.625   1.501
 8972SOL     OW27814   5.275   4.493   6.257
 8972SOL    HW127815   5.177   4.514   6.263
 8972SOL    HW227816   5.294   4.444   6.173
 8973SOL     OW27817   0.927   2.895   2.286
 8973SOL    HW127818   0.891   2.977   2.242
 8973SOL    HW227819   0.855   2.852   2.341
 8974SOL     OW27820   1.024   4.372   5.670
 8974SOL    HW127821   1.064   4.282   5.687
 8974SOL    HW227822   1.020   4.389   5.571
 8975SOL     OW27823   1.654   6.736   5.663
 8975SOL    HW127824   1.599   6.768   5.739
 8975SOL    HW227825   1.744   6.708   5.696
 8976SOL     OW27826   7.006   4.792   5.206
 8976SOL    HW127827   0.043   4.744   5.274
 8976SOL    HW227828   6.974   4.727   5.138
 8977SOL     OW27829   5.865   2.399   0.105
 8977SOL    HW127830   5.798   2.372   0.174
 8977SOL    HW227831   5.915   2.318   0.074
 8978SOL     OW27832   5.749   0.179   4.501
 8978SOL    HW127833   5.704   0.136   4.579
 8978SOL    HW227834   5.836   0.132   4.482
 8979SOL     OW27835   1.189   3.679   4.313
 8979SOL    HW127836   1.238   3.643   4.393
 8979SOL    HW227837   1.244   3.663   4.231
 8980SOL     OW27838   3.033   2.618   5.636
 8980SOL    HW127839   2.961   2.598   5.702
 8980SOL    HW227840   3.013   2.571   5.550
 8981SOL     OW27841   4.242   1.677   5.771
 8981SOL    HW127842   4.227   1.775   5.755
 8981SOL    HW227843   4.154   1.629   5.769
 8982SOL     OW27844   0.949   2.525   1.272
 8982SOL    HW127845   0.954   2.604   1.333
 8982SOL    HW227846   1.041   2.491   1.253
 8983SOL     OW27847   1.657   5.868   6.903
 8983SOL    HW127848   1.674   5.947   6.961
 8983SOL    HW227849   1.662   5.895   6.807
 8984SOL     OW27850   6.953   0.098   4.707
 8984SOL    HW127851   6.910   0.040   4.638
 8984SOL    HW227852   6.889   0.115   4.782
 8985SOL     OW27853   2.952   2.584   0.639
 8985SOL    HW127854   2.955   2.600   0.738
 8985SOL    HW227855   2.945   2.486   0.621
 8986SOL     OW27856   4.418   5.224   2.494
 8986SOL    HW127857   4.400   5.306   2.548
 8986SOL    HW227858   4.417   5.144   2.553
 8987SOL     OW27859   4.799   6.870   1.234
 8987SOL    HW127860   4.794   6.819   1.319
 8987SOL    HW227861   4.806   6.968   1.254
 8988SOL     OW27862   1.285   3.470   5.591
 8988SOL    HW127863   1.378   3.476   5.554
 8988SOL    HW227864   1.229   3.543   5.553
 8989SOL     OW27865   5.082   3.957   1.409
 8989SOL    HW127866   5.026   3.968   1.327
 8989SOL    HW227867   5.179   3.958   1.384
 8990SOL     OW27868   1.954   5.992   3.274
 8990SOL    HW127869   1.951   5.910   3.331
 8990SOL    HW227870   2.048   6.007   3.242
 8991SOL     OW27871   1.442   1.809   6.714
 8991SOL    HW127872   1.524   1.863   6.696
 8991SOL    HW227873   1.370   1.868   6.749
 8992SOL     OW27874   5.592   1.523   6.899
 8992SOL    HW127875   5.531   1.517   6.820
 8992SOL    HW227876   5.667   1.585   6.878
 8993SOL     OW27877   5.019   2.586   2.638
 8993SOL    HW127878   4.973   2.498   2.621
 8993SOL    HW227879   4.951   2.660   2.634
 8994SOL     OW27880   1.551   4.618   4.625
 8994SOL    HW127881   1.598   4.691   4.673
 8994SOL    HW227882   1.466   4.653   4.585
 8995SOL     OW27883   0.979   2.820   0.113
 8995SOL    HW127884   0.962   2.861   0.202
 8995SOL    HW227885   0.958   2.886   0.041
 8996SOL     OW27886   6.009   5.081   0.522
 8996SOL    HW127887   6.024   4.982   0.524
 8996SOL    HW227888   5.937   5.105   0.587
 8997SOL     OW27889   4.746   1.211   5.779
 8997SOL    HW127890   4.730   1.247   5.871
 8997SOL    HW227891   4.710   1.277   5.712
 8998SOL     OW27892   6.301   3.900   4.307
 8998SOL    HW127893   6.305   3.882   4.406
 8998SOL    HW227894   6.235   3.838   4.265
 8999SOL     OW27895   4.782   6.189   6.944
 8999SOL    HW127896   4.693   6.234   6.945
 8999SOL    HW227897   4.841   6.231   7.013
 9000SOL     OW27898   1.747   4.153   0.972
 9000SOL    HW127899   1.824   4.176   0.912
 9000SOL    HW227900   1.720   4.058   0.956
 9001SOL     OW27901   1.437   5.681   2.322
 9001SOL    HW127902   1.392   5.757   2.275
 9001SOL    HW227903   1.500   5.717   2.391
 9002SOL     OW27904   0.136   4.802   4.931
 9002SOL    HW127905   0.198   4.724   4.923
 9002SOL    HW227906   0.189   4.887   4.932
 9003SOL     OW27907   5.071   3.313   1.733
 9003SOL    HW127908   5.019   3.326   1.817
 9003SOL    HW227909   5.010   3.325   1.654
 9004SOL     OW27910   3.554   6.882   1.310
 9004SOL    HW127911   3.631   6.910   1.253
 9004SOL    HW227912   3.485   6.837   1.254
 9005SOL     OW27913   5.478   2.491   4.113
 9005SOL    HW127914   5.477   2.411   4.052
 9005SOL    HW227915   5.534   2.471   4.193
 9006SOL     OW27916   2.390   6.257   0.965
 9006SOL    HW127917   2.356   6.347   0.992
 9006SOL    HW227918   2.450   6.221   1.036
 9007SOL     OW27919   3.304   0.941   4.081
 9007SOL    HW127920   3.329   0.976   4.171
 9007SOL    HW227921   3.265   1.015   4.026
 9008SOL     OW27922   1.106   5.551   3.743
 9008SOL    HW127923   1.144   5.586   3.657
 9008SOL    HW227924   1.088   5.454   3.735
 9009SOL     OW27925   3.081   6.680   0.549
 9009SOL    HW127926   3.062   6.736   0.469
 9009SOL    HW227927   3.093   6.738   0.629
 9010SOL     OW27928   1.276   6.573   3.620
 9010SOL    HW127929   1.250   6.658   3.665
 9010SOL    HW227930   1.372   6.552   3.638
 9011SOL     OW27931   5.732   2.369   1.794
 9011SOL    HW127932   5.661   2.310   1.832
 9011SOL    HW227933   5.706   2.397   1.701
 9012SOL     OW27934   1.842   3.957   1.229
 9012SOL    HW127935   1.752   3.992   1.202
 9012SOL    HW227936   1.893   3.931   1.147
 9013SOL     OW27937   0.072   6.500   5.136
 9013SOL    HW127938   0.057   6.596   5.111
 9013SOL    HW227939   7.014   6.468   5.191
 9014SOL     OW27940   6.038   1.756   6.943
 9014SOL    HW127941   6.020   1.818   0.000
 9014SOL    HW227942   5.952   1.732   6.898
 9015SOL     OW27943   4.800   1.532   1.591
 9015SOL    HW127944   4.783   1.462   1.661
 9015SOL    HW227945   4.842   1.612   1.633
 9016SOL     OW27946   0.293   6.816   6.500
 9016SOL    HW127947   0.308   6.754   6.423
 9016SOL    HW227948   0.356   6.793   6.574
 9017SOL     OW27949   4.368   1.997   3.137
 9017SOL    HW127950   4.443   2.062   3.151
 9017SOL    HW227951   4.403   1.904   3.141
 9018SOL     OW27952   3.708   2.288   6.932
 9018SOL    HW127953   3.749   2.324   7.015
 9018SOL    HW227954   3.773   2.296   6.856
 9019SOL     OW27955   1.397   6.574   2.133
 9019SOL    HW127956   1.434   6.575   2.226
 9019SOL    HW227957   1.399   6.666   2.095
 9020SOL     OW27958   0.555   4.122   1.487
 9020SOL    HW127959   0.623   4.080   1.427
 9020SOL    HW227960   0.472   4.066   1.488
 9021SOL     OW27961   6.442   0.285   3.624
 9021SOL    HW127962   6.428   0.189   3.646
 9021SOL    HW227963   6.354   0.329   3.610
 9022SOL     OW27964   3.173   2.042   6.915
 9022SOL    HW127965   3.224   1.960   6.891
 9022SOL    HW227966   3.185   2.061   7.013
 9023SOL     OW27967   3.154   3.178   2.439
 9023SOL    HW127968   3.111   3.180   2.349
 9023SOL    HW227969   3.220   3.253   2.446
 9024SOL     OW27970   1.111   4.561   4.956
 9024SOL    HW127971   1.029   4.544   4.903
 9024SOL    HW227972   1.170   4.625   4.907
 9025SOL     OW27973   0.652   5.181   0.315
 9025SOL    HW127974   0.731   5.195   0.255
 9025SOL    HW227975   0.571   5.164   0.259
 9026SOL     OW27976   3.926   3.040   1.059
 9026SOL    HW127977   3.834   3.073   1.039
 9026SOL    HW227978   3.938   2.948   1.022
 9027SOL     OW27979   1.355   2.442   3.728
 9027SOL    HW127980   1.441   2.427   3.680
 9027SOL    HW227981   1.359   2.529   3.777
 9028SOL     OW27982   2.648   3.594   5.396
 9028SOL    HW127983   2.719   3.585   5.466
 9028SOL    HW227984   2.667   3.674   5.339
 9029SOL     OW27985   4.122   6.577   4.817
 9029SOL    HW127986   4.040   6.597   4.871
 9029SOL    HW227987   4.103   6.595   4.721
 9030SOL     OW27988   2.378   1.646   3.545
 9030SOL    HW127989   2.334   1.580   3.605
 9030SOL    HW227990   2.399   1.603   3.457
 9031SOL     OW27991   4.234   5.555   4.552
 9031SOL    HW127992   4.258   5.600   4.638
 9031SOL    HW227993   4.139   5.576   4.529
 9032SOL     OW27994   3.876   3.391   0.376
 9032SOL    HW127995   3.900   3.390   0.474
 9032SOL    HW227996   3.931   3.321   0.329
 9033SOL     OW27997   0.519   4.188   3.490
 9033SOL    HW127998   0.557   4.227   3.574
 9033SOL    HW227999   0.450   4.249   3.453
 9034SOL     OW28000   2.973   0.329   5.598
 9034SOL    HW128001   2.917   0.401   5.641
 9034SOL    HW228002   2.988   0.351   5.502
 9035SOL     OW28003   1.644   4.853   6.506
 9035SOL    HW128004   1.679   4.888   6.419
 9035SOL    HW228005   1.583   4.921   6.547
 9036SOL     OW28006   1.421   1.437   5.554
 9036SOL    HW128007   1.384   1.344   5.555
 9036SOL    HW228008   1.449   1.461   5.461
 9037SOL     OW28009   1.296   3.826   5.061
 9037SOL    HW128010   1.279   3.924   5.070
 9037SOL    HW228011   1.353   3.809   4.981
 9038SOL     OW28012   4.196   6.991   5.920
 9038SOL    HW128013   4.197   0.069   5.897
 9038SOL    HW228014   4.267   6.943   5.868
 9039SOL     OW28015   2.927   6.155   5.386
 9039SOL    HW128016   2.975   6.117   5.307
 9039SOL    HW228017   2.979   6.233   5.423
 9040SOL     OW28018   3.402   1.725   2.450
 9040SOL    HW128019   3.329   1.767   2.396
 9040SOL    HW228020   3.490   1.742   2.406
 9041SOL     OW28021   1.179   2.262   1.680
 9041SOL    HW128022   1.092   2.215   1.668
 9041SOL    HW228023   1.172   2.356   1.645
 9042SOL     OW28024   3.692   0.626   4.282
 9042SOL    HW128025   3.717   0.582   4.196
 9042SOL    HW228026   3.596   0.605   4.303
 9043SOL     OW28027   1.177   1.039   0.258
 9043SOL    HW128028   1.165   1.016   0.161
 9043SOL    HW228029   1.125   0.975   0.314
 9044SOL     OW28030   6.324   1.000   0.555
 9044SOL    HW128031   6.288   1.084   0.514
 9044SOL    HW228032   6.416   0.983   0.520
 9045SOL     OW28033   2.287   1.131   2.288
 9045SOL    HW128034   2.188   1.130   2.306
 9045SOL    HW228035   2.335   1.167   2.368
 9046SOL     OW28036   3.576   3.519   3.260
 9046SOL    HW128037   3.507   3.449   3.246
 9046SOL    HW228038   3.532   3.608   3.271
 9047SOL     OW28039   1.922   3.352   5.850
 9047SOL    HW128040   1.858   3.308   5.786
 9047SOL    HW228041   2.005   3.296   5.858
 9048SOL     OW28042   5.134   3.348   6.828
 9048SOL    HW128043   5.084   3.417   6.776
 9048SOL    HW228044   5.078   3.317   6.905
 9049SOL     OW28045   3.253   0.410   5.707
 9049SOL    HW128046   3.176   0.365   5.662
 9049SOL    HW228047   3.329   0.419   5.642
 9050SOL     OW28048   0.073   3.495   0.416
 9050SOL    HW128049   0.049   3.590   0.437
 9050SOL    HW228050   0.061   3.438   0.498
 9051SOL     OW28051   3.934   6.790   0.895
 9051SOL    HW128052   3.971   6.803   0.802
 9051SOL    HW228053   3.864   6.719   0.893
 9052SOL     OW28054   2.717   2.215   4.273
 9052SOL    HW128055   2.648   2.143   4.277
 9052SOL    HW228056   2.679   2.297   4.229
 9053SOL     OW28057   2.155   0.670   2.772
 9053SOL    HW128058   2.068   0.717   2.764
 9053SOL    HW228059   2.141   0.584   2.821
 9054SOL     OW28060   2.929   5.871   3.384
 9054SOL    HW128061   2.976   5.932   3.448
 9054SOL    HW228062   2.995   5.808   3.343
 9055SOL     OW28063   5.671   2.442   4.302
 9055SOL    HW128064   5.724   2.528   4.298
 9055SOL    HW228065   5.730   2.369   4.335
 9056SOL     OW28066   0.365   1.289   2.373
 9056SOL    HW128067   0.464   1.277   2.370
 9056SOL    HW228068   0.339   1.338   2.456
 9057SOL     OW28069   5.208   4.048   6.564
 9057SOL    HW128070   5.299   4.010   6.580
 9057SOL    HW228071   5.212   4.112   6.486
 9058SOL     OW28072   1.997   1.901   1.949
 9058SOL    HW128073   1.904   1.934   1.931
 9058SOL    HW228074   2.020   1.830   1.884
 9059SOL     OW28075   1.144   2.139   4.186
 9059SOL    HW128076   1.185   2.230   4.175
 9059SOL    HW228077   1.066   2.146   4.248
 9060SOL     OW28078   6.282   2.426   3.524
 9060SOL    HW128079   6.347   2.455   3.594
 9060SOL    HW228080   6.189   2.427   3.563
 9061SOL     OW28081   2.200   5.317   2.520
 9061SOL    HW128082   2.121   5.378   2.512
 9061SOL    HW228083   2.284   5.369   2.510
 9062SOL     OW28084   1.792   5.956   1.812
 9062SOL    HW128085   1.814   6.053   1.813
 9062SOL    HW228086   1.800   5.919   1.904
 9063SOL     OW28087   2.868   6.898   3.133
 9063SOL    HW128088   2.947   6.954   3.159
 9063SOL    HW228089   2.809   6.951   3.073
 9064SOL     OW28090   6.542   2.220   5.355
 9064SOL    HW128091   6.534   2.145   5.289
 9064SOL    HW228092   6.605   2.193   5.428
 9065SOL     OW28093   3.556   0.175   5.503
 9065SOL    HW128094   3.491   0.105   5.474
 9065SOL    HW228095   3.508   0.261   5.522
 9066SOL     OW28096   4.645   6.031   0.688
 9066SOL    HW128097   4.719   5.966   0.705
 9066SOL    HW228098   4.608   6.015   0.596
 9067SOL     OW28099   6.990   0.566   4.122
 9067SOL    HW128100   0.056   0.569   4.069
 9067SOL    HW228101   6.946   0.656   4.118
 9068SOL     OW28102   2.598   6.886   4.696
 9068SOL    HW128103   2.620   6.925   4.786
 9068SOL    HW228104   2.683   6.861   4.649
 9069SOL     OW28105   1.735   3.352   1.361
 9069SOL    HW128106   1.707   3.262   1.392
 9069SOL    HW228107   1.800   3.392   1.426
 9070SOL     OW28108   1.316   3.513   4.728
 9070SOL    HW128109   1.275   3.603   4.712
 9070SOL    HW228110   1.390   3.522   4.794
 9071SOL     OW28111   6.131   6.768   1.176
 9071SOL    HW128112   6.101   6.673   1.180
 9071SOL    HW228113   6.052   6.828   1.188
 9072SOL     OW28114   6.901   1.552   1.496
 9072SOL    HW128115   6.943   1.579   1.583
 9072SOL    HW228116   6.914   1.454   1.482
 9073SOL     OW28117   3.009   6.689   2.745
 9073SOL    HW128118   2.977   6.777   2.780
 9073SOL    HW228119   3.078   6.704   2.674
 9074SOL     OW28120   1.588   1.996   2.442
 9074SOL    HW128121   1.500   2.011   2.397
 9074SOL    HW228122   1.648   1.945   2.381
 9075SOL     OW28123   0.874   1.320   2.003
 9075SOL    HW128124   0.848   1.376   1.925
 9075SOL    HW228125   0.794   1.302   2.059
 9076SOL     OW28126   6.697   2.238   5.820
 9076SOL    HW128127   6.645   2.318   5.790
 9076SOL    HW228128   6.692   2.166   5.751
 9077SOL     OW28129   4.194   0.604   0.244
 9077SOL    HW128130   4.156   0.553   0.167
 9077SOL    HW228131   4.122   0.622   0.311
 9078SOL     OW28132   3.998   3.413   6.305
 9078SOL    HW128133   3.930   3.353   6.348
 9078SOL    HW228134   4.088   3.370   6.309
 9079SOL     OW28135   3.135   0.356   3.998
 9079SOL    HW128136   3.050   0.408   4.009
 9079SOL    HW228137   3.159   0.354   3.901
 9080SOL     OW28138   4.390   2.851   6.506
 9080SOL    HW128139   4.442   2.929   6.470
 9080SOL    HW228140   4.293   2.876   6.512
 9081SOL     OW28141   3.463   0.116   2.457
 9081SOL    HW128142   3.511   0.204   2.459
 9081SOL    HW228143   3.469   0.073   2.548
 9082SOL     OW28144   2.109   0.605   5.385
 9082SOL    HW128145   2.103   0.547   5.467
 9082SOL    HW228146   2.036   0.580   5.322
 9083SOL     OW28147   3.181   5.365   5.903
 9083SOL    HW128148   3.233   5.451   5.903
 9083SOL    HW228149   3.218   5.303   5.834
 9084SOL     OW28150   3.191   4.116   4.132
 9084SOL    HW128151   3.249   4.163   4.066
 9084SOL    HW228152   3.194   4.017   4.114
 9085SOL     OW28153   2.215   0.290   1.806
 9085SOL    HW128154   2.157   0.345   1.866
 9085SOL    HW228155   2.173   0.285   1.715
 9086SOL     OW28156   1.022   4.487   0.285
 9086SOL    HW128157   0.965   4.464   0.364
 9086SOL    HW228158   1.063   4.404   0.248
 9087SOL     OW28159   4.310   2.107   1.437
 9087SOL    HW128160   4.366   2.126   1.356
 9087SOL    HW228161   4.236   2.173   1.443
 9088SOL     OW28162   0.144   6.621   1.033
 9088SOL    HW128163   0.098   6.618   0.944
 9088SOL    HW228164   0.102   6.691   1.090
 9089SOL     OW28165   5.425   5.656   5.552
 9089SOL    HW128166   5.403   5.730   5.488
 9089SOL    HW228167   5.341   5.627   5.598
 9090SOL     OW28168   6.867   1.081   4.193
 9090SOL    HW128169   6.911   1.128   4.116
 9090SOL    HW228170   6.855   1.146   4.268
 9091SOL     OW28171   2.947   4.318   0.324
 9091SOL    HW128172   2.989   4.352   0.240
 9091SOL    HW228173   3.017   4.283   0.386
 9092SOL     OW28174   6.436   0.874   6.607
 9092SOL    HW128175   6.355   0.876   6.550
 9092SOL    HW228176   6.409   0.858   6.702
 9093SOL     OW28177   0.955   5.585   5.662
 9093SOL    HW128178   0.862   5.552   5.645
 9093SOL    HW228179   0.982   5.649   5.590
 9094SOL     OW28180   6.237   4.795   2.914
 9094SOL    HW128181   6.201   4.887   2.934
 9094SOL    HW228182   6.294   4.764   2.990
 9095SOL     OW28183   4.742   5.178   6.374
 9095SOL    HW128184   4.766   5.113   6.303
 9095SOL    HW228185   4.738   5.132   6.463
 9096SOL     OW28186   6.470   5.287   2.423
 9096SOL    HW128187   6.523   5.324   2.346
 9096SOL    HW228188   6.418   5.207   2.393
 9097SOL     OW28189   1.546   1.563   1.165
 9097SOL    HW128190   1.487   1.585   1.087
 9097SOL    HW228191   1.637   1.601   1.150
 9098SOL     OW28192   3.275   2.114   4.362
 9098SOL    HW128193   3.202   2.126   4.429
 9098SOL    HW228194   3.315   2.024   4.373
 9099SOL     OW28195   3.284   3.174   6.100
 9099SOL    HW128196   3.384   3.172   6.087
 9099SOL    HW228197   3.252   3.268   6.097
 9100SOL     OW28198   0.256   3.393   3.255
 9100SOL    HW128199   0.216   3.459   3.192
 9100SOL    HW228200   0.209   3.397   3.343
 9101SOL     OW28201   2.665   2.482   1.832
 9101SOL    HW128202   2.761   2.481   1.861
 9101SOL    HW228203   2.652   2.414   1.760
 9102SOL     OW28204   3.599   6.933   2.345
 9102SOL    HW128205   3.611   6.882   2.431
 9102SOL    HW228206   3.565   0.006   2.365
 9103SOL     OW28207   5.453   2.113   6.388
 9103SOL    HW128208   5.385   2.173   6.429
 9103SOL    HW228209   5.537   2.116   6.442
 9104SOL     OW28210   6.903   6.557   1.349
 9104SOL    HW128211   6.981   6.525   1.403
 9104SOL    HW228212   6.818   6.534   1.396
 9105SOL     OW28213   0.391   1.043   5.959
 9105SOL    HW128214   0.451   0.990   6.018
 9105SOL    HW228215   0.422   1.138   5.957
 9106SOL     OW28216   5.676   3.549   1.333
 9106SOL    HW128217   5.765   3.584   1.304
 9106SOL    HW228218   5.676   3.449   1.328
 9107SOL     OW28219   2.113   1.056   6.733
 9107SOL    HW128220   2.032   0.997   6.733
 9107SOL    HW228221   2.185   1.013   6.789
 9108SOL     OW28222   4.881   4.292   5.201
 9108SOL    HW128223   4.909   4.329   5.113
 9108SOL    HW228224   4.816   4.354   5.244
 9109SOL     OW28225   5.495   3.956   2.951
 9109SOL    HW128226   5.475   3.890   2.879
 9109SOL    HW228227   5.552   3.913   3.021
 9110SOL     OW28228   1.830   5.234   4.279
 9110SOL    HW128229   1.819   5.193   4.188
 9110SOL    HW228230   1.746   5.279   4.306
 9111SOL     OW28231   4.070   3.271   0.044
 9111SOL    HW128232   3.984   3.298   7.019
 9111SOL    HW228233   4.146   3.282   6.999
 9112SOL     OW28234   1.875   5.817   2.622
 9112SOL    HW128235   1.944   5.810   2.550
 9112SOL    HW228236   1.915   5.789   2.709
 9113SOL     OW28237   5.278   2.861   2.450
 9113SOL    HW128238   5.249   2.820   2.364
 9113SOL    HW228239   5.377   2.874   2.449
 9114SOL     OW28240   0.018   5.189   3.508
 9114SOL    HW128241   0.037   5.231   3.597
 9114SOL    HW228242   6.941   5.202   3.485
 9115SOL     OW28243   5.975   5.411   4.993
 9115SOL    HW128244   5.924   5.481   5.042
 9115SOL    HW228245   6.047   5.454   4.938
 9116SOL     OW28246   0.241   6.593   2.843
 9116SOL    HW128247   0.318   6.543   2.883
 9116SOL    HW228248   0.202   6.538   2.769
 9117SOL     OW28249   3.511   2.717   5.959
 9117SOL    HW128250   3.426   2.665   5.954
 9117SOL    HW228251   3.531   2.740   6.054
 9118SOL     OW28252   6.544   3.627   0.430
 9118SOL    HW128253   6.475   3.612   0.359
 9118SOL    HW228254   6.510   3.592   0.517
 9119SOL     OW28255   3.940   1.012   1.899
 9119SOL    HW128256   3.926   1.105   1.933
 9119SOL    HW228257   4.037   0.997   1.881
 9120SOL     OW28258   0.213   1.873   5.742
 9120SOL    HW128259   0.263   1.818   5.674
 9120SOL    HW228260   0.258   1.864   5.830
 9121SOL     OW28261   3.523   6.000   4.860
 9121SOL    HW128262   3.446   5.938   4.847
 9121SOL    HW228263   3.497   6.092   4.830
 9122SOL     OW28264   2.705   4.666   2.269
 9122SOL    HW128265   2.743   4.643   2.179
 9122SOL    HW228266   2.637   4.597   2.295
 9123SOL     OW28267   2.123   0.990   4.632
 9123SOL    HW128268   2.062   0.917   4.600
 9123SOL    HW228269   2.069   1.066   4.666
 9124SOL     OW28270   3.396   5.688   1.291
 9124SOL    HW128271   3.307   5.731   1.278
 9124SOL    HW228272   3.385   5.598   1.331
 9125SOL     OW28273   4.038   4.490   1.301
 9125SOL    HW128274   3.976   4.421   1.265
 9125SOL    HW228275   3.985   4.567   1.336
 9126SOL     OW28276   4.389   3.630   1.432
 9126SOL    HW128277   4.406   3.655   1.527
 9126SOL    HW228278   4.408   3.532   1.420
 9127SOL     OW28279   6.712   2.043   5.598
 9127SOL    HW128280   6.714   1.945   5.577
 9127SOL    HW228281   6.761   2.093   5.527
 9128SOL     OW28282   5.617   2.438   5.399
 9128SOL    HW128283   5.684   2.443   5.474
 9128SOL    HW228284   5.587   2.344   5.387
 9129SOL     OW28285   6.489   1.607   7.017
 9129SOL    HW128286   6.393   1.604   0.027
 9129SOL    HW228287   6.548   1.587   0.076
 9130SOL     OW28288   0.874   4.619   6.075
 9130SOL    HW128289   0.873   4.567   5.990
 9130SOL    HW228290   0.846   4.713   6.056
 9131SOL     OW28291   5.088   3.458   6.339
 9131SOL    HW128292   5.155   3.445   6.266
 9131SOL    HW228293   5.018   3.387   6.333
 9132SOL     OW28294   0.960   4.763   4.664
 9132SOL    HW128295   0.935   4.737   4.571
 9132SOL    HW228296   1.012   4.849   4.662
 9133SOL     OW28297   3.459   0.399   1.285
 9133SOL    HW128298   3.387   0.463   1.309
 9133SOL    HW228299   3.535   0.448   1.242
 9134SOL     OW28300   4.471   5.462   1.275
 9134SOL    HW128301   4.434   5.544   1.232
 9134SOL    HW228302   4.450   5.382   1.218
 9135SOL     OW28303   1.046   6.306   1.499
 9135SOL    HW128304   1.006   6.396   1.517
 9135SOL    HW228305   1.074   6.264   1.585
 9136SOL     OW28306   4.771   6.110   5.799
 9136SOL    HW128307   4.835   6.101   5.724
 9136SOL    HW228308   4.678   6.094   5.766
 9137SOL     OW28309   4.056   0.661   6.849
 9137SOL    HW128310   4.129   0.688   6.912
 9137SOL    HW228311   3.969   0.661   6.899
 9138SOL     OW28312   1.256   3.727   6.558
 9138SOL    HW128313   1.345   3.746   6.516
 9138SOL    HW228314   1.254   3.766   6.650
 9139SOL     OW28315   1.117   1.359   2.238
 9139SOL    HW128316   1.049   1.320   2.175
 9139SOL    HW228317   1.171   1.428   2.190
 9140SOL     OW28318   0.969   4.785   2.240
 9140SOL    HW128319   1.069   4.782   2.242
 9140SOL    HW228320   0.933   4.699   2.275
 9141SOL     OW28321   6.811   6.115   6.523
 9141SOL    HW128322   6.746   6.132   6.449
 9141SOL    HW228323   6.762   6.083   6.604
 9142SOL     OW28324   0.297   3.244   1.712
 9142SOL    HW128325   0.309   3.214   1.806
 9142SOL    HW228326   0.199   3.247   1.690
 9143SOL     OW28327   0.200   4.175   1.617
 9143SOL    HW128328   0.196   4.179   1.716
 9143SOL    HW228329   0.257   4.250   1.582
 9144SOL     OW28330   3.478   5.094   4.936
 9144SOL    HW128331   3.415   5.029   4.894
 9144SOL    HW228332   3.499   5.167   4.870
 9145SOL     OW28333   1.669   6.137   6.480
 9145SOL    HW128334   1.686   6.219   6.534
 9145SOL    HW228335   1.711   6.058   6.525
 9146SOL     OW28336   5.126   3.361   2.821
 9146SOL    HW128337   5.168   3.344   2.732
 9146SOL    HW228338   5.098   3.457   2.827
 9147SOL     OW28339   6.659   0.741   4.902
 9147SOL    HW128340   6.612   0.788   4.827
 9147SOL    HW228341   6.724   0.676   4.865
 9148SOL     OW28342   5.883   6.806   1.777
 9148SOL    HW128343   5.836   6.876   1.724
 9148SOL    HW228344   5.933   6.849   1.852
 9149SOL     OW28345   5.732   3.323   1.907
 9149SOL    HW128346   5.636   3.298   1.895
 9149SOL    HW228347   5.738   3.418   1.935
 9150SOL     OW28348   3.529   4.146   0.849
 9150SOL    HW128349   3.579   4.227   0.820
 9150SOL    HW228350   3.519   4.084   0.771
 9151SOL     OW28351   2.214   4.039   3.438
 9151SOL    HW128352   2.140   4.073   3.497
 9151SOL    HW228353   2.210   4.084   3.349
 9152SOL     OW28354   2.028   4.365   4.377
 9152SOL    HW128355   2.003   4.366   4.473
 9152SOL    HW228356   1.975   4.296   4.329
 9153SOL     OW28357   0.249   2.719   6.829
 9153SOL    HW128358   0.254   2.782   6.752
 9153SOL    HW228359   0.161   2.672   6.828
 9154SOL     OW28360   5.116   4.075   3.730
 9154SOL    HW128361   5.168   4.154   3.762
 9154SOL    HW228362   5.026   4.073   3.775
 9155SOL     OW28363   2.376   4.268   2.979
 9155SOL    HW128364   2.316   4.229   2.909
 9155SOL    HW228365   2.421   4.349   2.942
 9156SOL     OW28366   6.401   2.688   1.565
 9156SOL    HW128367   6.501   2.688   1.568
 9156SOL    HW228368   6.365   2.752   1.632
 9157SOL     OW28369   3.129   3.880   6.927
 9157SOL    HW128370   3.178   3.911   7.009
 9157SOL    HW228371   3.050   3.939   6.911
 9158SOL     OW28372   6.715   4.198   4.029
 9158SOL    HW128373   6.768   4.186   4.112
 9158SOL    HW228374   6.621   4.222   4.053
 9159SOL     OW28375   1.752   0.237   3.736
 9159SOL    HW128376   1.747   0.301   3.660
 9159SOL    HW228377   1.846   0.204   3.746
 9160SOL     OW28378   0.457   5.470   5.694
 9160SOL    HW128379   0.382   5.404   5.704
 9160SOL    HW228380   0.425   5.562   5.717
 9161SOL     OW28381   6.360   4.972   3.231
 9161SOL    HW128382   6.271   5.010   3.208
 9161SOL    HW228383   6.357   4.872   3.222
 9162SOL     OW28384   3.821   0.357   2.921
 9162SOL    HW128385   3.849   0.453   2.922
 9162SOL    HW228386   3.900   0.298   2.905
 9163SOL     OW28387   6.742   3.526   2.358
 9163SOL    HW128388   6.797   3.598   2.316
 9163SOL    HW228389   6.749   3.443   2.303
 9164SOL     OW28390   1.516   1.216   0.093
 9164SOL    HW128391   1.482   1.156   0.166
 9164SOL    HW228392   1.522   1.164   0.008
 9165SOL     OW28393   4.639   1.722   5.677
 9165SOL    HW128394   4.662   1.795   5.741
 9165SOL    HW228395   4.572   1.661   5.718
 9166SOL     OW28396   4.217   5.045   0.791
 9166SOL    HW128397   4.268   4.966   0.824
 9166SOL    HW228398   4.277   5.102   0.734
 9167SOL     OW28399   1.301   2.594   5.962
 9167SOL    HW128400   1.365   2.671   5.951
 9167SOL    HW228401   1.353   2.509   5.971
 9168SOL     OW28402   6.799   5.598   6.162
 9168SOL    HW128403   6.722   5.535   6.155
 9168SOL    HW228404   6.808   5.628   6.257
 9169SOL     OW28405   6.495   5.703   6.139
 9169SOL    HW128406   6.463   5.661   6.053
 9169SOL    HW228407   6.572   5.763   6.120
 9170SOL     OW28408   1.764   1.531   6.225
 9170SOL    HW128409   1.720   1.619   6.214
 9170SOL    HW228410   1.799   1.522   6.318
 9171SOL     OW28411   2.940   5.756   0.808
 9171SOL    HW128412   2.938   5.796   0.716
 9171SOL    HW228413   3.034   5.732   0.832
 9172SOL     OW28414   4.302   2.084   4.717
 9172SOL    HW128415   4.376   2.101   4.651
 9172SOL    HW228416   4.242   2.013   4.681
 9173SOL     OW28417   6.371   2.776   4.563
 9173SOL    HW128418   6.428   2.794   4.644
 9173SOL    HW228419   6.276   2.798   4.584
 9174SOL     OW28420   0.752   6.081   6.958
 9174SOL    HW128421   0.813   6.076   0.017
 9174SOL    HW228422   0.708   5.992   6.943
 9175SOL     OW28423   1.235   6.494   6.867
 9175SOL    HW128424   1.244   6.425   6.940
 9175SOL    HW228425   1.215   6.583   6.908
 9176SOL     OW28426   2.539   6.872   1.828
 9176SOL    HW128427   2.589   6.920   1.756
 9176SOL    HW228428   2.513   6.781   1.797
 9177SOL     OW28429   1.734   2.606   3.650
 9177SOL    HW128430   1.778   2.647   3.570
 9177SOL    HW228431   1.801   2.601   3.725
 9178SOL     OW28432   2.450   5.278   6.164
 9178SOL    HW128433   2.501   5.268   6.249
 9178SOL    HW228434   2.352   5.284   6.184
 9179SOL     OW28435   2.394   6.152   4.926
 9179SOL    HW128436   2.461   6.222   4.901
 9179SOL    HW228437   2.361   6.170   5.018
 9180SOL     OW28438   6.339   2.037   4.152
 9180SOL    HW128439   6.281   2.111   4.187
 9180SOL    HW228440   6.345   2.044   4.053
 9181SOL     OW28441   5.025   2.575   2.938
 9181SOL    HW128442   4.938   2.568   2.987
 9181SOL    HW228443   5.008   2.597   2.842
 9182SOL     OW28444   3.313   1.140   2.740
 9182SOL    HW128445   3.230   1.155   2.687
 9182SOL    HW228446   3.350   1.229   2.769
 9183SOL     OW28447   4.607   3.985   6.113
 9183SOL    HW128448   4.680   3.956   6.176
 9183SOL    HW228449   4.526   3.930   6.129
 9184SOL     OW28450   3.680   2.219   0.777
 9184SOL    HW128451   3.678   2.288   0.705
 9184SOL    HW228452   3.757   2.236   0.838
 9185SOL     OW28453   0.856   6.832   6.152
 9185SOL    HW128454   0.870   6.924   6.114
 9185SOL    HW228455   0.889   6.764   6.087
 9186SOL     OW28456   4.820   0.605   5.739
 9186SOL    HW128457   4.872   0.687   5.765
 9186SOL    HW228458   4.784   0.561   5.821
 9187SOL     OW28459   4.556   2.143   7.009
 9187SOL    HW128460   4.464   2.152   6.972
 9187SOL    HW228461   4.612   2.089   6.947
 9188SOL     OW28462   1.436   0.347   1.646
 9188SOL    HW128463   1.436   0.391   1.736
 9188SOL    HW228464   1.511   0.281   1.642
 9189SOL     OW28465   3.149   0.622   3.851
 9189SOL    HW128466   3.157   0.685   3.773
 9189SOL    HW228467   3.236   0.575   3.865
 9190SOL     OW28468   6.497   3.734   5.358
 9190SOL    HW128469   6.504   3.680   5.442
 9190SOL    HW228470   6.588   3.744   5.317
 9191SOL     OW28471   4.686   6.622   6.748
 9191SOL    HW128472   4.761   6.556   6.735
 9191SOL    HW228473   4.699   6.669   6.836
 9192SOL     OW28474   6.287   3.793   6.260
 9192SOL    HW128475   6.275   3.709   6.313
 9192SOL    HW228476   6.384   3.817   6.255
 9193SOL     OW28477   3.354   3.682   3.811
 9193SOL    HW128478   3.299   3.754   3.853
 9193SOL    HW228479   3.439   3.669   3.862
 9194SOL     OW28480   3.387   5.841   1.799
 9194SOL    HW128481   3.341   5.928   1.814
 9194SOL    HW228482   3.482   5.847   1.829
 9195SOL     OW28483   2.117   2.442   3.724
 9195SOL    HW128484   2.134   2.345   3.710
 9195SOL    HW228485   2.104   2.487   3.635
 9196SOL     OW28486   5.718   0.034   4.112
 9196SOL    HW128487   5.804   7.018   4.075
 9196SOL    HW228488   5.703   0.127   4.079
 9197SOL     OW28489   3.508   4.380   1.060
 9197SOL    HW128490   3.505   4.289   1.019
 9197SOL    HW228491   3.486   4.449   0.991
 9198SOL     OW28492   5.692   4.006   6.091
 9198SOL    HW128493   5.755   3.933   6.115
 9198SOL    HW228494   5.689   4.017   5.992
 9199SOL     OW28495   0.510   3.339   6.238
 9199SOL    HW128496   0.552   3.297   6.319
 9199SOL    HW228497   0.511   3.439   6.249
 9200SOL     OW28498   1.728   5.692   6.477
 9200SOL    HW128499   1.677   5.687   6.391
 9200SOL    HW228500   1.812   5.638   6.468
 9201SOL     OW28501   0.489   3.541   1.369
 9201SOL    HW128502   0.525   3.626   1.408
 9201SOL    HW228503   0.541   3.517   1.287
 9202SOL     OW28504   1.579   5.705   4.458
 9202SOL    HW128505   1.549   5.614   4.487
 9202SOL    HW228506   1.646   5.696   4.384
 9203SOL     OW28507   5.097   2.356   6.371
 9203SOL    HW128508   5.002   2.386   6.372
 9203SOL    HW228509   5.104   2.267   6.326
 9204SOL     OW28510   5.224   3.818   3.700
 9204SOL    HW128511   5.203   3.759   3.778
 9204SOL    HW228512   5.192   3.911   3.719
 9205SOL     OW28513   5.231   3.627   2.463
 9205SOL    HW128514   5.305   3.641   2.397
 9205SOL    HW228515   5.150   3.594   2.416
 9206SOL     OW28516   3.260   0.370   4.233
 9206SOL    HW128517   3.213   0.393   4.147
 9206SOL    HW228518   3.216   0.289   4.273
 9207SOL     OW28519   3.960   6.428   5.646
 9207SOL    HW128520   3.920   6.379   5.723
 9207SOL    HW228521   3.899   6.420   5.567
 9208SOL     OW28522   5.173   4.045   2.375
 9208SOL    HW128523   5.115   3.986   2.319
 9208SOL    HW228524   5.219   3.991   2.445
 9209SOL     OW28525   4.206   0.433   2.011
 9209SOL    HW128526   4.265   0.395   2.083
 9209SOL    HW228527   4.112   0.436   2.044
 9210SOL     OW28528   1.170   0.654   1.046
 9210SOL    HW128529   1.211   0.743   1.067
 9210SOL    HW228530   1.197   0.588   1.115
 9211SOL     OW28531   4.752   2.406   5.873
 9211SOL    HW128532   4.802   2.394   5.787
 9211SOL    HW228533   4.816   2.404   5.949
 9212SOL     OW28534   5.038   4.122   4.991
 9212SOL    HW128535   5.073   4.186   4.922
 9212SOL    HW228536   4.950   4.085   4.961
 9213SOL     OW28537   5.291   6.472   4.610
 9213SOL    HW128538   5.335   6.556   4.642
 9213SOL    HW228539   5.243   6.428   4.685
 9214SOL     OW28540   0.498   2.500   5.217
 9214SOL    HW128541   0.459   2.525   5.305
 9214SOL    HW228542   0.522   2.583   5.166
 9215SOL     OW28543   0.389   4.345   2.534
 9215SOL    HW128544   0.436   4.366   2.620
 9215SOL    HW228545   0.375   4.247   2.526
 9216SOL     OW28546   2.342   6.794   4.749
 9216SOL    HW128547   2.432   6.834   4.729
 9216SOL    HW228548   2.344   6.754   4.841
 9217SOL     OW28549   5.439   1.556   6.667
 9217SOL    HW128550   5.364   1.504   6.625
 9217SOL    HW228551   5.507   1.578   6.597
 9218SOL     OW28552   3.858   0.967   6.762
 9218SOL    HW128553   3.854   0.907   6.842
 9218SOL    HW228554   3.876   1.061   6.792
 9219SOL     OW28555   4.063   3.155   5.668
 9219SOL    HW128556   4.160   3.141   5.648
 9219SOL    HW228557   4.016   3.182   5.584
 9220SOL     OW28558   2.098   6.112   2.387
 9220SOL    HW128559   2.058   6.152   2.470
 9220SOL    HW228560   2.095   6.179   2.313
 9221SOL     OW28561   2.402   0.223   5.573
 9221SOL    HW128562   2.494   0.264   5.576
 9221SOL    HW228563   2.350   0.263   5.498
 9222SOL     OW28564   2.356   4.420   4.679
 9222SOL    HW128565   2.327   4.331   4.715
 9222SOL    HW228566   2.397   4.408   4.589
 9223SOL     OW28567   1.029   2.600   3.805
 9223SOL    HW128568   0.962   2.573   3.735
 9223SOL    HW228569   1.115   2.623   3.760
 9224SOL     OW28570   1.977   2.967   3.776
 9224SOL    HW128571   2.015   3.056   3.799
 9224SOL    HW228572   1.930   2.929   3.856
 9225SOL     OW28573   3.821   6.868   6.229
 9225SOL    HW128574   3.865   6.787   6.190
 9225SOL    HW228575   3.855   6.950   6.182
 9226SOL     OW28576   1.426   0.462   1.377
 9226SOL    HW128577   1.449   0.414   1.462
 9226SOL    HW228578   1.469   0.416   1.300
 9227SOL     OW28579   2.415   5.232   1.344
 9227SOL    HW128580   2.463   5.297   1.403
 9227SOL    HW228581   2.317   5.234   1.365
 9228SOL     OW28582   2.068   2.491   6.263
 9228SOL    HW128583   2.019   2.440   6.192
 9228SOL    HW228584   2.020   2.577   6.281
 9229SOL     OW28585   1.518   5.040   6.741
 9229SOL    HW128586   1.473   4.951   6.756
 9229SOL    HW228587   1.451   5.106   6.707
 9230SOL     OW28588   5.133   2.648   3.397
 9230SOL    HW128589   5.226   2.612   3.397
 9230SOL    HW228590   5.124   2.716   3.470
 9231SOL     OW28591   0.793   4.854   5.544
 9231SOL    HW128592   0.868   4.828   5.604
 9231SOL    HW228593   0.829   4.896   5.461
 9232SOL     OW28594   2.515   5.629   1.135
 9232SOL    HW128595   2.603   5.632   1.088
 9232SOL    HW228596   2.486   5.534   1.147
 9233SOL     OW28597   0.994   6.810   0.671
 9233SOL    HW128598   1.000   6.902   0.631
 9233SOL    HW228599   1.062   6.801   0.744
 9234SOL     OW28600   2.357   5.647   0.620
 9234SOL    HW128601   2.425   5.588   0.576
 9234SOL    HW228602   2.278   5.658   0.560
 9235SOL     OW28603   2.638   2.413   3.479
 9235SOL    HW128604   2.676   2.343   3.419
 9235SOL    HW228605   2.559   2.455   3.435
 9236SOL     OW28606   2.280   3.324   6.402
 9236SOL    HW128607   2.242   3.305   6.311
 9236SOL    HW228608   2.214   3.376   6.456
 9237SOL     OW28609   0.465   6.044   2.821
 9237SOL    HW128610   0.447   6.092   2.907
 9237SOL    HW228611   0.407   6.081   2.749
 9238SOL     OW28612   2.888   2.219   6.074
 9238SOL    HW128613   2.879   2.130   6.117
 9238SOL    HW228614   2.864   2.212   5.977
 9239SOL     OW28615   6.694   4.636   6.183
 9239SOL    HW128616   6.616   4.576   6.169
 9239SOL    HW228617   6.739   4.653   6.095
 9240SOL     OW28618   5.223   3.311   2.587
 9240SOL    HW128619   5.182   3.223   2.566
 9240SOL    HW228620   5.240   3.362   2.502
 9241SOL     OW28621   6.812   5.748   0.219
 9241SOL    HW128622   6.763   5.825   0.259
 9241SOL    HW228623   6.908   5.771   0.208
 9242SOL     OW28624   1.999   3.144   1.737
 9242SOL    HW128625   2.023   3.183   1.825
 9242SOL    HW228626   1.911   3.181   1.707
 9243SOL     OW28627   0.879   0.459   2.168
 9243SOL    HW128628   0.883   0.404   2.085
 9243SOL    HW228629   0.850   0.551   2.146
 9244SOL     OW28630   2.407   6.499   6.279
 9244SOL    HW128631   2.407   6.537   6.186
 9244SOL    HW228632   2.324   6.445   6.293
 9245SOL     OW28633   0.633   4.316   3.688
 9245SOL    HW128634   0.711   4.267   3.727
 9245SOL    HW228635   0.592   4.374   3.759
 9246SOL     OW28636   5.951   6.995   4.483
 9246SOL    HW128637   5.904   6.913   4.515
 9246SOL    HW228638   6.045   6.972   4.457
 9247SOL     OW28639   4.202   5.671   3.329
 9247SOL    HW128640   4.275   5.635   3.272
 9247SOL    HW228641   4.201   5.771   3.324
 9248SOL     OW28642   2.723   2.060   5.355
 9248SOL    HW128643   2.699   1.963   5.369
 9248SOL    HW228644   2.774   2.093   5.434
 9249SOL     OW28645   4.381   5.026   1.118
 9249SOL    HW128646   4.348   5.003   1.210
 9249SOL    HW228647   4.364   5.123   1.100
 9250SOL     OW28648   6.959   3.323   4.130
 9250SOL    HW128649   0.033   3.305   4.098
 9250SOL    HW228650   6.901   3.243   4.115
 9251SOL     OW28651   4.307   2.037   2.048
 9251SOL    HW128652   4.217   2.004   2.077
 9251SOL    HW228653   4.364   2.052   2.129
 9252SOL     OW28654   5.537   0.744   4.995
 9252SOL    HW128655   5.539   0.647   5.021
 9252SOL    HW228656   5.560   0.753   4.898
 9253SOL     OW28657   5.066   5.185   6.097
 9253SOL    HW128658   5.158   5.170   6.134
 9253SOL    HW228659   5.065   5.158   6.001
 9254SOL     OW28660   5.062   5.336   2.621
 9254SOL    HW128661   5.156   5.336   2.657
 9254SOL    HW228662   5.063   5.369   2.527
 9255SOL     OW28663   5.590   3.061   6.623
 9255SOL    HW128664   5.548   3.151   6.629
 9255SOL    HW228665   5.554   3.012   6.543
 9256SOL     OW28666   1.914   0.148   1.607
 9256SOL    HW128667   1.962   0.086   1.670
 9256SOL    HW228668   1.981   0.203   1.558
 9257SOL     OW28669   6.138   5.936   3.054
 9257SOL    HW128670   6.175   5.968   2.967
 9257SOL    HW228671   6.209   5.945   3.125
 9258SOL     OW28672   3.672   3.300   0.705
 9258SOL    HW128673   3.676   3.400   0.701
 9258SOL    HW228674   3.760   3.265   0.737
 9259SOL     OW28675   1.712   1.111   0.408
 9259SOL    HW128676   1.617   1.080   0.401
 9259SOL    HW228677   1.717   1.208   0.386
 9260SOL     OW28678   7.000   2.622   6.093
 9260SOL    HW128679   6.965   2.550   6.153
 9260SOL    HW228680   0.037   2.581   6.022
 9261SOL     OW28681   4.719   0.778   6.430
 9261SOL    HW128682   4.676   0.812   6.513
 9261SOL    HW228683   4.662   0.802   6.351
 9262SOL     OW28684   1.296   6.745   5.251
 9262SOL    HW128685   1.297   6.710   5.344
 9262SOL    HW228686   1.289   6.845   5.253
 9263SOL     OW28687   3.376   5.275   2.843
 9263SOL    HW128688   3.381   5.369   2.875
 9263SOL    HW228689   3.282   5.242   2.849
 9264SOL     OW28690   4.394   2.943   0.154
 9264SOL    HW128691   4.404   2.848   0.127
 9264SOL    HW228692   4.404   3.002   0.074
 9265SOL     OW28693   3.746   1.997   6.644
 9265SOL    HW128694   3.785   1.923   6.591
 9265SOL    HW228695   3.709   1.961   6.730
 9266SOL     OW28696   0.086   5.685   1.321
 9266SOL    HW128697   0.022   5.750   1.364
 9266SOL    HW228698   0.104   5.715   1.227
 9267SOL     OW28699   0.906   2.247   4.361
 9267SOL    HW128700   0.826   2.190   4.345
 9267SOL    HW228701   0.917   2.311   4.285
 9268SOL     OW28702   0.810   6.445   2.599
 9268SOL    HW128703   0.846   6.482   2.514
 9268SOL    HW228704   0.757   6.363   2.580
 9269SOL     OW28705   3.962   0.334   6.838
 9269SOL    HW128706   3.929   0.244   6.807
 9269SOL    HW228707   3.959   0.398   6.761
 9270SOL     OW28708   3.801   0.713   5.347
 9270SOL    HW128709   3.811   0.624   5.390
 9270SOL    HW228710   3.802   0.703   5.248
 9271SOL     OW28711   6.965   6.888   0.911
 9271SOL    HW128712   0.028   6.889   0.854
 9271SOL    HW228713   6.979   6.827   0.989
 9272SOL     OW28714   0.812   6.487   6.329
 9272SOL    HW128715   0.774   6.475   6.421
 9272SOL    HW228716   0.911   6.482   6.334
 9273SOL     OW28717   5.622   6.033   3.014
 9273SOL    HW128718   5.671   6.108   3.059
 9273SOL    HW228719   5.688   5.964   2.984
 9274SOL     OW28720   6.690   2.306   0.120
 9274SOL    HW128721   6.701   2.376   0.191
 9274SOL    HW228722   6.628   2.235   0.153
 9275SOL     OW28723   0.011   6.784   0.140
 9275SOL    HW128724   0.098   6.828   0.120
 9275SOL    HW228725   0.009   6.693   0.098
 9276SOL     OW28726   2.448   4.993   6.941
 9276SOL    HW128727   2.530   4.983   6.998
 9276SOL    HW228728   2.475   5.017   6.848
 9277SOL     OW28729   4.035   5.837   2.971
 9277SOL    HW128730   3.965   5.853   3.041
 9277SOL    HW228731   3.990   5.811   2.885
 9278SOL     OW28732   1.007   0.729   5.570
 9278SOL    HW128733   1.019   0.643   5.521
 9278SOL    HW228734   0.943   0.787   5.521
 9279SOL     OW28735   3.378   6.960   1.846
 9279SOL    HW128736   3.368   6.933   1.941
 9279SOL    HW228737   3.401   6.880   1.791
 9280SOL     OW28738   2.271   1.494   2.577
 9280SOL    HW128739   2.246   1.518   2.671
 9280SOL    HW228740   2.315   1.572   2.534
 9281SOL     OW28741   3.349   3.691   6.493
 9281SOL    HW128742   3.282   3.761   6.515
 9281SOL    HW228743   3.403   3.720   6.414
 9282SOL     OW28744   4.803   1.173   4.279
 9282SOL    HW128745   4.816   1.206   4.373
 9282SOL    HW228746   4.705   1.174   4.257
 9283SOL     OW28747   5.334   0.462   5.252
 9283SOL    HW128748   5.239   0.435   5.241
 9283SOL    HW228749   5.340   0.558   5.280
 9284SOL     OW28750   2.542   3.372   5.309
 9284SOL    HW128751   2.560   3.466   5.337
 9284SOL    HW228752   2.599   3.310   5.363
 9285SOL     OW28753   5.172   3.114   0.679
 9285SOL    HW128754   5.074   3.097   0.667
 9285SOL    HW228755   5.188   3.150   0.771
 9286SOL     OW28756   4.526   5.696   0.707
 9286SOL    HW128757   4.625   5.697   0.712
 9286SOL    HW228758   4.489   5.774   0.759
 9287SOL     OW28759   3.465   4.414   5.582
 9287SOL    HW128760   3.461   4.470   5.664
 9287SOL    HW228761   3.375   4.412   5.538
 9288SOL     OW28762   4.800   2.319   3.089
 9288SOL    HW128763   4.863   2.373   3.144
 9288SOL    HW228764   4.738   2.380   3.040
 9289SOL     OW28765   4.254   0.778   0.029
 9289SOL    HW128766   4.256   0.736   0.120
 9289SOL    HW228767   4.250   0.877   0.038
 9290SOL     OW28768   6.277   0.769   4.357
 9290SOL    HW128769   6.248   0.739   4.448
 9290SOL    HW228770   6.282   0.869   4.355
 9291SOL     OW28771   1.861   6.076   6.080
 9291SOL    HW128772   1.957   6.050   6.071
 9291SOL    HW228773   1.852   6.150   6.146
 9292SOL     OW28774   1.898   1.394   6.659
 9292SOL    HW128775   1.931   1.460   6.727
 9292SOL    HW228776   1.906   1.302   6.696
 9293SOL     OW28777   4.794   3.340   6.874
 9293SOL    HW128778   4.824   3.432   6.847
 9293SOL    HW228779   4.861   3.301   6.938
 9294SOL     OW28780   5.032   0.838   6.750
 9294SOL    HW128781   5.018   0.902   6.825
 9294SOL    HW228782   5.001   0.747   6.778
 9295SOL     OW28783   6.542   0.900   5.119
 9295SOL    HW128784   6.473   0.864   5.182
 9295SOL    HW228785   6.564   0.830   5.050
 9296SOL     OW28786   1.983   5.041   0.974
 9296SOL    HW128787   1.959   4.955   0.928
 9296SOL    HW228788   2.069   5.029   1.024
 9297SOL     OW28789   0.670   6.454   3.481
 9297SOL    HW128790   0.669   6.421   3.575
 9297SOL    HW228791   0.620   6.540   3.475
 9298SOL     OW28792   1.181   6.298   6.171
 9298SOL    HW128793   1.159   6.348   6.087
 9298SOL    HW228794   1.169   6.359   6.249
 9299SOL     OW28795   0.978   1.430   3.823
 9299SOL    HW128796   0.927   1.448   3.739
 9299SOL    HW228797   1.052   1.497   3.832
 9300SOL     OW28798   0.475   5.226   4.954
 9300SOL    HW128799   0.561   5.270   4.927
 9300SOL    HW228800   0.400   5.291   4.943
 9301SOL     OW28801   6.948   4.345   5.172
 9301SOL    HW128802   6.890   4.313   5.097
 9301SOL    HW228803   6.908   4.316   5.259
 9302SOL     OW28804   2.138   2.959   4.633
 9302SOL    HW128805   2.098   3.029   4.692
 9302SOL    HW228806   2.073   2.933   4.562
 9303SOL     OW28807   2.557   4.466   0.543
 9303SOL    HW128808   2.582   4.527   0.468
 9303SOL    HW228809   2.591   4.374   0.524
 9304SOL     OW28810   4.402   5.170   0.604
 9304SOL    HW128811   4.330   5.215   0.551
 9304SOL    HW228812   4.454   5.240   0.655
 9305SOL     OW28813   3.579   1.031   0.523
 9305SOL    HW128814   3.558   0.937   0.549
 9305SOL    HW228815   3.494   1.078   0.498
 9306SOL     OW28816   0.512   3.821   5.344
 9306SOL    HW128817   0.442   3.803   5.274
 9306SOL    HW228818   0.573   3.893   5.313
 9307SOL     OW28819   1.180   4.322   0.669
 9307SOL    HW128820   1.163   4.408   0.717
 9307SOL    HW228821   1.276   4.297   0.678
 9308SOL     OW28822   1.135   4.461   1.512
 9308SOL    HW128823   1.174   4.552   1.495
 9308SOL    HW228824   1.038   4.471   1.535
 9309SOL     OW28825   4.360   6.585   5.480
 9309SOL    HW128826   4.410   6.509   5.439
 9309SOL    HW228827   4.390   6.671   5.438
 9310SOL     OW28828   5.541   6.113   5.897
 9310SOL    HW128829   5.533   6.207   5.930
 9310SOL    HW228830   5.495   6.104   5.808
 9311SOL     OW28831   5.438   4.674   1.418
 9311SOL    HW128832   5.351   4.653   1.464
 9311SOL    HW228833   5.464   4.598   1.359
 9312SOL     OW28834   1.633   2.104   1.055
 9312SOL    HW128835   1.628   2.014   1.099
 9312SOL    HW228836   1.602   2.096   0.960
 9313SOL     OW28837   0.750   0.460   1.643
 9313SOL    HW128838   0.803   0.541   1.617
 9313SOL    HW228839   0.773   0.434   1.737
 9314SOL     OW28840   6.298   3.859   1.223
 9314SOL    HW128841   6.292   3.812   1.136
 9314SOL    HW228842   6.383   3.834   1.269
 9315SOL     OW28843   6.088   0.449   6.145
 9315SOL    HW128844   6.148   0.510   6.197
 9315SOL    HW228845   5.994   0.462   6.174
 9316SOL     OW28846   5.989   0.267   5.438
 9316SOL    HW128847   5.981   0.358   5.398
 9316SOL    HW228848   6.069   0.221   5.399
 9317SOL     OW28849   4.109   5.417   3.362
 9317SOL    HW128850   4.140   5.500   3.316
 9317SOL    HW228851   4.162   5.403   3.445
 9318SOL     OW28852   4.626   6.469   0.163
 9318SOL    HW128853   4.649   6.563   0.140
 9318SOL    HW228854   4.527   6.459   0.174
 9319SOL     OW28855   2.302   3.070   0.829
 9319SOL    HW128856   2.232   3.056   0.758
 9319SOL    HW228857   2.384   3.019   0.804
 9320SOL     OW28858   4.683   0.448   6.354
 9320SOL    HW128859   4.725   0.363   6.321
 9320SOL    HW228860   4.738   0.526   6.323
 9321SOL     OW28861   0.823   1.565   5.431
 9321SOL    HW128862   0.860   1.655   5.408
 9321SOL    HW228863   0.724   1.568   5.427
 9322SOL     OW28864   6.670   4.450   6.412
 9322SOL    HW128865   6.705   4.534   6.369
 9322SOL    HW228866   6.572   4.459   6.428
 9323SOL     OW28867   2.399   1.949   4.819
 9323SOL    HW128868   2.459   2.012   4.869
 9323SOL    HW228869   2.314   1.937   4.870
 9324SOL     OW28870   2.159   3.909   2.162
 9324SOL    HW128871   2.146   3.914   2.063
 9324SOL    HW228872   2.192   3.818   2.187
 9325SOL     OW28873   0.788   6.209   1.164
 9325SOL    HW128874   0.716   6.255   1.218
 9325SOL    HW228875   0.851   6.162   1.226
 9326SOL     OW28876   3.233   5.282   6.779
 9326SOL    HW128877   3.185   5.243   6.700
 9326SOL    HW228878   3.331   5.277   6.764
 9327SOL     OW28879   4.726   6.962   3.142
 9327SOL    HW128880   4.675   0.010   3.196
 9327SOL    HW228881   4.820   6.992   3.131
 9328SOL     OW28882   2.000   0.222   5.005
 9328SOL    HW128883   2.041   0.270   4.928
 9328SOL    HW228884   1.908   0.259   5.022
 9329SOL     OW28885   6.639   5.690   0.708
 9329SOL    HW128886   6.614   5.616   0.770
 9329SOL    HW228887   6.733   5.678   0.677
 9330SOL     OW28888   0.345   0.262   6.284
 9330SOL    HW128889   0.293   0.342   6.253
 9330SOL    HW228890   0.281   0.190   6.312
 9331SOL     OW28891   2.008   2.254   6.089
 9331SOL    HW128892   2.100   2.262   6.050
 9331SOL    HW228893   1.940   2.271   6.018
 9332SOL     OW28894   4.155   5.984   0.679
 9332SOL    HW128895   4.177   5.888   0.700
 9332SOL    HW228896   4.147   5.995   0.580
 9333SOL     OW28897   4.142   5.835   0.001
 9333SOL    HW128898   4.171   5.846   6.925
 9333SOL    HW228899   4.081   5.755   0.008
 9334SOL     OW28900   5.122   0.605   4.422
 9334SOL    HW128901   5.135   0.526   4.362
 9334SOL    HW228902   5.210   0.631   4.462
 9335SOL     OW28903   1.486   1.860   0.195
 9335SOL    HW128904   1.475   1.950   0.239
 9335SOL    HW228905   1.557   1.808   0.243
 9336SOL     OW28906   5.527   0.262   4.362
 9336SOL    HW128907   5.550   0.321   4.284
 9336SOL    HW228908   5.612   0.229   4.405
 9337SOL     OW28909   5.140   0.695   6.327
 9337SOL    HW128910   5.176   0.764   6.390
 9337SOL    HW228911   5.053   0.661   6.361
 9338SOL     OW28912   6.747   5.935   1.260
 9338SOL    HW128913   6.789   5.998   1.195
 9338SOL    HW228914   6.815   5.905   1.327
 9339SOL     OW28915   5.605   5.798   0.528
 9339SOL    HW128916   5.578   5.892   0.509
 9339SOL    HW228917   5.641   5.757   0.444
 9340SOL     OW28918   3.981   4.849   2.739
 9340SOL    HW128919   3.896   4.829   2.788
 9340SOL    HW228920   4.053   4.870   2.805
 9341SOL     OW28921   6.499   3.938   0.311
 9341SOL    HW128922   6.569   3.883   0.267
 9341SOL    HW228923   6.536   4.027   0.335
 9342SOL     OW28924   2.902   0.555   4.517
 9342SOL    HW128925   2.996   0.552   4.551
 9342SOL    HW228926   2.852   0.630   4.559
 9343SOL     OW28927   4.837   3.453   1.863
 9343SOL    HW128928   4.755   3.449   1.806
 9343SOL    HW228929   4.847   3.546   1.900
 9344SOL     OW28930   5.406   5.764   6.641
 9344SOL    HW128931   5.412   5.860   6.666
 9344SOL    HW228932   5.448   5.750   6.551
 9345SOL     OW28933   6.418   4.745   0.479
 9345SOL    HW128934   6.506   4.787   0.500
 9345SOL    HW228935   6.422   4.704   0.387
 9346SOL     OW28936   5.068   6.410   2.374
 9346SOL    HW128937   5.129   6.458   2.312
 9346SOL    HW228938   4.974   6.442   2.359
 9347SOL     OW28939   3.411   5.985   0.694
 9347SOL    HW128940   3.438   6.081   0.682
 9347SOL    HW228941   3.329   5.981   0.751
 9348SOL     OW28942   3.104   5.172   2.816
 9348SOL    HW128943   3.103   5.212   2.724
 9348SOL    HW228944   3.075   5.077   2.811
 9349SOL     OW28945   6.387   5.836   2.012
 9349SOL    HW128946   6.461   5.879   2.063
 9349SOL    HW228947   6.340   5.769   2.069
 9350SOL     OW28948   0.456   1.808   4.294
 9350SOL    HW128949   0.391   1.747   4.247
 9350SOL    HW228950   0.531   1.830   4.231
 9351SOL     OW28951   2.823   0.567   6.293
 9351SOL    HW128952   2.742   0.626   6.288
 9351SOL    HW228953   2.821   0.501   6.218
 9352SOL     OW28954   2.434   3.238   5.653
 9352SOL    HW128955   2.486   3.225   5.737
 9352SOL    HW228956   2.448   3.160   5.592
 9353SOL     OW28957   1.816   4.307   2.077
 9353SOL    HW128958   1.869   4.222   2.077
 9353SOL    HW228959   1.726   4.289   2.037
 9354SOL     OW28960   5.933   1.640   0.617
 9354SOL    HW128961   6.002   1.611   0.684
 9354SOL    HW228962   5.964   1.723   0.571
 9355SOL     OW28963   6.500   1.101   4.471
 9355SOL    HW128964   6.489   1.196   4.441
 9355SOL    HW228965   6.565   1.054   4.411
 9356SOL     OW28966   4.683   5.112   1.897
 9356SOL    HW128967   4.596   5.100   1.946
 9356SOL    HW228968   4.746   5.040   1.924
 9357SOL     OW28969   2.491   3.717   0.125
 9357SOL    HW128970   2.586   3.696   0.148
 9357SOL    HW228971   2.447   3.762   0.203
 9358SOL     OW28972   6.218   3.737   1.762
 9358SOL    HW128973   6.234   3.795   1.682
 9358SOL    HW228974   6.124   3.747   1.792
 9359SOL     OW28975   0.316   3.538   6.011
 9359SOL    HW128976   0.391   3.511   5.952
 9359SOL    HW228977   0.352   3.573   6.098
 9360SOL     OW28978   1.057   6.836   5.951
 9360SOL    HW128979   1.112   6.861   5.871
 9360SOL    HW228980   1.013   6.748   5.935
 9361SOL     OW28981   2.934   6.325   3.654
 9361SOL    HW128982   2.883   6.240   3.663
 9361SOL    HW228983   2.915   6.384   3.733
 9362SOL     OW28984   1.471   1.523   2.318
 9362SOL    HW128985   1.386   1.563   2.352
 9362SOL    HW228986   1.500   1.572   2.236
 9363SOL     OW28987   4.325   5.260   1.784
 9363SOL    HW128988   4.299   5.274   1.879
 9363SOL    HW228989   4.385   5.334   1.754
 9364SOL     OW28990   4.191   3.185   6.052
 9364SOL    HW128991   4.284   3.191   6.015
 9364SOL    HW228992   4.177   3.094   6.092
 9365SOL     OW28993   2.695   1.779   5.431
 9365SOL    HW128994   2.794   1.771   5.414
 9365SOL    HW228995   2.658   1.690   5.458
 9366SOL     OW28996   2.669   1.318   0.283
 9366SOL    HW128997   2.646   1.375   0.361
 9366SOL    HW228998   2.756   1.272   0.299
 9367SOL     OW28999   6.947   5.991   3.386
 9367SOL    HW129000   6.934   6.031   3.477
 9367SOL    HW229001   6.935   5.892   3.391
 9368SOL     OW29002   3.522   1.742   3.449
 9368SOL    HW129003   3.543   1.645   3.433
 9368SOL    HW229004   3.437   1.749   3.500
 9369SOL     OW29005   0.098   0.795   5.742
 9369SOL    HW129006   0.093   0.791   5.842
 9369SOL    HW229007   0.134   0.709   5.706
 9370SOL     OW29008   4.835   0.434   2.753
 9370SOL    HW129009   4.743   0.473   2.744
 9370SOL    HW229010   4.898   0.504   2.786
 9371SOL     OW29011   1.947   4.814   0.847
 9371SOL    HW129012   1.898   4.758   0.913
 9371SOL    HW229013   1.988   4.755   0.777
 9372SOL     OW29014   5.487   5.778   3.169
 9372SOL    HW129015   5.524   5.871   3.161
 9372SOL    HW229016   5.481   5.737   3.078
 9373SOL     OW29017   4.529   2.495   2.626
 9373SOL    HW129018   4.615   2.467   2.668
 9373SOL    HW229019   4.545   2.573   2.565
 9374SOL     OW29020   6.452   3.452   0.622
 9374SOL    HW129021   6.541   3.478   0.660
 9374SOL    HW229022   6.394   3.416   0.695
 9375SOL     OW29023   6.780   1.773   2.921
 9375SOL    HW129024   6.805   1.780   2.825
 9375SOL    HW229025   6.828   1.697   2.963
 9376SOL     OW29026   2.233   4.065   1.391
 9376SOL    HW129027   2.219   4.057   1.292
 9376SOL    HW229028   2.316   4.016   1.416
 9377SOL     OW29029   1.625   5.671   3.743
 9377SOL    HW129030   1.643   5.765   3.773
 9377SOL    HW229031   1.549   5.633   3.796
 9378SOL     OW29032   0.441   0.153   5.254
 9378SOL    HW129033   0.435   0.056   5.230
 9378SOL    HW229034   0.490   0.163   5.340
 9379SOL     OW29035   4.574   5.034   5.530
 9379SOL    HW129036   4.584   5.133   5.533
 9379SOL    HW229037   4.476   5.011   5.528
 9380SOL     OW29038   5.610   4.491   5.029
 9380SOL    HW129039   5.551   4.455   4.957
 9380SOL    HW229040   5.632   4.418   5.093
 9381SOL     OW29041   2.799   3.200   5.697
 9381SOL    HW129042   2.834   3.189   5.604
 9381SOL    HW229043   2.874   3.219   5.759
 9382SOL     OW29044   3.600   1.450   3.378
 9382SOL    HW129045   3.567   1.375   3.436
 9382SOL    HW229046   3.578   1.431   3.282
 9383SOL     OW29047   2.113   6.034   4.328
 9383SOL    HW129048   2.142   6.014   4.234
 9383SOL    HW229049   2.165   6.112   4.363
 9384SOL     OW29050   3.382   6.028   1.322
 9384SOL    HW129051   3.324   5.964   1.272
 9384SOL    HW229052   3.466   5.982   1.351
 9385SOL     OW29053   4.239   0.809   3.160
 9385SOL    HW129054   4.241   0.714   3.129
 9385SOL    HW229055   4.161   0.823   3.221
 9386SOL     OW29056   2.451   6.502   4.824
 9386SOL    HW129057   2.531   6.496   4.883
 9386SOL    HW229058   2.452   6.427   4.758
 9387SOL     OW29059   2.686   1.073   6.987
 9387SOL    HW129060   2.626   1.130   0.024
 9387SOL    HW229061   2.638   1.045   6.904
 9388SOL     OW29062   2.393   5.701   3.126
 9388SOL    HW129063   2.311   5.664   3.169
 9388SOL    HW229064   2.450   5.627   3.091
 9389SOL     OW29065   1.538   6.709   4.799
 9389SOL    HW129066   1.512   6.769   4.875
 9389SOL    HW229067   1.627   6.739   4.763
 9390SOL     OW29068   4.011   5.161   5.082
 9390SOL    HW129069   3.939   5.093   5.083
 9390SOL    HW229070   4.053   5.166   4.991
 9391SOL     OW29071   2.489   0.584   5.201
 9391SOL    HW129072   2.398   0.590   5.159
 9391SOL    HW229073   2.517   0.674   5.233
 9392SOL     OW29074   6.787   0.325   5.235
 9392SOL    HW129075   6.782   0.362   5.327
 9392SOL    HW229076   6.774   0.399   5.169
 9393SOL     OW29077   2.894   0.347   5.062
 9393SOL    HW129078   2.799   0.327   5.083
 9393SOL    HW229079   2.935   0.400   5.136
 9394SOL     OW29080   0.043   1.454   2.014
 9394SOL    HW129081   0.126   1.448   1.959
 9394SOL    HW229082   0.058   1.408   2.102
 9395SOL     OW29083   2.136   1.570   0.198
 9395SOL    HW129084   2.059   1.633   0.213
 9395SOL    HW229085   2.185   1.597   0.115
 9396SOL     OW29086   1.361   5.196   3.448
 9396SOL    HW129087   1.377   5.152   3.359
 9396SOL    HW229088   1.304   5.277   3.435
 9397SOL     OW29089   3.237   0.092   0.142
 9397SOL    HW129090   3.199   0.131   0.226
 9397SOL    HW229091   3.269   7.018   0.159
 9398SOL     OW29092   0.562   0.155   5.501
 9398SOL    HW129093   0.629   0.081   5.502
 9398SOL    HW229094   0.514   0.157   5.589
 9399SOL     OW29095   6.961   1.762   6.181
 9399SOL    HW129096   6.896   1.833   6.153
 9399SOL    HW229097   6.952   1.683   6.121
 9400SOL     OW29098   4.046   2.293   1.776
 9400SOL    HW129099   3.988   2.218   1.808
 9400SOL    HW229100   4.109   2.320   1.849
 9401SOL     OW29101   4.940   6.896   3.503
 9401SOL    HW129102   4.878   6.837   3.452
 9401SOL    HW229103   4.893   6.980   3.528
 9402SOL     OW29104   1.279   4.804   3.734
 9402SOL    HW129105   1.236   4.717   3.758
 9402SOL    HW229106   1.354   4.788   3.670
 9403SOL     OW29107   5.740   1.366   2.760
 9403SOL    HW129108   5.664   1.406   2.811
 9403SOL    HW229109   5.804   1.438   2.734
 9404SOL     OW29110   0.751   3.316   6.405
 9404SOL    HW129111   0.764   3.226   6.364
 9404SOL    HW229112   0.823   3.378   6.373
 9405SOL     OW29113   0.400   5.651   2.088
 9405SOL    HW129114   0.469   5.707   2.133
 9405SOL    HW229115   0.385   5.686   1.995
 9406SOL     OW29116   0.021   2.604   6.503
 9406SOL    HW129117   6.976   2.533   6.531
 9406SOL    HW229118   0.018   2.679   6.569
 9407SOL     OW29119   2.906   5.333   3.417
 9407SOL    HW129120   2.925   5.242   3.455
 9407SOL    HW229121   2.819   5.330   3.368
 9408SOL     OW29122   3.929   1.482   6.159
 9408SOL    HW129123   3.832   1.508   6.164
 9408SOL    HW229124   3.940   1.387   6.187
 9409SOL     OW29125   5.792   4.660   6.470
 9409SOL    HW129126   5.767   4.564   6.462
 9409SOL    HW229127   5.879   4.668   6.520
 9410SOL     OW29128   2.836   6.283   1.826
 9410SOL    HW129129   2.807   6.374   1.854
 9410SOL    HW229130   2.893   6.242   1.897
 9411SOL     OW29131   3.954   3.688   1.840
 9411SOL    HW129132   3.974   3.717   1.746
 9411SOL    HW229133   4.024   3.622   1.870
 9412SOL     OW29134   0.050   3.023   1.802
 9412SOL    HW129135   0.144   3.033   1.835
 9412SOL    HW229136   0.035   3.085   1.725
 9413SOL     OW29137   3.425   6.157   4.469
 9413SOL    HW129138   3.328   6.138   4.457
 9413SOL    HW229139   3.477   6.072   4.462
 9414SOL     OW29140   3.189   0.820   3.629
 9414SOL    HW129141   3.093   0.810   3.600
 9414SOL    HW229142   3.208   0.917   3.644
 9415SOL     OW29143   2.772   6.927   2.039
 9415SOL    HW129144   2.710   6.880   1.976
 9415SOL    HW229145   2.757   0.007   2.033
 9416SOL     OW29146   0.610   1.826   1.165
 9416SOL    HW129147   0.615   1.922   1.136
 9416SOL    HW229148   0.625   1.821   1.264
 9417SOL     OW29149   3.722   6.620   5.722
 9417SOL    HW129150   3.732   6.689   5.794
 9417SOL    HW229151   3.724   6.529   5.763
 9418SOL     OW29152   3.535   6.135   1.832
 9418SOL    HW129153   3.523   6.188   1.748
 9418SOL    HW229154   3.631   6.134   1.858
 9419SOL     OW29155   3.132   4.810   5.808
 9419SOL    HW129156   3.040   4.780   5.781
 9419SOL    HW229157   3.143   4.799   5.907
 9420SOL     OW29158   0.061   2.384   5.216
 9420SOL    HW129159   6.995   2.382   5.268
 9420SOL    HW229160   0.087   2.479   5.198
 9421SOL     OW29161   1.975   6.391   4.905
 9421SOL    HW129162   2.058   6.433   4.943
 9421SOL    HW229163   1.988   6.373   4.808
 9422SOL     OW29164   5.103   6.139   3.363
 9422SOL    HW129165   5.157   6.089   3.296
 9422SOL    HW229166   5.155   6.219   3.394
 9423SOL     OW29167   4.422   0.384   3.326
 9423SOL    HW129168   4.401   0.289   3.344
 9423SOL    HW229169   4.521   0.394   3.312
 9424SOL     OW29170   4.964   0.763   4.867
 9424SOL    HW129171   5.039   0.765   4.933
 9424SOL    HW229172   4.877   0.775   4.916
 9425SOL     OW29173   6.780   3.433   6.492
 9425SOL    HW129174   6.749   3.524   6.464
 9425SOL    HW229175   6.753   3.366   6.423
 9426SOL     OW29176   2.555   1.933   0.055
 9426SOL    HW129177   2.583   1.974   6.987
 9426SOL    HW229178   2.620   1.862   0.082
 9427SOL     OW29179   2.732   5.390   4.348
 9427SOL    HW129180   2.698   5.469   4.296
 9427SOL    HW229181   2.664   5.361   4.414
 9428SOL     OW29182   5.613   0.660   1.168
 9428SOL    HW129183   5.710   0.664   1.192
 9428SOL    HW229184   5.573   0.576   1.202
 9429SOL     OW29185   2.014   3.720   2.342
 9429SOL    HW129186   2.051   3.637   2.300
 9429SOL    HW229187   2.077   3.752   2.413
 9430SOL     OW29188   0.527   4.515   2.123
 9430SOL    HW129189   0.572   4.473   2.202
 9430SOL    HW229190   0.505   4.610   2.145
 9431SOL     OW29191   5.683   3.852   1.325
 9431SOL    HW129192   5.587   3.824   1.319
 9431SOL    HW229193   5.739   3.773   1.347
 9432SOL     OW29194   5.076   1.048   3.147
 9432SOL    HW129195   5.118   1.130   3.111
 9432SOL    HW229196   4.994   1.026   3.095
 9433SOL     OW29197   3.809   5.064   3.466
 9433SOL    HW129198   3.732   5.036   3.523
 9433SOL    HW229199   3.883   4.997   3.473
 9434SOL     OW29200   5.384   5.032   3.508
 9434SOL    HW129201   5.375   5.064   3.602
 9434SOL    HW229202   5.457   4.964   3.504
 9435SOL     OW29203   0.460   2.656   4.902
 9435SOL    HW129204   0.551   2.689   4.928
 9435SOL    HW229205   0.391   2.721   4.933
 9436SOL     OW29206   1.236   3.174   2.018
 9436SOL    HW129207   1.176   3.238   2.066
 9436SOL    HW229208   1.312   3.224   1.976
 9437SOL     OW29209   2.554   6.329   3.604
 9437SOL    HW129210   2.467   6.325   3.556
 9437SOL    HW229211   2.572   6.424   3.632
 9438SOL     OW29212   0.156   0.255   1.504
 9438SOL    HW129213   0.247   0.293   1.517
 9438SOL    HW229214   0.122   0.220   1.591
 9439SOL     OW29215   0.529   2.946   1.723
 9439SOL    HW129216   0.528   2.950   1.623
 9439SOL    HW229217   0.581   2.866   1.753
 9440SOL     OW29218   4.189   5.137   4.317
 9440SOL    HW129219   4.104   5.105   4.359
 9440SOL    HW229220   4.217   5.073   4.245
 9441SOL     OW29221   1.529   3.671   5.167
 9441SOL    HW129222   1.617   3.707   5.198
 9441SOL    HW229223   1.464   3.746   5.155
 9442SOL     OW29224   4.630   3.218   0.160
 9442SOL    HW129225   4.601   3.123   0.170
 9442SOL    HW229226   4.636   3.241   0.063
 9443SOL     OW29227   2.758   4.990   1.365
 9443SOL    HW129228   2.696   5.014   1.291
 9443SOL    HW229229   2.764   5.067   1.430
 9444SOL     OW29230   1.102   4.091   6.788
 9444SOL    HW129231   1.085   4.184   6.820
 9444SOL    HW229232   1.033   4.065   6.721
 9445SOL     OW29233   5.888   3.530   2.906
 9445SOL    HW129234   5.881   3.591   2.985
 9445SOL    HW229235   5.921   3.581   2.827
 9446SOL     OW29236   6.591   6.703   4.466
 9446SOL    HW129237   6.612   6.609   4.492
 9446SOL    HW229238   6.676   6.755   4.457
 9447SOL     OW29239   6.293   3.556   4.051
 9447SOL    HW129240   6.370   3.572   4.113
 9447SOL    HW229241   6.211   3.598   4.089
 9448SOL     OW29242   6.828   6.817   6.393
 9448SOL    HW129243   6.786   6.896   6.439
 9448SOL    HW229244   6.910   6.790   6.443
 9449SOL     OW29245   0.014   5.988   6.843
 9449SOL    HW129246   6.975   6.044   6.784
 9449SOL    HW229247   0.110   6.005   6.821
 9450SOL     OW29248   3.077   5.700   4.874
 9450SOL    HW129249   3.068   5.611   4.828
 9450SOL    HW229250   2.992   5.720   4.923
 9451SOL     OW29251   3.993   6.656   6.098
 9451SOL    HW129252   4.089   6.632   6.084
 9451SOL    HW229253   3.935   6.576   6.079
 9452SOL     OW29254   1.285   3.943   0.548
 9452SOL    HW129255   1.281   3.873   0.619
 9452SOL    HW229256   1.207   4.004   0.556
 9453SOL     OW29257   2.064   5.119   3.348
 9453SOL    HW129258   2.092   5.111   3.444
 9453SOL    HW229259   1.982   5.176   3.342
 9454SOL     OW29260   1.965   3.615   6.975
 9454SOL    HW129261   1.971   3.712   6.953
 9454SOL    HW229262   1.939   3.564   6.893
 9455SOL     OW29263   4.000   1.847   2.610
 9455SOL    HW129264   3.932   1.848   2.682
 9455SOL    HW229265   4.037   1.940   2.597
 9456SOL     OW29266   0.614   3.543   0.953
 9456SOL    HW129267   0.612   3.605   0.875
 9456SOL    HW229268   0.574   3.589   1.033
 9457SOL     OW29269   2.334   3.995   5.406
 9457SOL    HW129270   2.253   4.050   5.384
 9457SOL    HW229271   2.387   3.978   5.323
 9458SOL     OW29272   1.480   3.316   0.249
 9458SOL    HW129273   1.407   3.358   0.303
 9458SOL    HW229274   1.463   3.333   0.151
 9459SOL     OW29275   5.305   4.618   2.696
 9459SOL    HW129276   5.370   4.629   2.772
 9459SOL    HW229277   5.223   4.572   2.730
 9460SOL     OW29278   0.215   2.779   4.140
 9460SOL    HW129279   0.191   2.867   4.180
 9460SOL    HW229280   0.134   2.720   4.136
 9461SOL     OW29281   6.499   1.817   2.456
 9461SOL    HW129282   6.527   1.757   2.381
 9461SOL    HW229283   6.401   1.834   2.451
 9462SOL     OW29284   2.155   3.774   2.577
 9462SOL    HW129285   2.104   3.692   2.600
 9462SOL    HW229286   2.156   3.836   2.656
 9463SOL     OW29287   0.226   0.803   1.435
 9463SOL    HW129288   0.209   0.850   1.522
 9463SOL    HW229289   0.278   0.719   1.452
 9464SOL     OW29290   5.859   0.088   0.971
 9464SOL    HW129291   5.816   0.172   0.937
 9464SOL    HW229292   5.935   0.111   1.031
 9465SOL     OW29293   1.226   5.655   3.534
 9465SOL    HW129294   1.187   5.739   3.496
 9465SOL    HW229295   1.326   5.657   3.523
 9466SOL     OW29296   4.506   4.719   5.577
 9466SOL    HW129297   4.563   4.801   5.576
 9466SOL    HW229298   4.443   4.722   5.499
 9467SOL     OW29299   1.441   2.565   1.555
 9467SOL    HW129300   1.454   2.469   1.531
 9467SOL    HW229301   1.413   2.572   1.650
 9468SOL     OW29302   6.252   2.259   6.332
 9468SOL    HW129303   6.228   2.298   6.244
 9468SOL    HW229304   6.228   2.323   6.405
 9469SOL     OW29305   6.098   6.188   1.486
 9469SOL    HW129306   6.031   6.249   1.527
 9469SOL    HW229307   6.066   6.159   1.396
 9470SOL     OW29308   4.339   4.080   5.344
 9470SOL    HW129309   4.389   3.995   5.359
 9470SOL    HW229310   4.245   4.069   5.376
 9471SOL     OW29311   6.694   1.397   4.611
 9471SOL    HW129312   6.714   1.477   4.668
 9471SOL    HW229313   6.753   1.321   4.639
 9472SOL     OW29314   6.055   3.240   4.505
 9472SOL    HW129315   6.087   3.319   4.453
 9472SOL    HW229316   5.956   3.235   4.501
 9473SOL     OW29317   2.838   5.484   5.194
 9473SOL    HW129318   2.930   5.518   5.214
 9473SOL    HW229319   2.811   5.513   5.102
 9474SOL     OW29320   6.811   3.257   0.411
 9474SOL    HW129321   6.880   3.193   0.444
 9474SOL    HW229322   6.842   3.351   0.426
 9475SOL     OW29323   2.842   3.402   0.118
 9475SOL    HW129324   2.774   3.366   0.054
 9475SOL    HW229325   2.930   3.410   0.071
 9476SOL     OW29326   2.944   3.708   4.959
 9476SOL    HW129327   3.031   3.661   4.972
 9476SOL    HW229328   2.909   3.739   5.047
 9477SOL     OW29329   0.202   3.886   2.473
 9477SOL    HW129330   0.278   3.951   2.477
 9477SOL    HW229331   0.126   3.920   2.529
 9478SOL     OW29332   5.317   3.377   6.215
 9478SOL    HW129333   5.344   3.298   6.270
 9478SOL    HW229334   5.387   3.447   6.222
 9479SOL     OW29335   4.533   6.342   6.926
 9479SOL    HW129336   4.473   6.408   6.881
 9479SOL    HW229337   4.599   6.390   6.983
 9480SOL     OW29338   5.001   3.657   0.740
 9480SOL    HW129339   4.944   3.609   0.807
 9480SOL    HW229340   5.053   3.729   0.786
 9481SOL     OW29341   5.461   3.654   2.281
 9481SOL    HW129342   5.442   3.681   2.186
 9481SOL    HW229343   5.539   3.707   2.315
 9482SOL     OW29344   6.892   0.826   3.269
 9482SOL    HW129345   6.832   0.751   3.241
 9482SOL    HW229346   6.879   0.904   3.208
 9483SOL     OW29347   0.786   1.522   1.766
 9483SOL    HW129348   0.872   1.515   1.716
 9483SOL    HW229349   0.711   1.494   1.707
 9484SOL     OW29350   4.194   0.877   3.438
 9484SOL    HW129351   4.190   0.825   3.524
 9484SOL    HW229352   4.116   0.852   3.381
 9485SOL     OW29353   0.618   0.320   2.007
 9485SOL    HW129354   0.533   0.310   2.057
 9485SOL    HW229355   0.611   0.273   1.919
 9486SOL     OW29356   2.775   5.798   1.150
 9486SOL    HW129357   2.731   5.819   1.063
 9486SOL    HW229358   2.822   5.880   1.184
 9487SOL     OW29359   3.005   3.361   3.246
 9487SOL    HW129360   2.978   3.433   3.182
 9487SOL    HW229361   2.993   3.393   3.340
 9488SOL     OW29362   1.434   6.615   1.029
 9488SOL    HW129363   1.483   6.556   0.964
 9488SOL    HW229364   1.499   6.677   1.073
 9489SOL     OW29365   4.176   4.088   1.438
 9489SOL    HW129366   4.207   3.993   1.435
 9489SOL    HW229367   4.239   4.145   1.386
 9490SOL     OW29368   6.532   5.468   0.882
 9490SOL    HW129369   6.545   5.416   0.967
 9490SOL    HW229370   6.451   5.526   0.891
 9491SOL     OW29371   6.883   3.802   3.756
 9491SOL    HW129372   6.962   3.765   3.707
 9491SOL    HW229373   6.800   3.754   3.726
 9492SOL     OW29374   3.676   2.954   3.056
 9492SOL    HW129375   3.627   3.040   3.073
 9492SOL    HW229376   3.713   2.918   3.142
 9493SOL     OW29377   3.942   5.409   3.881
 9493SOL    HW129378   4.007   5.361   3.822
 9493SOL    HW229379   3.856   5.358   3.884
 9494SOL     OW29380   4.384   4.760   1.748
 9494SOL    HW129381   4.292   4.729   1.772
 9494SOL    HW229382   4.378   4.845   1.696
 9495SOL     OW29383   6.404   1.792   3.826
 9495SOL    HW129384   6.427   1.888   3.843
 9495SOL    HW229385   6.455   1.759   3.746
 9496SOL     OW29386   5.763   5.066   1.212
 9496SOL    HW129387   5.838   5.091   1.151
 9496SOL    HW229388   5.694   5.014   1.161
 9497SOL     OW29389   6.333   5.376   6.633
 9497SOL    HW129390   6.332   5.439   6.710
 9497SOL    HW229391   6.299   5.287   6.662
 9498SOL     OW29392   5.392   0.176   4.750
 9498SOL    HW129393   5.356   0.240   4.682
 9498SOL    HW229394   5.336   0.180   4.833
 9499SOL     OW29395   2.197   4.997   7.000
 9499SOL    HW129396   2.153   5.087   7.010
 9499SOL    HW229397   2.293   5.010   6.974
 9500SOL     OW29398   5.133   6.965   1.304
 9500SOL    HW129399   5.067   7.013   1.246
 9500SOL    HW229400   5.151   6.874   1.265
 9501SOL     OW29401   2.621   1.460   4.912
 9501SOL    HW129402   2.634   1.558   4.927
 9501SOL    HW229403   2.630   1.440   4.814
 9502SOL     OW29404   0.234   2.248   5.391
 9502SOL    HW129405   0.324   2.232   5.350
 9502SOL    HW229406   0.193   2.329   5.348
 9503SOL     OW29407   0.232   1.689   0.938
 9503SOL    HW129408   0.279   1.721   1.020
 9503SOL    HW229409   0.259   1.746   0.860
 9504SOL     OW29410   0.051   2.302   0.757
 9504SOL    HW129411   0.036   2.203   0.756
 9504SOL    HW229412   0.024   2.339   0.846
 9505SOL     OW29413   5.437   4.739   3.428
 9505SOL    HW129414   5.432   4.784   3.339
 9505SOL    HW229415   5.413   4.642   3.418
 9506SOL     OW29416   0.393   2.489   6.677
 9506SOL    HW129417   0.470   2.467   6.616
 9506SOL    HW229418   0.404   2.583   6.711
 9507SOL     OW29419   1.169   1.579   3.123
 9507SOL    HW129420   1.075   1.550   3.140
 9507SOL    HW229421   1.186   1.667   3.167
 9508SOL     OW29422   6.354   3.735   0.907
 9508SOL    HW129423   6.286   3.803   0.880
 9508SOL    HW229424   6.322   3.644   0.884
 9509SOL     OW29425   0.497   0.611   5.074
 9509SOL    HW129426   0.417   0.622   5.133
 9509SOL    HW229427   0.538   0.700   5.056
 9510SOL     OW29428   1.376   3.590   2.269
 9510SOL    HW129429   1.288   3.574   2.223
 9510SOL    HW229430   1.360   3.638   2.355
 9511SOL     OW29431   0.430   1.597   6.804
 9511SOL    HW129432   0.461   1.593   6.899
 9511SOL    HW229433   0.338   1.560   6.797
 9512SOL     OW29434   5.353   1.443   1.705
 9512SOL    HW129435   5.311   1.390   1.631
 9512SOL    HW229436   5.387   1.530   1.668
 9513SOL     OW29437   1.723   3.239   5.703
 9513SOL    HW129438   1.776   3.231   5.618
 9513SOL    HW229439   1.630   3.269   5.680
 9514SOL     OW29440   2.103   4.454   7.002
 9514SOL    HW129441   2.179   4.511   6.969
 9514SOL    HW229442   2.019   4.509   7.005
 9515SOL     OW29443   1.386   6.001   0.975
 9515SOL    HW129444   1.313   6.016   0.908
 9515SOL    HW229445   1.350   6.013   1.067
 9516SOL     OW29446   5.705   3.423   5.034
 9516SOL    HW129447   5.744   3.446   5.123
 9516SOL    HW229448   5.620   3.372   5.046
 9517SOL     OW29449   0.789   4.510   0.904
 9517SOL    HW129450   0.824   4.602   0.925
 9517SOL    HW229451   0.866   4.448   0.888
 9518SOL     OW29452   1.006   2.009   0.032
 9518SOL    HW129453   0.961   2.097   0.046
 9518SOL    HW229454   1.104   2.023   0.021
 9519SOL     OW29455   3.302   3.769   4.296
 9519SOL    HW129456   3.264   3.760   4.204
 9519SOL    HW229457   3.341   3.681   4.324
 9520SOL     OW29458   0.672   1.571   3.384
 9520SOL    HW129459   0.717   1.659   3.398
 9520SOL    HW229460   0.575   1.586   3.368
 9521SOL     OW29461   3.642   4.843   1.052
 9521SOL    HW129462   3.607   4.860   0.960
 9521SOL    HW229463   3.703   4.918   1.079
 9522SOL     OW29464   4.044   5.398   1.494
 9522SOL    HW129465   3.947   5.420   1.502
 9522SOL    HW229466   4.099   5.476   1.526
 9523SOL     OW29467   2.464   5.389   4.419
 9523SOL    HW129468   2.442   5.424   4.327
 9523SOL    HW229469   2.423   5.450   4.488
 9524SOL     OW29470   2.573   3.376   0.741
 9524SOL    HW129471   2.490   3.347   0.693
 9524SOL    HW229472   2.560   3.368   0.840
 9525SOL     OW29473   2.755   1.913   5.884
 9525SOL    HW129474   2.697   1.831   5.879
 9525SOL    HW229475   2.784   1.928   5.978
 9526SOL     OW29476   5.527   4.540   0.862
 9526SOL    HW129477   5.568   4.593   0.936
 9526SOL    HW229478   5.599   4.496   0.808
 9527SOL     OW29479   0.768   0.534   4.266
 9527SOL    HW129480   0.738   0.597   4.337
 9527SOL    HW229481   0.860   0.561   4.236
 9528SOL     OW29482   6.534   1.743   1.056
 9528SOL    HW129483   6.600   1.669   1.042
 9528SOL    HW229484   6.581   1.831   1.058
 9529SOL     OW29485   6.133   3.370   6.117
 9529SOL    HW129486   6.108   3.390   6.023
 9529SOL    HW229487   6.213   3.311   6.119
 9530SOL     OW29488   1.772   3.050   3.343
 9530SOL    HW129489   1.703   3.122   3.347
 9530SOL    HW229490   1.786   3.023   3.248
 9531SOL     OW29491   4.943   4.446   2.466
 9531SOL    HW129492   4.864   4.387   2.447
 9531SOL    HW229493   5.026   4.402   2.433
 9532SOL     OW29494   0.128   5.859   1.062
 9532SOL    HW129495   0.037   5.879   1.024
 9532SOL    HW229496   0.162   5.941   1.109
 9533SOL     OW29497   0.267   5.527   4.675
 9533SOL    HW129498   0.211   5.554   4.754
 9533SOL    HW229499   0.226   5.564   4.591
 9534SOL     OW29500   6.522   4.159   5.033
 9534SOL    HW129501   6.484   4.247   5.062
 9534SOL    HW229502   6.448   4.093   5.019
 9535SOL     OW29503   1.793   0.647   5.954
 9535SOL    HW129504   1.764   0.551   5.955
 9535SOL    HW229505   1.713   0.706   5.962
 9536SOL     OW29506   3.184   3.893   5.311
 9536SOL    HW129507   3.279   3.916   5.287
 9536SOL    HW229508   3.131   3.882   5.227
 9537SOL     OW29509   2.772   0.142   4.393
 9537SOL    HW129510   2.789   0.048   4.364
 9537SOL    HW229511   2.689   0.176   4.348
 9538SOL     OW29512   5.901   0.730   3.517
 9538SOL    HW129513   5.854   0.726   3.429
 9538SOL    HW229514   5.848   0.787   3.581
 9539SOL     OW29515   3.783   3.824   4.109
 9539SOL    HW129516   3.734   3.869   4.184
 9539SOL    HW229517   3.878   3.856   4.108
 9540SOL     OW29518   6.118   4.783   4.250
 9540SOL    HW129519   6.074   4.872   4.258
 9540SOL    HW229520   6.081   4.734   4.170
 9541SOL     OW29521   3.110   0.500   5.919
 9541SOL    HW129522   3.113   0.588   5.967
 9541SOL    HW229523   3.190   0.491   5.860
 9542SOL     OW29524   4.904   4.363   4.911
 9542SOL    HW129525   4.939   4.338   4.821
 9542SOL    HW229526   4.895   4.462   4.917
 9543SOL     OW29527   3.866   0.987   5.422
 9543SOL    HW129528   3.865   0.889   5.402
 9543SOL    HW229529   3.946   1.008   5.478
 9544SOL     OW29530   6.537   2.022   3.905
 9544SOL    HW129531   6.547   2.102   3.965
 9544SOL    HW229532   6.622   2.007   3.855
 9545SOL     OW29533   5.638   5.969   4.215
 9545SOL    HW129534   5.572   5.901   4.247
 9545SOL    HW229535   5.689   5.932   4.137
 9546SOL     OW29536   3.861   1.967   5.327
 9546SOL    HW129537   3.785   1.975   5.264
 9546SOL    HW229538   3.944   2.004   5.285
 9547SOL     OW29539   2.761   5.050   4.374
 9547SOL    HW129540   2.777   4.954   4.396
 9547SOL    HW229541   2.837   5.084   4.318
 9548SOL     OW29542   5.823   4.422   5.561
 9548SOL    HW129543   5.804   4.324   5.564
 9548SOL    HW229544   5.777   4.463   5.482
 9549SOL     OW29545   2.768   2.864   1.349
 9549SOL    HW129546   2.824   2.790   1.313
 9549SOL    HW229547   2.767   2.940   1.283
 9550SOL     OW29548   7.001   1.250   0.404
 9550SOL    HW129549   6.903   1.234   0.392
 9550SOL    HW229550   0.001   1.348   0.395
 9551SOL     OW29551   5.802   1.957   6.091
 9551SOL    HW129552   5.835   2.050   6.107
 9551SOL    HW229553   5.711   1.961   6.049
 9552SOL     OW29554   1.669   6.421   4.148
 9552SOL    HW129555   1.627   6.488   4.209
 9552SOL    HW229556   1.769   6.432   4.150
 9553SOL     OW29557   6.136   2.362   6.827
 9553SOL    HW129558   6.043   2.396   6.841
 9553SOL    HW229559   6.136   2.262   6.828
 9554SOL     OW29560   2.722   0.200   2.022
 9554SOL    HW129561   2.721   0.236   1.928
 9554SOL    HW229562   2.629   0.194   2.056
 9555SOL     OW29563   1.025   0.767   2.839
 9555SOL    HW129564   1.098   0.835   2.846
 9555SOL    HW229565   1.031   0.720   2.751
 9556SOL     OW29566   1.915   3.957   1.651
 9556SOL    HW129567   1.999   3.941   1.598
 9556SOL    HW229568   1.837   3.965   1.589
 9557SOL     OW29569   6.848   5.701   2.161
 9557SOL    HW129570   6.822   5.734   2.070
 9557SOL    HW229571   6.892   5.612   2.152
 9558SOL     OW29572   5.828   6.224   5.369
 9558SOL    HW129573   5.762   6.189   5.436
 9558SOL    HW229574   5.909   6.166   5.369
 9559SOL     OW29575   0.089   4.809   1.265
 9559SOL    HW129576   0.167   4.868   1.244
 9559SOL    HW229577   0.109   4.753   1.345
 9560SOL     OW29578   2.099   1.647   3.245
 9560SOL    HW129579   2.110   1.728   3.304
 9560SOL    HW229580   2.003   1.620   3.244
 9561SOL     OW29581   2.010   0.354   0.602
 9561SOL    HW129582   1.913   0.332   0.613
 9561SOL    HW229583   2.020   0.450   0.579
 9562SOL     OW29584   2.655   0.337   5.562
 9562SOL    HW129585   2.647   0.365   5.466
 9562SOL    HW229586   2.729   0.270   5.571
 9563SOL     OW29587   6.906   6.341   0.653
 9563SOL    HW129588   6.859   6.273   0.709
 9563SOL    HW229589   6.967   6.294   0.588
 9564SOL     OW29590   2.815   0.364   0.241
 9564SOL    HW129591   2.740   0.311   0.280
 9564SOL    HW229592   2.867   0.306   0.178
 9565SOL     OW29593   3.721   0.454   4.849
 9565SOL    HW129594   3.679   0.429   4.762
 9565SOL    HW229595   3.820   0.443   4.843
 9566SOL     OW29596   2.705   4.947   0.020
 9566SOL    HW129597   2.745   4.938   0.111
 9566SOL    HW229598   2.777   4.966   6.973
 9567SOL     OW29599   4.947   5.265   0.958
 9567SOL    HW129600   4.859   5.302   0.987
 9567SOL    HW229601   5.019   5.297   1.020
 9568SOL     OW29602   4.195   2.522   6.501
 9568SOL    HW129603   4.115   2.567   6.463
 9568SOL    HW229604   4.186   2.515   6.601
 9569SOL     OW29605   6.871   1.609   2.123
 9569SOL    HW129606   6.921   1.537   2.075
 9569SOL    HW229607   6.790   1.635   2.070
 9570SOL     OW29608   0.988   3.394   2.051
 9570SOL    HW129609   0.927   3.419   2.126
 9570SOL    HW229610   0.951   3.429   1.965
 9571SOL     OW29611   3.556   4.268   6.111
 9571SOL    HW129612   3.469   4.317   6.122
 9571SOL    HW229613   3.575   4.257   6.013
 9572SOL     OW29614   2.214   4.948   1.862
 9572SOL    HW129615   2.186   4.853   1.872
 9572SOL    HW229616   2.256   4.962   1.773
 9573SOL     OW29617   0.525   3.037   6.832
 9573SOL    HW129618   0.608   3.092   6.843
 9573SOL    HW229619   0.470   3.075   6.757
 9574SOL     OW29620   4.122   3.366   3.355
 9574SOL    HW129621   4.023   3.372   3.341
 9574SOL    HW229622   4.147   3.271   3.374
 9575SOL     OW29623   0.775   1.024   1.216
 9575SOL    HW129624   0.863   1.039   1.262
 9575SOL    HW229625   0.789   1.026   1.117
 9576SOL     OW29626   2.037   0.796   1.736
 9576SOL    HW129627   1.949   0.814   1.781
 9576SOL    HW229628   2.021   0.772   1.641
 9577SOL     OW29629   1.160   0.616   6.244
 9577SOL    HW129630   1.119   0.702   6.275
 9577SOL    HW229631   1.087   0.550   6.223
 9578SOL     OW29632   0.394   3.968   3.272
 9578SOL    HW129633   0.480   3.922   3.250
 9578SOL    HW229634   0.321   3.900   3.279
 9579SOL     OW29635   1.667   4.805   2.666
 9579SOL    HW129636   1.592   4.862   2.698
 9579SOL    HW229637   1.688   4.828   2.571
 9580SOL     OW29638   4.627   4.068   0.585
 9580SOL    HW129639   4.549   4.125   0.609
 9580SOL    HW229640   4.673   4.039   0.669
 9581SOL     OW29641   0.281   5.282   5.800
 9581SOL    HW129642   0.183   5.298   5.812
 9581SOL    HW229643   0.328   5.300   5.886
 9582SOL     OW29644   4.918   5.354   6.271
 9582SOL    HW129645   4.956   5.310   6.190
 9582SOL    HW229646   4.831   5.312   6.294
 9583SOL     OW29647   3.712   4.035   1.182
 9583SOL    HW129648   3.659   3.966   1.133
 9583SOL    HW229649   3.786   4.068   1.123
 9584SOL     OW29650   7.008   5.507   6.978
 9584SOL    HW129651   0.088   5.492   6.978
 9584SOL    HW229652   6.961   5.419   6.983
 9585SOL     OW29653   0.040   0.334   4.605
 9585SOL    HW129654   0.017   0.390   4.526
 9585SOL    HW229655   7.014   0.245   4.597
 9586SOL     OW29656   5.578   4.790   2.036
 9586SOL    HW129657   5.638   4.767   2.112
 9586SOL    HW229658   5.527   4.873   2.058
 9587SOL     OW29659   0.727   0.924   1.841
 9587SOL    HW129660   0.642   0.877   1.815
 9587SOL    HW229661   0.804   0.861   1.834
 9588SOL     OW29662   6.475   1.316   1.286
 9588SOL    HW129663   6.517   1.401   1.318
 9588SOL    HW229664   6.419   1.336   1.205
 9589SOL     OW29665   2.174   4.927   6.698
 9589SOL    HW129666   2.225   4.843   6.680
 9589SOL    HW229667   2.161   4.938   6.796
 9590SOL     OW29668   6.550   3.186   2.025
 9590SOL    HW129669   6.485   3.132   2.078
 9590SOL    HW229670   6.618   3.226   2.087
 9591SOL     OW29671   3.113   6.033   6.165
 9591SOL    HW129672   3.156   6.123   6.169
 9591SOL    HW229673   3.105   5.995   6.258
 9592SOL     OW29674   4.014   4.166   1.045
 9592SOL    HW129675   4.033   4.077   1.089
 9592SOL    HW229676   3.946   4.153   0.974
 9593SOL     OW29677   0.005   0.872   5.478
 9593SOL    HW129678   6.943   0.817   5.455
 9593SOL    HW229679   0.041   0.843   5.566
 9594SOL     OW29680   1.770   5.912   2.304
 9594SOL    HW129681   1.767   5.982   2.376
 9594SOL    HW229682   1.769   5.822   2.346
 9595SOL     OW29683   0.849   4.454   5.284
 9595SOL    HW129684   0.859   4.395   5.203
 9595SOL    HW229685   0.791   4.408   5.351
 9596SOL     OW29686   6.802   5.667   6.412
 9596SOL    HW129687   6.865   5.734   6.452
 9596SOL    HW229688   6.825   5.576   6.445
 9597SOL     OW29689   0.483   4.377   1.361
 9597SOL    HW129690   0.520   4.456   1.410
 9597SOL    HW229691   0.494   4.295   1.417
 9598SOL     OW29692   1.352   3.691   4.083
 9598SOL    HW129693   1.360   3.601   4.040
 9598SOL    HW229694   1.325   3.758   4.015
 9599SOL     OW29695   4.342   0.288   4.567
 9599SOL    HW129696   4.415   0.256   4.627
 9599SOL    HW229697   4.372   0.281   4.472
 9600SOL     OW29698   1.982   7.004   6.643
 9600SOL    HW129699   2.031   6.998   6.730
 9600SOL    HW229700   2.045   0.020   6.573
 9601SOL     OW29701   5.355   4.011   1.377
 9601SOL    HW129702   5.400   4.067   1.308
 9601SOL    HW229703   5.415   4.000   1.456
 9602SOL     OW29704   6.854   5.152   6.166
 9602SOL    HW129705   6.897   5.242   6.175
 9602SOL    HW229706   6.760   5.162   6.133
 9603SOL     OW29707   3.905   1.509   3.869
 9603SOL    HW129708   3.888   1.505   3.968
 9603SOL    HW229709   3.914   1.604   3.841
 9604SOL     OW29710   4.048   0.165   0.131
 9604SOL    HW129711   4.073   0.071   0.106
 9604SOL    HW229712   4.128   0.224   0.120
 9605SOL     OW29713   0.831   5.283   3.308
 9605SOL    HW129714   0.822   5.210   3.241
 9605SOL    HW229715   0.804   5.370   3.266
 9606SOL     OW29716   2.001   6.453   6.279
 9606SOL    HW129717   1.927   6.388   6.291
 9606SOL    HW229718   2.043   6.473   6.368
 9607SOL     OW29719   1.640   1.779   0.407
 9607SOL    HW129720   1.694   1.695   0.399
 9607SOL    HW229721   1.690   1.845   0.463
 9608SOL     OW29722   6.895   5.932   2.360
 9608SOL    HW129723   6.877   5.869   2.285
 9608SOL    HW229724   6.822   6.000   2.365
 9609SOL     OW29725   1.943   3.996   6.259
 9609SOL    HW129726   1.971   3.901   6.262
 9609SOL    HW229727   1.911   4.025   6.349
 9610SOL     OW29728   1.648   5.188   4.037
 9610SOL    HW129729   1.678   5.195   3.942
 9610SOL    HW229730   1.558   5.230   4.046
 9611SOL     OW29731   0.047   6.533   6.705
 9611SOL    HW129732   0.075   6.581   6.788
 9611SOL    HW229733   6.972   6.500   6.715
 9612SOL     OW29734   0.916   3.864   1.991
 9612SOL    HW129735   0.949   3.952   1.957
 9612SOL    HW229736   0.852   3.878   2.066
 9613SOL     OW29737   4.941   6.481   3.614
 9613SOL    HW129738   4.923   6.389   3.579
 9613SOL    HW229739   4.856   6.534   3.613
 9614SOL     OW29740   3.060   1.912   0.509
 9614SOL    HW129741   3.130   1.865   0.563
 9614SOL    HW229742   3.024   1.989   0.561
 9615SOL     OW29743   0.621   0.354   1.000
 9615SOL    HW129744   0.612   0.276   1.062
 9615SOL    HW229745   0.718   0.371   0.982
 9616SOL     OW29746   4.496   3.363   1.426
 9616SOL    HW129747   4.487   3.277   1.376
 9616SOL    HW229748   4.456   3.353   1.517
 9617SOL     OW29749   2.183   2.792   3.787
 9617SOL    HW129750   2.087   2.818   3.777
 9617SOL    HW229751   2.226   2.851   3.856
 9618SOL     OW29752   3.822   6.721   5.465
 9618SOL    HW129753   3.828   6.653   5.392
 9618SOL    HW229754   3.791   6.677   5.549
 9619SOL     OW29755   1.201   6.690   0.014
 9619SOL    HW129756   1.232   6.783   0.034
 9619SOL    HW229757   1.212   6.633   0.096
 9620SOL     OW29758   4.117   2.151   6.653
 9620SOL    HW129759   4.141   2.057   6.679
 9620SOL    HW229760   4.167   2.177   6.571
 9621SOL     OW29761   0.814   0.986   2.173
 9621SOL    HW129762   0.714   0.987   2.169
 9621SOL    HW229763   0.844   1.025   2.261
 9622SOL     OW29764   6.761   0.568   0.355
 9622SOL    HW129765   6.665   0.552   0.332
 9622SOL    HW229766   6.804   0.622   0.283
 9623SOL     OW29767   3.151   4.461   5.864
 9623SOL    HW129768   3.075   4.506   5.911
 9623SOL    HW229769   3.115   4.403   5.791
 9624SOL     OW29770   6.397   4.471   2.805
 9624SOL    HW129771   6.448   4.385   2.796
 9624SOL    HW229772   6.453   4.546   2.770
 9625SOL     OW29773   4.831   5.755   0.427
 9625SOL    HW129774   4.835   5.658   0.404
 9625SOL    HW229775   4.741   5.792   0.400
 9626SOL     OW29776   3.016   6.310   6.844
 9626SOL    HW129777   2.937   6.249   6.846
 9626SOL    HW229778   2.986   6.405   6.832
 9627SOL     OW29779   6.987   4.861   2.970
 9627SOL    HW129780   0.046   4.816   3.015
 9627SOL    HW229781   7.004   4.865   2.872
 9628SOL     OW29782   5.628   5.156   6.533
 9628SOL    HW129783   5.598   5.180   6.441
 9628SOL    HW229784   5.692   5.226   6.566
 9629SOL     OW29785   0.438   6.502   3.000
 9629SOL    HW129786   0.534   6.480   3.019
 9629SOL    HW229787   0.400   6.552   3.077
 9630SOL     OW29788   6.389   6.192   5.638
 9630SOL    HW129789   6.337   6.271   5.673
 9630SOL    HW229790   6.479   6.191   5.681
 9631SOL     OW29791   5.943   0.458   0.101
 9631SOL    HW129792   5.982   0.376   0.059
 9631SOL    HW229793   5.973   0.538   0.049
 9632SOL     OW29794   2.326   5.351   2.871
 9632SOL    HW129795   2.364   5.314   2.786
 9632SOL    HW229796   2.228   5.365   2.859
 9633SOL     OW29797   5.036   5.067   0.059
 9633SOL    HW129798   5.035   5.162   0.028
 9633SOL    HW229799   5.129   5.030   0.050
 9634SOL     OW29800   1.029   6.794   4.692
 9634SOL    HW129801   0.982   6.753   4.770
 9634SOL    HW229802   0.974   6.870   4.656
 9635SOL     OW29803   1.190   4.566   5.751
 9635SOL    HW129804   1.121   4.500   5.723
 9635SOL    HW229805   1.238   4.531   5.832
 9636SOL     OW29806   4.151   1.629   6.107
 9636SOL    HW129807   4.143   1.681   6.022
 9636SOL    HW229808   4.063   1.587   6.129
 9637SOL     OW29809   2.317   2.012   6.752
 9637SOL    HW129810   2.342   2.104   6.721
 9637SOL    HW229811   2.323   2.008   6.852
 9638SOL     OW29812   6.937   3.199   0.045
 9638SOL    HW129813   6.838   3.195   0.057
 9638SOL    HW229814   6.970   3.290   0.069
 9639SOL     OW29815   3.963   1.761   2.025
 9639SOL    HW129816   3.898   1.829   2.060
 9639SOL    HW229817   3.988   1.698   2.098
 9640SOL     OW29818   3.189   1.882   3.060
 9640SOL    HW129819   3.145   1.895   3.149
 9640SOL    HW229820   3.126   1.910   2.987
 9641SOL     OW29821   5.321   6.324   0.889
 9641SOL    HW129822   5.283   6.263   0.819
 9641SOL    HW229823   5.337   6.414   0.850
 9642SOL     OW29824   2.744   6.255   4.689
 9642SOL    HW129825   2.829   6.305   4.706
 9642SOL    HW229826   2.764   6.158   4.675
 9643SOL     OW29827   6.345   4.447   4.104
 9643SOL    HW129828   6.331   4.481   4.010
 9643SOL    HW229829   6.271   4.480   4.162
 9644SOL     OW29830   0.714   5.117   4.625
 9644SOL    HW129831   0.761   5.110   4.713
 9644SOL    HW229832   0.632   5.060   4.626
 9645SOL     OW29833   3.672   5.058   3.801
 9645SOL    HW129834   3.674   5.158   3.800
 9645SOL    HW229835   3.615   5.026   3.725
 9646SOL     OW29836   2.913   4.829   2.068
 9646SOL    HW129837   2.874   4.740   2.045
 9646SOL    HW229838   2.931   4.881   1.985
 9647SOL     OW29839   0.265   5.751   1.495
 9647SOL    HW129840   0.344   5.690   1.493
 9647SOL    HW229841   0.193   5.714   1.436
 9648SOL     OW29842   3.416   2.007   0.190
 9648SOL    HW129843   3.366   1.987   0.105
 9648SOL    HW229844   3.406   2.104   0.212
 9649SOL     OW29845   2.673   5.205   6.787
 9649SOL    HW129846   2.581   5.224   6.823
 9649SOL    HW229847   2.726   5.289   6.784
 9650SOL     OW29848   4.609   4.712   3.096
 9650SOL    HW129849   4.584   4.616   3.082
 9650SOL    HW229850   4.690   4.733   3.042
 9651SOL     OW29851   6.416   0.789   6.889
 9651SOL    HW129852   6.380   0.738   6.967
 9651SOL    HW229853   6.514   0.770   6.880
 9652SOL     OW29854   2.003   4.322   0.889
 9652SOL    HW129855   2.061   4.370   0.955
 9652SOL    HW229856   1.963   4.388   0.826
 9653SOL     OW29857   4.339   5.429   5.024
 9653SOL    HW129858   4.322   5.417   5.122
 9653SOL    HW229859   4.366   5.341   4.984
 9654SOL     OW29860   3.686   3.376   2.219
 9654SOL    HW129861   3.767   3.420   2.180
 9654SOL    HW229862   3.700   3.277   2.221
 9655SOL     OW29863   6.857   0.737   0.137
 9655SOL    HW129864   6.917   0.656   0.137
 9655SOL    HW229865   6.896   0.807   0.197
 9656SOL     OW29866   3.841   2.197   1.014
 9656SOL    HW129867   3.816   2.103   0.990
 9656SOL    HW229868   3.805   2.218   1.105
 9657SOL     OW29869   5.949   1.622   2.968
 9657SOL    HW129870   5.871   1.655   2.915
 9657SOL    HW229871   6.019   1.587   2.907
 9658SOL     OW29872   5.459   1.426   2.538
 9658SOL    HW129873   5.516   1.508   2.535
 9658SOL    HW229874   5.478   1.369   2.459
 9659SOL     OW29875   6.848   3.772   0.825
 9659SOL    HW129876   6.920   3.814   0.769
 9659SOL    HW229877   6.773   3.837   0.837
 9660SOL     OW29878   6.874   6.268   2.255
 9660SOL    HW129879   6.885   6.202   2.181
 9660SOL    HW229880   6.899   6.359   2.223
 9661SOL     OW29881   3.338   6.372   1.830
 9661SOL    HW129882   3.422   6.357   1.883
 9661SOL    HW229883   3.260   6.373   1.892
 9662SOL     OW29884   4.919   2.483   5.069
 9662SOL    HW129885   5.016   2.473   5.051
 9662SOL    HW229886   4.902   2.574   5.107
 9663SOL     OW29887   0.204   6.117   3.648
 9663SOL    HW129888   0.154   6.090   3.731
 9663SOL    HW229889   0.200   6.044   3.581
 9664SOL     OW29890   5.772   6.486   4.092
 9664SOL    HW129891   5.738   6.405   4.045
 9664SOL    HW229892   5.697   6.551   4.105
 9665SOL     OW29893   4.894   6.647   0.194
 9665SOL    HW129894   4.975   6.669   0.141
 9665SOL    HW229895   4.921   6.619   0.286
 9666SOL     OW29896   5.977   3.769   1.308
 9666SOL    HW129897   5.951   3.674   1.286
 9666SOL    HW229898   6.056   3.795   1.254
 9667SOL     OW29899   4.139   3.332   5.206
 9667SOL    HW129900   4.123   3.238   5.236
 9667SOL    HW229901   4.117   3.341   5.109
 9668SOL     OW29902   0.071   0.752   6.007
 9668SOL    HW129903   0.079   0.794   6.097
 9668SOL    HW229904   0.137   0.678   5.999
 9669SOL     OW29905   1.231   0.267   2.078
 9669SOL    HW129906   1.151   0.219   2.042
 9669SOL    HW229907   1.314   0.216   2.052
 9670SOL     OW29908   6.031   4.690   6.676
 9670SOL    HW129909   6.010   4.782   6.643
 9670SOL    HW229910   6.118   4.660   6.637
 9671SOL     OW29911   5.930   4.926   6.596
 9671SOL    HW129912   5.921   4.984   6.677
 9671SOL    HW229913   5.897   4.976   6.516
 9672SOL     OW29914   1.701   5.934   3.782
 9672SOL    HW129915   1.772   6.002   3.798
 9672SOL    HW229916   1.619   5.958   3.834
 9673SOL     OW29917   5.361   3.727   0.306
 9673SOL    HW129918   5.342   3.661   0.379
 9673SOL    HW229919   5.459   3.750   0.306
 9674SOL     OW29920   2.782   5.984   3.180
 9674SOL    HW129921   2.710   5.930   3.136
 9674SOL    HW229922   2.835   5.926   3.241
 9675SOL     OW29923   5.676   2.262   0.250
 9675SOL    HW129924   5.666   2.195   0.324
 9675SOL    HW229925   5.616   2.237   0.174
 9676SOL     OW29926   1.174   3.736   5.540
 9676SOL    HW129927   1.105   3.732   5.468
 9676SOL    HW229928   1.207   3.830   5.549
 9677SOL     OW29929   1.314   5.239   5.150
 9677SOL    HW129930   1.358   5.293   5.078
 9677SOL    HW229931   1.361   5.255   5.236
 9678SOL     OW29932   3.304   3.643   3.240
 9678SOL    HW129933   3.216   3.681   3.268
 9678SOL    HW229934   3.296   3.544   3.229
 9679SOL     OW29935   2.466   0.970   2.151
 9679SOL    HW129936   2.389   0.991   2.211
 9679SOL    HW229937   2.450   1.011   2.061
 9680SOL     OW29938   4.888   1.314   3.001
 9680SOL    HW129939   4.907   1.346   2.909
 9680SOL    HW229940   4.847   1.223   2.997
 9681SOL     OW29941   2.876   1.135   0.324
 9681SOL    HW129942   2.887   1.060   0.259
 9681SOL    HW229943   2.947   1.131   0.393
 9682SOL     OW29944   5.058   4.921   3.992
 9682SOL    HW129945   4.990   4.994   3.985
 9682SOL    HW229946   5.145   4.952   3.955
 9683SOL     OW29947   2.763   5.532   0.699
 9683SOL    HW129948   2.754   5.611   0.760
 9683SOL    HW229949   2.841   5.546   0.638
 9684SOL     OW29950   0.422   3.103   5.539
 9684SOL    HW129951   0.380   3.091   5.448
 9684SOL    HW229952   0.368   3.167   5.592
 9685SOL     OW29953   2.568   4.370   1.162
 9685SOL    HW129954   2.652   4.364   1.109
 9685SOL    HW229955   2.554   4.464   1.192
 9686SOL     OW29956   6.420   1.339   6.404
 9686SOL    HW129957   6.361   1.336   6.484
 9686SOL    HW229958   6.456   1.248   6.385
 9687SOL     OW29959   1.558   0.665   4.332
 9687SOL    HW129960   1.574   0.727   4.409
 9687SOL    HW229961   1.578   0.712   4.247
 9688SOL     OW29962   0.522   2.685   2.569
 9688SOL    HW129963   0.544   2.616   2.638
 9688SOL    HW229964   0.509   2.773   2.613
 9689SOL     OW29965   1.475   5.460   6.914
 9689SOL    HW129966   1.411   5.388   6.939
 9689SOL    HW229967   1.497   5.454   6.817
 9690SOL     OW29968   6.124   5.823   6.730
 9690SOL    HW129969   6.028   5.845   6.740
 9690SOL    HW229970   6.156   5.850   6.639
 9691SOL     OW29971   2.780   5.205   1.571
 9691SOL    HW129972   2.841   5.147   1.625
 9691SOL    HW229973   2.770   5.294   1.616
 9692SOL     OW29974   3.725   5.437   2.526
 9692SOL    HW129975   3.807   5.494   2.522
 9692SOL    HW229976   3.711   5.406   2.620
 9693SOL     OW29977   6.079   4.901   1.497
 9693SOL    HW129978   6.075   4.985   1.443
 9693SOL    HW229979   6.100   4.923   1.592
 9694SOL     OW29980   2.027   0.860   0.111
 9694SOL    HW129981   2.071   0.940   0.070
 9694SOL    HW229982   1.940   0.888   0.152
 9695SOL     OW29983   0.119   3.763   2.239
 9695SOL    HW129984   0.156   3.671   2.225
 9695SOL    HW229985   0.146   3.796   2.330
 9696SOL     OW29986   5.243   3.602   0.563
 9696SOL    HW129987   5.161   3.627   0.615
 9696SOL    HW229988   5.241   3.504   0.544
 9697SOL     OW29989   0.285   6.041   6.803
 9697SOL    HW129990   0.337   6.053   6.888
 9697SOL    HW229991   0.305   6.116   6.741
 9698SOL     OW29992   4.534   1.016   5.699
 9698SOL    HW129993   4.462   1.073   5.660
 9698SOL    HW229994   4.596   1.072   5.754
 9699SOL     OW29995   6.902   5.206   6.484
 9699SOL    HW129996   6.968   5.217   6.410
 9699SOL    HW229997   6.856   5.293   6.500
 9700SOL     OW29998   4.461   5.136   5.086
 9700SOL    HW129999   4.487   5.076   5.011
 9700SOL    HW230000   4.382   5.098   5.133
 9701SOL     OW30001   4.032   4.832   5.121
 9701SOL    HW130002   3.943   4.851   5.163
 9701SOL    HW230003   4.072   4.751   5.164
 9702SOL     OW30004   4.764   0.356   6.999
 9702SOL    HW130005   4.710   0.307   0.049
 9702SOL    HW230006   4.813   0.291   6.942
 9703SOL     OW30007   4.326   4.739   3.823
 9703SOL    HW130008   4.420   4.746   3.856
 9703SOL    HW230009   4.263   4.745   3.901
 9704SOL     OW30010   3.268   0.861   2.828
 9704SOL    HW130011   3.260   0.827   2.921
 9704SOL    HW230012   3.278   0.960   2.829
 9705SOL     OW30013   5.807   4.734   6.038
 9705SOL    HW130014   5.749   4.764   6.113
 9705SOL    HW230015   5.827   4.637   6.048
 9706SOL     OW30016   0.494   3.134   1.072
 9706SOL    HW130017   0.435   3.099   1.145
 9706SOL    HW230018   0.547   3.058   1.034
 9707SOL     OW30019   6.568   4.815   1.867
 9707SOL    HW130020   6.651   4.761   1.853
 9707SOL    HW230021   6.488   4.763   1.837
 9708SOL     OW30022   1.244   2.067   2.652
 9708SOL    HW130023   1.269   2.163   2.644
 9708SOL    HW230024   1.158   2.058   2.702
 9709SOL     OW30025   6.018   6.217   3.100
 9709SOL    HW130026   6.059   6.194   3.189
 9709SOL    HW230027   6.070   6.171   3.028
 9710SOL     OW30028   0.162   1.378   1.777
 9710SOL    HW130029   0.218   1.325   1.713
 9710SOL    HW230030   0.075   1.331   1.792
 9711SOL     OW30031   2.146   4.984   6.163
 9711SOL    HW130032   2.246   4.980   6.160
 9711SOL    HW230033   2.109   4.951   6.076
 9712SOL     OW30034   6.092   4.343   6.515
 9712SOL    HW130035   6.045   4.340   6.428
 9712SOL    HW230036   6.030   4.313   6.588
 9713SOL     OW30037   1.471   5.050   3.211
 9713SOL    HW130038   1.433   5.136   3.178
 9713SOL    HW230039   1.473   4.983   3.137
 9714SOL     OW30040   3.025   0.482   0.384
 9714SOL    HW130041   2.944   0.455   0.332
 9714SOL    HW230042   3.043   0.580   0.369
 9715SOL     OW30043   5.511   4.059   6.275
 9715SOL    HW130044   5.578   4.042   6.202
 9715SOL    HW230045   5.422   4.078   6.234
 9716SOL     OW30046   3.672   3.118   0.034
 9716SOL    HW130047   3.606   3.172   0.086
 9716SOL    HW230048   3.689   3.162   6.965
 9717SOL     OW30049   5.279   6.185   6.074
 9717SOL    HW130050   5.192   6.201   6.120
 9717SOL    HW230051   5.296   6.087   6.069
 9718SOL     OW30052   5.023   2.359   0.428
 9718SOL    HW130053   4.991   2.445   0.388
 9718SOL    HW230054   5.023   2.366   0.528
 9719SOL     OW30055   6.599   1.517   6.325
 9719SOL    HW130056   6.665   1.498   6.253
 9719SOL    HW230057   6.531   1.444   6.328
 9720SOL     OW30058   6.984   5.460   2.148
 9720SOL    HW130059   0.046   5.506   2.185
 9720SOL    HW230060   6.941   5.407   2.221
 9721SOL     OW30061   6.949   2.271   1.905
 9721SOL    HW130062   0.009   2.260   1.845
 9721SOL    HW230063   6.976   2.320   1.988
 9722SOL     OW30064   6.469   0.101   4.241
 9722SOL    HW130065   6.486   0.052   4.156
 9722SOL    HW230066   6.538   0.173   4.252
 9723SOL     OW30067   2.249   6.335   3.188
 9723SOL    HW130068   2.349   6.326   3.189
 9723SOL    HW230069   2.222   6.402   3.118
 9724SOL     OW30070   1.467   4.401   0.408
 9724SOL    HW130071   1.479   4.368   0.501
 9724SOL    HW230072   1.515   4.340   0.345
 9725SOL     OW30073   3.603   4.635   6.350
 9725SOL    HW130074   3.596   4.543   6.389
 9725SOL    HW230075   3.655   4.632   6.265
 9726SOL     OW30076   5.401   0.063   3.877
 9726SOL    HW130077   5.478   0.051   3.813
 9726SOL    HW230078   5.384   0.160   3.891
 9727SOL     OW30079   0.723   3.611   5.741
 9727SOL    HW130080   0.626   3.609   5.762
 9727SOL    HW230081   0.775   3.623   5.826
 9728SOL     OW30082   0.383   0.880   6.313
 9728SOL    HW130083   0.448   0.913   6.244
 9728SOL    HW230084   0.407   0.787   6.339
 9729SOL     OW30085   1.127   4.276   3.244
 9729SOL    HW130086   1.107   4.325   3.329
 9729SOL    HW230087   1.224   4.255   3.239
 9730SOL     OW30088   0.832   3.454   3.627
 9730SOL    HW130089   0.759   3.410   3.680
 9730SOL    HW230090   0.870   3.530   3.680
 9731SOL     OW30091   4.603   4.293   1.062
 9731SOL    HW130092   4.644   4.220   1.116
 9731SOL    HW230093   4.507   4.305   1.090
 9732SOL     OW30094   6.204   5.505   2.933
 9732SOL    HW130095   6.250   5.583   2.890
 9732SOL    HW230096   6.260   5.470   3.007
 9733SOL     OW30097   5.640   5.062   0.778
 9733SOL    HW130098   5.704   5.133   0.750
 9733SOL    HW230099   5.655   4.979   0.724
 9734SOL     OW30100   6.384   1.381   2.254
 9734SOL    HW130101   6.415   1.354   2.345
 9734SOL    HW230102   6.340   1.470   2.259
 9735SOL     OW30103   2.780   4.796   3.050
 9735SOL    HW130104   2.789   4.713   2.994
 9735SOL    HW230105   2.792   4.773   3.146
 9736SOL     OW30106   6.370   1.967   6.697
 9736SOL    HW130107   6.457   1.966   6.647
 9736SOL    HW230108   6.315   1.888   6.669
 9737SOL     OW30109   5.898   2.522   4.026
 9737SOL    HW130110   5.825   2.505   4.092
 9737SOL    HW230111   5.924   2.436   3.982
 9738SOL     OW30112   1.704   0.272   1.334
 9738SOL    HW130113   1.748   0.182   1.329
 9738SOL    HW230114   1.658   0.291   1.248
 9739SOL     OW30115   5.913   4.783   2.062
 9739SOL    HW130116   5.883   4.778   1.967
 9739SOL    HW230117   5.855   4.724   2.119
 9740SOL     OW30118   6.522   2.191   2.984
 9740SOL    HW130119   6.603   2.195   3.042
 9740SOL    HW230120   6.443   2.224   3.034
 9741SOL     OW30121   5.008   1.611   3.259
 9741SOL    HW130122   5.058   1.659   3.188
 9741SOL    HW230123   4.973   1.524   3.223
 9742SOL     OW30124   4.366   7.008   1.216
 9742SOL    HW130125   4.329   6.998   1.123
 9742SOL    HW230126   4.337   6.930   1.272
 9743SOL     OW30127   0.850   1.816   4.835
 9743SOL    HW130128   0.788   1.893   4.839
 9743SOL    HW230129   0.945   1.848   4.841
 9744SOL     OW30130   0.297   0.197   2.947
 9744SOL    HW130131   0.223   0.249   2.989
 9744SOL    HW230132   0.319   0.237   2.858
 9745SOL     OW30133   6.456   2.705   6.044
 9745SOL    HW130134   6.549   2.707   6.008
 9745SOL    HW230135   6.458   2.717   6.143
 9746SOL     OW30136   6.602   1.061   5.767
 9746SOL    HW130137   6.625   1.027   5.676
 9746SOL    HW230138   6.508   1.095   5.768
 9747SOL     OW30139   1.981   0.706   1.126
 9747SOL    HW130140   2.061   0.751   1.165
 9747SOL    HW230141   1.898   0.749   1.161
 9748SOL     OW30142   0.419   1.661   3.290
 9748SOL    HW130143   0.448   1.724   3.218
 9748SOL    HW230144   0.354   1.708   3.351
 9749SOL     OW30145   2.160   1.653   5.084
 9749SOL    HW130146   2.084   1.591   5.066
 9749SOL    HW230147   2.141   1.742   5.042
 9750SOL     OW30148   5.923   4.500   3.808
 9750SOL    HW130149   5.857   4.425   3.813
 9750SOL    HW230150   5.889   4.570   3.746
 9751SOL     OW30151   0.636   0.851   0.498
 9751SOL    HW130152   0.620   0.918   0.570
 9751SOL    HW230153   0.552   0.834   0.447
 9752SOL     OW30154   4.933   1.967   5.917
 9752SOL    HW130155   4.933   1.873   5.883
 9752SOL    HW230156   5.009   2.018   5.875
 9753SOL     OW30157   6.024   6.115   5.681
 9753SOL    HW130158   6.081   6.060   5.742
 9753SOL    HW230159   6.022   6.210   5.714
 9754SOL     OW30160   0.888   1.313   6.604
 9754SOL    HW130161   0.892   1.397   6.550
 9754SOL    HW230162   0.942   1.324   6.687
 9755SOL     OW30163   4.226   3.607   5.244
 9755SOL    HW130164   4.187   3.686   5.198
 9755SOL    HW230165   4.215   3.526   5.187
 9756SOL     OW30166   5.895   3.089   0.696
 9756SOL    HW130167   5.924   2.998   0.667
 9756SOL    HW230168   5.802   3.107   0.664
 9757SOL     OW30169   5.994   3.929   3.579
 9757SOL    HW130170   5.993   3.836   3.543
 9757SOL    HW230171   5.950   3.931   3.669
 9758SOL     OW30172   2.588   6.939   6.813
 9758SOL    HW130173   2.682   6.914   6.838
 9758SOL    HW230174   2.587   0.014   6.779
 9759SOL     OW30175   2.074   6.807   6.887
 9759SOL    HW130176   2.123   6.851   6.812
 9759SOL    HW230177   2.049   6.875   6.956
 9760SOL     OW30178   4.839   3.213   5.123
 9760SOL    HW130179   4.938   3.218   5.142
 9760SOL    HW230180   4.796   3.299   5.150
 9761SOL     OW30181   6.385   0.545   2.481
 9761SOL    HW130182   6.388   0.583   2.573
 9761SOL    HW230183   6.403   0.447   2.484
 9762SOL     OW30184   3.691   1.656   4.355
 9762SOL    HW130185   3.756   1.670   4.430
 9762SOL    HW230186   3.635   1.738   4.343
 9763SOL     OW30187   4.942   2.180   2.035
 9763SOL    HW130188   4.994   2.174   1.949
 9763SOL    HW230189   4.999   2.146   2.110
 9764SOL     OW30190   0.584   3.039   3.157
 9764SOL    HW130191   0.626   2.980   3.226
 9764SOL    HW230192   0.545   3.120   3.201
 9765SOL     OW30193   6.731   1.345   3.050
 9765SOL    HW130194   6.725   1.361   2.952
 9765SOL    HW230195   6.720   1.431   3.099
 9766SOL     OW30196   2.737   0.296   3.620
 9766SOL    HW130197   2.664   0.364   3.625
 9766SOL    HW230198   2.698   0.204   3.630
 9767SOL     OW30199   5.055   1.543   5.456
 9767SOL    HW130200   5.092   1.487   5.530
 9767SOL    HW230201   4.955   1.541   5.458
 9768SOL     OW30202   5.575   1.916   2.598
 9768SOL    HW130203   5.510   1.841   2.611
 9768SOL    HW230204   5.566   1.951   2.504
 9769SOL     OW30205   2.595   0.373   2.660
 9769SOL    HW130206   2.569   0.469   2.651
 9769SOL    HW230207   2.516   0.315   2.642
 9770SOL     OW30208   5.443   0.047   6.956
 9770SOL    HW130209   5.481   6.993   7.012
 9770SOL    HW230210   5.417   0.124   7.014
 9771SOL     OW30211   2.933   5.244   0.915
 9771SOL    HW130212   2.850   5.220   0.863
 9771SOL    HW230213   2.908   5.261   1.010
 9772SOL     OW30214   1.349   6.164   2.834
 9772SOL    HW130215   1.321   6.216   2.753
 9772SOL    HW230216   1.270   6.146   2.891
 9773SOL     OW30217   5.118   6.329   4.215
 9773SOL    HW130218   5.079   6.393   4.148
 9773SOL    HW230219   5.212   6.358   4.237
 9774SOL     OW30220   6.711   5.031   1.737
 9774SOL    HW130221   6.704   5.130   1.752
 9774SOL    HW230222   6.620   4.991   1.738
 9775SOL     OW30223   2.408   0.887   3.761
 9775SOL    HW130224   2.464   0.966   3.736
 9775SOL    HW230225   2.418   0.815   3.691
 9776SOL     OW30226   1.035   4.916   4.351
 9776SOL    HW130227   1.037   4.971   4.267
 9776SOL    HW230228   0.940   4.899   4.377
 9777SOL     OW30229   5.067   4.267   6.018
 9777SOL    HW130230   5.158   4.299   5.989
 9777SOL    HW230231   5.072   4.171   6.043
 9778SOL     OW30232   0.540   0.876   3.275
 9778SOL    HW130233   0.445   0.907   3.272
 9778SOL    HW230234   0.561   0.822   3.193
 9779SOL     OW30235   2.052   0.783   4.888
 9779SOL    HW130236   2.148   0.758   4.904
 9779SOL    HW230237   2.009   0.805   4.975
 9780SOL     OW30238   2.250   1.414   1.130
 9780SOL    HW130239   2.340   1.429   1.089
 9780SOL    HW230240   2.187   1.379   1.061
 9781SOL     OW30241   1.582   3.666   4.243
 9781SOL    HW130242   1.497   3.693   4.197
 9781SOL    HW230243   1.660   3.692   4.186
 9782SOL     OW30244   6.803   0.632   1.694
 9782SOL    HW130245   6.782   0.616   1.791
 9782SOL    HW230246   6.886   0.584   1.669
 9783SOL     OW30247   5.118   1.973   3.256
 9783SOL    HW130248   5.198   1.986   3.315
 9783SOL    HW230249   5.144   1.988   3.161
 9784SOL     OW30250   3.742   1.166   4.344
 9784SOL    HW130251   3.831   1.199   4.313
 9784SOL    HW230252   3.741   1.066   4.342
 9785SOL     OW30253   6.844   3.864   5.591
 9785SOL    HW130254   6.832   3.963   5.584
 9785SOL    HW230255   6.764   3.824   5.634
 9786SOL     OW30256   2.495   4.610   6.814
 9786SOL    HW130257   2.568   4.562   6.862
 9786SOL    HW230258   2.432   4.650   6.880
 9787SOL     OW30259   4.327   3.368   1.730
 9787SOL    HW130260   4.235   3.406   1.740
 9787SOL    HW230261   4.334   3.283   1.783
 9788SOL     OW30262   0.660   0.690   3.717
 9788SOL    HW130263   0.750   0.721   3.686
 9788SOL    HW230264   0.666   0.661   3.812
 9789SOL     OW30265   1.132   5.533   0.285
 9789SOL    HW130266   1.219   5.582   0.291
 9789SOL    HW230267   1.128   5.482   0.199
 9790SOL     OW30268   5.854   3.911   5.455
 9790SOL    HW130269   5.838   3.824   5.409
 9790SOL    HW230270   5.945   3.912   5.495
 9791SOL     OW30271   0.292   1.374   2.639
 9791SOL    HW130272   0.309   1.440   2.713
 9791SOL    HW230273   0.319   1.283   2.670
 9792SOL     OW30274   5.166   5.706   2.057
 9792SOL    HW130275   5.227   5.780   2.027
 9792SOL    HW230276   5.197   5.620   2.016
 9793SOL     OW30277   5.145   4.856   3.495
 9793SOL    HW130278   5.088   4.843   3.414
 9793SOL    HW230279   5.214   4.925   3.476
 9794SOL     OW30280   6.194   4.082   0.169
 9794SOL    HW130281   6.273   4.124   0.125
 9794SOL    HW230282   6.156   4.146   0.236
 9795SOL     OW30283   1.584   2.282   3.924
 9795SOL    HW130284   1.527   2.229   3.987
 9795SOL    HW230285   1.583   2.239   3.834
 9796SOL     OW30286   4.335   2.505   1.496
 9796SOL    HW130287   4.276   2.468   1.424
 9796SOL    HW230288   4.423   2.457   1.494
 9797SOL     OW30289   3.254   5.155   6.515
 9797SOL    HW130290   3.297   5.070   6.545
 9797SOL    HW230291   3.312   5.200   6.448
 9798SOL     OW30292   2.718   0.352   1.042
 9798SOL    HW130293   2.774   0.291   1.098
 9798SOL    HW230294   2.674   0.420   1.100
 9799SOL     OW30295   3.465   3.784   3.401
 9799SOL    HW130296   3.511   3.713   3.454
 9799SOL    HW230297   3.374   3.753   3.375
 9800SOL     OW30298   3.676   6.320   4.976
 9800SOL    HW130299   3.753   6.383   4.971
 9800SOL    HW230300   3.669   6.269   4.890
 9801SOL     OW30301   4.800   4.376   0.545
 9801SOL    HW130302   4.827   4.304   0.480
 9801SOL    HW230303   4.854   4.458   0.528
 9802SOL     OW30304   0.789   2.888   1.926
 9802SOL    HW130305   0.882   2.920   1.945
 9802SOL    HW230306   0.775   2.799   1.968
 9803SOL     OW30307   6.233   1.643   0.070
 9803SOL    HW130308   6.174   1.707   0.020
 9803SOL    HW230309   6.201   1.550   0.056
 9804SOL     OW30310   0.872   6.276   2.843
 9804SOL    HW130311   0.849   6.181   2.862
 9804SOL    HW230312   0.822   6.308   2.763
 9805SOL     OW30313   0.999   6.283   5.395
 9805SOL    HW130314   0.911   6.319   5.428
 9805SOL    HW230315   1.026   6.205   5.452
 9806SOL     OW30316   1.322   1.605   0.493
 9806SOL    HW130317   1.328   1.702   0.469
 9806SOL    HW230318   1.383   1.586   0.570
 9807SOL     OW30319   2.074   3.155   0.339
 9807SOL    HW130320   2.046   3.250   0.351
 9807SOL    HW230321   2.000   3.104   0.295
 9808SOL     OW30322   5.920   1.640   5.471
 9808SOL    HW130323   5.944   1.692   5.389
 9808SOL    HW230324   5.821   1.630   5.476
 9809SOL     OW30325   0.791   2.048   6.747
 9809SOL    HW130326   0.858   1.977   6.767
 9809SOL    HW230327   0.705   2.026   6.793
 9810SOL     OW30328   2.538   2.388   4.140
 9810SOL    HW130329   2.513   2.332   4.061
 9810SOL    HW230330   2.488   2.475   4.136
 9811SOL     OW30331   5.422   5.732   3.948
 9811SOL    HW130332   5.364   5.811   3.929
 9811SOL    HW230333   5.418   5.668   3.871
 9812SOL     OW30334   3.027   2.152   5.584
 9812SOL    HW130335   3.051   2.229   5.644
 9812SOL    HW230336   3.026   2.184   5.489
 9813SOL     OW30337   5.947   0.532   6.746
 9813SOL    HW130338   6.045   0.513   6.746
 9813SOL    HW230339   5.899   0.462   6.799
 9814SOL     OW30340   0.339   1.062   0.149
 9814SOL    HW130341   0.256   1.058   0.095
 9814SOL    HW230342   0.419   1.065   0.089
 9815SOL     OW30343   5.741   3.988   2.828
 9815SOL    HW130344   5.657   3.933   2.834
 9815SOL    HW230345   5.815   3.939   2.873
 9816SOL     OW30346   0.348   1.841   5.973
 9816SOL    HW130347   0.289   1.834   6.054
 9816SOL    HW230348   0.424   1.903   5.993
 9817SOL     OW30349   2.473   5.610   2.775
 9817SOL    HW130350   2.542   5.574   2.713
 9817SOL    HW230351   2.411   5.536   2.801
 9818SOL     OW30352   1.867   0.859   4.433
 9818SOL    HW130353   1.914   0.773   4.412
 9818SOL    HW230354   1.851   0.866   4.531
 9819SOL     OW30355   4.706   2.793   4.870
 9819SOL    HW130356   4.788   2.740   4.850
 9819SOL    HW230357   4.656   2.751   4.945
 9820SOL     OW30358   3.558   3.152   6.074
 9820SOL    HW130359   3.589   3.059   6.057
 9820SOL    HW230360   3.606   3.189   6.154
 9821SOL     OW30361   4.690   0.870   0.485
 9821SOL    HW130362   4.772   0.873   0.429
 9821SOL    HW230363   4.710   0.821   0.571
 9822SOL     OW30364   2.600   5.386   3.701
 9822SOL    HW130365   2.551   5.461   3.657
 9822SOL    HW230366   2.551   5.300   3.687
 9823SOL     OW30367   2.235   7.014   1.707
 9823SOL    HW130368   2.243   0.065   1.636
 9823SOL    HW230369   2.289   6.934   1.682
 9824SOL     OW30370   2.019   5.530   4.386
 9824SOL    HW130371   2.086   5.603   4.395
 9824SOL    HW230372   2.021   5.494   4.293
 9825SOL     OW30373   5.486   6.660   4.650
 9825SOL    HW130374   5.428   6.737   4.674
 9825SOL    HW230375   5.519   6.615   4.733
 9826SOL     OW30376   3.456   6.370   5.771
 9826SOL    HW130377   3.456   6.271   5.778
 9826SOL    HW230378   3.447   6.398   5.676
 9827SOL     OW30379   1.874   3.929   3.360
 9827SOL    HW130380   1.877   3.934   3.260
 9827SOL    HW230381   1.872   3.833   3.389
 9828SOL     OW30382   2.963   2.583   5.315
 9828SOL    HW130383   3.029   2.517   5.280
 9828SOL    HW230384   2.870   2.551   5.293
 9829SOL     OW30385   4.735   5.695   6.196
 9829SOL    HW130386   4.740   5.791   6.223
 9829SOL    HW230387   4.814   5.646   6.234
 9830SOL     OW30388   5.151   1.687   2.052
 9830SOL    HW130389   5.247   1.716   2.046
 9830SOL    HW230390   5.139   1.602   2.000
 9831SOL     OW30391   1.074   4.617   2.526
 9831SOL    HW130392   1.005   4.588   2.460
 9831SOL    HW230393   1.128   4.539   2.556
 9832SOL     OW30394   4.602   5.696   1.925
 9832SOL    HW130395   4.639   5.743   2.004
 9832SOL    HW230396   4.636   5.601   1.924
 9833SOL     OW30397   3.293   3.361   3.236
 9833SOL    HW130398   3.329   3.301   3.308
 9833SOL    HW230399   3.196   3.341   3.223
 9834SOL     OW30400   1.876   4.409   5.444
 9834SOL    HW130401   1.861   4.494   5.393
 9834SOL    HW230402   1.972   4.403   5.471
 9835SOL     OW30403   3.822   3.302   4.345
 9835SOL    HW130404   3.888   3.283   4.271
 9835SOL    HW230405   3.734   3.260   4.323
 9836SOL     OW30406   0.532   4.078   4.406
 9836SOL    HW130407   0.506   4.135   4.483
 9836SOL    HW230408   0.588   4.002   4.438
 9837SOL     OW30409   4.823   0.611   2.352
 9837SOL    HW130410   4.738   0.559   2.342
 9837SOL    HW230411   4.889   0.558   2.406
 9838SOL     OW30412   1.504   6.608   0.495
 9838SOL    HW130413   1.533   6.580   0.404
 9838SOL    HW230414   1.404   6.610   0.499
 9839SOL     OW30415   4.971   6.167   3.072
 9839SOL    HW130416   4.998   6.221   2.993
 9839SOL    HW230417   5.051   6.153   3.132
 9840SOL     OW30418   4.848   1.639   0.458
 9840SOL    HW130419   4.811   1.679   0.374
 9840SOL    HW230420   4.922   1.697   0.492
 9841SOL     OW30421   1.743   4.512   3.855
 9841SOL    HW130422   1.818   4.544   3.797
 9841SOL    HW230423   1.663   4.571   3.841
 9842SOL     OW30424   3.254   3.295   1.044
 9842SOL    HW130425   3.183   3.336   0.986
 9842SOL    HW230426   3.324   3.364   1.065
 9843SOL     OW30427   6.977   6.717   1.722
 9843SOL    HW130428   6.990   6.789   1.653
 9843SOL    HW230429   6.969   6.758   1.813
 9844SOL     OW30430   6.073   0.971   4.121
 9844SOL    HW130431   6.134   1.029   4.067
 9844SOL    HW230432   6.100   0.974   4.217
 9845SOL     OW30433   1.456   2.408   2.876
 9845SOL    HW130434   1.426   2.423   2.970
 9845SOL    HW230435   1.553   2.431   2.868
 9846SOL     OW30436   4.341   1.941   0.746
 9846SOL    HW130437   4.324   1.904   0.655
 9846SOL    HW230438   4.277   2.014   0.765
 9847SOL     OW30439   4.021   3.095   2.376
 9847SOL    HW130440   3.998   3.071   2.470
 9847SOL    HW230441   4.072   3.181   2.375
 9848SOL     OW30442   4.078   4.942   6.140
 9848SOL    HW130443   4.151   5.005   6.113
 9848SOL    HW230444   4.013   4.932   6.064
 9849SOL     OW30445   0.797   6.883   6.518
 9849SOL    HW130446   0.742   6.875   6.435
 9849SOL    HW230447   0.889   6.914   6.494
 9850SOL     OW30448   0.152   0.833   3.638
 9850SOL    HW130449   0.183   0.911   3.693
 9850SOL    HW230450   0.133   0.755   3.699
 9851SOL     OW30451   2.156   6.516   4.500
 9851SOL    HW130452   2.068   6.516   4.452
 9851SOL    HW230453   2.178   6.422   4.528
 9852SOL     OW30454   1.718   1.759   5.383
 9852SOL    HW130455   1.780   1.684   5.409
 9852SOL    HW230456   1.705   1.758   5.284
 9853SOL     OW30457   6.522   3.390   5.338
 9853SOL    HW130458   6.510   3.436   5.425
 9853SOL    HW230459   6.504   3.454   5.263
 9854SOL     OW30460   0.656   5.331   4.156
 9854SOL    HW130461   0.668   5.296   4.249
 9854SOL    HW230462   0.609   5.420   4.159
 9855SOL     OW30463   1.638   3.732   0.741
 9855SOL    HW130464   1.636   3.643   0.785
 9855SOL    HW230465   1.719   3.738   0.682
 9856SOL     OW30466   5.599   4.732   4.101
 9856SOL    HW130467   5.598   4.783   4.015
 9856SOL    HW230468   5.505   4.717   4.132
 9857SOL     OW30469   5.697   2.994   2.695
 9857SOL    HW130470   5.628   3.061   2.670
 9857SOL    HW230471   5.662   2.902   2.679
 9858SOL     OW30472   0.531   6.758   1.605
 9858SOL    HW130473   0.506   6.836   1.662
 9858SOL    HW230474   0.451   6.700   1.591
 9859SOL     OW30475   6.623   4.565   4.122
 9859SOL    HW130476   6.529   4.584   4.151
 9859SOL    HW230477   6.625   4.545   4.025
 9860SOL     OW30478   1.555   2.440   4.789
 9860SOL    HW130479   1.552   2.394   4.878
 9860SOL    HW230480   1.650   2.448   4.759
 9861SOL     OW30481   2.884   0.450   3.424
 9861SOL    HW130482   2.864   0.367   3.477
 9861SOL    HW230483   2.847   0.440   3.332
 9862SOL     OW30484   2.615   3.939   0.747
 9862SOL    HW130485   2.700   3.981   0.779
 9862SOL    HW230486   2.578   3.880   0.818
 9863SOL     OW30487   3.441   5.731   1.019
 9863SOL    HW130488   3.450   5.827   0.990
 9863SOL    HW230489   3.441   5.727   1.119
 9864SOL     OW30490   3.587   0.502   5.205
 9864SOL    HW130491   3.666   0.538   5.154
 9864SOL    HW230492   3.524   0.577   5.226
 9865SOL     OW30493   0.984   6.185   4.298
 9865SOL    HW130494   1.084   6.181   4.295
 9865SOL    HW230495   0.954   6.280   4.289
 9866SOL     OW30496   6.112   4.379   4.943
 9866SOL    HW130497   6.158   4.385   4.854
 9866SOL    HW230498   6.056   4.460   4.957
 9867SOL     OW30499   6.435   2.292   2.585
 9867SOL    HW130500   6.441   2.279   2.486
 9867SOL    HW230501   6.360   2.236   2.621
 9868SOL     OW30502   0.365   3.693   4.503
 9868SOL    HW130503   0.289   3.668   4.442
 9868SOL    HW230504   0.384   3.617   4.564
 9869SOL     OW30505   0.434   2.946   0.756
 9869SOL    HW130506   0.507   2.906   0.811
 9869SOL    HW230507   0.474   3.004   0.685
 9870SOL     OW30508   3.970   6.868   2.819
 9870SOL    HW130509   4.037   6.904   2.884
 9870SOL    HW230510   3.894   6.932   2.811
 9871SOL     OW30511   6.462   3.148   5.633
 9871SOL    HW130512   6.473   3.054   5.600
 9871SOL    HW230513   6.552   3.187   5.652
 9872SOL     OW30514   2.485   5.325   4.819
 9872SOL    HW130515   2.493   5.230   4.848
 9872SOL    HW230516   2.402   5.336   4.764
 9873SOL     OW30517   2.245   2.492   6.558
 9873SOL    HW130518   2.265   2.585   6.589
 9873SOL    HW230519   2.253   2.489   6.458
 9874SOL     OW30520   0.254   3.232   5.726
 9874SOL    HW130521   0.210   3.321   5.710
 9874SOL    HW230522   0.188   3.159   5.711
 9875SOL     OW30523   6.909   5.678   2.750
 9875SOL    HW130524   6.973   5.744   2.789
 9875SOL    HW230525   6.847   5.725   2.687
 9876SOL     OW30526   5.287   1.025   3.552
 9876SOL    HW130527   5.309   0.988   3.462
 9876SOL    HW230528   5.347   0.984   3.620
 9877SOL     OW30529   6.704   4.536   4.373
 9877SOL    HW130530   6.660   4.555   4.285
 9877SOL    HW230531   6.681   4.443   4.402
 9878SOL     OW30532   2.689   3.792   6.087
 9878SOL    HW130533   2.734   3.724   6.145
 9878SOL    HW230534   2.677   3.754   5.995
 9879SOL     OW30535   6.868   4.591   5.058
 9879SOL    HW130536   6.922   4.518   5.100
 9879SOL    HW230537   6.772   4.579   5.082
 9880SOL     OW30538   2.417   0.297   1.222
 9880SOL    HW130539   2.355   0.272   1.148
 9880SOL    HW230540   2.414   0.397   1.235
 9881SOL     OW30541   6.743   1.670   4.462
 9881SOL    HW130542   6.787   1.711   4.542
 9881SOL    HW230543   6.807   1.606   4.419
 9882SOL     OW30544   3.284   3.549   5.309
 9882SOL    HW130545   3.226   3.623   5.343
 9882SOL    HW230546   3.284   3.549   5.209
 9883SOL     OW30547   1.129   5.666   1.540
 9883SOL    HW130548   1.114   5.619   1.453
 9883SOL    HW230549   1.226   5.659   1.565
 9884SOL     OW30550   3.485   2.087   0.659
 9884SOL    HW130551   3.504   2.000   0.613
 9884SOL    HW230552   3.566   2.117   0.709
 9885SOL     OW30553   0.326   3.314   4.435
 9885SOL    HW130554   0.373   3.287   4.351
 9885SOL    HW230555   0.230   3.331   4.416
 9886SOL     OW30556   6.710   6.465   1.940
 9886SOL    HW130557   6.767   6.545   1.950
 9886SOL    HW230558   6.737   6.414   1.858
 9887SOL     OW30559   3.209   0.285   0.349
 9887SOL    HW130560   3.127   0.341   0.341
 9887SOL    HW230561   3.229   0.268   0.445
 9888SOL     OW30562   5.840   5.685   3.203
 9888SOL    HW130563   5.901   5.711   3.278
 9888SOL    HW230564   5.867   5.596   3.167
 9889SOL     OW30565   1.229   5.074   2.538
 9889SOL    HW130566   1.179   5.125   2.469
 9889SOL    HW230567   1.175   5.071   2.623
 9890SOL     OW30568   6.555   2.957   1.284
 9890SOL    HW130569   6.555   3.034   1.220
 9890SOL    HW230570   6.494   2.977   1.360
 9891SOL     OW30571   5.404   4.938   1.341
 9891SOL    HW130572   5.448   4.850   1.361
 9891SOL    HW230573   5.312   4.939   1.380
 9892SOL     OW30574   2.388   5.525   3.607
 9892SOL    HW130575   2.321   5.598   3.595
 9892SOL    HW230576   2.340   5.440   3.628
 9893SOL     OW30577   6.405   6.354   2.783
 9893SOL    HW130578   6.439   6.447   2.799
 9893SOL    HW230579   6.427   6.325   2.690
 9894SOL     OW30580   2.725   1.388   6.696
 9894SOL    HW130581   2.691   1.469   6.744
 9894SOL    HW230582   2.649   1.345   6.647
 9895SOL     OW30583   6.126   2.040   5.872
 9895SOL    HW130584   6.119   1.984   5.954
 9895SOL    HW230585   6.220   2.071   5.860
 9896SOL     OW30586   5.009   2.126   0.291
 9896SOL    HW130587   4.934   2.106   0.228
 9896SOL    HW230588   4.992   2.215   0.334
 9897SOL     OW30589   4.960   0.932   2.231
 9897SOL    HW130590   5.002   1.003   2.288
 9897SOL    HW230591   4.865   0.956   2.212
 9898SOL     OW30592   0.710   5.396   4.810
 9898SOL    HW130593   0.757   5.479   4.841
 9898SOL    HW230594   0.777   5.325   4.788
 9899SOL     OW30595   6.073   4.834   2.302
 9899SOL    HW130596   6.153   4.774   2.302
 9899SOL    HW230597   6.025   4.825   2.214
 9900SOL     OW30598   2.108   1.927   2.937
 9900SOL    HW130599   2.176   1.870   2.983
 9900SOL    HW230600   2.154   2.002   2.889
 9901SOL     OW30601   1.373   2.494   0.547
 9901SOL    HW130602   1.434   2.544   0.485
 9901SOL    HW230603   1.356   2.403   0.509
 9902SOL     OW30604   3.451   3.139   1.374
 9902SOL    HW130605   3.537   3.089   1.361
 9902SOL    HW230606   3.405   3.104   1.455
 9903SOL     OW30607   4.656   6.996   2.270
 9903SOL    HW130608   4.686   6.952   2.354
 9903SOL    HW230609   4.699   6.951   2.192
 9904SOL     OW30610   6.581   3.539   6.909
 9904SOL    HW130611   6.600   3.555   7.005
 9904SOL    HW230612   6.547   3.623   6.867
 9905SOL     OW30613   2.079   6.337   0.241
 9905SOL    HW130614   2.079   6.270   0.316
 9905SOL    HW230615   2.014   6.410   0.263
 9906SOL     OW30616   1.741   3.626   0.431
 9906SOL    HW130617   1.685   3.643   0.349
 9906SOL    HW230618   1.705   3.547   0.480
 9907SOL     OW30619   2.599   0.065   3.656
 9907SOL    HW130620   2.542   0.059   3.738
 9907SOL    HW230621   2.608   6.994   3.615
 9908SOL     OW30622   0.325   3.626   5.449
 9908SOL    HW130623   0.402   3.689   5.446
 9908SOL    HW230624   0.268   3.647   5.529
 9909SOL     OW30625   3.499   0.121   3.235
 9909SOL    HW130626   3.435   0.096   3.308
 9909SOL    HW230627   3.500   0.220   3.225
 9910SOL     OW30628   0.691   5.265   1.672
 9910SOL    HW130629   0.592   5.271   1.683
 9910SOL    HW230630   0.736   5.279   1.760
 9911SOL     OW30631   4.851   5.542   3.050
 9911SOL    HW130632   4.774   5.568   2.991
 9911SOL    HW230633   4.927   5.605   3.036
 9912SOL     OW30634   4.404   0.905   2.028
 9912SOL    HW130635   4.430   0.863   2.115
 9912SOL    HW230636   4.485   0.915   1.970
 9913SOL     OW30637   6.368   3.109   2.213
 9913SOL    HW130638   6.272   3.110   2.238
 9913SOL    HW230639   6.423   3.149   2.286
 9914SOL     OW30640   0.489   0.607   6.102
 9914SOL    HW130641   0.467   0.582   6.196
 9914SOL    HW230642   0.507   0.706   6.097
 9915SOL     OW30643   4.780   2.932   4.397
 9915SOL    HW130644   4.839   3.012   4.384
 9915SOL    HW230645   4.734   2.910   4.311
 9916SOL     OW30646   2.854   2.266   3.668
 9916SOL    HW130647   2.857   2.365   3.662
 9916SOL    HW230648   2.767   2.237   3.707
 9917SOL     OW30649   3.217   2.948   4.212
 9917SOL    HW130650   3.147   2.878   4.199
 9917SOL    HW230651   3.308   2.907   4.201
 9918SOL     OW30652   0.779   1.856   0.763
 9918SOL    HW130653   0.740   1.946   0.786
 9918SOL    HW230654   0.714   1.785   0.790
 9919SOL     OW30655   2.115   5.207   2.011
 9919SOL    HW130656   2.146   5.135   1.948
 9919SOL    HW230657   2.180   5.216   2.086
 9920SOL     OW30658   3.411   1.242   3.125
 9920SOL    HW130659   3.321   1.282   3.111
 9920SOL    HW230660   3.479   1.315   3.134
 9921SOL     OW30661   5.861   6.020   4.383
 9921SOL    HW130662   5.767   6.030   4.350
 9921SOL    HW230663   5.875   6.077   4.464
 9922SOL     OW30664   4.907   4.392   1.018
 9922SOL    HW130665   4.951   4.397   0.928
 9922SOL    HW230666   4.968   4.345   1.082
 9923SOL     OW30667   6.848   3.197   0.816
 9923SOL    HW130668   6.794   3.274   0.851
 9923SOL    HW230669   6.907   3.230   0.742
 9924SOL     OW30670   5.480   2.061   2.328
 9924SOL    HW130671   5.500   2.110   2.243
 9924SOL    HW230672   5.429   2.121   2.389
 9925SOL     OW30673   2.176   4.209   5.139
 9925SOL    HW130674   2.125   4.238   5.058
 9925SOL    HW230675   2.242   4.138   5.112
 9926SOL     OW30676   3.104   2.431   1.405
 9926SOL    HW130677   3.016   2.397   1.372
 9926SOL    HW230678   3.167   2.354   1.417
 9927SOL     OW30679   0.870   2.493   1.596
 9927SOL    HW130680   0.884   2.448   1.507
 9927SOL    HW230681   0.888   2.591   1.587
 9928SOL     OW30682   6.242   4.633   2.307
 9928SOL    HW130683   6.208   4.554   2.256
 9928SOL    HW230684   6.293   4.601   2.387
 9929SOL     OW30685   2.812   4.174   5.307
 9929SOL    HW130686   2.753   4.235   5.360
 9929SOL    HW230687   2.756   4.111   5.254
 9930SOL     OW30688   0.174   0.219   5.650
 9930SOL    HW130689   0.156   0.286   5.578
 9930SOL    HW230690   0.104   0.148   5.648
 9931SOL     OW30691   0.261   5.272   4.678
 9931SOL    HW130692   0.242   5.248   4.773
 9931SOL    HW230693   0.261   5.371   4.668
 9932SOL     OW30694   1.860   2.340   0.320
 9932SOL    HW130695   1.917   2.295   0.251
 9932SOL    HW230696   1.789   2.393   0.274
 9933SOL     OW30697   1.836   0.996   4.196
 9933SOL    HW130698   1.754   0.965   4.149
 9933SOL    HW230699   1.850   0.942   4.279
 9934SOL     OW30700   5.992   1.928   0.150
 9934SOL    HW130701   6.078   1.914   0.199
 9934SOL    HW230702   5.915   1.920   0.213
 9935SOL     OW30703   2.374   1.327   0.621
 9935SOL    HW130704   2.308   1.289   0.556
 9935SOL    HW230705   2.334   1.408   0.665
 9936SOL     OW30706   5.839   4.983   5.872
 9936SOL    HW130707   5.822   4.909   5.938
 9936SOL    HW230708   5.824   5.071   5.917
 9937SOL     OW30709   1.302   0.811   3.094
 9937SOL    HW130710   1.278   0.715   3.109
 9937SOL    HW230711   1.276   0.838   3.002
 9938SOL     OW30712   5.895   0.345   3.884
 9938SOL    HW130713   5.922   0.424   3.828
 9938SOL    HW230714   5.918   0.261   3.836
 9939SOL     OW30715   2.011   2.712   1.137
 9939SOL    HW130716   2.001   2.805   1.103
 9939SOL    HW230717   2.048   2.653   1.065
 9940SOL     OW30718   0.479   0.654   3.439
 9940SOL    HW130719   0.460   0.743   3.399
 9940SOL    HW230720   0.498   0.664   3.536
 9941SOL     OW30721   2.970   5.386   5.730
 9941SOL    HW130722   3.031   5.415   5.805
 9941SOL    HW230723   3.012   5.309   5.682
 9942SOL     OW30724   4.575   5.435   2.693
 9942SOL    HW130725   4.615   5.504   2.753
 9942SOL    HW230726   4.631   5.426   2.610
 9943SOL     OW30727   0.290   4.362   5.776
 9943SOL    HW130728   0.318   4.280   5.726
 9943SOL    HW230729   0.339   4.368   5.862
 9944SOL     OW30730   0.052   5.722   6.189
 9944SOL    HW130731   6.973   5.740   6.196
 9944SOL    HW230732   0.090   5.709   6.280
 9945SOL     OW30733   5.486   3.958   6.673
 9945SOL    HW130734   5.418   3.890   6.645
 9945SOL    HW230735   5.559   3.962   6.605
 9946SOL     OW30736   6.575   6.845   3.523
 9946SOL    HW130737   6.635   6.857   3.444
 9946SOL    HW230738   6.511   6.770   3.505
 9947SOL     OW30739   1.850   1.770   3.912
 9947SOL    HW130740   1.850   1.868   3.897
 9947SOL    HW230741   1.798   1.724   3.840
 9948SOL     OW30742   6.873   5.560   4.882
 9948SOL    HW130743   6.854   5.472   4.840
 9948SOL    HW230744   6.873   5.631   4.812
 9949SOL     OW30745   0.039   4.922   4.217
 9949SOL    HW130746   0.004   5.016   4.222
 9949SOL    HW230747   6.981   4.859   4.205
 9950SOL     OW30748   6.574   5.266   5.840
 9950SOL    HW130749   6.672   5.263   5.859
 9950SOL    HW230750   6.540   5.358   5.859
 9951SOL     OW30751   1.459   1.903   2.929
 9951SOL    HW130752   1.531   1.973   2.931
 9951SOL    HW230753   1.453   1.865   2.836
 9952SOL     OW30754   1.354   3.866   1.431
 9952SOL    HW130755   1.263   3.846   1.394
 9952SOL    HW230756   1.351   3.952   1.482
 9953SOL     OW30757   5.600   2.665   3.263
 9953SOL    HW130758   5.582   2.758   3.230
 9953SOL    HW230759   5.686   2.632   3.224
 9954SOL     OW30760   1.660   0.750   4.823
 9954SOL    HW130761   1.679   0.653   4.811
 9954SOL    HW230762   1.634   0.768   4.918
 9955SOL     OW30763   4.683   3.925   6.858
 9955SOL    HW130764   4.719   3.931   6.952
 9955SOL    HW230765   4.600   3.870   6.859
 9956SOL     OW30766   6.975   4.142   2.643
 9956SOL    HW130767   6.940   4.220   2.695
 9956SOL    HW230768   0.004   4.080   2.705
 9957SOL     OW30769   5.417   6.980   1.755
 9957SOL    HW130770   5.440   6.947   1.663
 9957SOL    HW230771   5.488   0.025   1.785
 9958SOL     OW30772   2.846   5.619   5.687
 9958SOL    HW130773   2.758   5.650   5.725
 9958SOL    HW230774   2.858   5.522   5.706
 9959SOL     OW30775   4.149   3.215   1.947
 9959SOL    HW130776   4.093   3.140   1.911
 9959SOL    HW230777   4.209   3.180   2.019
 9960SOL     OW30778   0.355   6.589   1.396
 9960SOL    HW130779   0.330   6.675   1.353
 9960SOL    HW230780   0.343   6.514   1.330
 9961SOL     OW30781   2.482   4.516   2.594
 9961SOL    HW130782   2.413   4.462   2.643
 9961SOL    HW230783   2.565   4.520   2.649
 9962SOL     OW30784   3.903   0.758   2.212
 9962SOL    HW130785   3.914   0.786   2.117
 9962SOL    HW230786   3.847   0.826   2.260
 9963SOL     OW30787   2.304   3.509   6.640
 9963SOL    HW130788   2.329   3.541   6.732
 9963SOL    HW230789   2.359   3.557   6.572
 9964SOL     OW30790   3.790   5.055   5.468
 9964SOL    HW130791   3.716   5.121   5.476
 9964SOL    HW230792   3.769   4.973   5.522
 9965SOL     OW30793   3.346   5.505   4.735
 9965SOL    HW130794   3.397   5.523   4.819
 9965SOL    HW230795   3.248   5.510   4.754
 9966SOL     OW30796   2.521   5.349   2.185
 9966SOL    HW130797   2.503   5.447   2.182
 9966SOL    HW230798   2.608   5.331   2.231
 9967SOL     OW30799   6.326   5.233   2.897
 9967SOL    HW130800   6.376   5.291   2.961
 9967SOL    HW230801   6.337   5.268   2.804
 9968SOL     OW30802   3.801   5.446   0.216
 9968SOL    HW130803   3.746   5.457   0.133
 9968SOL    HW230804   3.789   5.354   0.252
 9969SOL     OW30805   1.424   3.203   4.647
 9969SOL    HW130806   1.461   3.293   4.668
 9969SOL    HW230807   1.494   3.133   4.662
 9970SOL     OW30808   6.507   5.077   0.934
 9970SOL    HW130809   6.591   5.101   0.984
 9970SOL    HW230810   6.499   4.978   0.929
 9971SOL     OW30811   2.103   3.031   1.263
 9971SOL    HW130812   2.085   3.008   1.167
 9971SOL    HW230813   2.109   3.131   1.272
 9972SOL     OW30814   2.724   4.308   0.918
 9972SOL    HW130815   2.773   4.231   0.959
 9972SOL    HW230816   2.625   4.291   0.925
 9973SOL     OW30817   4.190   2.256   4.402
 9973SOL    HW130818   4.107   2.256   4.459
 9973SOL    HW230819   4.164   2.252   4.306
 9974SOL     OW30820   0.239   3.083   2.843
 9974SOL    HW130821   0.251   3.008   2.778
 9974SOL    HW230822   0.167   3.059   2.908
 9975SOL     OW30823   0.337   5.015   6.199
 9975SOL    HW130824   0.396   4.959   6.258
 9975SOL    HW230825   0.244   5.016   6.235
 9976SOL     OW30826   0.892   5.035   5.359
 9976SOL    HW130827   0.958   5.022   5.433
 9976SOL    HW230828   0.863   5.131   5.357
 9977SOL     OW30829   5.776   4.678   5.743
 9977SOL    HW130830   5.835   4.605   5.707
 9977SOL    HW230831   5.809   4.706   5.833
 9978SOL     OW30832   6.655   1.555   5.410
 9978SOL    HW130833   6.700   1.471   5.379
 9978SOL    HW230834   6.704   1.592   5.488
 9979SOL     OW30835   6.710   3.951   6.504
 9979SOL    HW130836   6.677   3.967   6.411
 9979SOL    HW230837   6.673   4.020   6.566
 9980SOL     OW30838   1.750   0.327   0.616
 9980SOL    HW130839   1.695   0.407   0.592
 9980SOL    HW230840   1.742   0.309   0.714
 9981SOL     OW30841   2.634   2.145   0.477
 9981SOL    HW130842   2.724   2.172   0.510
 9981SOL    HW230843   2.573   2.130   0.555
 9982SOL     OW30844   1.285   1.259   4.375
 9982SOL    HW130845   1.252   1.354   4.375
 9982SOL    HW230846   1.228   1.204   4.435
 9983SOL     OW30847   0.631   1.305   2.125
 9983SOL    HW130848   0.586   1.392   2.104
 9983SOL    HW230849   0.593   1.233   2.067
 9984SOL     OW30850   1.002   6.338   0.153
 9984SOL    HW130851   1.101   6.340   0.141
 9984SOL    HW230852   0.972   6.244   0.169
 9985SOL     OW30853   2.758   6.457   1.143
 9985SOL    HW130854   2.694   6.532   1.132
 9985SOL    HW230855   2.743   6.389   1.071
 9986SOL     OW30856   5.602   4.956   1.018
 9986SOL    HW130857   5.505   4.962   1.040
 9986SOL    HW230858   5.619   4.991   0.926
 9987SOL     OW30859   6.384   2.463   2.789
 9987SOL    HW130860   6.339   2.420   2.867
 9987SOL    HW230861   6.418   2.393   2.727
 9988SOL     OW30862   6.597   5.167   4.199
 9988SOL    HW130863   6.538   5.178   4.119
 9988SOL    HW230864   6.551   5.205   4.280
 9989SOL     OW30865   6.289   4.176   2.565
 9989SOL    HW130866   6.275   4.273   2.545
 9989SOL    HW230867   6.365   4.141   2.511
 9990SOL     OW30868   2.056   6.924   3.616
 9990SOL    HW130869   2.061   6.878   3.704
 9990SOL    HW230870   1.964   6.916   3.579
 9991SOL     OW30871   2.171   3.126   3.915
 9991SOL    HW130872   2.160   3.188   3.993
 9991SOL    HW230873   2.218   3.173   3.841
 9992SOL     OW30874   3.694   3.573   0.634
 9992SOL    HW130875   3.775   3.602   0.583
 9992SOL    HW230876   3.707   3.590   0.731
 9993SOL     OW30877   3.844   6.734   3.520
 9993SOL    HW130878   3.885   6.720   3.610
 9993SOL    HW230879   3.816   6.646   3.482
 9994SOL     OW30880   6.639   4.386   2.526
 9994SOL    HW130881   6.696   4.456   2.570
 9994SOL    HW230882   6.674   4.365   2.435
 9995SOL     OW30883   3.378   0.904   3.340
 9995SOL    HW130884   3.430   0.940   3.418
 9995SOL    HW230885   3.435   0.841   3.288
 9996SOL     OW30886   2.707   3.459   1.792
 9996SOL    HW130887   2.608   3.446   1.798
 9996SOL    HW230888   2.750   3.426   1.876
 9997SOL     OW30889   5.186   0.811   2.137
 9997SOL    HW130890   5.099   0.842   2.175
 9997SOL    HW230891   5.260   0.870   2.170
 9998SOL     OW30892   5.832   3.462   2.319
 9998SOL    HW130893   5.802   3.492   2.409
 9998SOL    HW230894   5.800   3.527   2.250
 9999SOL     OW30895   0.453   5.673   4.840
 9999SOL    HW130896   0.526   5.627   4.891
 9999SOL    HW230897   0.402   5.605   4.787
10000SOL     OW30898   5.411   2.057   0.433
10000SOL    HW130899   5.330   2.098   0.475
10000SOL    HW230900   5.492   2.107   0.463
10001SOL     OW30901   3.980   0.534   1.274
10001SOL    HW130902   3.913   0.580   1.333
10001SOL    HW230903   3.988   0.584   1.188
10002SOL     OW30904   2.149   1.058   1.630
10002SOL    HW130905   2.131   0.965   1.662
10002SOL    HW230906   2.094   1.123   1.683
10003SOL     OW30907   2.982   2.140   2.287
10003SOL    HW130908   2.946   2.155   2.379
10003SOL    HW230909   2.931   2.197   2.222
10004SOL     OW30910   5.358   2.820   5.156
10004SOL    HW130911   5.403   2.732   5.147
10004SOL    HW230912   5.392   2.866   5.238
10005SOL     OW30913   3.648   5.605   2.189
10005SOL    HW130914   3.729   5.557   2.157
10005SOL    HW230915   3.613   5.560   2.271
10006SOL     OW30916   6.199   0.111   5.382
10006SOL    HW130917   6.195   0.011   5.381
10006SOL    HW230918   6.278   0.141   5.329
10007SOL     OW30919   0.531   2.973   4.107
10007SOL    HW130920   0.532   2.905   4.033
10007SOL    HW230921   0.623   2.983   4.144
10008SOL     OW30922   4.769   0.862   3.782
10008SOL    HW130923   4.724   0.899   3.701
10008SOL    HW230924   4.865   0.891   3.784
10009SOL     OW30925   1.463   4.194   1.451
10009SOL    HW130926   1.511   4.199   1.364
10009SOL    HW230927   1.484   4.275   1.505
10010SOL     OW30928   2.802   6.186   0.415
10010SOL    HW130929   2.790   6.218   0.509
10010SOL    HW230930   2.712   6.168   0.374
10011SOL     OW30931   0.687   4.164   6.116
10011SOL    HW130932   0.669   4.259   6.144
10011SOL    HW230933   0.601   4.118   6.096
10012SOL     OW30934   5.228   0.516   2.244
10012SOL    HW130935   5.284   0.451   2.295
10012SOL    HW230936   5.257   0.609   2.266
10013SOL     OW30937   1.816   2.049   3.870
10013SOL    HW130938   1.728   2.093   3.853
10013SOL    HW230939   1.882   2.117   3.901
10014SOL     OW30940   1.167   1.330   1.264
10014SOL    HW130941   1.131   1.376   1.183
10014SOL    HW230942   1.267   1.335   1.264
10015SOL     OW30943   4.130   5.311   0.133
10015SOL    HW130944   4.041   5.289   0.092
10015SOL    HW230945   4.138   5.410   0.144
10016SOL     OW30946   1.269   0.658   5.015
10016SOL    HW130947   1.199   0.687   5.080
10016SOL    HW230948   1.354   0.640   5.064
10017SOL     OW30949   1.775   1.563   3.157
10017SOL    HW130950   1.782   1.463   3.151
10017SOL    HW230951   1.691   1.587   3.206
10018SOL     OW30952   6.760   5.078   5.841
10018SOL    HW130953   6.664   5.051   5.846
10018SOL    HW230954   6.807   5.023   5.772
10019SOL     OW30955   0.434   2.065   3.327
10019SOL    HW130956   0.438   1.976   3.280
10019SOL    HW230957   0.340   2.084   3.354
10020SOL     OW30958   0.740   0.751   1.351
10020SOL    HW130959   0.648   0.710   1.348
10020SOL    HW230960   0.736   0.845   1.318
10021SOL     OW30961   1.052   2.380   2.632
10021SOL    HW130962   1.102   2.374   2.719
10021SOL    HW230963   1.111   2.349   2.557
10022SOL     OW30964   3.574   6.822   0.719
10022SOL    HW130965   3.580   6.828   0.619
10022SOL    HW230966   3.628   6.745   0.751
10023SOL     OW30967   2.523   4.617   4.739
10023SOL    HW130968   2.469   4.534   4.729
10023SOL    HW230969   2.476   4.694   4.696
10024SOL     OW30970   2.020   5.789   1.711
10024SOL    HW130971   2.113   5.822   1.690
10024SOL    HW230972   1.972   5.859   1.765
10025SOL     OW30973   1.897   2.865   2.100
10025SOL    HW130974   1.798   2.870   2.115
10025SOL    HW230975   1.914   2.852   2.002
10026SOL     OW30976   5.114   6.989   3.317
10026SOL    HW130977   5.062   6.937   3.384
10026SOL    HW230978   5.175   0.034   3.364
10027SOL     OW30979   0.419   3.055   5.247
10027SOL    HW130980   0.337   3.108   5.226
10027SOL    HW230981   0.480   3.056   5.168
10028SOL     OW30982   1.911   1.674   2.316
10028SOL    HW130983   1.874   1.661   2.224
10028SOL    HW230984   1.867   1.753   2.359
10029SOL     OW30985   1.833   1.992   3.576
10029SOL    HW130986   1.869   1.983   3.670
10029SOL    HW230987   1.907   2.020   3.515
10030SOL     OW30988   3.330   0.363   4.724
10030SOL    HW130989   3.387   0.443   4.742
10030SOL    HW230990   3.389   0.284   4.704
10031SOL     OW30991   5.686   4.659   4.538
10031SOL    HW130992   5.612   4.597   4.564
10031SOL    HW230993   5.660   4.753   4.559
10032SOL     OW30994   4.459   0.343   5.042
10032SOL    HW130995   4.414   0.432   5.045
10032SOL    HW230996   4.414   0.284   4.974
10033SOL     OW30997   4.594   2.407   3.750
10033SOL    HW130998   4.688   2.380   3.728
10033SOL    HW230999   4.582   2.407   3.849
10034SOL     OW31000   3.452   0.299   4.022
10034SOL    HW131001   3.366   0.302   4.074
10034SOL    HW231002   3.450   0.370   3.951
10035SOL     OW31003   6.477   4.845   1.414
10035SOL    HW131004   6.545   4.800   1.356
10035SOL    HW231005   6.435   4.778   1.475
10036SOL     OW31006   6.482   0.648   0.347
10036SOL    HW131007   6.444   0.663   0.256
10036SOL    HW231008   6.411   0.661   0.416
10037SOL     OW31009   5.908   1.146   0.377
10037SOL    HW131010   5.919   1.065   0.434
10037SOL    HW231011   5.828   1.198   0.408
10038SOL     OW31012   4.230   0.196   6.785
10038SOL    HW131013   4.161   0.255   6.826
10038SOL    HW231014   4.320   0.241   6.790
10039SOL     OW31015   4.354   6.901   5.044
10039SOL    HW131016   4.265   6.938   5.018
10039SOL    HW231017   4.345   6.803   5.063
10040SOL     OW31018   4.189   5.691   6.191
10040SOL    HW131019   4.181   5.704   6.290
10040SOL    HW231020   4.155   5.772   6.143
10041SOL     OW31021   4.093   6.048   6.587
10041SOL    HW131022   4.084   6.004   6.498
10041SOL    HW231023   4.056   6.141   6.583
10042SOL     OW31024   1.651   2.262   5.001
10042SOL    HW131025   1.592   2.219   4.932
10042SOL    HW231026   1.710   2.192   5.042
10043SOL     OW31027   0.671   2.359   4.591
10043SOL    HW131028   0.590   2.407   4.623
10043SOL    HW231029   0.656   2.326   4.498
10044SOL     OW31030   2.975   1.429   4.442
10044SOL    HW131031   2.952   1.471   4.355
10044SOL    HW231032   3.070   1.451   4.465
10045SOL     OW31033   4.969   6.913   4.083
10045SOL    HW131034   4.958   6.843   4.155
10045SOL    HW231035   4.948   7.003   4.121
10046SOL     OW31036   1.490   3.811   1.192
10046SOL    HW131037   1.557   3.765   1.250
10046SOL    HW231038   1.423   3.857   1.249
10047SOL     OW31039   6.422   3.149   5.246
10047SOL    HW131040   6.430   3.164   5.147
10047SOL    HW231041   6.470   3.222   5.295
10048SOL     OW31042   5.872   1.901   2.403
10048SOL    HW131043   5.812   1.973   2.438
10048SOL    HW231044   5.940   1.877   2.473
10049SOL     OW31045   0.599   0.252   6.726
10049SOL    HW131046   0.590   0.153   6.715
10049SOL    HW231047   0.595   0.275   6.824
10050SOL     OW31048   6.386   2.509   4.854
10050SOL    HW131049   6.477   2.544   4.874
10050SOL    HW231050   6.394   2.427   4.797
10051SOL     OW31051   6.266   2.214   5.017
10051SOL    HW131052   6.337   2.234   4.950
10051SOL    HW231053   6.234   2.299   5.059
10052SOL     OW31054   2.963   2.265   2.817
10052SOL    HW131055   3.043   2.277   2.759
10052SOL    HW231056   2.993   2.238   2.909
10053SOL     OW31057   3.286   6.076   1.953
10053SOL    HW131058   3.309   6.077   2.050
10053SOL    HW231059   3.352   6.133   1.903
10054SOL     OW31060   5.164   5.403   6.594
10054SOL    HW131061   5.076   5.408   6.642
10054SOL    HW231062   5.229   5.352   6.649
10055SOL     OW31063   6.310   1.970   4.896
10055SOL    HW131064   6.250   2.040   4.936
10055SOL    HW231065   6.280   1.879   4.924
10056SOL     OW31066   5.530   4.461   2.284
10056SOL    HW131067   5.468   4.532   2.319
10056SOL    HW231068   5.572   4.412   2.360
10057SOL     OW31069   4.051   1.839   4.282
10057SOL    HW131070   4.021   1.787   4.361
10057SOL    HW231071   3.973   1.859   4.223
10058SOL     OW31072   0.375   3.951   4.634
10058SOL    HW131073   0.365   3.861   4.592
10058SOL    HW231074   0.328   4.019   4.578
10059SOL     OW31075   5.478   0.289   1.134
10059SOL    HW131076   5.414   0.213   1.123
10059SOL    HW231077   5.431   0.367   1.176
10060SOL     OW31078   1.408   1.524   1.629
10060SOL    HW131079   1.505   1.528   1.654
10060SOL    HW231080   1.395   1.567   1.540
10061SOL     OW31081   5.087   1.511   4.195
10061SOL    HW131082   5.046   1.444   4.257
10061SOL    HW231083   5.109   1.594   4.246
10062SOL     OW31084   6.625   0.310   4.270
10062SOL    HW131085   6.637   0.385   4.336
10062SOL    HW231086   6.710   0.297   4.219
10063SOL     OW31087   2.252   0.823   3.979
10063SOL    HW131088   2.321   0.820   3.907
10063SOL    HW231089   2.163   0.842   3.939
10064SOL     OW31090   4.546   0.018   0.335
10064SOL    HW131091   4.472   0.027   0.267
10064SOL    HW231092   4.516   6.977   0.409
10065SOL     OW31093   1.933   6.928   2.187
10065SOL    HW131094   1.848   6.912   2.237
10065SOL    HW231095   2.003   6.961   2.251
10066SOL     OW31096   1.264   2.708   3.664
10066SOL    HW131097   1.314   2.773   3.606
10066SOL    HW231098   1.311   2.699   3.751
10067SOL     OW31099   6.439   4.028   4.756
10067SOL    HW131100   6.489   4.113   4.776
10067SOL    HW231101   6.406   3.988   4.841
10068SOL     OW31102   0.197   3.577   3.065
10068SOL    HW131103   0.107   3.603   3.030
10068SOL    HW231104   0.239   3.510   3.003
10069SOL     OW31105   2.452   5.292   3.096
10069SOL    HW131106   2.409   5.303   3.006
10069SOL    HW231107   2.390   5.243   3.157
10070SOL     OW31108   6.426   6.808   5.435
10070SOL    HW131109   6.347   6.828   5.377
10070SOL    HW231110   6.477   6.731   5.396
10071SOL     OW31111   6.062   5.653   3.885
10071SOL    HW131112   6.137   5.691   3.832
10071SOL    HW231113   6.098   5.609   3.967
10072SOL     OW31114   6.899   6.263   4.141
10072SOL    HW131115   6.995   6.283   4.122
10072SOL    HW231116   6.876   6.174   4.103
10073SOL     OW31117   5.547   3.984   5.586
10073SOL    HW131118   5.610   3.908   5.571
10073SOL    HW231119   5.567   4.027   5.674
10074SOL     OW31120   1.528   1.044   5.333
10074SOL    HW131121   1.449   0.986   5.315
10074SOL    HW231122   1.591   0.996   5.395
10075SOL     OW31123   1.912   3.080   2.818
10075SOL    HW131124   1.913   3.052   2.914
10075SOL    HW231125   2.006   3.083   2.783
10076SOL     OW31126   0.450   0.095   3.718
10076SOL    HW131127   0.465   0.186   3.679
10076SOL    HW231128   0.489   0.091   3.810
10077SOL     OW31129   3.849   3.252   6.458
10077SOL    HW131130   3.841   3.152   6.453
10077SOL    HW231131   3.910   3.276   6.533
10078SOL     OW31132   0.495   5.124   4.000
10078SOL    HW131133   0.516   5.210   4.048
10078SOL    HW231134   0.407   5.089   4.033
10079SOL     OW31135   6.741   3.951   2.859
10079SOL    HW131136   6.768   3.877   2.921
10079SOL    HW231137   6.721   3.914   2.769
10080SOL     OW31138   4.632   1.293   5.457
10080SOL    HW131139   4.679   1.220   5.409
10080SOL    HW231140   4.541   1.306   5.417
10081SOL     OW31141   0.214   0.234   0.858
10081SOL    HW131142   0.211   0.142   0.898
10081SOL    HW231143   0.121   0.267   0.844
10082SOL     OW31144   0.040   4.739   1.568
10082SOL    HW131145   7.000   4.820   1.571
10082SOL    HW231146   0.132   4.765   1.596
10083SOL     OW31147   4.669   0.959   3.248
10083SOL    HW131148   4.572   0.976   3.267
10083SOL    HW231149   4.724   1.003   3.319
10084SOL     OW31150   2.008   0.854   5.398
10084SOL    HW131151   2.069   0.775   5.408
10084SOL    HW231152   2.005   0.905   5.484
10085SOL     OW31153   2.320   5.669   1.617
10085SOL    HW131154   2.404   5.619   1.598
10085SOL    HW231155   2.300   5.731   1.542
10086SOL     OW31156   4.338   5.858   2.233
10086SOL    HW131157   4.316   5.888   2.141
10086SOL    HW231158   4.253   5.836   2.282
10087SOL     OW31159   6.833   0.080   3.937
10087SOL    HW131160   6.790   7.009   3.946
10087SOL    HW231161   6.810   0.120   3.848
10088SOL     OW31162   6.307   0.418   1.545
10088SOL    HW131163   6.252   0.501   1.538
10088SOL    HW231164   6.384   0.434   1.607
10089SOL     OW31165   2.859   1.897   2.294
10089SOL    HW131166   2.908   1.983   2.303
10089SOL    HW231167   2.914   1.823   2.334
10090SOL     OW31168   1.522   4.868   1.501
10090SOL    HW131169   1.582   4.827   1.569
10090SOL    HW231170   1.493   4.959   1.531
10091SOL     OW31171   0.469   4.192   6.362
10091SOL    HW131172   0.534   4.266   6.378
10091SOL    HW231173   0.377   4.221   6.388
10092SOL     OW31174   2.149   2.562   5.633
10092SOL    HW131175   2.121   2.544   5.538
10092SOL    HW231176   2.172   2.659   5.642
10093SOL     OW31177   6.439   3.155   4.973
10093SOL    HW131178   6.391   3.112   4.897
10093SOL    HW231179   6.532   3.117   4.980
10094SOL     OW31180   2.426   5.593   2.249
10094SOL    HW131181   2.464   5.683   2.230
10094SOL    HW231182   2.327   5.600   2.265
10095SOL     OW31183   6.127   1.913   5.313
10095SOL    HW131184   6.199   1.846   5.293
10095SOL    HW231185   6.037   1.871   5.297
10096SOL     OW31186   4.273   5.166   2.949
10096SOL    HW131187   4.222   5.141   3.031
10096SOL    HW231188   4.347   5.229   2.973
10097SOL     OW31189   0.829   1.352   0.325
10097SOL    HW131190   0.813   1.429   0.386
10097SOL    HW231191   0.769   1.276   0.350
10098SOL     OW31192   2.929   0.600   4.862
10098SOL    HW131193   2.890   0.510   4.884
10098SOL    HW231194   3.002   0.589   4.795
10099SOL     OW31195   0.156   5.034   1.152
10099SOL    HW131196   0.085   5.091   1.194
10099SOL    HW231197   0.167   5.060   1.056
10100SOL     OW31198   4.895   0.151   4.727
10100SOL    HW131199   4.904   0.076   4.662
10100SOL    HW231200   4.953   0.227   4.699
10101SOL     OW31201   6.625   3.836   1.686
10101SOL    HW131202   6.694   3.888   1.735
10101SOL    HW231203   6.560   3.797   1.751
10102SOL     OW31204   0.669   1.481   2.616
10102SOL    HW131205   0.657   1.425   2.534
10102SOL    HW231206   0.637   1.430   2.696
10103SOL     OW31207   2.560   0.527   6.075
10103SOL    HW131208   2.501   0.453   6.109
10103SOL    HW231209   2.635   0.488   6.022
10104SOL     OW31210   2.539   1.868   3.648
10104SOL    HW131211   2.514   1.800   3.579
10104SOL    HW231212   2.507   1.839   3.738
10105SOL     OW31213   1.434   1.240   0.713
10105SOL    HW131214   1.412   1.244   0.811
10105SOL    HW231215   1.350   1.253   0.660
10106SOL     OW31216   4.254   6.377   0.417
10106SOL    HW131217   4.219   6.308   0.354
10106SOL    HW231218   4.177   6.421   0.464
10107SOL     OW31219   6.390   1.382   5.945
10107SOL    HW131220   6.466   1.443   5.967
10107SOL    HW231221   6.308   1.413   5.992
10108SOL     OW31222   6.519   0.264   6.809
10108SOL    HW131223   6.544   0.177   6.852
10108SOL    HW231224   6.425   0.287   6.833
10109SOL     OW31225   5.363   6.697   0.492
10109SOL    HW131226   5.353   6.655   0.402
10109SOL    HW231227   5.370   6.796   0.482
10110SOL     OW31228   3.653   5.320   4.856
10110SOL    HW131229   3.731   5.299   4.797
10110SOL    HW231230   3.623   5.414   4.839
10111SOL     OW31231   5.773   3.419   3.558
10111SOL    HW131232   5.819   3.345   3.606
10111SOL    HW231233   5.676   3.420   3.583
10112SOL     OW31234   5.518   3.423   3.663
10112SOL    HW131235   5.528   3.516   3.698
10112SOL    HW231236   5.495   3.360   3.737
10113SOL     OW31237   4.213   0.456   0.007
10113SOL    HW131238   4.301   0.494   6.997
10113SOL    HW231239   4.152   0.448   6.947
10114SOL     OW31240   4.882   1.389   0.913
10114SOL    HW131241   4.836   1.432   0.835
10114SOL    HW231242   4.838   1.419   0.997
10115SOL     OW31243   3.542   1.024   4.549
10115SOL    HW131244   3.637   1.043   4.574
10115SOL    HW231245   3.481   1.065   4.617
10116SOL     OW31246   0.761   6.616   0.220
10116SOL    HW131247   0.761   6.539   0.284
10116SOL    HW231248   0.771   6.581   0.126
10117SOL     OW31249   6.380   5.790   5.687
10117SOL    HW131250   6.409   5.831   5.601
10117SOL    HW231251   6.449   5.726   5.718
10118SOL     OW31252   2.192   4.590   2.628
10118SOL    HW131253   2.185   4.493   2.604
10118SOL    HW231254   2.134   4.609   2.707
10119SOL     OW31255   0.505   5.557   4.179
10119SOL    HW131256   0.479   5.573   4.084
10119SOL    HW231257   0.519   5.645   4.225
10120SOL     OW31258   1.839   3.476   5.088
10120SOL    HW131259   1.921   3.452   5.035
10120SOL    HW231260   1.803   3.563   5.055
10121SOL     OW31261   6.178   3.499   6.850
10121SOL    HW131262   6.156   3.427   6.915
10121SOL    HW231263   6.118   3.578   6.866
10122SOL     OW31264   6.104   3.428   1.928
10122SOL    HW131265   6.143   3.517   1.953
10122SOL    HW231266   6.071   3.382   2.010
10123SOL     OW31267   5.069   6.600   6.867
10123SOL    HW131268   5.136   6.526   6.855
10123SOL    HW231269   5.003   6.597   6.792
10124SOL     OW31270   1.090   4.249   0.409
10124SOL    HW131271   1.109   4.265   0.506
10124SOL    HW231272   0.993   4.226   0.398
10125SOL     OW31273   1.786   0.814   2.137
10125SOL    HW131274   1.850   0.738   2.127
10125SOL    HW231275   1.836   0.900   2.131
10126SOL     OW31276   6.635   6.623   6.540
10126SOL    HW131277   6.571   6.630   6.616
10126SOL    HW231278   6.715   6.679   6.559
10127SOL     OW31279   2.841   4.284   6.452
10127SOL    HW131280   2.823   4.318   6.544
10127SOL    HW231281   2.762   4.301   6.394
10128SOL     OW31282   2.884   1.123   0.820
10128SOL    HW131283   2.786   1.112   0.806
10128SOL    HW231284   2.901   1.211   0.865
10129SOL     OW31285   5.928   1.883   2.096
10129SOL    HW131286   5.932   1.824   2.016
10129SOL    HW231287   5.952   1.831   2.178
10130SOL     OW31288   1.386   3.315   1.841
10130SOL    HW131289   1.389   3.360   1.752
10130SOL    HW231290   1.478   3.306   1.877
10131SOL     OW31291   1.248   6.865   4.816
10131SOL    HW131292   1.242   6.795   4.888
10131SOL    HW231293   1.172   6.853   4.752
10132SOL     OW31294   3.845   0.843   4.056
10132SOL    HW131295   3.770   0.874   3.997
10132SOL    HW231296   3.832   0.746   4.077
10133SOL     OW31297   3.623   6.542   0.426
10133SOL    HW131298   3.524   6.557   0.427
10133SOL    HW231299   3.642   6.444   0.420
10134SOL     OW31300   0.124   6.460   3.068
10134SOL    HW131301   0.171   6.377   3.037
10134SOL    HW231302   0.091   6.510   2.988
10135SOL     OW31303   5.262   2.912   3.520
10135SOL    HW131304   5.359   2.891   3.529
10135SOL    HW231305   5.247   2.968   3.438
10136SOL     OW31306   5.381   0.975   2.426
10136SOL    HW131307   5.437   1.026   2.360
10136SOL    HW231308   5.429   0.892   2.454
10137SOL     OW31309   6.755   3.414   4.604
10137SOL    HW131310   6.755   3.347   4.529
10137SOL    HW231311   6.848   3.432   4.633
10138SOL     OW31312   5.224   3.694   6.928
10138SOL    HW131313   5.220   3.613   6.986
10138SOL    HW231314   5.201   3.775   6.982
10139SOL     OW31315   2.944   3.516   3.498
10139SOL    HW131316   3.021   3.520   3.562
10139SOL    HW231317   2.859   3.514   3.550
10140SOL     OW31318   6.277   5.594   6.846
10140SOL    HW131319   6.244   5.519   6.905
10140SOL    HW231320   6.200   5.653   6.822
10141SOL     OW31321   3.960   1.302   5.587
10141SOL    HW131322   3.940   1.264   5.497
10141SOL    HW231323   3.983   1.228   5.650
10142SOL     OW31324   6.571   6.785   5.778
10142SOL    HW131325   6.475   6.812   5.774
10142SOL    HW231326   6.589   6.737   5.864
10143SOL     OW31327   5.490   1.197   6.922
10143SOL    HW131328   5.470   1.203   0.001
10143SOL    HW231329   5.430   1.129   6.879
10144SOL     OW31330   3.094   0.788   5.823
10144SOL    HW131331   3.133   0.743   5.743
10144SOL    HW231332   3.077   0.884   5.803
10145SOL     OW31333   3.178   5.020   4.119
10145SOL    HW131334   3.080   5.035   4.129
10145SOL    HW231335   3.203   5.030   4.023
10146SOL     OW31336   4.527   4.453   4.753
10146SOL    HW131337   4.455   4.413   4.696
10146SOL    HW231338   4.486   4.492   4.835
10147SOL     OW31339   5.279   3.865   5.356
10147SOL    HW131340   5.193   3.840   5.310
10147SOL    HW231341   5.333   3.783   5.373
10148SOL     OW31342   5.014   4.766   6.197
10148SOL    HW131343   5.010   4.686   6.136
10148SOL    HW231344   4.924   4.807   6.205
10149SOL     OW31345   5.988   3.331   1.068
10149SOL    HW131346   6.030   3.306   0.981
10149SOL    HW231347   5.971   3.249   1.121
10150SOL     OW31348   3.541   3.172   0.381
10150SOL    HW131349   3.574   3.257   0.342
10150SOL    HW231350   3.497   3.117   0.309
10151SOL     OW31351   0.398   5.703   6.998
10151SOL    HW131352   0.461   5.748   6.934
10151SOL    HW231353   0.385   5.608   6.969
10152SOL     OW31354   0.152   5.858   4.210
10152SOL    HW131355   0.231   5.865   4.150
10152SOL    HW231356   0.074   5.821   4.160
10153SOL     OW31357   4.653   6.018   3.708
10153SOL    HW131358   4.559   6.006   3.740
10153SOL    HW231359   4.691   5.929   3.681
10154SOL     OW31360   4.133   6.525   5.293
10154SOL    HW131361   4.203   6.543   5.362
10154SOL    HW231362   4.163   6.562   5.205
10155SOL     OW31363   3.821   2.302   6.033
10155SOL    HW131364   3.725   2.319   6.057
10155SOL    HW231365   3.827   2.278   5.936
10156SOL     OW31366   5.985   0.822   2.318
10156SOL    HW131367   5.892   0.807   2.282
10156SOL    HW231368   6.035   0.882   2.255
10157SOL     OW31369   6.818   1.740   0.631
10157SOL    HW131370   6.732   1.768   0.672
10157SOL    HW231371   6.848   1.653   0.672
10158SOL     OW31372   6.106   5.838   0.827
10158SOL    HW131373   6.026   5.850   0.769
10158SOL    HW231374   6.182   5.893   0.791
10159SOL     OW31375   2.065   3.226   0.668
10159SOL    HW131376   2.036   3.163   0.595
10159SOL    HW231377   1.989   3.284   0.695
10160SOL     OW31378   1.881   3.286   2.181
10160SOL    HW131379   1.833   3.374   2.180
10160SOL    HW231380   1.833   3.222   2.240
10161SOL     OW31381   3.944   3.212   0.792
10161SOL    HW131382   3.937   3.130   0.735
10161SOL    HW231383   3.999   3.190   0.873
10162SOL     OW31384   3.740   4.568   0.850
10162SOL    HW131385   3.791   4.646   0.815
10162SOL    HW231386   3.796   4.521   0.920
10163SOL     OW31387   6.043   4.128   6.940
10163SOL    HW131388   5.978   4.059   6.909
10163SOL    HW231389   6.099   4.091   7.013
10164SOL     OW31390   6.135   3.261   4.063
10164SOL    HW131391   6.147   3.359   4.081
10164SOL    HW231392   6.166   3.241   3.970
10165SOL     OW31393   6.699   1.156   3.246
10165SOL    HW131394   6.707   1.219   3.168
10165SOL    HW231395   6.620   1.096   3.232
10166SOL     OW31396   3.348   1.772   1.925
10166SOL    HW131397   3.382   1.713   1.998
10166SOL    HW231398   3.406   1.854   1.920
10167SOL     OW31399   1.370   4.584   6.957
10167SOL    HW131400   1.457   4.618   6.993
10167SOL    HW231401   1.386   4.497   6.909
10168SOL     OW31402   5.821   2.666   6.308
10168SOL    HW131403   5.875   2.750   6.303
10168SOL    HW231404   5.818   2.634   6.403
10169SOL     OW31405   6.759   4.557   3.369
10169SOL    HW131406   6.857   4.569   3.356
10169SOL    HW231407   6.717   4.531   3.282
10170SOL     OW31408   6.619   5.321   5.360
10170SOL    HW131409   6.692   5.389   5.371
10170SOL    HW231410   6.642   5.259   5.285
10171SOL     OW31411   0.052   2.257   4.316
10171SOL    HW131412   0.142   2.216   4.332
10171SOL    HW231413   7.001   2.186   4.327
10172SOL     OW31414   0.724   6.017   5.354
10172SOL    HW131415   0.627   6.007   5.335
10172SOL    HW231416   0.739   6.011   5.453
10173SOL     OW31417   2.063   2.337   0.510
10173SOL    HW131418   2.139   2.316   0.449
10173SOL    HW231419   1.978   2.336   0.458
10174SOL     OW31420   5.121   4.520   3.557
10174SOL    HW131421   5.047   4.454   3.560
10174SOL    HW231422   5.193   4.487   3.496
10175SOL     OW31423   5.428   1.756   2.837
10175SOL    HW131424   5.505   1.717   2.886
10175SOL    HW231425   5.402   1.844   2.878
10176SOL     OW31426   0.263   3.339   5.426
10176SOL    HW131427   0.198   3.349   5.501
10176SOL    HW231428   0.305   3.427   5.406
10177SOL     OW31429   2.342   1.325   1.855
10177SOL    HW131430   2.391   1.375   1.927
10177SOL    HW231431   2.395   1.329   1.770
10178SOL     OW31432   0.229   1.103   6.693
10178SOL    HW131433   0.208   1.184   6.639
10178SOL    HW231434   0.303   1.052   6.650
10179SOL     OW31435   0.542   2.676   6.404
10179SOL    HW131436   0.491   2.756   6.437
10179SOL    HW231437   0.622   2.706   6.352
10180SOL     OW31438   4.003   1.100   5.731
10180SOL    HW131439   3.933   1.052   5.784
10180SOL    HW231440   4.077   1.037   5.709
10181SOL     OW31441   6.348   3.527   1.493
10181SOL    HW131442   6.330   3.475   1.577
10181SOL    HW231443   6.271   3.518   1.430
10182SOL     OW31444   4.775   0.678   1.743
10182SOL    HW131445   4.824   0.593   1.759
10182SOL    HW231446   4.678   0.658   1.727
10183SOL     OW31447   6.700   3.117   6.479
10183SOL    HW131448   6.676   3.063   6.560
10183SOL    HW231449   6.617   3.158   6.441
10184SOL     OW31450   4.014   1.224   6.248
10184SOL    HW131451   4.052   1.197   6.159
10184SOL    HW231452   4.043   1.159   6.318
10185SOL     OW31453   6.234   6.066   2.840
10185SOL    HW131454   6.190   6.041   2.753
10185SOL    HW231455   6.300   6.139   2.824
10186SOL     OW31456   5.430   3.602   4.038
10186SOL    HW131457   5.478   3.675   4.087
10186SOL    HW231458   5.453   3.514   4.080
10187SOL     OW31459   1.202   3.556   0.263
10187SOL    HW131460   1.249   3.581   0.347
10187SOL    HW231461   1.142   3.477   0.279
10188SOL     OW31462   4.142   4.415   0.238
10188SOL    HW131463   4.086   4.338   0.205
10188SOL    HW231464   4.087   4.473   0.298
10189SOL     OW31465   0.637   1.225   6.633
10189SOL    HW131466   0.733   1.236   6.608
10189SOL    HW231467   0.614   1.127   6.634
10190SOL     OW31468   4.840   3.055   1.244
10190SOL    HW131469   4.884   3.054   1.334
10190SOL    HW231470   4.757   2.999   1.247
10191SOL     OW31471   4.052   5.883   6.379
10191SOL    HW131472   4.104   5.802   6.407
10191SOL    HW231473   3.954   5.861   6.381
10192SOL     OW31474   4.370   1.438   5.474
10192SOL    HW131475   4.400   1.487   5.391
10192SOL    HW231476   4.275   1.462   5.494
10193SOL     OW31477   3.726   2.866   2.016
10193SOL    HW131478   3.808   2.898   2.063
10193SOL    HW231479   3.646   2.917   2.049
10194SOL     OW31480   5.244   6.285   5.832
10194SOL    HW131481   5.282   6.375   5.809
10194SOL    HW231482   5.261   6.266   5.929
10195SOL     OW31483   6.650   5.960   0.327
10195SOL    HW131484   6.570   5.923   0.280
10195SOL    HW231485   6.639   6.058   0.341
10196SOL     OW31486   4.363   2.065   3.879
10196SOL    HW131487   4.394   1.970   3.885
10196SOL    HW231488   4.419   2.114   3.812
10197SOL     OW31489   5.522   1.755   4.654
10197SOL    HW131490   5.586   1.756   4.730
10197SOL    HW231491   5.572   1.763   4.567
10198SOL     OW31492   2.635   6.813   2.801
10198SOL    HW131493   2.721   6.809   2.852
10198SOL    HW231494   2.633   6.738   2.735
10199SOL     OW31495   1.310   2.915   0.850
10199SOL    HW131496   1.332   2.954   0.940
10199SOL    HW231497   1.213   2.894   0.846
10200SOL     OW31498   4.830   2.921   6.265
10200SOL    HW131499   4.799   2.897   6.173
10200SOL    HW231500   4.753   2.915   6.328
10201SOL     OW31501   1.227   5.221   0.338
10201SOL    HW131502   1.216   5.305   0.285
10201SOL    HW231503   1.322   5.212   0.367
10202SOL     OW31504   3.014   5.046   0.546
10202SOL    HW131505   3.099   4.994   0.544
10202SOL    HW231506   2.937   4.984   0.554
10203SOL     OW31507   6.857   2.649   2.783
10203SOL    HW131508   6.794   2.715   2.743
10203SOL    HW231509   6.874   2.576   2.718
10204SOL     OW31510   4.036   5.597   6.709
10204SOL    HW131511   4.078   5.523   6.762
10204SOL    HW231512   3.937   5.589   6.714
10205SOL     OW31513   2.424   0.586   1.838
10205SOL    HW131514   2.473   0.561   1.754
10205SOL    HW231515   2.489   0.626   1.903
10206SOL     OW31516   6.799   6.903   6.802
10206SOL    HW131517   6.839   6.811   6.790
10206SOL    HW231518   6.830   6.942   6.888
10207SOL     OW31519   0.658   2.345   0.011
10207SOL    HW131520   0.583   2.349   6.964
10207SOL    HW231521   0.682   2.437   0.040
10208SOL     OW31522   6.216   5.036   4.142
10208SOL    HW131523   6.281   5.072   4.075
10208SOL    HW231524   6.196   4.940   4.122
10209SOL     OW31525   0.034   6.746   6.553
10209SOL    HW131526   0.033   6.654   6.591
10209SOL    HW231527   0.128   6.779   6.546
10210SOL     OW31528   4.538   6.505   1.695
10210SOL    HW131529   4.474   6.452   1.639
10210SOL    HW231530   4.490   6.583   1.736
10211SOL     OW31531   5.036   6.374   4.522
10211SOL    HW131532   5.090   6.434   4.463
10211SOL    HW231533   5.090   6.292   4.545
10212SOL     OW31534   0.556   6.862   5.660
10212SOL    HW131535   0.521   6.955   5.671
10212SOL    HW231536   0.532   6.828   5.569
10213SOL     OW31537   5.684   2.508   1.567
10213SOL    HW131538   5.717   2.426   1.520
10213SOL    HW231539   5.700   2.588   1.509
10214SOL     OW31540   0.129   1.685   1.412
10214SOL    HW131541   0.137   1.785   1.413
10214SOL    HW231542   0.035   1.660   1.387
10215SOL     OW31543   3.761   3.322   4.016
10215SOL    HW131544   3.701   3.281   4.084
10215SOL    HW231545   3.850   3.276   4.018
10216SOL     OW31546   0.038   1.095   1.348
10216SOL    HW131547   0.133   1.098   1.379
10216SOL    HW231548   0.034   1.119   1.251
10217SOL     OW31549   2.457   1.465   3.336
10217SOL    HW131550   2.543   1.458   3.386
10217SOL    HW231551   2.473   1.512   3.249
10218SOL     OW31552   0.748   1.203   1.611
10218SOL    HW131553   0.799   1.255   1.542
10218SOL    HW231554   0.809   1.178   1.686
10219SOL     OW31555   0.155   2.182   2.702
10219SOL    HW131556   0.200   2.127   2.772
10219SOL    HW231557   0.215   2.191   2.622
10220SOL     OW31558   4.510   1.878   1.120
10220SOL    HW131559   4.505   1.837   1.211
10220SOL    HW231560   4.464   1.819   1.054
10221SOL     OW31561   1.972   4.346   4.691
10221SOL    HW131562   1.884   4.305   4.717
10221SOL    HW231563   1.966   4.445   4.698
10222SOL     OW31564   3.062   4.291   5.262
10222SOL    HW131565   3.032   4.387   5.263
10222SOL    HW231566   2.981   4.232   5.261
10223SOL     OW31567   2.662   5.192   1.107
10223SOL    HW131568   2.718   5.255   1.160
10223SOL    HW231569   2.624   5.239   1.028
10224SOL     OW31570   6.264   2.549   5.901
10224SOL    HW131571   6.271   2.559   5.802
10224SOL    HW231572   6.349   2.579   5.944
10225SOL     OW31573   1.651   6.022   5.347
10225SOL    HW131574   1.724   6.019   5.278
10225SOL    HW231575   1.595   6.103   5.333
10226SOL     OW31576   2.123   0.442   6.083
10226SOL    HW131577   2.047   0.463   6.144
10226SOL    HW231578   2.089   0.425   5.991
10227SOL     OW31579   5.342   5.062   0.274
10227SOL    HW131580   5.394   5.031   0.353
10227SOL    HW231581   5.390   5.035   0.190
10228SOL     OW31582   0.515   6.110   1.858
10228SOL    HW131583   0.574   6.031   1.839
10228SOL    HW231584   0.571   6.184   1.897
10229SOL     OW31585   2.003   2.890   4.919
10229SOL    HW131586   1.964   2.825   4.854
10229SOL    HW231587   2.042   2.841   4.997
10230SOL     OW31588   6.346   6.192   3.133
10230SOL    HW131589   6.427   6.184   3.074
10230SOL    HW231590   6.316   6.287   3.136
10231SOL     OW31591   6.496   4.845   5.023
10231SOL    HW131592   6.462   4.809   5.110
10231SOL    HW231593   6.419   4.854   4.959
10232SOL     OW31594   3.315   1.389   3.749
10232SOL    HW131595   3.362   1.462   3.700
10232SOL    HW231596   3.218   1.409   3.755
10233SOL     OW31597   3.718   4.075   5.177
10233SOL    HW131598   3.661   4.132   5.235
10233SOL    HW231599   3.695   4.092   5.081
10234SOL     OW31600   5.325   0.818   0.778
10234SOL    HW131601   5.406   0.778   0.820
10234SOL    HW231602   5.243   0.778   0.818
10235SOL     OW31603   3.287   2.242   1.460
10235SOL    HW131604   3.295   2.188   1.376
10235SOL    HW231605   3.241   2.188   1.530
10236SOL     OW31606   1.608   1.250   1.636
10236SOL    HW131607   1.519   1.205   1.648
10236SOL    HW231608   1.596   1.330   1.576
10237SOL     OW31609   0.156   4.711   6.206
10237SOL    HW131610   0.102   4.796   6.207
10237SOL    HW231611   0.102   4.638   6.165
10238SOL     OW31612   4.027   3.858   2.208
10238SOL    HW131613   4.006   3.942   2.257
10238SOL    HW231614   4.063   3.790   2.272
10239SOL     OW31615   2.452   3.678   5.782
10239SOL    HW131616   2.408   3.609   5.725
10239SOL    HW231617   2.394   3.698   5.862
10240SOL     OW31618   2.062   4.311   2.326
10240SOL    HW131619   2.021   4.388   2.374
10240SOL    HW231620   2.099   4.246   2.392
10241SOL     OW31621   0.233   6.397   3.676
10241SOL    HW131622   0.244   6.440   3.586
10241SOL    HW231623   0.219   6.298   3.664
10242SOL     OW31624   0.398   1.233   1.644
10242SOL    HW131625   0.359   1.239   1.552
10242SOL    HW231626   0.490   1.195   1.638
10243SOL     OW31627   2.520   4.533   2.917
10243SOL    HW131628   2.591   4.569   2.856
10243SOL    HW231629   2.513   4.590   2.998
10244SOL     OW31630   1.446   4.388   1.028
10244SOL    HW131631   1.398   4.301   1.039
10244SOL    HW231632   1.528   4.375   0.972
10245SOL     OW31633   3.862   4.020   1.504
10245SOL    HW131634   3.773   4.008   1.549
10245SOL    HW231635   3.851   4.012   1.405
10246SOL     OW31636   3.396   3.148   3.419
10246SOL    HW131637   3.366   3.079   3.353
10246SOL    HW231638   3.400   3.108   3.510
10247SOL     OW31639   6.945   4.337   6.280
10247SOL    HW131640   7.007   4.373   6.210
10247SOL    HW231641   6.887   4.410   6.314
10248SOL     OW31642   1.649   6.404   2.820
10248SOL    HW131643   1.551   6.424   2.814
10248SOL    HW231644   1.692   6.418   2.731
10249SOL     OW31645   2.385   6.063   6.389
10249SOL    HW131646   2.390   6.059   6.488
10249SOL    HW231647   2.460   6.011   6.349
10250SOL     OW31648   6.407   2.495   1.862
10250SOL    HW131649   6.456   2.529   1.781
10250SOL    HW231650   6.414   2.396   1.866
10251SOL     OW31651   2.210   1.325   4.901
10251SOL    HW131652   2.163   1.243   4.935
10251SOL    HW231653   2.203   1.327   4.801
10252SOL     OW31654   3.947   4.924   5.879
10252SOL    HW131655   3.989   4.911   5.789
10252SOL    HW231656   3.858   4.878   5.881
10253SOL     OW31657   2.452   0.140   0.572
10253SOL    HW131658   2.399   0.055   0.572
10253SOL    HW231659   2.449   0.181   0.663
10254SOL     OW31660   4.970   1.072   5.712
10254SOL    HW131661   5.026   1.073   5.795
10254SOL    HW231662   4.887   1.125   5.727
10255SOL     OW31663   2.484   6.156   1.196
10255SOL    HW131664   2.531   6.180   1.281
10255SOL    HW231665   2.481   6.056   1.187
10256SOL     OW31666   5.030   1.675   1.691
10256SOL    HW131667   5.062   1.600   1.749
10256SOL    HW231668   5.043   1.762   1.739
10257SOL     OW31669   1.808   4.828   4.527
10257SOL    HW131670   1.862   4.770   4.465
10257SOL    HW231671   1.856   4.914   4.543
10258SOL     OW31672   3.253   1.084   3.673
10258SOL    HW131673   3.248   1.104   3.771
10258SOL    HW231674   3.344   1.049   3.652
10259SOL     OW31675   1.243   4.921   3.007
10259SOL    HW131676   1.209   4.998   3.060
10259SOL    HW231677   1.203   4.836   3.042
10260SOL     OW31678   1.869   1.145   3.737
10260SOL    HW131679   1.899   1.065   3.684
10260SOL    HW231680   1.879   1.227   3.681
10261SOL     OW31681   6.721   5.085   2.395
10261SOL    HW131682   6.820   5.072   2.399
10261SOL    HW231683   6.691   5.083   2.299
10262SOL     OW31684   2.809   6.933   5.377
10262SOL    HW131685   2.857   6.988   5.309
10262SOL    HW231686   2.711   6.951   5.372
10263SOL     OW31687   5.482   6.863   6.738
10263SOL    HW131688   5.435   6.897   6.820
10263SOL    HW231689   5.581   6.874   6.750
10264SOL     OW31690   5.989   6.968   6.856
10264SOL    HW131691   6.055   0.020   6.880
10264SOL    HW231692   6.016   6.925   6.770
10265SOL     OW31693   2.591   2.844   1.638
10265SOL    HW131694   2.541   2.931   1.640
10265SOL    HW231695   2.688   2.862   1.622
10266SOL     OW31696   4.117   3.608   4.123
10266SOL    HW131697   4.133   3.573   4.031
10266SOL    HW231698   4.056   3.547   4.173
10267SOL     OW31699   5.796   2.597   6.573
10267SOL    HW131700   5.744   2.548   6.643
10267SOL    HW231701   5.834   2.681   6.613
10268SOL     OW31702   6.090   5.635   2.476
10268SOL    HW131703   6.009   5.694   2.486
10268SOL    HW231704   6.086   5.588   2.388
10269SOL     OW31705   0.051   3.687   0.001
10269SOL    HW131706   0.074   3.604   6.969
10269SOL    HW231707   0.022   3.759   6.955
10270SOL     OW31708   3.838   4.900   2.517
10270SOL    HW131709   3.895   4.882   2.597
10270SOL    HW231710   3.860   4.991   2.481
10271SOL     OW31711   3.365   2.388   6.412
10271SOL    HW131712   3.340   2.471   6.462
10271SOL    HW231713   3.444   2.345   6.455
10272SOL     OW31714   1.263   1.584   5.219
10272SOL    HW131715   1.241   1.622   5.129
10272SOL    HW231716   1.362   1.585   5.233
10273SOL     OW31717   3.290   5.640   2.779
10273SOL    HW131718   3.268   5.595   2.866
10273SOL    HW231719   3.228   5.718   2.765
10274SOL     OW31720   0.807   5.744   5.399
10274SOL    HW131721   0.775   5.836   5.377
10274SOL    HW231722   0.808   5.689   5.316
10275SOL     OW31723   6.990   6.499   2.100
10275SOL    HW131724   0.060   6.490   2.144
10275SOL    HW231725   7.001   6.508   2.002
10276SOL     OW31726   5.200   5.150   5.644
10276SOL    HW131727   5.287   5.199   5.635
10276SOL    HW231728   5.215   5.052   5.632
10277SOL     OW31729   1.450   5.474   3.812
10277SOL    HW131730   1.352   5.485   3.829
10277SOL    HW231731   1.466   5.388   3.764
10278SOL     OW31732   0.668   2.128   4.142
10278SOL    HW131733   0.739   2.148   4.074
10278SOL    HW231734   0.585   2.098   4.096
10279SOL     OW31735   2.148   5.007   4.286
10279SOL    HW131736   2.118   4.936   4.222
10279SOL    HW231737   2.181   4.964   4.370
10280SOL     OW31738   0.036   3.335   0.631
10280SOL    HW131739   0.028   3.238   0.606
10280SOL    HW231740   0.122   3.349   0.681
10281SOL     OW31741   5.719   1.196   2.527
10281SOL    HW131742   5.703   1.243   2.614
10281SOL    HW231743   5.682   1.250   2.452
10282SOL     OW31744   5.165   3.025   4.270
10282SOL    HW131745   5.258   3.006   4.300
10282SOL    HW231746   5.111   2.941   4.272
10283SOL     OW31747   1.101   3.233   0.834
10283SOL    HW131748   1.017   3.181   0.818
10283SOL    HW231749   1.145   3.200   0.918
10284SOL     OW31750   5.417   2.539   4.912
10284SOL    HW131751   5.455   2.560   5.002
10284SOL    HW231752   5.457   2.455   4.877
10285SOL     OW31753   6.099   0.038   2.701
10285SOL    HW131754   6.171   6.992   2.677
10285SOL    HW231755   6.026   7.009   2.750
10286SOL     OW31756   3.398   1.670   3.083
10286SOL    HW131757   3.448   1.748   3.046
10286SOL    HW231758   3.459   1.591   3.091
10287SOL     OW31759   1.969   6.874   1.349
10287SOL    HW131760   2.065   6.885   1.323
10287SOL    HW231761   1.963   6.842   1.443
10288SOL     OW31762   4.863   5.930   3.109
10288SOL    HW131763   4.901   6.020   3.089
10288SOL    HW231764   4.771   5.940   3.147
10289SOL     OW31765   2.361   6.443   0.147
10289SOL    HW131766   2.304   6.409   0.072
10289SOL    HW231767   2.448   6.477   0.110
10290SOL     OW31768   3.294   3.885   2.763
10290SOL    HW131769   3.362   3.957   2.779
10290SOL    HW231770   3.214   3.925   2.718
10291SOL     OW31771   4.503   1.667   2.911
10291SOL    HW131772   4.569   1.596   2.886
10291SOL    HW231773   4.411   1.628   2.914
10292SOL     OW31774   1.612   1.318   5.325
10292SOL    HW131775   1.582   1.223   5.330
10292SOL    HW231776   1.707   1.324   5.355
10293SOL     OW31777   2.240   4.306   2.604
10293SOL    HW131778   2.252   4.225   2.546
10293SOL    HW231779   2.191   4.280   2.687
10294SOL     OW31780   5.627   3.205   2.969
10294SOL    HW131781   5.724   3.215   2.987
10294SOL    HW231782   5.601   3.109   2.977
10295SOL     OW31783   0.161   4.613   5.357
10295SOL    HW131784   0.255   4.636   5.331
10295SOL    HW231785   0.149   4.513   5.354
10296SOL     OW31786   5.279   1.397   6.966
10296SOL    HW131787   5.364   1.344   6.964
10296SOL    HW231788   5.300   1.492   6.986
10297SOL     OW31789   1.751   0.213   6.391
10297SOL    HW131790   1.840   0.254   6.371
10297SOL    HW231791   1.682   0.254   6.331
10298SOL     OW31792   2.763   4.606   1.650
10298SOL    HW131793   2.812   4.608   1.738
10298SOL    HW231794   2.669   4.577   1.666
10299SOL     OW31795   4.994   4.951   2.811
10299SOL    HW131796   4.953   5.042   2.809
10299SOL    HW231797   5.012   4.920   2.718
10300SOL     OW31798   1.341   4.213   2.605
10300SOL    HW131799   1.415   4.255   2.552
10300SOL    HW231800   1.309   4.131   2.558
10301SOL     OW31801   4.980   2.364   4.154
10301SOL    HW131802   4.921   2.333   4.079
10301SOL    HW231803   4.924   2.403   4.226
10302SOL     OW31804   1.879   0.023   4.206
10302SOL    HW131805   1.903   0.016   4.109
10302SOL    HW231806   1.841   0.114   4.224
10303SOL     OW31807   1.929   6.336   3.018
10303SOL    HW131808   1.878   6.417   2.990
10303SOL    HW231809   1.887   6.295   3.099
10304SOL     OW31810   5.852   6.845   1.363
10304SOL    HW131811   5.766   6.827   1.314
10304SOL    HW231812   5.874   6.942   1.358
10305SOL     OW31813   0.926   4.485   6.719
10305SOL    HW131814   0.969   4.428   6.788
10305SOL    HW231815   0.876   4.560   6.764
10306SOL     OW31816   4.787   6.755   6.396
10306SOL    HW131817   4.799   6.665   6.352
10306SOL    HW231818   4.737   6.743   6.481
10307SOL     OW31819   2.284   2.349   5.384
10307SOL    HW131820   2.355   2.413   5.412
10307SOL    HW231821   2.195   2.395   5.384
10308SOL     OW31822   1.927   4.091   3.566
10308SOL    HW131823   1.902   4.187   3.555
10308SOL    HW231824   1.907   4.041   3.481
10309SOL     OW31825   6.783   1.336   5.252
10309SOL    HW131826   6.694   1.303   5.223
10309SOL    HW231827   6.850   1.262   5.248
10310SOL     OW31828   3.380   3.592   0.898
10310SOL    HW131829   3.329   3.580   0.813
10310SOL    HW231830   3.340   3.666   0.951
10311SOL     OW31831   0.088   6.287   0.461
10311SOL    HW131832   0.151   6.364   0.456
10311SOL    HW231833   0.031   6.285   0.378
10312SOL     OW31834   3.745   6.038   2.480
10312SOL    HW131835   3.775   6.018   2.387
10312SOL    HW231836   3.663   6.094   2.478
10313SOL     OW31837   4.560   6.609   1.279
10313SOL    HW131838   4.553   6.523   1.229
10313SOL    HW231839   4.655   6.622   1.308
10314SOL     OW31840   6.482   1.039   2.097
10314SOL    HW131841   6.423   0.987   2.158
10314SOL    HW231842   6.444   1.130   2.083
10315SOL     OW31843   4.785   6.028   5.183
10315SOL    HW131844   4.882   6.006   5.189
10315SOL    HW231845   4.773   6.115   5.136
10316SOL     OW31846   6.341   1.478   4.167
10316SOL    HW131847   6.307   1.573   4.168
10316SOL    HW231848   6.271   1.418   4.130
10317SOL     OW31849   4.612   5.848   4.553
10317SOL    HW131850   4.687   5.900   4.594
10317SOL    HW231851   4.645   5.759   4.522
10318SOL     OW31852   5.049   6.153   6.842
10318SOL    HW131853   4.963   6.117   6.879
10318SOL    HW231854   5.094   6.082   6.788
10319SOL     OW31855   1.248   2.896   5.386
10319SOL    HW131856   1.194   2.979   5.371
10319SOL    HW231857   1.232   2.863   5.479
10320SOL     OW31858   0.487   0.844   2.822
10320SOL    HW131859   0.559   0.797   2.772
10320SOL    HW231860   0.479   0.805   2.914
10321SOL     OW31861   4.129   1.904   1.482
10321SOL    HW131862   4.188   1.977   1.446
10321SOL    HW231863   4.138   1.900   1.581
10322SOL     OW31864   6.533   5.635   5.122
10322SOL    HW131865   6.630   5.613   5.110
10322SOL    HW231866   6.485   5.554   5.157
10323SOL     OW31867   5.929   2.700   5.606
10323SOL    HW131868   6.011   2.752   5.580
10323SOL    HW231869   5.865   2.760   5.655
10324SOL     OW31870   3.346   3.383   2.456
10324SOL    HW131871   3.386   3.449   2.392
10324SOL    HW231872   3.418   3.337   2.507
10325SOL     OW31873   0.208   3.990   2.071
10325SOL    HW131874   0.207   3.894   2.099
10325SOL    HW231875   0.219   4.049   2.151
10326SOL     OW31876   3.633   4.298   0.457
10326SOL    HW131877   3.551   4.351   0.434
10326SOL    HW231878   3.693   4.294   0.378
10327SOL     OW31879   2.548   1.926   1.484
10327SOL    HW131880   2.521   1.956   1.575
10327SOL    HW231881   2.503   1.839   1.463
10328SOL     OW31882   5.745   2.957   0.902
10328SOL    HW131883   5.814   3.019   0.866
10328SOL    HW231884   5.684   2.928   0.828
10329SOL     OW31885   3.847   0.130   3.937
10329SOL    HW131886   3.871   0.067   4.011
10329SOL    HW231887   3.748   0.128   3.922
10330SOL     OW31888   4.799   0.249   2.372
10330SOL    HW131889   4.772   0.176   2.308
10330SOL    HW231890   4.748   0.240   2.457
10331SOL     OW31891   6.983   1.109   5.279
10331SOL    HW131892   6.967   1.019   5.320
10331SOL    HW231893   6.951   1.109   5.184
10332SOL     OW31894   6.275   0.722   0.530
10332SOL    HW131895   6.184   0.705   0.492
10332SOL    HW231896   6.289   0.821   0.542
10333SOL     OW31897   6.451   4.151   4.441
10333SOL    HW131898   6.451   4.057   4.477
10333SOL    HW231899   6.365   4.196   4.466
10334SOL     OW31900   4.042   6.447   3.751
10334SOL    HW131901   4.003   6.447   3.843
10334SOL    HW231902   4.097   6.530   3.738
10335SOL     OW31903   3.028   4.395   6.857
10335SOL    HW131904   3.097   4.415   6.787
10335SOL    HW231905   2.952   4.345   6.815
10336SOL     OW31906   6.851   6.312   2.856
10336SOL    HW131907   6.858   6.218   2.826
10336SOL    HW231908   6.901   6.372   2.793
10337SOL     OW31909   6.914   6.450   5.692
10337SOL    HW131910   6.840   6.406   5.641
10337SOL    HW231911   6.912   6.549   5.675
10338SOL     OW31912   2.040   6.279   2.612
10338SOL    HW131913   2.048   6.235   2.702
10338SOL    HW231914   2.128   6.319   2.588
10339SOL     OW31915   3.646   4.788   0.090
10339SOL    HW131916   3.624   4.741   0.176
10339SOL    HW231917   3.613   4.733   0.014
10340SOL     OW31918   2.062   5.089   1.265
10340SOL    HW131919   2.053   5.186   1.242
10340SOL    HW231920   2.114   5.042   1.194
10341SOL     OW31921   1.930   3.481   1.511
10341SOL    HW131922   1.977   3.490   1.423
10341SOL    HW231923   1.998   3.477   1.584
10342SOL     OW31924   1.096   0.071   5.498
10342SOL    HW131925   1.138   0.133   5.564
10342SOL    HW231926   1.167   0.036   5.436
10343SOL     OW31927   3.432   6.023   6.809
10343SOL    HW131928   3.421   6.066   6.899
10343SOL    HW231929   3.499   5.949   6.816
10344SOL     OW31930   4.518   4.082   1.589
10344SOL    HW131931   4.469   4.120   1.667
10344SOL    HW231932   4.610   4.056   1.617
10345SOL     OW31933   1.498   1.508   0.139
10345SOL    HW131934   1.463   1.453   0.063
10345SOL    HW231935   1.561   1.577   0.105
10346SOL     OW31936   6.458   0.192   1.760
10346SOL    HW131937   6.425   0.151   1.675
10346SOL    HW231938   6.552   0.164   1.777
10347SOL     OW31939   4.897   2.364   2.549
10347SOL    HW131940   4.836   2.319   2.615
10347SOL    HW231941   4.861   2.350   2.457
10348SOL     OW31942   6.404   1.453   0.333
10348SOL    HW131943   6.430   1.357   0.325
10348SOL    HW231944   6.304   1.460   0.327
10349SOL     OW31945   6.865   1.032   1.142
10349SOL    HW131946   6.873   0.937   1.173
10349SOL    HW231947   6.937   1.051   1.076
10350SOL     OW31948   2.084   6.708   5.202
10350SOL    HW131949   2.065   6.770   5.126
10350SOL    HW231950   2.179   6.677   5.197
10351SOL     OW31951   4.466   5.207   6.243
10351SOL    HW131952   4.536   5.262   6.197
10351SOL    HW231953   4.506   5.119   6.270
10352SOL     OW31954   4.274   2.257   6.424
10352SOL    HW131955   4.255   2.336   6.482
10352SOL    HW231956   4.202   2.248   6.354
10353SOL     OW31957   0.353   2.828   5.768
10353SOL    HW131958   0.375   2.737   5.802
10353SOL    HW231959   0.435   2.870   5.730
10354SOL     OW31960   6.113   2.619   1.872
10354SOL    HW131961   6.210   2.597   1.861
10354SOL    HW231962   6.080   2.668   1.791
10355SOL     OW31963   1.686   0.083   2.031
10355SOL    HW131964   1.677   0.120   2.123
10355SOL    HW231965   1.780   0.052   2.017
10356SOL     OW31966   0.058   4.574   5.879
10356SOL    HW131967   0.017   4.664   5.870
10356SOL    HW231968   0.148   4.573   5.835
10357SOL     OW31969   2.915   3.150   6.288
10357SOL    HW131970   2.960   3.063   6.310
10357SOL    HW231971   2.924   3.169   6.190
10358SOL     OW31972   6.549   3.011   3.711
10358SOL    HW131973   6.540   2.994   3.809
10358SOL    HW231974   6.642   2.987   3.682
10359SOL     OW31975   6.614   1.537   1.416
10359SOL    HW131976   6.711   1.547   1.436
10359SOL    HW231977   6.569   1.625   1.427
10360SOL     OW31978   4.097   5.777   2.378
10360SOL    HW131979   4.151   5.771   2.462
10360SOL    HW231980   4.011   5.729   2.390
10361SOL     OW31981   2.735   0.378   3.054
10361SOL    HW131982   2.798   0.313   3.012
10361SOL    HW231983   2.719   0.454   2.991
10362SOL     OW31984   0.723   4.975   3.907
10362SOL    HW131985   0.643   5.030   3.928
10362SOL    HW231986   0.758   4.933   3.990
10363SOL     OW31987   4.475   2.082   0.924
10363SOL    HW131988   4.485   2.025   1.006
10363SOL    HW231989   4.431   2.029   0.852
10364SOL     OW31990   3.942   3.636   2.497
10364SOL    HW131991   3.844   3.618   2.501
10364SOL    HW231992   3.991   3.564   2.547
10365SOL     OW31993   5.085   4.460   5.383
10365SOL    HW131994   5.009   4.480   5.444
10365SOL    HW231995   5.089   4.362   5.366
10366SOL     OW31996   4.878   0.071   3.831
10366SOL    HW131997   4.933   7.015   3.795
10366SOL    HW231998   4.873   0.064   3.931
10367SOL     OW31999   6.948   1.228   1.755
10367SOL    HW132000   6.947   1.290   1.677
10367SOL    HW232001   6.860   1.232   1.802
10368SOL     OW32002   1.905   0.586   2.079
10368SOL    HW132003   1.983   0.598   2.019
10368SOL    HW232004   1.924   0.512   2.144
10369SOL     OW32005   4.233   1.469   5.112
10369SOL    HW132006   4.302   1.496   5.045
10369SOL    HW232007   4.174   1.398   5.072
10370SOL     OW32008   5.559   1.873   5.067
10370SOL    HW132009   5.555   1.834   5.160
10370SOL    HW232010   5.467   1.886   5.032
10371SOL     OW32011   1.843   5.903   4.111
10371SOL    HW132012   1.940   5.881   4.110
10371SOL    HW232013   1.793   5.834   4.057
10372SOL     OW32014   1.652   1.366   0.592
10372SOL    HW132015   1.615   1.321   0.672
10372SOL    HW232016   1.584   1.367   0.519
10373SOL     OW32017   1.904   6.772   4.469
10373SOL    HW132018   1.986   6.783   4.524
10373SOL    HW232019   1.903   6.682   4.426
10374SOL     OW32020   4.123   0.918   2.912
10374SOL    HW132021   4.147   0.885   3.004
10374SOL    HW232022   4.119   0.840   2.849
10375SOL     OW32023   2.946   1.401   6.513
10375SOL    HW132024   2.987   1.481   6.558
10375SOL    HW232025   2.871   1.367   6.569
10376SOL     OW32026   1.362   5.916   3.772
10376SOL    HW132027   1.335   5.827   3.735
10376SOL    HW232028   1.345   5.987   3.703
10377SOL     OW32029   6.759   1.294   3.702
10377SOL    HW132030   6.697   1.252   3.636
10377SOL    HW232031   6.832   1.230   3.726
10378SOL     OW32032   6.006   0.257   5.813
10378SOL    HW132033   6.052   0.179   5.855
10378SOL    HW232034   6.048   0.342   5.846
10379SOL     OW32035   3.197   6.876   4.518
10379SOL    HW132036   3.236   6.802   4.574
10379SOL    HW232037   3.116   6.842   4.470
10380SOL     OW32038   0.802   2.032   4.610
10380SOL    HW132039   0.889   2.079   4.597
10380SOL    HW232040   0.734   2.071   4.548
10381SOL     OW32041   4.411   4.463   0.264
10381SOL    HW132042   4.320   4.442   0.228
10381SOL    HW232043   4.440   4.553   0.232
10382SOL     OW32044   2.043   5.043   0.611
10382SOL    HW132045   1.952   5.003   0.625
10382SOL    HW232046   2.112   4.971   0.616
10383SOL     OW32047   6.616   3.929   0.988
10383SOL    HW132048   6.564   4.012   0.968
10383SOL    HW232049   6.556   3.849   0.981
10384SOL     OW32050   0.516   6.993   0.799
10384SOL    HW132051   0.611   7.004   0.768
10384SOL    HW232052   0.478   6.910   0.759
10385SOL     OW32053   3.263   6.479   5.930
10385SOL    HW132054   3.332   6.437   5.871
10385SOL    HW232055   3.278   6.578   5.932
10386SOL     OW32056   6.539   1.937   5.897
10386SOL    HW132057   6.490   2.011   5.943
10386SOL    HW232058   6.530   1.948   5.798
10387SOL     OW32059   5.071   2.183   2.759
10387SOL    HW132060   5.109   2.252   2.821
10387SOL    HW232061   4.979   2.159   2.788
10388SOL     OW32062   2.111   5.849   2.452
10388SOL    HW132063   2.173   5.835   2.528
10388SOL    HW232064   2.117   5.944   2.420
10389SOL     OW32065   0.346   0.032   1.473
10389SOL    HW132066   0.298   0.117   1.453
10389SOL    HW232067   0.311   6.978   1.413
10390SOL     OW32068   1.966   2.644   1.761
10390SOL    HW132069   1.951   2.548   1.735
10390SOL    HW232070   2.061   2.657   1.789
10391SOL     OW32071   1.260   5.652   4.185
10391SOL    HW132072   1.272   5.639   4.283
10391SOL    HW232073   1.214   5.571   4.147
10392SOL     OW32074   6.691   4.309   0.089
10392SOL    HW132075   6.651   4.285   0.177
10392SOL    HW232076   6.788   4.330   0.102
10393SOL     OW32077   2.106   2.264   2.580
10393SOL    HW132078   2.173   2.228   2.515
10393SOL    HW232079   2.085   2.359   2.557
10394SOL     OW32080   2.289   6.190   4.480
10394SOL    HW132081   2.352   6.267   4.488
10394SOL    HW232082   2.288   6.138   4.566
10395SOL     OW32083   6.946   0.960   3.524
10395SOL    HW132084   6.934   0.914   3.437
10395SOL    HW232085   6.997   0.901   3.587
10396SOL     OW32086   2.358   0.416   4.300
10396SOL    HW132087   2.316   0.452   4.217
10396SOL    HW232088   2.400   0.491   4.351
10397SOL     OW32089   3.302   1.798   3.634
10397SOL    HW132090   3.318   1.893   3.663
10397SOL    HW232091   3.211   1.791   3.593
10398SOL     OW32092   5.629   2.184   0.538
10398SOL    HW132093   5.640   2.246   0.616
10398SOL    HW232094   5.636   2.089   0.570
10399SOL     OW32095   4.153   1.880   4.603
10399SOL    HW132096   4.218   1.808   4.581
10399SOL    HW232097   4.133   1.932   4.520
10400SOL     OW32098   3.786   5.807   1.015
10400SOL    HW132099   3.738   5.812   0.927
10400SOL    HW232100   3.720   5.790   1.088
10401SOL     OW32101   0.047   0.006   2.703
10401SOL    HW132102   0.028   0.077   2.771
10401SOL    HW232103   0.117   6.963   2.738
10402SOL     OW32104   0.175   2.641   5.652
10402SOL    HW132105   0.176   2.644   5.552
10402SOL    HW232106   0.242   2.706   5.687
10403SOL     OW32107   5.276   1.444   2.788
10403SOL    HW132108   5.364   1.451   2.836
10403SOL    HW232109   5.293   1.412   2.694
10404SOL     OW32110   0.148   6.651   4.054
10404SOL    HW132111   0.143   6.662   3.955
10404SOL    HW232112   0.140   6.741   4.098
10405SOL     OW32113   1.386   5.391   4.929
10405SOL    HW132114   1.441   5.392   4.846
10405SOL    HW232115   1.364   5.484   4.956
10406SOL     OW32116   2.093   3.382   4.966
10406SOL    HW132117   2.106   3.283   4.959
10406SOL    HW232118   2.125   3.413   5.056
10407SOL     OW32119   1.988   0.519   6.682
10407SOL    HW132120   2.031   0.587   6.622
10407SOL    HW232121   1.907   0.558   6.724
10408SOL     OW32122   3.567   6.450   1.989
10408SOL    HW132123   3.590   6.546   2.001
10408SOL    HW232124   3.643   6.403   1.945
10409SOL     OW32125   0.291   3.787   0.815
10409SOL    HW132126   0.261   3.746   0.901
10409SOL    HW232127   0.348   3.722   0.765
10410SOL     OW32128   5.265   1.853   1.329
10410SOL    HW132129   5.230   1.838   1.237
10410SOL    HW232130   5.189   1.874   1.391
10411SOL     OW32131   3.886   5.327   4.686
10411SOL    HW132132   3.898   5.404   4.624
10411SOL    HW232133   3.895   5.358   4.780
10412SOL     OW32134   0.574   1.107   0.655
10412SOL    HW132135   0.583   1.205   0.640
10412SOL    HW232136   0.478   1.084   0.673
10413SOL     OW32137   0.147   2.010   1.037
10413SOL    HW132138   0.158   2.039   0.942
10413SOL    HW232139   0.231   1.965   1.068
10414SOL     OW32140   4.242   6.528   6.020
10414SOL    HW132141   4.329   6.572   6.039
10414SOL    HW232142   4.211   6.553   5.928
10415SOL     OW32143   2.373   4.231   4.106
10415SOL    HW132144   2.361   4.222   4.007
10415SOL    HW232145   2.334   4.151   4.151
10416SOL     OW32146   6.050   0.771   5.339
10416SOL    HW132147   6.039   0.765   5.438
10416SOL    HW232148   6.058   0.867   5.312
10417SOL     OW32149   4.630   4.273   4.337
10417SOL    HW132150   4.668   4.335   4.406
10417SOL    HW232151   4.585   4.326   4.265
10418SOL     OW32152   6.114   3.997   5.613
10418SOL    HW132153   6.198   3.984   5.561
10418SOL    HW232154   6.125   3.954   5.703
10419SOL     OW32155   3.183   0.491   5.421
10419SOL    HW132156   3.084   0.497   5.417
10419SOL    HW232157   3.218   0.464   5.331
10420SOL     OW32158   6.889   3.443   3.806
10420SOL    HW132159   6.824   3.517   3.791
10420SOL    HW232160   6.845   3.355   3.784
10421SOL     OW32161   1.627   3.386   4.658
10421SOL    HW132162   1.630   3.396   4.758
10421SOL    HW232163   1.704   3.330   4.628
10422SOL     OW32164   6.485   3.563   5.567
10422SOL    HW132165   6.412   3.610   5.617
10422SOL    HW232166   6.541   3.512   5.632
10423SOL     OW32167   4.451   4.710   5.177
10423SOL    HW132168   4.359   4.701   5.213
10423SOL    HW232169   4.447   4.724   5.078
10424SOL     OW32170   4.114   2.431   0.117
10424SOL    HW132171   4.146   2.525   0.106
10424SOL    HW232172   4.016   2.427   0.098
10425SOL     OW32173   0.643   5.874   1.748
10425SOL    HW132174   0.625   5.878   1.650
10425SOL    HW232175   0.737   5.842   1.763
10426SOL     OW32176   5.359   3.576   5.391
10426SOL    HW132177   5.322   3.617   5.474
10426SOL    HW232178   5.361   3.477   5.400
10427SOL     OW32179   4.928   6.893   6.822
10427SOL    HW132180   5.028   6.896   6.825
10427SOL    HW232181   4.894   6.835   6.895
10428SOL     OW32182   2.435   1.912   4.541
10428SOL    HW132183   2.443   1.942   4.637
10428SOL    HW232184   2.509   1.953   4.488
10429SOL     OW32185   0.897   3.810   3.125
10429SOL    HW132186   0.970   3.852   3.178
10429SOL    HW232187   0.914   3.825   3.027
10430SOL     OW32188   4.242   6.343   4.852
10430SOL    HW132189   4.188   6.424   4.833
10430SOL    HW232190   4.313   6.365   4.918
10431SOL     OW32191   2.893   0.905   3.908
10431SOL    HW132192   2.919   0.869   3.998
10431SOL    HW232193   2.852   0.833   3.854
10432SOL     OW32194   0.328   1.779   5.489
10432SOL    HW132195   0.231   1.801   5.504
10432SOL    HW232196   0.344   1.770   5.390
10433SOL     OW32197   0.099   6.266   2.622
10433SOL    HW132198   0.063   6.343   2.569
10433SOL    HW232199   0.075   6.181   2.576
10434SOL     OW32200   4.582   6.449   4.845
10434SOL    HW132201   4.566   6.356   4.879
10434SOL    HW232202   4.553   6.456   4.750
10435SOL     OW32203   1.955   2.016   6.187
10435SOL    HW132204   1.971   1.947   6.116
10435SOL    HW232205   1.981   2.106   6.153
10436SOL     OW32206   6.531   3.737   3.974
10436SOL    HW132207   6.534   3.803   4.050
10436SOL    HW232208   6.448   3.752   3.921
10437SOL     OW32209   5.953   4.780   5.030
10437SOL    HW132210   6.040   4.827   5.042
10437SOL    HW232211   5.880   4.847   5.022
10438SOL     OW32212   0.138   6.067   5.852
10438SOL    HW132213   0.215   6.086   5.790
10438SOL    HW232214   0.170   6.076   5.947
10439SOL     OW32215   5.789   1.535   5.046
10439SOL    HW132216   5.827   1.468   4.981
10439SOL    HW232217   5.738   1.605   4.996
10440SOL     OW32218   6.889   7.001   0.016
10440SOL    HW132219   6.954   6.940   0.061
10440SOL    HW232220   6.819   0.012   0.081
10441SOL     OW32221   2.780   1.314   1.141
10441SOL    HW132222   2.773   1.363   1.227
10441SOL    HW232223   2.814   1.375   1.070
10442SOL     OW32224   4.271   0.273   4.864
10442SOL    HW132225   4.300   0.305   4.774
10442SOL    HW232226   4.201   0.202   4.853
10443SOL     OW32227   6.304   2.730   3.241
10443SOL    HW132228   6.272   2.821   3.267
10443SOL    HW232229   6.280   2.712   3.146
10444SOL     OW32230   3.689   5.269   2.276
10444SOL    HW132231   3.717   5.332   2.348
10444SOL    HW232232   3.649   5.187   2.317
10445SOL     OW32233   0.364   3.950   2.776
10445SOL    HW132234   0.401   3.859   2.797
10445SOL    HW232235   0.384   4.012   2.851
10446SOL     OW32236   2.055   3.734   6.364
10446SOL    HW132237   2.132   3.698   6.311
10446SOL    HW232238   2.037   3.673   6.441
10447SOL     OW32239   6.760   0.288   2.335
10447SOL    HW132240   6.856   0.299   2.308
10447SOL    HW232241   6.739   0.352   2.409
10448SOL     OW32242   3.294   0.271   2.784
10448SOL    HW132243   3.215   0.272   2.845
10448SOL    HW232244   3.266   0.304   2.693
10449SOL     OW32245   2.667   5.833   6.581
10449SOL    HW132246   2.701   5.741   6.601
10449SOL    HW232247   2.573   5.827   6.548
10450SOL     OW32248   6.794   1.178   6.522
10450SOL    HW132249   6.794   1.180   6.422
10450SOL    HW232250   6.728   1.245   6.557
10451SOL     OW32251   3.177   6.963   2.960
10451SOL    HW132252   3.182   6.941   3.057
10451SOL    HW232253   3.253   6.919   2.911
10452SOL     OW32254   6.794   3.452   2.633
10452SOL    HW132255   6.773   3.495   2.546
10452SOL    HW232256   6.713   3.454   2.692
10453SOL     OW32257   4.711   6.337   2.060
10453SOL    HW132258   4.762   6.355   1.975
10453SOL    HW232259   4.708   6.238   2.076
10454SOL     OW32260   5.294   1.291   0.964
10454SOL    HW132261   5.351   1.344   1.027
10454SOL    HW232262   5.226   1.239   1.015
10455SOL     OW32263   0.349   5.939   4.017
10455SOL    HW132264   0.441   5.917   4.051
10455SOL    HW232265   0.347   5.925   3.918
10456SOL     OW32266   0.613   5.924   1.163
10456SOL    HW132267   0.530   5.956   1.209
10456SOL    HW232268   0.691   5.977   1.195
10457SOL     OW32269   4.010   2.540   0.472
10457SOL    HW132270   3.989   2.581   0.561
10457SOL    HW232271   4.108   2.547   0.455
10458SOL     OW32272   6.345   6.831   6.944
10458SOL    HW132273   6.270   6.886   6.981
10458SOL    HW232274   6.312   6.782   6.863
10459SOL     OW32275   4.665   5.420   1.487
10459SOL    HW132276   4.631   5.450   1.397
10459SOL    HW232277   4.654   5.321   1.495
10460SOL     OW32278   0.740   3.900   2.210
10460SOL    HW132279   0.726   3.865   2.303
10460SOL    HW232280   0.662   3.955   2.183
10461SOL     OW32281   6.100   4.873   5.347
10461SOL    HW132282   6.175   4.927   5.384
10461SOL    HW232283   6.131   4.779   5.332
10462SOL     OW32284   5.959   2.407   2.817
10462SOL    HW132285   5.893   2.473   2.853
10462SOL    HW232286   6.001   2.445   2.734
10463SOL     OW32287   4.431   2.106   5.923
10463SOL    HW132288   4.398   2.080   6.014
10463SOL    HW232289   4.526   2.134   5.929
10464SOL     OW32290   5.886   6.554   1.933
10464SOL    HW132291   5.948   6.476   1.923
10464SOL    HW232292   5.897   6.615   1.855
10465SOL     OW32293   4.778   5.836   1.460
10465SOL    HW132294   4.855   5.869   1.406
10465SOL    HW232295   4.738   5.913   1.510
10466SOL     OW32296   4.939   4.729   5.549
10466SOL    HW132297   4.957   4.764   5.641
10466SOL    HW232298   4.970   4.795   5.482
10467SOL     OW32299   1.696   2.270   0.625
10467SOL    HW132300   1.642   2.354   0.621
10467SOL    HW232301   1.754   2.271   0.707
10468SOL     OW32302   4.312   4.873   4.124
10468SOL    HW132303   4.212   4.874   4.134
10468SOL    HW232304   4.353   4.827   4.202
10469SOL     OW32305   4.235   4.027   5.734
10469SOL    HW132306   4.278   4.004   5.821
10469SOL    HW232307   4.304   4.026   5.661
10470SOL     OW32308   2.292   1.277   3.238
10470SOL    HW132309   2.356   1.217   3.191
10470SOL    HW232310   2.341   1.338   3.299
10471SOL     OW32311   2.261   6.928   0.555
10471SOL    HW132312   2.220   6.905   0.643
10471SOL    HW232313   2.321   6.854   0.525
10472SOL     OW32314   2.942   5.772   0.319
10472SOL    HW132315   3.036   5.772   0.286
10472SOL    HW232316   2.886   5.829   0.258
10473SOL     OW32317   5.859   6.755   5.881
10473SOL    HW132318   5.909   6.669   5.884
10473SOL    HW232319   5.891   6.816   5.953
10474SOL     OW32320   4.588   0.951   4.199
10474SOL    HW132321   4.565   1.029   4.142
10474SOL    HW232322   4.669   0.905   4.162
10475SOL     OW32323   3.096   6.670   1.796
10475SOL    HW132324   3.174   6.625   1.837
10475SOL    HW232325   3.076   6.755   1.845
10476SOL     OW32326   5.363   6.529   5.783
10476SOL    HW132327   5.371   6.576   5.695
10476SOL    HW232328   5.425   6.571   5.849
10477SOL     OW32329   7.017   0.867   5.094
10477SOL    HW132330   0.004   0.858   4.995
10477SOL    HW232331   0.088   0.892   5.131
10478SOL     OW32332   6.646   6.799   0.206
10478SOL    HW132333   6.662   6.897   0.204
10478SOL    HW232334   6.680   6.760   0.291
10479SOL     OW32335   6.933   1.583   1.805
10479SOL    HW132336   6.998   1.542   1.869
10479SOL    HW232337   6.850   1.528   1.801
10480SOL     OW32338   1.076   1.065   2.061
10480SOL    HW132339   1.078   0.990   2.128
10480SOL    HW232340   0.982   1.083   2.034
10481SOL     OW32341   2.074   6.276   3.647
10481SOL    HW132342   1.992   6.315   3.688
10481SOL    HW232343   2.057   6.180   3.622
10482SOL     OW32344   6.467   5.334   4.369
10482SOL    HW132345   6.516   5.326   4.456
10482SOL    HW232346   6.418   5.421   4.366
10483SOL     OW32347   5.245   5.146   0.604
10483SOL    HW132348   5.188   5.187   0.533
10483SOL    HW232349   5.186   5.102   0.672
10484SOL     OW32350   4.989   1.634   2.258
10484SOL    HW132351   5.072   1.655   2.207
10484SOL    HW232352   5.009   1.563   2.326
10485SOL     OW32353   3.416   4.450   0.416
10485SOL    HW132354   3.365   4.477   0.333
10485SOL    HW232355   3.351   4.422   0.487
10486SOL     OW32356   0.431   0.432   0.359
10486SOL    HW132357   0.449   0.530   0.346
10486SOL    HW232358   0.397   0.416   0.451
10487SOL     OW32359   4.813   0.280   1.736
10487SOL    HW132360   4.736   0.277   1.674
10487SOL    HW232361   4.784   0.320   1.823
10488SOL     OW32362   3.239   1.607   5.335
10488SOL    HW132363   3.210   1.699   5.311
10488SOL    HW232364   3.299   1.611   5.415
10489SOL     OW32365   0.787   6.717   5.129
10489SOL    HW132366   0.837   6.800   5.156
10489SOL    HW232367   0.783   6.713   5.029
10490SOL     OW32368   5.809   1.626   1.116
10490SOL    HW132369   5.858   1.542   1.094
10490SOL    HW232370   5.805   1.684   1.035
10491SOL     OW32371   1.920   2.976   0.172
10491SOL    HW132372   1.829   3.016   0.179
10491SOL    HW232373   1.927   2.923   0.088
10492SOL     OW32374   5.852   4.143   5.611
10492SOL    HW132375   5.946   4.144   5.647
10492SOL    HW232376   5.842   4.066   5.548
10493SOL     OW32377   3.481   0.519   1.648
10493SOL    HW132378   3.406   0.574   1.611
10493SOL    HW232379   3.548   0.580   1.691
10494SOL     OW32380   5.080   3.613   6.004
10494SOL    HW132381   5.059   3.515   6.015
10494SOL    HW232382   5.005   3.657   5.955
10495SOL     OW32383   2.465   6.910   0.043
10495SOL    HW132384   2.501   6.886   6.972
10495SOL    HW232385   2.457   7.009   0.051
10496SOL     OW32386   0.313   4.307   6.566
10496SOL    HW132387   0.225   4.260   6.559
10496SOL    HW232388   0.355   4.285   6.654
10497SOL     OW32389   2.238   6.983   2.201
10497SOL    HW132390   2.257   6.897   2.250
10497SOL    HW232391   2.278   6.978   2.110
10498SOL     OW32392   3.173   5.821   1.301
10498SOL    HW132393   3.117   5.840   1.382
10498SOL    HW232394   3.116   5.787   1.227
10499SOL     OW32395   3.395   6.829   2.807
10499SOL    HW132396   3.326   6.792   2.744
10499SOL    HW232397   3.446   6.753   2.849
10500SOL     OW32398   6.976   1.517   6.017
10500SOL    HW132399   6.970   1.429   5.970
10500SOL    HW232400   0.003   1.583   5.957
10501SOL     OW32401   2.278   5.898   2.972
10501SOL    HW132402   2.324   5.817   3.010
10501SOL    HW232403   2.344   5.955   2.923
10502SOL     OW32404   2.723   0.181   0.752
10502SOL    HW132405   2.654   0.210   0.818
10502SOL    HW232406   2.778   0.260   0.724
10503SOL     OW32407   3.965   2.967   0.683
10503SOL    HW132408   3.949   2.885   0.738
10503SOL    HW232409   4.062   2.989   0.684
10504SOL     OW32410   1.843   1.670   6.870
10504SOL    HW132411   1.755   1.688   6.914
10504SOL    HW232412   1.836   1.691   6.772
10505SOL     OW32413   5.212   6.322   0.384
10505SOL    HW132414   5.222   6.333   0.483
10505SOL    HW232415   5.148   6.390   0.349
10506SOL     OW32416   0.029   5.225   0.335
10506SOL    HW132417   6.997   5.289   0.393
10506SOL    HW232418   0.010   5.245   0.239
10507SOL     OW32419   1.851   0.250   0.184
10507SOL    HW132420   1.777   0.192   0.219
10507SOL    HW232421   1.836   0.267   0.086
10508SOL     OW32422   6.193   6.713   4.698
10508SOL    HW132423   6.281   6.709   4.745
10508SOL    HW232424   6.208   6.713   4.599
10509SOL     OW32425   1.125   5.986   4.510
10509SOL    HW132426   1.222   5.964   4.501
10509SOL    HW232427   1.109   6.081   4.480
10510SOL     OW32428   4.919   5.939   6.255
10510SOL    HW132429   4.901   5.912   6.160
10510SOL    HW232430   5.003   5.896   6.286
10511SOL     OW32431   4.362   1.791   1.624
10511SOL    HW132432   4.421   1.845   1.684
10511SOL    HW232433   4.390   1.804   1.529
10512SOL     OW32434   3.966   0.198   5.638
10512SOL    HW132435   4.044   0.243   5.594
10512SOL    HW232436   3.942   0.116   5.588
10513SOL     OW32437   6.393   2.917   4.328
10513SOL    HW132438   6.305   2.963   4.312
10513SOL    HW232439   6.392   2.873   4.417
10514SOL     OW32440   6.729   3.822   0.191
10514SOL    HW132441   6.799   3.879   0.147
10514SOL    HW232442   6.753   3.807   0.287
10515SOL     OW32443   0.544   3.418   2.940
10515SOL    HW132444   0.642   3.435   2.940
10515SOL    HW232445   0.496   3.498   2.975
10516SOL     OW32446   3.812   1.057   0.666
10516SOL    HW132447   3.726   1.081   0.622
10516SOL    HW232448   3.802   0.970   0.714
10517SOL     OW32449   0.778   2.757   2.469
10517SOL    HW132450   0.702   2.793   2.523
10517SOL    HW232451   0.748   2.676   2.418
10518SOL     OW32452   1.225   5.195   6.670
10518SOL    HW132453   1.220   5.295   6.673
10518SOL    HW232454   1.237   5.164   6.576
10519SOL     OW32455   2.018   3.546   6.557
10519SOL    HW132456   2.097   3.535   6.618
10519SOL    HW232457   1.938   3.500   6.597
10520SOL     OW32458   1.168   2.819   6.807
10520SOL    HW132459   1.156   2.720   6.797
10520SOL    HW232460   1.179   2.861   6.717
10521SOL     OW32461   5.971   6.079   2.159
10521SOL    HW132462   5.879   6.053   2.186
10521SOL    HW232463   5.983   6.178   2.169
10522SOL     OW32464   6.453   0.520   6.136
10522SOL    HW132465   6.432   0.616   6.121
10522SOL    HW232466   6.397   0.485   6.212
10523SOL     OW32467   0.408   4.910   3.755
10523SOL    HW132468   0.415   5.003   3.720
10523SOL    HW232469   0.435   4.908   3.851
10524SOL     OW32470   1.871   0.542   4.657
10524SOL    HW132471   1.916   0.466   4.611
10524SOL    HW232472   1.927   0.625   4.648
10525SOL     OW32473   3.350   6.722   6.180
10525SOL    HW132474   3.307   6.697   6.267
10525SOL    HW232475   3.448   6.731   6.192
10526SOL     OW32476   0.933   6.735   3.578
10526SOL    HW132477   0.931   6.653   3.634
10526SOL    HW232478   0.860   6.797   3.606
10527SOL     OW32479   6.830   1.584   4.749
10527SOL    HW132480   6.836   1.678   4.783
10527SOL    HW232481   6.923   1.549   4.735
10528SOL     OW32482   2.049   3.590   5.931
10528SOL    HW132483   1.978   3.622   5.993
10528SOL    HW232484   2.015   3.510   5.880
10529SOL     OW32485   2.435   5.798   3.822
10529SOL    HW132486   2.395   5.729   3.762
10529SOL    HW232487   2.535   5.791   3.819
10530SOL     OW32488   2.219   0.481   6.353
10530SOL    HW132489   2.305   0.455   6.397
10530SOL    HW232490   2.228   0.470   6.254
10531SOL     OW32491   1.448   2.887   3.588
10531SOL    HW132492   1.397   2.974   3.585
10531SOL    HW232493   1.517   2.892   3.660
10532SOL     OW32494   1.425   4.767   5.992
10532SOL    HW132495   1.499   4.747   5.927
10532SOL    HW232496   1.373   4.845   5.958
10533SOL     OW32497   2.508   1.181   4.984
10533SOL    HW132498   2.419   1.223   4.962
10533SOL    HW232499   2.580   1.230   4.936
10534SOL     OW32500   6.153   5.830   1.494
10534SOL    HW132501   6.225   5.865   1.555
10534SOL    HW232502   6.163   5.731   1.485
10535SOL     OW32503   0.825   2.108   1.405
10535SOL    HW132504   0.918   2.141   1.388
10535SOL    HW232505   0.767   2.130   1.327
10536SOL     OW32506   3.925   0.634   2.961
10536SOL    HW132507   3.901   0.647   3.057
10536SOL    HW232508   3.908   0.719   2.911
10537SOL     OW32509   3.927   5.155   4.431
10537SOL    HW132510   3.870   5.195   4.359
10537SOL    HW232511   3.910   5.202   4.517
10538SOL     OW32512   5.038   1.851   0.295
10538SOL    HW132513   5.017   1.804   0.209
10538SOL    HW232514   5.050   1.949   0.277
10539SOL     OW32515   0.058   3.867   0.227
10539SOL    HW132516   0.068   3.813   0.143
10539SOL    HW232517   7.008   3.938   0.212
10540SOL     OW32518   1.516   3.089   4.973
10540SOL    HW132519   1.444   3.022   4.958
10540SOL    HW232520   1.494   3.174   4.925
10541SOL     OW32521   3.855   4.016   2.362
10541SOL    HW132522   3.823   3.979   2.449
10541SOL    HW232523   3.777   4.051   2.310
10542SOL     OW32524   6.705   0.444   5.455
10542SOL    HW132525   6.730   0.438   5.552
10542SOL    HW232526   6.607   0.424   5.445
10543SOL     OW32527   0.300   1.013   5.439
10543SOL    HW132528   0.307   0.957   5.521
10543SOL    HW232529   0.215   1.066   5.442
10544SOL     OW32530   2.149   6.416   2.233
10544SOL    HW132531   2.245   6.429   2.260
10544SOL    HW232532   2.127   6.477   2.158
10545SOL     OW32533   5.745   0.975   2.716
10545SOL    HW132534   5.739   1.054   2.655
10545SOL    HW232535   5.798   0.903   2.672
10546SOL     OW32536   1.567   0.813   6.979
10546SOL    HW132537   1.570   0.910   6.958
10546SOL    HW232538   1.477   0.789   7.016
10547SOL     OW32539   5.959   2.871   2.218
10547SOL    HW132540   6.049   2.897   2.185
10547SOL    HW232541   5.893   2.943   2.196
10548SOL     OW32542   5.226   4.497   4.475
10548SOL    HW132543   5.159   4.495   4.401
10548SOL    HW232544   5.180   4.482   4.562
10549SOL     OW32545   6.714   6.944   1.978
10549SOL    HW132546   6.680   6.940   2.072
10549SOL    HW232547   6.645   6.904   1.916
10550SOL     OW32548   4.278   6.121   4.371
10550SOL    HW132549   4.312   6.069   4.293
10550SOL    HW232550   4.341   6.111   4.448
10551SOL     OW32551   1.476   2.634   6.502
10551SOL    HW132552   1.460   2.602   6.409
10551SOL    HW232553   1.483   2.556   6.564
10552SOL     OW32554   3.166   1.248   6.417
10552SOL    HW132555   3.080   1.296   6.437
10552SOL    HW232556   3.199   1.276   6.327
10553SOL     OW32557   0.963   4.979   1.303
10553SOL    HW132558   0.961   5.072   1.266
10553SOL    HW232559   0.936   4.982   1.400
10554SOL     OW32560   5.590   5.277   0.073
10554SOL    HW132561   5.682   5.307   0.099
10554SOL    HW232562   5.596   5.186   0.031
10555SOL     OW32563   1.869   3.717   0.634
10555SOL    HW132564   1.963   3.750   0.627
10555SOL    HW232565   1.832   3.699   0.542
10556SOL     OW32566   2.247   2.049   5.318
10556SOL    HW132567   2.300   1.984   5.374
10556SOL    HW232568   2.262   2.142   5.352
10557SOL     OW32569   2.833   2.251   3.173
10557SOL    HW132570   2.751   2.307   3.161
10557SOL    HW232571   2.808   2.154   3.170
10558SOL     OW32572   3.887   0.779   3.748
10558SOL    HW132573   3.860   0.746   3.839
10558SOL    HW232574   3.863   0.876   3.739
10559SOL     OW32575   5.096   0.346   1.198
10559SOL    HW132576   5.180   0.399   1.211
10559SOL    HW232577   5.094   0.309   1.105
10560SOL     OW32578   3.630   6.123   3.688
10560SOL    HW132579   3.647   6.218   3.662
10560SOL    HW232580   3.692   6.098   3.763
10561SOL     OW32581   3.413   4.564   0.813
10561SOL    HW132582   3.509   4.591   0.821
10561SOL    HW232583   3.354   4.641   0.838
10562SOL     OW32584   4.600   5.770   0.257
10562SOL    HW132585   4.589   5.862   0.219
10562SOL    HW232586   4.626   5.707   0.184
10563SOL     OW32587   0.522   1.321   3.700
10563SOL    HW132588   0.531   1.254   3.773
10563SOL    HW232589   0.578   1.401   3.721
10564SOL     OW32590   5.589   6.608   1.968
10564SOL    HW132591   5.688   6.620   1.976
10564SOL    HW232592   5.569   6.512   1.948
10565SOL     OW32593   6.679   0.681   6.382
10565SOL    HW132594   6.723   0.723   6.462
10565SOL    HW232595   6.734   0.602   6.352
10566SOL     OW32596   3.851   2.430   0.103
10566SOL    HW132597   3.786   2.506   0.100
10566SOL    HW232598   3.840   2.379   0.189
10567SOL     OW32599   2.906   1.794   3.952
10567SOL    HW132600   2.978   1.746   4.002
10567SOL    HW232601   2.872   1.870   4.007
10568SOL     OW32602   6.223   2.295   1.120
10568SOL    HW132603   6.306   2.267   1.073
10568SOL    HW232604   6.183   2.374   1.074
10569SOL     OW32605   5.551   2.117   1.793
10569SOL    HW132606   5.623   2.062   1.837
10569SOL    HW232607   5.463   2.098   1.838
10570SOL     OW32608   1.849   4.844   3.325
10570SOL    HW132609   1.879   4.909   3.395
10570SOL    HW232610   1.751   4.855   3.309
10571SOL     OW32611   6.904   5.231   5.328
10571SOL    HW132612   6.894   5.243   5.230
10571SOL    HW232613   6.957   5.307   5.366
10572SOL     OW32614   0.075   3.813   3.483
10572SOL    HW132615   0.066   3.742   3.553
10572SOL    HW232616   7.005   3.831   3.442
10573SOL     OW32617   4.543   7.018   5.188
10573SOL    HW132618   4.516   0.082   5.236
10573SOL    HW232619   4.469   6.988   5.128
10574SOL     OW32620   1.472   1.519   3.827
10574SOL    HW132621   1.503   1.425   3.840
10574SOL    HW232622   1.537   1.582   3.869
10575SOL     OW32623   0.005   1.354   2.734
10575SOL    HW132624   6.929   1.344   2.762
10575SOL    HW232625   0.054   1.268   2.750
10576SOL     OW32626   0.239   5.719   5.125
10576SOL    HW132627   0.224   5.648   5.193
10576SOL    HW232628   0.328   5.762   5.142
10577SOL     OW32629   1.562   2.652   0.413
10577SOL    HW132630   1.614   2.708   0.477
10577SOL    HW232631   1.499   2.711   0.362
10578SOL     OW32632   5.570   1.101   2.923
10578SOL    HW132633   5.669   1.101   2.939
10578SOL    HW232634   5.552   1.109   2.825
10579SOL     OW32635   4.441   2.219   1.219
10579SOL    HW132636   4.506   2.161   1.170
10579SOL    HW232637   4.457   2.315   1.194
10580SOL     OW32638   6.769   0.422   0.096
10580SOL    HW132639   6.709   0.458   0.025
10580SOL    HW232640   6.852   0.385   0.054
10581SOL     OW32641   0.095   0.343   3.139
10581SOL    HW132642   0.070   0.409   3.209
10581SOL    HW232643   0.024   0.273   3.132
10582SOL     OW32644   5.267   4.963   7.000
10582SOL    HW132645   5.246   4.890   6.936
10582SOL    HW232646   5.363   4.988   6.993
10583SOL     OW32647   4.001   1.610   5.202
10583SOL    HW132648   4.064   1.545   5.161
10583SOL    HW232649   4.019   1.617   5.300
10584SOL     OW32650   6.552   6.265   1.351
10584SOL    HW132651   6.506   6.242   1.437
10584SOL    HW232652   6.484   6.297   1.285
10585SOL     OW32653   2.165   3.157   5.961
10585SOL    HW132654   2.127   3.100   6.033
10585SOL    HW232655   2.222   3.101   5.901
10586SOL     OW32656   0.176   4.779   4.560
10586SOL    HW132657   0.210   4.719   4.487
10586SOL    HW232658   0.231   4.862   4.563
10587SOL     OW32659   5.865   3.924   6.891
10587SOL    HW132660   5.921   3.871   6.954
10587SOL    HW232661   5.768   3.905   6.908
10588SOL     OW32662   0.189   3.784   3.233
10588SOL    HW132663   0.199   3.694   3.191
10588SOL    HW232664   0.139   3.776   3.319
10589SOL     OW32665   6.029   1.099   4.529
10589SOL    HW132666   5.971   1.027   4.567
10589SOL    HW232667   6.068   1.153   4.604
10590SOL     OW32668   1.376   0.076   1.690
10590SOL    HW132669   1.391   0.116   1.780
10590SOL    HW232670   1.306   0.004   1.697
10591SOL     OW32671   1.145   1.700   6.383
10591SOL    HW132672   1.121   1.793   6.410
10591SOL    HW232673   1.244   1.687   6.392
10592SOL     OW32674   5.948   3.496   1.297
10592SOL    HW132675   5.963   3.460   1.389
10592SOL    HW232676   5.972   3.427   1.230
10593SOL     OW32677   2.221   5.298   0.595
10593SOL    HW132678   2.141   5.241   0.615
10593SOL    HW232679   2.217   5.327   0.499
10594SOL     OW32680   5.035   0.481   2.448
10594SOL    HW132681   5.042   0.406   2.514
10594SOL    HW232682   5.096   0.464   2.371
10595SOL     OW32683   3.674   6.915   5.333
10595SOL    HW132684   3.724   6.832   5.357
10595SOL    HW232685   3.738   6.992   5.328
10596SOL     OW32686   4.636   0.567   0.110
10596SOL    HW132687   4.559   0.520   0.154
10596SOL    HW232688   4.693   0.499   0.063
10597SOL     OW32689   3.677   1.434   4.807
10597SOL    HW132690   3.604   1.401   4.747
10597SOL    HW232691   3.642   1.510   4.862
10598SOL     OW32692   2.572   2.421   0.034
10598SOL    HW132693   2.566   2.361   0.113
10598SOL    HW232694   2.664   2.460   0.028
10599SOL     OW32695   4.570   2.628   6.549
10599SOL    HW132696   4.659   2.662   6.577
10599SOL    HW232697   4.506   2.705   6.540
10600SOL     OW32698   2.116   2.374   0.773
10600SOL    HW132699   2.038   2.327   0.816
10600SOL    HW232700   2.112   2.362   0.674
10601SOL     OW32701   1.460   4.084   6.182
10601SOL    HW132702   1.539   4.143   6.163
10601SOL    HW232703   1.423   4.107   6.272
10602SOL     OW32704   4.876   1.936   3.386
10602SOL    HW132705   4.909   1.887   3.467
10602SOL    HW232706   4.947   1.936   3.315
10603SOL     OW32707   2.697   5.701   3.772
10603SOL    HW132708   2.761   5.625   3.782
10603SOL    HW232709   2.730   5.763   3.701
10604SOL     OW32710   5.841   4.110   5.191
10604SOL    HW132711   5.752   4.156   5.185
10604SOL    HW232712   5.837   4.038   5.260
10605SOL     OW32713   2.131   5.333   1.158
10605SOL    HW132714   2.221   5.367   1.132
10605SOL    HW232715   2.080   5.308   1.075
10606SOL     OW32716   6.998   0.244   1.731
10606SOL    HW132717   6.903   0.263   1.707
10606SOL    HW232718   0.018   0.323   1.778
10607SOL     OW32719   4.104   4.777   6.359
10607SOL    HW132720   4.101   4.827   6.272
10607SOL    HW232721   4.013   4.777   6.401
10608SOL     OW32722   5.166   2.025   5.806
10608SOL    HW132723   5.168   2.113   5.759
10608SOL    HW232724   5.242   2.021   5.871
10609SOL     OW32725   3.177   6.720   1.350
10609SOL    HW132726   3.123   6.713   1.266
10609SOL    HW232727   3.131   6.781   1.414
10610SOL     OW32728   1.341   3.016   5.883
10610SOL    HW132729   1.374   3.098   5.837
10610SOL    HW232730   1.257   3.037   5.934
10611SOL     OW32731   3.984   3.876   5.758
10611SOL    HW132732   4.043   3.922   5.691
10611SOL    HW232733   4.002   3.777   5.755
10612SOL     OW32734   2.790   0.690   5.579
10612SOL    HW132735   2.722   0.620   5.598
10612SOL    HW232736   2.842   0.709   5.663
10613SOL     OW32737   6.333   6.932   5.775
10613SOL    HW132738   6.241   6.949   5.741
10613SOL    HW232739   6.398   6.989   5.725
10614SOL     OW32740   6.405   2.308   4.673
10614SOL    HW132741   6.477   2.246   4.703
10614SOL    HW232742   6.319   2.258   4.664
10615SOL     OW32743   3.067   5.950   5.664
10615SOL    HW132744   3.068   5.906   5.753
10615SOL    HW232745   3.013   6.034   5.669
10616SOL     OW32746   2.715   6.464   0.785
10616SOL    HW132747   2.659   6.382   0.783
10616SOL    HW232748   2.776   6.465   0.705
10617SOL     OW32749   2.445   2.411   0.663
10617SOL    HW132750   2.526   2.462   0.691
10617SOL    HW232751   2.399   2.375   0.744
10618SOL     OW32752   6.866   3.743   6.440
10618SOL    HW132753   6.800   3.815   6.462
10618SOL    HW232754   6.928   3.730   6.517
10619SOL     OW32755   0.121   4.244   2.404
10619SOL    HW132756   0.089   4.171   2.464
10619SOL    HW232757   0.063   4.325   2.416
10620SOL     OW32758   1.500   5.228   5.538
10620SOL    HW132759   1.528   5.242   5.443
10620SOL    HW232760   1.409   5.266   5.552
10621SOL     OW32761   1.456   6.351   1.764
10621SOL    HW132762   1.548   6.341   1.800
10621SOL    HW232763   1.460   6.377   1.667
10622SOL     OW32764   4.713   0.992   1.446
10622SOL    HW132765   4.627   0.968   1.490
10622SOL    HW232766   4.777   0.916   1.455
10623SOL     OW32767   6.976   4.423   4.353
10623SOL    HW132768   0.006   4.357   4.412
10623SOL    HW232769   6.878   4.417   4.371
10624SOL     OW32770   0.634   2.000   4.845
10624SOL    HW132771   0.628   2.062   4.923
10624SOL    HW232772   0.660   2.052   4.763
10625SOL     OW32773   0.418   4.187   0.064
10625SOL    HW132774   0.338   4.224   0.112
10625SOL    HW232775   0.414   4.087   0.064
10626SOL     OW32776   2.268   3.294   0.971
10626SOL    HW132777   2.353   3.332   1.008
10626SOL    HW232778   2.285   3.201   0.938
10627SOL     OW32779   5.661   6.263   0.795
10627SOL    HW132780   5.597   6.189   0.812
10627SOL    HW232781   5.688   6.262   0.698
10628SOL     OW32782   4.670   5.600   0.068
10628SOL    HW132783   4.618   5.515   0.078
10628SOL    HW232784   4.720   5.600   7.001
10629SOL     OW32785   2.946   4.837   4.831
10629SOL    HW132786   3.028   4.799   4.789
10629SOL    HW232787   2.904   4.769   4.891
10630SOL     OW32788   6.578   1.551   3.994
10630SOL    HW132789   6.488   1.527   4.032
10630SOL    HW232790   6.649   1.496   4.040
10631SOL     OW32791   2.215   5.077   4.845
10631SOL    HW132792   2.268   5.116   4.769
10631SOL    HW232793   2.171   5.151   4.895
10632SOL     OW32794   5.579   1.746   3.835
10632SOL    HW132795   5.627   1.660   3.820
10632SOL    HW232796   5.639   1.823   3.815
10633SOL     OW32797   2.682   3.721   1.716
10633SOL    HW132798   2.723   3.633   1.739
10633SOL    HW232799   2.583   3.710   1.705
10634SOL     OW32800   3.054   5.554   1.169
10634SOL    HW132801   3.091   5.463   1.147
10634SOL    HW232802   3.024   5.555   1.264
10635SOL     OW32803   3.551   1.388   1.215
10635SOL    HW132804   3.535   1.345   1.126
10635SOL    HW232805   3.479   1.454   1.234
10636SOL     OW32806   0.915   1.310   1.416
10636SOL    HW132807   1.009   1.287   1.391
10636SOL    HW232808   0.915   1.392   1.474
10637SOL     OW32809   2.912   4.698   5.605
10637SOL    HW132810   2.970   4.764   5.557
10637SOL    HW232811   2.902   4.616   5.549
10638SOL     OW32812   0.025   5.751   3.055
10638SOL    HW132813   0.009   5.830   3.115
10638SOL    HW232814   0.120   5.752   3.024
10639SOL     OW32815   0.867   3.285   2.804
10639SOL    HW132816   0.841   3.200   2.757
10639SOL    HW232817   0.830   3.284   2.897
10640SOL     OW32818   3.710   0.416   5.697
10640SOL    HW132819   3.667   0.498   5.736
10640SOL    HW232820   3.666   0.335   5.735
10641SOL     OW32821   3.572   2.309   0.208
10641SOL    HW132822   3.537   2.379   0.145
10641SOL    HW232823   3.516   2.309   0.291
10642SOL     OW32824   6.546   3.012   1.816
10642SOL    HW132825   6.620   2.998   1.750
10642SOL    HW232826   6.573   3.083   1.881
10643SOL     OW32827   2.343   5.163   5.323
10643SOL    HW132828   2.435   5.165   5.283
10643SOL    HW232829   2.281   5.215   5.264
10644SOL     OW32830   5.691   2.515   2.866
10644SOL    HW132831   5.640   2.430   2.858
10644SOL    HW232832   5.634   2.585   2.909
10645SOL     OW32833   0.787   1.450   5.034
10645SOL    HW132834   0.738   1.509   4.970
10645SOL    HW232835   0.726   1.377   5.066
10646SOL     OW32836   0.429   1.313   6.283
10646SOL    HW132837   0.342   1.277   6.252
10646SOL    HW232838   0.422   1.337   6.380
10647SOL     OW32839   3.530   5.467   6.744
10647SOL    HW132840   3.565   5.441   6.834
10647SOL    HW232841   3.529   5.387   6.684
10648SOL     OW32842   5.181   3.960   6.122
10648SOL    HW132843   5.261   3.988   6.069
10648SOL    HW232844   5.117   3.912   6.063
10649SOL     OW32845   0.737   4.117   3.331
10649SOL    HW132846   0.767   4.188   3.269
10649SOL    HW232847   0.659   4.150   3.385
10650SOL     OW32848   1.067   6.267   3.072
10650SOL    HW132849   1.113   6.179   3.066
10650SOL    HW232850   1.013   6.282   2.989
10651SOL     OW32851   4.727   6.802   6.122
10651SOL    HW132852   4.802   6.855   6.083
10651SOL    HW232853   4.722   6.819   6.221
10652SOL     OW32854   3.831   0.112   6.742
10652SOL    HW132855   3.805   0.137   6.648
10652SOL    HW232856   3.905   0.045   6.739
10653SOL     OW32857   5.426   3.657   4.389
10653SOL    HW132858   5.439   3.699   4.479
10653SOL    HW232859   5.460   3.719   4.319
10654SOL     OW32860   4.233   1.398   0.710
10654SOL    HW132861   4.260   1.302   0.704
10654SOL    HW232862   4.282   1.441   0.786
10655SOL     OW32863   2.976   5.548   1.423
10655SOL    HW132864   2.913   5.620   1.450
10655SOL    HW232865   2.992   5.486   1.500
10656SOL     OW32866   6.017   2.447   1.324
10656SOL    HW132867   5.951   2.379   1.355
10656SOL    HW232868   6.102   2.401   1.297
10657SOL     OW32869   6.638   0.292   6.570
10657SOL    HW132870   6.587   0.291   6.657
10657SOL    HW232871   6.674   0.200   6.552
10658SOL     OW32872   6.041   3.597   4.549
10658SOL    HW132873   6.039   3.514   4.605
10658SOL    HW232874   6.075   3.673   4.604
10659SOL     OW32875   6.950   5.981   0.898
10659SOL    HW132876   6.922   5.939   0.811
10659SOL    HW232877   6.993   6.069   0.880
10660SOL     OW32878   5.405   4.381   6.558
10660SOL    HW132879   5.346   4.381   6.478
10660SOL    HW232880   5.350   4.387   6.641
10661SOL     OW32881   0.206   6.286   2.863
10661SOL    HW132882   0.294   6.240   2.872
10661SOL    HW232883   0.181   6.293   2.767
10662SOL     OW32884   5.493   0.636   2.288
10662SOL    HW132885   5.590   0.635   2.312
10662SOL    HW232886   5.441   0.583   2.355
10663SOL     OW32887   0.589   0.594   2.016
10663SOL    HW132888   0.584   0.568   1.920
10663SOL    HW232889   0.681   0.625   2.038
10664SOL     OW32890   1.690   4.782   5.006
10664SOL    HW132891   1.665   4.874   5.036
10664SOL    HW232892   1.681   4.718   5.083
10665SOL     OW32893   0.914   0.906   0.848
10665SOL    HW132894   0.851   0.976   0.882
10665SOL    HW232895   0.865   0.819   0.839
10666SOL     OW32896   3.264   4.418   0.650
10666SOL    HW132897   3.335   4.464   0.704
10666SOL    HW232898   3.202   4.370   0.711
10667SOL     OW32899   3.905   3.239   5.454
10667SOL    HW132900   3.943   3.156   5.413
10667SOL    HW232901   3.854   3.291   5.386
10668SOL     OW32902   1.436   2.117   5.289
10668SOL    HW132903   1.461   2.057   5.213
10668SOL    HW232904   1.346   2.158   5.270
10669SOL     OW32905   6.154   6.698   0.675
10669SOL    HW132906   6.129   6.784   0.630
10669SOL    HW232907   6.228   6.715   0.740
10670SOL     OW32908   4.767   3.834   5.286
10670SOL    HW132909   4.757   3.768   5.211
10670SOL    HW232910   4.760   3.926   5.249
10671SOL     OW32911   2.612   2.074   2.539
10671SOL    HW132912   2.538   2.054   2.603
10671SOL    HW232913   2.576   2.078   2.446
10672SOL     OW32914   6.885   2.292   0.517
10672SOL    HW132915   6.820   2.366   0.532
10672SOL    HW232916   6.954   2.293   0.590
10673SOL     OW32917   1.300   1.982   0.020
10673SOL    HW132918   1.348   1.906   0.063
10673SOL    HW232919   1.332   2.068   0.060
10674SOL     OW32920   3.306   3.851   0.987
10674SOL    HW132921   3.243   3.843   1.064
10674SOL    HW232922   3.308   3.945   0.954
10675SOL     OW32923   1.826   0.692   5.651
10675SOL    HW132924   1.809   0.649   5.740
10675SOL    HW232925   1.903   0.646   5.606
10676SOL     OW32926   6.266   6.230   6.305
10676SOL    HW132927   6.346   6.282   6.332
10676SOL    HW232928   6.262   6.224   6.205
10677SOL     OW32929   0.849   0.394   1.892
10677SOL    HW132930   0.912   0.317   1.889
10677SOL    HW232931   0.758   0.362   1.918
10678SOL     OW32932   3.838   5.417   2.114
10678SOL    HW132933   3.806   5.342   2.172
10678SOL    HW232934   3.935   5.434   2.133
10679SOL     OW32935   4.891   4.406   5.807
10679SOL    HW132936   4.876   4.498   5.844
10679SOL    HW232937   4.949   4.355   5.871
10680SOL     OW32938   2.268   1.959   3.961
10680SOL    HW132939   2.312   1.875   3.928
10680SOL    HW232940   2.185   1.936   4.012
10681SOL     OW32941   0.054   4.276   6.521
10681SOL    HW132942   0.029   4.310   6.430
10681SOL    HW232943   6.994   4.286   6.583
10682SOL     OW32944   2.174   2.098   3.181
10682SOL    HW132945   2.184   2.071   3.085
10682SOL    HW232946   2.209   2.191   3.193
10683SOL     OW32947   3.915   1.768   3.786
10683SOL    HW132948   3.989   1.835   3.791
10683SOL    HW232949   3.828   1.813   3.803
10684SOL     OW32950   4.655   3.476   0.638
10684SOL    HW132951   4.734   3.520   0.596
10684SOL    HW232952   4.577   3.481   0.576
10685SOL     OW32953   6.142   4.421   2.178
10685SOL    HW132954   6.195   4.339   2.161
10685SOL    HW232955   6.074   4.403   2.249
10686SOL     OW32956   3.553   5.200   6.608
10686SOL    HW132957   3.495   5.226   6.530
10686SOL    HW232958   3.524   5.110   6.642
10687SOL     OW32959   0.075   5.035   1.657
10687SOL    HW132960   0.120   5.120   1.683
10687SOL    HW232961   0.005   5.054   1.589
10688SOL     OW32962   6.553   4.768   2.834
10688SOL    HW132963   6.538   4.862   2.865
10688SOL    HW232964   6.568   4.768   2.735
10689SOL     OW32965   0.616   0.050   3.954
10689SOL    HW132966   0.702   0.010   3.922
10689SOL    HW232967   0.635   0.130   4.010
10690SOL     OW32968   6.078   5.306   4.039
10690SOL    HW132969   6.045   5.286   3.947
10690SOL    HW232970   6.081   5.222   4.093
10691SOL     OW32971   6.964   1.662   2.393
10691SOL    HW132972   6.898   1.639   2.322
10691SOL    HW232973   7.008   1.750   2.370
10692SOL     OW32974   3.534   4.980   3.562
10692SOL    HW132975   3.437   4.987   3.586
10692SOL    HW232976   3.543   4.966   3.463
10693SOL     OW32977   1.649   0.621   1.942
10693SOL    HW132978   1.690   0.650   2.028
10693SOL    HW232979   1.720   0.605   1.874
10694SOL     OW32980   3.591   6.233   1.578
10694SOL    HW132981   3.623   6.213   1.485
10694SOL    HW232982   3.625   6.324   1.605
10695SOL     OW32983   6.134   2.120   2.900
10695SOL    HW132984   6.145   2.021   2.889
10695SOL    HW232985   6.139   2.164   2.811
10696SOL     OW32986   6.754   4.740   2.325
10696SOL    HW132987   6.825   4.810   2.333
10696SOL    HW232988   6.681   4.773   2.265
10697SOL     OW32989   0.162   6.265   4.284
10697SOL    HW132990   0.216   6.191   4.245
10697SOL    HW232991   0.223   6.340   4.312
10698SOL     OW32992   3.897   6.425   3.976
10698SOL    HW132993   3.815   6.367   3.984
10698SOL    HW232994   3.917   6.467   4.065
10699SOL     OW32995   4.244   1.767   2.653
10699SOL    HW132996   4.263   1.683   2.601
10699SOL    HW232997   4.149   1.795   2.637
10700SOL     OW32998   1.243   6.869   0.418
10700SOL    HW132999   1.266   6.913   0.331
10700SOL    HW233000   1.312   6.892   0.486
10701SOL     OW33001   3.836   5.752   0.167
10701SOL    HW133002   3.861   5.703   0.250
10701SOL    HW233003   3.847   5.851   0.182
10702SOL     OW33004   6.423   2.660   2.603
10702SOL    HW133005   6.518   2.644   2.576
10702SOL    HW233006   6.399   2.599   2.679
10703SOL     OW33007   4.114   3.315   4.265
10703SOL    HW133008   4.076   3.274   4.348
10703SOL    HW233009   4.214   3.320   4.273
10704SOL     OW33010   5.607   5.762   1.710
10704SOL    HW133011   5.630   5.816   1.791
10704SOL    HW233012   5.620   5.665   1.729
10705SOL     OW33013   0.228   3.516   1.469
10705SOL    HW133014   0.189   3.607   1.483
10705SOL    HW233015   0.326   3.523   1.453
10706SOL     OW33016   4.534   6.572   2.036
10706SOL    HW133017   4.586   6.490   2.013
10706SOL    HW233018   4.469   6.552   2.109
10707SOL     OW33019   0.615   0.366   5.138
10707SOL    HW133020   0.557   0.444   5.115
10707SOL    HW233021   0.557   0.286   5.156
10708SOL     OW33022   4.982   0.607   2.095
10708SOL    HW133023   5.081   0.596   2.089
10708SOL    HW233024   4.959   0.662   2.175
10709SOL     OW33025   6.834   1.211   5.000
10709SOL    HW133026   6.899   1.176   4.933
10709SOL    HW233027   6.741   1.202   4.964
10710SOL     OW33028   1.209   6.679   5.000
10710SOL    HW133029   1.254   6.590   4.997
10710SOL    HW233030   1.224   6.720   5.090
10711SOL     OW33031   2.469   0.016   3.886
10711SOL    HW133032   2.397   0.011   3.956
10711SOL    HW233033   2.516   6.947   3.881
10712SOL     OW33034   3.699   0.756   2.654
10712SOL    HW133035   3.747   0.781   2.738
10712SOL    HW233036   3.634   0.829   2.630
10713SOL     OW33037   1.683   4.734   2.016
10713SOL    HW133038   1.663   4.800   2.088
10713SOL    HW233039   1.780   4.738   1.992
10714SOL     OW33040   6.815   2.979   5.379
10714SOL    HW133041   6.812   3.074   5.346
10714SOL    HW233042   6.723   2.940   5.376
10715SOL     OW33043   4.434   0.803   2.817
10715SOL    HW133044   4.427   0.877   2.884
10715SOL    HW233045   4.441   0.715   2.865
10716SOL     OW33046   0.089   2.874   3.306
10716SOL    HW133047   0.171   2.891   3.250
10716SOL    HW233048   0.043   2.791   3.273
10717SOL     OW33049   0.870   2.219   0.961
10717SOL    HW133050   0.792   2.205   0.899
10717SOL    HW233051   0.943   2.154   0.938
10718SOL     OW33052   6.256   4.811   0.008
10718SOL    HW133053   6.287   4.877   0.076
10718SOL    HW233054   6.318   4.733   0.006
10719SOL     OW33055   4.454   6.119   1.587
10719SOL    HW133056   4.485   6.080   1.500
10719SOL    HW233057   4.367   6.167   1.573
10720SOL     OW33058   6.852   4.184   6.002
10720SOL    HW133059   6.926   4.180   5.934
10720SOL    HW233060   6.883   4.141   6.087
10721SOL     OW33061   6.642   2.309   4.393
10721SOL    HW133062   6.608   2.257   4.315
10721SOL    HW233063   6.576   2.380   4.417
10722SOL     OW33064   6.784   2.867   0.401
10722SOL    HW133065   6.748   2.903   0.315
10722SOL    HW233066   6.863   2.808   0.382
10723SOL     OW33067   5.852   3.933   6.462
10723SOL    HW133068   5.880   3.879   6.541
10723SOL    HW233069   5.926   3.996   6.436
10724SOL     OW33070   3.509   6.952   5.812
10724SOL    HW133071   3.545   6.861   5.836
10724SOL    HW233072   3.585   7.013   5.790
10725SOL     OW33073   6.985   5.138   3.968
10725SOL    HW133074   6.978   5.045   3.932
10725SOL    HW233075   6.939   5.144   4.056
10726SOL     OW33076   5.968   6.976   5.221
10726SOL    HW133077   5.882   6.933   5.247
10726SOL    HW233078   5.963   0.056   5.238
10727SOL     OW33079   1.832   5.032   5.383
10727SOL    HW133080   1.887   4.969   5.327
10727SOL    HW233081   1.738   4.999   5.386
10728SOL     OW33082   6.074   6.368   2.225
10728SOL    HW133083   5.989   6.403   2.264
10728SOL    HW233084   6.141   6.442   2.218
10729SOL     OW33085   6.480   1.461   2.779
10729SOL    HW133086   6.467   1.561   2.776
10729SOL    HW233087   6.414   1.421   2.843
10730SOL     OW33088   2.634   6.595   1.693
10730SOL    HW133089   2.701   6.582   1.766
10730SOL    HW233090   2.679   6.590   1.604
10731SOL     OW33091   2.618   5.657   0.224
10731SOL    HW133092   2.666   5.586   0.173
10731SOL    HW233093   2.526   5.668   0.186
10732SOL     OW33094   6.677   0.396   2.903
10732SOL    HW133095   6.605   0.327   2.898
10732SOL    HW233096   6.642   0.483   2.868
10733SOL     OW33097   5.521   2.162   0.060
10733SOL    HW133098   5.430   2.129   0.036
10733SOL    HW233099   5.590   2.107   0.013
10734SOL     OW33100   0.947   0.987   6.975
10734SOL    HW133101   0.911   0.957   6.887
10734SOL    HW233102   0.944   1.087   6.980
10735SOL     OW33103   1.255   4.751   2.303
10735SOL    HW133104   1.204   4.743   2.389
10735SOL    HW233105   1.307   4.836   2.303
10736SOL     OW33106   0.655   1.170   3.300
10736SOL    HW133107   0.739   1.172   3.353
10736SOL    HW233108   0.614   1.079   3.306
10737SOL     OW33109   0.737   2.581   0.668
10737SOL    HW133110   0.828   2.602   0.704
10737SOL    HW233111   0.668   2.607   0.736
10738SOL     OW33112   2.384   6.955   2.783
10738SOL    HW133113   2.470   6.910   2.805
10738SOL    HW233114   2.368   0.010   2.848
10739SOL     OW33115   6.938   1.770   2.668
10739SOL    HW133116   6.864   1.836   2.654
10739SOL    HW233117   6.938   1.704   2.594
10740SOL     OW33118   1.402   5.528   5.950
10740SOL    HW133119   1.352   5.613   5.966
10740SOL    HW233120   1.499   5.543   5.967
10741SOL     OW33121   1.260   1.496   3.641
10741SOL    HW133122   1.259   1.400   3.612
10741SOL    HW233123   1.339   1.512   3.700
10742SOL     OW33124   5.960   6.809   2.134
10742SOL    HW133125   5.958   6.895   2.083
10742SOL    HW233126   6.034   6.751   2.100
10743SOL     OW33127   3.040   2.185   3.913
10743SOL    HW133128   3.021   2.253   3.842
10743SOL    HW233129   2.955   2.146   3.947
10744SOL     OW33130   3.251   1.475   2.343
10744SOL    HW133131   3.239   1.393   2.399
10744SOL    HW233132   3.347   1.503   2.343
10745SOL     OW33133   2.083   4.471   0.378
10745SOL    HW133134   2.091   4.567   0.350
10745SOL    HW233135   2.171   4.440   0.415
10746SOL     OW33136   1.939   5.804   1.419
10746SOL    HW133137   1.973   5.779   1.510
10746SOL    HW233138   1.998   5.765   1.349
10747SOL     OW33139   5.432   1.678   3.165
10747SOL    HW133140   5.515   1.672   3.111
10747SOL    HW233141   5.403   1.586   3.192
10748SOL     OW33142   5.465   5.587   0.984
10748SOL    HW133143   5.397   5.513   0.979
10748SOL    HW233144   5.457   5.645   0.903
10749SOL     OW33145   0.126   5.201   2.940
10749SOL    HW133146   0.116   5.241   2.849
10749SOL    HW233147   0.040   5.210   2.990
10750SOL     OW33148   4.759   4.106   4.917
10750SOL    HW133149   4.765   4.078   4.821
10750SOL    HW233150   4.761   4.206   4.922
10751SOL     OW33151   1.122   3.294   4.900
10751SOL    HW133152   1.211   3.322   4.936
10751SOL    HW233153   1.051   3.312   4.968
10752SOL     OW33154   6.299   4.137   6.597
10752SOL    HW133155   6.303   4.167   6.692
10752SOL    HW233156   6.240   4.199   6.545
10753SOL     OW33157   6.007   0.104   3.767
10753SOL    HW133158   6.090   0.150   3.800
10753SOL    HW233159   5.997   0.119   3.669
10754SOL     OW33160   1.806   2.288   2.413
10754SOL    HW133161   1.749   2.251   2.486
10754SOL    HW233162   1.882   2.225   2.396
10755SOL     OW33163   6.777   2.005   0.827
10755SOL    HW133164   6.708   1.942   0.789
10755SOL    HW233165   6.750   2.032   0.919
10756SOL     OW33166   6.285   3.142   0.693
10756SOL    HW133167   6.274   3.202   0.614
10756SOL    HW233168   6.244   3.053   0.673
10757SOL     OW33169   0.004   3.747   0.469
10757SOL    HW133170   0.018   3.801   0.386
10757SOL    HW233171   0.026   3.803   0.549
10758SOL     OW33172   0.426   5.515   5.333
10758SOL    HW133173   0.438   5.433   5.388
10758SOL    HW233174   0.415   5.594   5.393
10759SOL     OW33175   1.940   3.121   6.614
10759SOL    HW133176   1.922   3.118   6.712
10759SOL    HW233177   1.854   3.120   6.563
10760SOL     OW33178   0.002   6.368   1.189
10760SOL    HW133179   0.098   6.387   1.172
10760SOL    HW233180   6.975   6.452   1.219
10761SOL     OW33181   1.241   2.860   6.566
10761SOL    HW133182   1.280   2.773   6.536
10761SOL    HW233183   1.228   2.920   6.487
10762SOL     OW33184   4.700   0.876   4.967
10762SOL    HW133185   4.647   0.840   4.891
10762SOL    HW233186   4.687   0.818   5.047
10763SOL     OW33187   4.272   0.496   1.331
10763SOL    HW133188   4.241   0.479   1.424
10763SOL    HW233189   4.195   0.528   1.276
10764SOL     OW33190   4.939   1.697   6.244
10764SOL    HW133191   4.868   1.694   6.315
10764SOL    HW233192   5.023   1.654   6.279
10765SOL     OW33193   5.620   1.298   1.541
10765SOL    HW133194   5.570   1.383   1.559
10765SOL    HW233195   5.584   1.225   1.599
10766SOL     OW33196   2.332   3.556   0.645
10766SOL    HW133197   2.297   3.462   0.642
10766SOL    HW233198   2.414   3.564   0.588
10767SOL     OW33199   1.180   6.965   0.877
10767SOL    HW133200   1.102   7.005   0.926
10767SOL    HW233201   1.203   0.004   0.799
10768SOL     OW33202   5.716   5.689   0.293
10768SOL    HW133203   5.702   5.592   0.314
10768SOL    HW233204   5.640   5.722   0.236
10769SOL     OW33205   2.712   4.891   5.699
10769SOL    HW133206   2.644   4.931   5.638
10769SOL    HW233207   2.787   4.854   5.645
10770SOL     OW33208   5.556   0.488   5.069
10770SOL    HW133209   5.476   0.467   5.012
10770SOL    HW233210   5.534   0.470   5.165
10771SOL     OW33211   4.557   0.270   5.282
10771SOL    HW133212   4.521   0.288   5.191
10771SOL    HW233213   4.556   0.354   5.336
10772SOL     OW33214   6.961   0.294   3.566
10772SOL    HW133215   6.997   0.356   3.636
10772SOL    HW233216   6.894   0.232   3.609
10773SOL     OW33217   6.659   4.913   6.859
10773SOL    HW133218   6.739   4.955   6.818
10773SOL    HW233219   6.645   4.822   6.820
10774SOL     OW33220   1.321   2.276   0.998
10774SOL    HW133221   1.417   2.296   0.982
10774SOL    HW233222   1.274   2.359   1.029
10775SOL     OW33223   2.174   4.548   0.749
10775SOL    HW133224   2.189   4.560   0.847
10775SOL    HW233225   2.077   4.528   0.733
10776SOL     OW33226   0.094   6.445   1.527
10776SOL    HW133227   0.109   6.347   1.538
10776SOL    HW233228   0.182   6.492   1.526
10777SOL     OW33229   3.909   0.082   3.193
10777SOL    HW133230   3.855   7.018   3.184
10777SOL    HW233231   3.849   0.162   3.181
10778SOL     OW33232   6.691   6.884   4.805
10778SOL    HW133233   6.784   6.892   4.770
10778SOL    HW233234   6.640   6.967   4.781
10779SOL     OW33235   6.982   4.881   2.330
10779SOL    HW133236   0.025   4.808   2.359
10779SOL    HW233237   7.014   4.968   2.368
10780SOL     OW33238   0.477   5.940   3.633
10780SOL    HW133239   0.515   5.954   3.542
10780SOL    HW233240   0.381   5.914   3.626
10781SOL     OW33241   4.606   1.699   4.650
10781SOL    HW133242   4.558   1.694   4.562
10781SOL    HW233243   4.640   1.608   4.674
10782SOL     OW33244   6.560   2.148   3.406
10782SOL    HW133245   6.567   2.212   3.482
10782SOL    HW233246   6.583   2.195   3.321
10783SOL     OW33247   2.105   3.273   2.352
10783SOL    HW133248   2.046   3.325   2.291
10783SOL    HW233249   2.137   3.191   2.304
10784SOL     OW33250   2.371   6.547   1.007
10784SOL    HW133251   2.432   6.607   1.058
10784SOL    HW233252   2.279   6.587   1.003
10785SOL     OW33253   1.939   4.768   1.784
10785SOL    HW133254   1.980   4.710   1.854
10785SOL    HW233255   1.986   4.754   1.697
10786SOL     OW33256   5.453   2.853   1.939
10786SOL    HW133257   5.438   2.768   1.889
10786SOL    HW233258   5.542   2.849   1.985
10787SOL     OW33259   3.450   1.351   4.665
10787SOL    HW133260   3.460   1.344   4.566
10787SOL    HW233261   3.354   1.338   4.690
10788SOL     OW33262   2.206   4.191   0.449
10788SOL    HW133263   2.202   4.197   0.350
10788SOL    HW233264   2.214   4.283   0.488
10789SOL     OW33265   5.957   0.951   0.583
10789SOL    HW133266   6.010   0.870   0.555
10789SOL    HW233267   5.896   0.927   0.658
10790SOL     OW33268   0.470   0.739   5.543
10790SOL    HW133269   0.457   0.815   5.607
10790SOL    HW233270   0.406   0.666   5.566
10791SOL     OW33271   1.505   1.605   2.019
10791SOL    HW133272   1.554   1.527   1.980
10791SOL    HW233273   1.462   1.658   1.946
10792SOL     OW33274   3.322   3.045   1.580
10792SOL    HW133275   3.232   3.070   1.544
10792SOL    HW233276   3.328   3.072   1.676
10793SOL     OW33277   5.651   2.261   3.731
10793SOL    HW133278   5.623   2.345   3.778
10793SOL    HW233279   5.724   2.282   3.666
10794SOL     OW33280   3.462   4.099   1.905
10794SOL    HW133281   3.489   4.184   1.861
10794SOL    HW233282   3.399   4.118   1.980
10795SOL     OW33283   6.499   4.085   3.030
10795SOL    HW133284   6.589   4.085   2.986
10795SOL    HW233285   6.431   4.122   2.967
10796SOL     OW33286   3.481   0.327   6.450
10796SOL    HW133287   3.494   0.277   6.535
10796SOL    HW233288   3.476   0.425   6.469
10797SOL     OW33289   3.822   2.360   0.359
10797SOL    HW133290   3.887   2.429   0.392
10797SOL    HW233291   3.755   2.341   0.430
10798SOL     OW33292   1.982   0.104   0.362
10798SOL    HW133293   2.079   0.098   0.339
10798SOL    HW233294   1.933   0.148   0.287
10799SOL     OW33295   3.595   2.070   2.302
10799SOL    HW133296   3.512   2.123   2.324
10799SOL    HW233297   3.634   2.104   2.217
10800SOL     OW33298   2.078   6.101   0.433
10800SOL    HW133299   2.109   6.166   0.503
10800SOL    HW233300   2.141   6.024   0.429
10801SOL     OW33301   1.301   0.691   3.872
10801SOL    HW133302   1.266   0.601   3.897
10801SOL    HW233303   1.396   0.683   3.843
10802SOL     OW33304   2.297   2.817   4.826
10802SOL    HW133305   2.327   2.865   4.909
10802SOL    HW233306   2.247   2.881   4.767
10803SOL     OW33307   5.177   4.576   5.141
10803SOL    HW133308   5.135   4.554   5.229
10803SOL    HW233309   5.232   4.659   5.150
10804SOL     OW33310   6.882   4.546   0.930
10804SOL    HW133311   6.925   4.481   0.867
10804SOL    HW233312   6.944   4.623   0.946
10805SOL     OW33313   3.519   0.756   6.904
10805SOL    HW133314   3.598   0.695   6.898
10805SOL    HW233315   3.478   0.749   6.995
10806SOL     OW33316   5.651   4.062   0.088
10806SOL    HW133317   5.648   4.138   0.023
10806SOL    HW233318   5.623   3.977   0.043
10807SOL     OW33319   3.346   6.622   3.383
10807SOL    HW133320   3.371   6.660   3.293
10807SOL    HW233321   3.250   6.642   3.401
10808SOL     OW33322   6.558   3.812   7.007
10808SOL    HW133323   6.598   3.791   0.077
10808SOL    HW233324   6.459   3.799   7.011
10809SOL     OW33325   2.914   0.523   4.225
10809SOL    HW133326   2.997   0.572   4.200
10809SOL    HW233327   2.906   0.518   4.325
10810SOL     OW33328   1.070   1.594   6.094
10810SOL    HW133329   1.061   1.627   6.188
10810SOL    HW233330   1.164   1.607   6.063
10811SOL     OW33331   3.911   5.278   5.567
10811SOL    HW133332   3.885   5.189   5.530
10811SOL    HW233333   3.928   5.342   5.492
10812SOL     OW33334   0.597   3.973   1.902
10812SOL    HW133335   0.624   3.877   1.903
10812SOL    HW233336   0.574   4.002   1.995
10813SOL     OW33337   2.863   6.196   0.979
10813SOL    HW133338   2.866   6.140   1.062
10813SOL    HW233339   2.816   6.146   0.907
10814SOL     OW33340   0.944   0.588   5.844
10814SOL    HW133341   0.885   0.608   5.765
10814SOL    HW233342   0.902   0.516   5.899
10815SOL     OW33343   4.888   4.784   3.357
10815SOL    HW133344   4.868   4.842   3.278
10815SOL    HW233345   4.913   4.692   3.326
10816SOL     OW33346   1.838   1.380   2.210
10816SOL    HW133347   1.887   1.310   2.159
10816SOL    HW233348   1.900   1.420   2.278
10817SOL     OW33349   5.628   6.861   3.183
10817SOL    HW133350   5.573   6.859   3.266
10817SOL    HW233351   5.587   6.803   3.113
10818SOL     OW33352   5.915   2.311   5.790
10818SOL    HW133353   5.871   2.305   5.880
10818SOL    HW233354   5.894   2.230   5.737
10819SOL     OW33355   0.594   4.010   6.668
10819SOL    HW133356   0.577   4.108   6.658
10819SOL    HW233357   0.518   3.959   6.628
10820SOL     OW33358   0.146   6.828   4.515
10820SOL    HW133359   0.192   6.890   4.451
10820SOL    HW233360   0.180   6.735   4.502
10821SOL     OW33361   6.120   6.698   3.129
10821SOL    HW133362   6.191   6.734   3.070
10821SOL    HW233363   6.055   6.771   3.152
10822SOL     OW33364   1.522   2.851   2.610
10822SOL    HW133365   1.462   2.771   2.619
10822SOL    HW233366   1.472   2.925   2.565
10823SOL     OW33367   1.990   4.995   1.506
10823SOL    HW133368   2.077   4.997   1.555
10823SOL    HW233369   2.007   5.004   1.407
10824SOL     OW33370   4.941   6.793   3.829
10824SOL    HW133371   5.032   6.756   3.809
10824SOL    HW233372   4.943   6.840   3.917
10825SOL     OW33373   2.504   0.742   0.724
10825SOL    HW133374   2.526   0.645   0.733
10825SOL    HW233375   2.578   0.788   0.675
10826SOL     OW33376   6.685   3.527   3.191
10826SOL    HW133377   6.622   3.478   3.251
10826SOL    HW233378   6.724   3.462   3.124
10827SOL     OW33379   6.034   3.351   3.627
10827SOL    HW133380   6.086   3.320   3.547
10827SOL    HW233381   5.999   3.272   3.677
10828SOL     OW33382   1.340   5.904   2.140
10828SOL    HW133383   1.286   5.850   2.076
10828SOL    HW233384   1.403   5.963   2.089
10829SOL     OW33385   2.891   3.455   1.156
10829SOL    HW133386   2.804   3.448   1.205
10829SOL    HW233387   2.953   3.515   1.207
10830SOL     OW33388   5.087   2.228   3.356
10830SOL    HW133389   5.088   2.249   3.453
10830SOL    HW233390   5.063   2.131   3.343
10831SOL     OW33391   4.845   6.781   1.719
10831SOL    HW133392   4.772   6.829   1.767
10831SOL    HW233393   4.928   6.837   1.719
10832SOL     OW33394   0.310   2.532   0.936
10832SOL    HW133395   0.220   2.571   0.914
10832SOL    HW233396   0.297   2.443   0.978
10833SOL     OW33397   1.681   0.486   3.911
10833SOL    HW133398   1.738   0.418   3.865
10833SOL    HW233399   1.627   0.535   3.842
10834SOL     OW33400   0.857   1.623   5.940
10834SOL    HW133401   0.842   1.720   5.922
10834SOL    HW233402   0.949   1.609   5.976
10835SOL     OW33403   5.444   1.396   1.269
10835SOL    HW133404   5.511   1.322   1.265
10835SOL    HW233405   5.492   1.484   1.267
10836SOL     OW33406   0.047   1.503   5.668
10836SOL    HW133407   0.025   1.437   5.596
10836SOL    HW233408   0.133   1.476   5.713
10837SOL     OW33409   6.910   4.727   6.850
10837SOL    HW133410   6.991   4.784   6.865
10837SOL    HW233411   6.897   4.667   6.928
10838SOL     OW33412   5.814   0.197   4.877
10838SOL    HW133413   5.784   0.292   4.878
10838SOL    HW233414   5.911   0.193   4.854
10839SOL     OW33415   2.901   3.224   0.526
10839SOL    HW133416   2.931   3.157   0.595
10839SOL    HW233417   2.883   3.177   0.440
10840SOL     OW33418   3.671   5.746   1.251
10840SOL    HW133419   3.573   5.740   1.273
10840SOL    HW233420   3.713   5.818   1.306
10841SOL     OW33421   3.118   5.653   5.616
10841SOL    HW133422   3.025   5.629   5.643
10841SOL    HW233423   3.127   5.753   5.614
10842SOL     OW33424   5.858   3.578   0.985
10842SOL    HW133425   5.897   3.494   1.025
10842SOL    HW233426   5.928   3.648   0.981
10843SOL     OW33427   0.463   1.676   1.796
10843SOL    HW133428   0.374   1.690   1.754
10843SOL    HW233429   0.513   1.605   1.746
10844SOL     OW33430   0.585   6.515   4.297
10844SOL    HW133431   0.681   6.497   4.278
10844SOL    HW233432   0.569   6.614   4.297
10845SOL     OW33433   1.906   0.950   1.253
10845SOL    HW133434   1.831   0.951   1.319
10845SOL    HW233435   1.892   1.024   1.186
10846SOL     OW33436   4.598   2.337   0.894
10846SOL    HW133437   4.560   2.245   0.903
10846SOL    HW233438   4.561   2.396   0.966
10847SOL     OW33439   2.580   1.671   6.691
10847SOL    HW133440   2.612   1.689   6.598
10847SOL    HW233441   2.489   1.630   6.688
10848SOL     OW33442   2.948   1.934   6.780
10848SOL    HW133443   3.022   1.967   6.838
10848SOL    HW233444   2.985   1.902   6.693
10849SOL     OW33445   4.046   4.895   4.186
10849SOL    HW133446   4.005   4.879   4.275
10849SOL    HW233447   3.975   4.913   4.119
10850SOL     OW33448   3.782   6.807   6.873
10850SOL    HW133449   3.702   6.866   6.865
10850SOL    HW233450   3.818   6.787   6.782
10851SOL     OW33451   2.759   2.466   6.365
10851SOL    HW133452   2.692   2.400   6.397
10851SOL    HW233453   2.843   2.418   6.338
10852SOL     OW33454   0.583   0.131   6.364
10852SOL    HW133455   0.498   0.172   6.333
10852SOL    HW233456   0.570   0.092   6.456
10853SOL     OW33457   3.880   1.668   4.559
10853SOL    HW133458   3.963   1.627   4.521
10853SOL    HW233459   3.860   1.627   4.648
10854SOL     OW33460   6.192   0.039   6.398
10854SOL    HW133461   6.092   0.043   6.404
10854SOL    HW233462   6.223   0.108   6.332
10855SOL     OW33463   2.867   6.142   2.701
10855SOL    HW133464   2.881   6.219   2.638
10855SOL    HW233465   2.849   6.176   2.793
10856SOL     OW33466   5.922   0.673   1.199
10856SOL    HW133467   5.931   0.742   1.270
10856SOL    HW233468   5.907   0.583   1.241
10857SOL     OW33469   5.861   2.725   3.511
10857SOL    HW133470   5.765   2.710   3.535
10857SOL    HW233471   5.915   2.736   3.595
10858SOL     OW33472   1.519   2.848   6.660
10858SOL    HW133473   1.463   2.928   6.640
10858SOL    HW233474   1.514   2.784   6.583
10859SOL     OW33475   1.971   3.708   3.633
10859SOL    HW133476   1.882   3.664   3.620
10859SOL    HW233477   1.958   3.792   3.686
10860SOL     OW33478   6.770   1.036   6.219
10860SOL    HW133479   6.799   1.045   6.123
10860SOL    HW233480   6.792   0.944   6.252
10861SOL     OW33481   3.719   2.505   1.710
10861SOL    HW133482   3.627   2.516   1.674
10861SOL    HW233483   3.717   2.440   1.786
10862SOL     OW33484   2.296   1.496   6.537
10862SOL    HW133485   2.370   1.432   6.559
10862SOL    HW233486   2.209   1.447   6.535
10863SOL     OW33487   3.514   1.209   2.514
10863SOL    HW133488   3.415   1.191   2.517
10863SOL    HW233489   3.534   1.267   2.435
10864SOL     OW33490   2.307   4.505   1.491
10864SOL    HW133491   2.221   4.484   1.444
10864SOL    HW233492   2.328   4.432   1.556
10865SOL     OW33493   6.088   2.512   3.132
10865SOL    HW133494   6.076   2.577   3.207
10865SOL    HW233495   6.138   2.556   3.057
10866SOL     OW33496   5.422   3.376   1.080
10866SOL    HW133497   5.430   3.278   1.061
10866SOL    HW233498   5.494   3.426   1.032
10867SOL     OW33499   2.479   2.866   0.629
10867SOL    HW133500   2.565   2.905   0.597
10867SOL    HW233501   2.403   2.924   0.601
10868SOL     OW33502   1.652   2.132   2.954
10868SOL    HW133503   1.606   2.191   3.020
10868SOL    HW233504   1.737   2.176   2.923
10869NA      NA33505   0.792   2.368   6.335
10870NA      NA33506   4.481   4.468   5.222
10871NA      NA33507   2.381   4.741   2.542
10872NA      NA33508   5.142   4.712   3.699
10873NA      NA33509   4.282   2.347   5.263
10874NA      NA33510   3.412   4.176   1.482
10875NA      NA33511   1.143   4.704   0.294
10876NA      NA33512   4.036   4.149   1.616
10877NA      NA33513   4.689   4.465   0.937
10878NA      NA33514   3.568   1.072   5.159
10879NA      NA33515   5.591   5.758   1.486
10880NA      NA33516   1.116   0.728   5.768
10881NA      NA33517   4.831   4.937   2.227
10882NA      NA33518   3.527   3.122   0.624
   7.01893   7.01893   7.01893
