Generated by trjconv : CNT in water t= 487.00000
33518
    1C        C    1   2.847   2.768   4.747
    1C        C    2   2.901   2.716   4.867
    1C        C    3   2.844   2.772   4.982
    1C        C    4   2.849   2.771   4.262
    1C        C    5   2.903   2.721   4.383
    1C        C    6   2.850   2.770   4.504
    1C        C    7   3.013   2.634   4.624
    1C        C    8   2.901   2.720   4.626
    1C        C    9   3.077   2.595   4.744
    1C        C   10   3.011   2.628   4.865
    1C        C   11   3.186   2.489   4.976
    1C        C   12   3.065   2.558   4.975
    1C        C   13   2.845   2.763   3.772
    1C        C   14   2.901   2.721   3.895
    1C        C   15   2.853   2.772   4.017
    1C        C   16   3.015   2.638   4.139
    1C        C   17   2.901   2.722   4.140
    1C        C   18   3.080   2.607   4.260
    1C        C   19   3.020   2.643   4.383
    1C        C   20   3.204   2.538   4.502
    1C        C   21   3.073   2.591   4.504
    1C        C   22   3.276   2.520   4.622
    1C        C   23   3.208   2.541   4.744
    1C        C   24   3.415   2.478   4.864
    1C        C   25   3.273   2.495   4.862
    1C        C   26   3.492   2.475   4.981
    1C        C   27   2.844   2.760   3.283
    1C        C   28   2.901   2.717   3.406
    1C        C   29   2.853   2.767   3.529
    1C        C   30   3.016   2.632   3.650
    1C        C   31   2.904   2.718   3.652
    1C        C   32   3.075   2.597   3.774
    1C        C   33   3.012   2.633   3.895
    1C        C   34   3.207   2.549   4.018
    1C        C   35   3.074   2.598   4.017
    1C        C   36   3.277   2.528   4.139
    1C        C   37   3.209   2.550   4.260
    1C        C   38   3.415   2.502   4.380
    1C        C   39   3.275   2.521   4.382
    1C        C   40   3.487   2.503   4.502
    1C        C   41   3.416   2.501   4.624
    1C        C   42   3.632   2.477   4.744
    1C        C   43   3.489   2.484   4.743
    1C        C   44   3.708   2.484   4.862
    1C        C   45   3.631   2.481   4.979
    1C        C   46   2.838   2.749   2.794
    1C        C   47   2.893   2.706   2.917
    1C        C   48   2.845   2.761   3.038
    1C        C   49   3.012   2.632   3.163
    1C        C   50   2.898   2.715   3.161
    1C        C   51   3.077   2.598   3.284
    1C        C   52   3.015   2.635   3.406
    1C        C   53   3.206   2.541   3.528
    1C        C   54   3.077   2.598   3.527
    1C        C   55   3.275   2.527   3.651
    1C        C   56   3.208   2.549   3.773
    1C        C   57   3.414   2.500   3.895
    1C        C   58   3.275   2.529   3.896
    1C        C   59   3.487   2.495   4.016
    1C        C   60   3.416   2.502   4.138
    1C        C   61   3.629   2.496   4.259
    1C        C   62   3.488   2.495   4.259
    1C        C   63   3.701   2.506   4.380
    1C        C   64   3.628   2.501   4.501
    1C        C   65   3.835   2.541   4.620
    1C        C   66   3.700   2.501   4.622
    1C        C   67   3.903   2.564   4.742
    1C        C   68   3.843   2.527   4.864
    1C        C   69   4.048   2.593   4.978
    1C        C   70   3.921   2.533   4.979
    1C        C   71   2.821   2.732   2.309
    1C        C   72   2.883   2.692   2.429
    1C        C   73   2.833   2.743   2.550
    1C        C   74   3.004   2.617   2.673
    1C        C   75   2.887   2.696   2.672
    1C        C   76   3.070   2.591   2.795
    1C        C   77   3.012   2.630   2.917
    1C        C   78   3.205   2.547   3.037
    1C        C   79   3.073   2.597   3.040
    1C        C   80   3.273   2.528   3.160
    1C        C   81   3.209   2.549   3.284
    1C        C   82   3.415   2.498   3.404
    1C        C   83   3.276   2.525   3.407
    1C        C   84   3.484   2.492   3.527
    1C        C   85   3.415   2.507   3.650
    1C        C   86   3.626   2.505   3.770
    1C        C   87   3.484   2.501   3.773
    1C        C   88   3.697   2.518   3.891
    1C        C   89   3.628   2.505   4.014
    1C        C   90   3.833   2.551   4.136
    1C        C   91   3.698   2.508   4.136
    1C        C   92   3.901   2.577   4.257
    1C        C   93   3.836   2.547   4.379
    1C        C   94   4.030   2.633   4.499
    1C        C   95   3.906   2.565   4.500
    1C        C   96   4.091   2.672   4.620
    1C        C   97   4.029   2.631   4.740
    1C        C   98   4.189   2.769   4.864
    1C        C   99   4.096   2.660   4.862
    1C        C  100   4.210   2.844   4.980
    1C        C  101   2.823   2.730   2.072
    1C        C  102   2.990   2.591   2.190
    1C        C  103   2.876   2.677   2.190
    1C        C  104   3.063   2.573   2.312
    1C        C  105   3.001   2.613   2.432
    1C        C  106   3.199   2.529   2.550
    1C        C  107   3.067   2.580   2.552
    1C        C  108   3.267   2.514   2.673
    1C        C  109   3.200   2.535   2.796
    1C        C  110   3.411   2.497   2.914
    1C        C  111   3.272   2.518   2.916
    1C        C  112   3.481   2.492   3.037
    1C        C  113   3.411   2.500   3.159
    1C        C  114   3.624   2.497   3.280
    1C        C  115   3.483   2.491   3.281
    1C        C  116   3.693   2.510   3.403
    1C        C  117   3.625   2.497   3.526
    1C        C  118   3.831   2.550   3.644
    1C        C  119   3.696   2.507   3.647
    1C        C  120   3.897   2.575   3.767
    1C        C  121   3.832   2.559   3.891
    1C        C  122   4.024   2.645   4.014
    1C        C  123   3.898   2.581   4.014
    1C        C  124   4.088   2.679   4.135
    1C        C  125   4.027   2.640   4.256
    1C        C  126   4.199   2.764   4.379
    1C        C  127   4.089   2.676   4.378
    1C        C  128   4.250   2.815   4.501
    1C        C  129   4.199   2.764   4.622
    1C        C  130   4.331   2.933   4.742
    1C        C  131   4.246   2.819   4.743
    1C        C  132   4.357   3.003   4.862
    1C        C  133   4.283   2.962   4.974
    1C        C  134   3.171   2.467   2.079
    1C        C  135   3.038   2.514   2.080
    1C        C  136   3.257   2.477   2.189
    1C        C  137   3.194   2.518   2.309
    1C        C  138   3.404   2.476   2.429
    1C        C  139   3.265   2.499   2.429
    1C        C  140   3.479   2.478   2.548
    1C        C  141   3.406   2.493   2.668
    1C        C  142   3.620   2.500   2.790
    1C        C  143   3.479   2.492   2.790
    1C        C  144   3.689   2.513   2.912
    1C        C  145   3.622   2.503   3.036
    1C        C  146   3.830   2.545   3.157
    1C        C  147   3.693   2.508   3.157
    1C        C  148   3.897   2.573   3.279
    1C        C  149   3.828   2.551   3.400
    1C        C  150   4.028   2.626   3.523
    1C        C  151   3.897   2.572   3.522
    1C        C  152   4.084   2.669   3.645
    1C        C  153   4.022   2.640   3.768
    1C        C  154   4.195   2.764   3.888
    1C        C  155   4.083   2.679   3.890
    1C        C  156   4.247   2.814   4.010
    1C        C  157   4.201   2.764   4.134
    1C        C  158   4.343   2.919   4.255
    1C        C  159   4.250   2.812   4.257
    1C        C  160   4.380   2.981   4.376
    1C        C  161   4.336   2.927   4.499
    1C        C  162   4.434   3.117   4.616
    1C        C  163   4.372   2.990   4.620
    1C        C  164   4.464   3.186   4.736
    1C        C  165   4.427   3.126   4.858
    1C        C  166   4.516   3.322   4.974
    1C        C  167   4.476   3.189   4.973
    1C        C  168   3.474   2.435   2.073
    1C        C  169   3.397   2.459   2.188
    1C        C  170   3.616   2.472   2.305
    1C        C  171   3.474   2.464   2.306
    1C        C  172   3.691   2.488   2.423
    1C        C  173   3.620   2.486   2.546
    1C        C  174   3.825   2.543   2.666
    1C        C  175   3.690   2.502   2.667
    1C        C  176   3.894   2.563   2.788
    1C        C  177   3.827   2.545   2.911
    1C        C  178   4.023   2.623   3.031
    1C        C  179   3.894   2.567   3.033
    1C        C  180   4.084   2.664   3.152
    1C        C  181   4.025   2.633   3.276
    1C        C  182   4.199   2.748   3.395
    1C        C  183   4.087   2.662   3.399
    1C        C  184   4.243   2.802   3.518
    1C        C  185   4.196   2.755   3.643
    1C        C  186   4.338   2.916   3.765
    1C        C  187   4.250   2.805   3.764
    1C        C  188   4.381   2.975   3.886
    1C        C  189   4.343   2.918   4.009
    1C        C  190   4.446   3.102   4.128
    1C        C  191   4.381   2.977   4.132
    1C        C  192   4.469   3.170   4.250
    1C        C  193   4.440   3.109   4.374
    1C        C  194   4.507   3.315   4.491
    1C        C  195   4.465   3.180   4.493
    1C        C  196   4.518   3.389   4.611
    1C        C  197   4.502   3.323   4.735
    1C        C  198   4.550   3.536   4.849
    1C        C  199   4.527   3.395   4.855
    1C        C  200   4.583   3.620   4.959
    1C        C  201   3.613   2.416   2.073
    1C        C  202   3.826   2.509   2.183
    1C        C  203   3.689   2.465   2.184
    1C        C  204   3.896   2.544   2.301
    1C        C  205   3.828   2.522   2.422
    1C        C  206   4.018   2.622   2.542
    1C        C  207   3.892   2.558   2.543
    1C        C  208   4.082   2.657   2.663
    1C        C  209   4.020   2.629   2.787
    1C        C  210   4.197   2.746   2.907
    1C        C  211   4.081   2.666   2.909
    1C        C  212   4.250   2.796   3.028
    1C        C  213   4.193   2.753   3.150
    1C        C  214   4.336   2.908   3.271
    1C        C  215   4.247   2.798   3.273
    1C        C  216   4.371   2.967   3.395
    1C        C  217   4.332   2.912   3.519
    1C        C  218   4.438   3.096   3.638
    1C        C  219   4.378   2.968   3.640
    1C        C  220   4.461   3.167   3.758
    1C        C  221   4.444   3.101   3.882
    1C        C  222   4.497   3.305   4.003
    1C        C  223   4.472   3.166   4.005
    1C        C  224   4.508   3.378   4.124
    1C        C  225   4.497   3.308   4.246
    1C        C  226   4.515   3.523   4.367
    1C        C  227   4.510   3.382   4.366
    1C        C  228   4.513   3.599   4.486
    1C        C  229   4.524   3.530   4.609
    1C        C  230   4.503   3.745   4.725
    1C        C  231   4.536   3.607   4.726
    1C        C  232   4.497   3.822   4.844
    1C        C  233   4.542   3.754   4.957
    1C        C  234   4.016   2.610   2.063
    1C        C  235   3.896   2.539   2.065
    1C        C  236   4.085   2.648   2.179
    1C        C  237   4.023   2.609   2.300
    1C        C  238   4.199   2.735   2.421
    1C        C  239   4.081   2.655   2.420
    1C        C  240   4.255   2.783   2.542
    1C        C  241   4.197   2.739   2.663
    1C        C  242   4.335   2.904   2.784
    1C        C  243   4.248   2.792   2.783
    1C        C  244   4.379   2.962   2.905
    1C        C  245   4.340   2.905   3.028
    1C        C  246   4.443   3.091   3.149
    1C        C  247   4.383   2.963   3.150
    1C        C  248   4.461   3.159   3.272
    1C        C  249   4.431   3.095   3.394
    1C        C  250   4.495   3.299   3.513
    1C        C  251   4.459   3.162   3.515
    1C        C  252   4.506   3.369   3.636
    1C        C  253   4.498   3.303   3.760
    1C        C  254   4.515   3.517   3.877
    1C        C  255   4.509   3.375   3.881
    1C        C  256   4.509   3.588   3.999
    1C        C  257   4.510   3.519   4.123
    1C        C  258   4.485   3.731   4.242
    1C        C  259   4.508   3.592   4.244
    1C        C  260   4.471   3.806   4.361
    1C        C  261   4.490   3.738   4.483
    1C        C  262   4.433   3.945   4.603
    1C        C  263   4.475   3.810   4.603
    1C        C  264   4.407   4.017   4.722
    1C        C  265   4.440   3.952   4.843
    1C        C  266   4.318   4.132   4.957
    1C        C  267   4.395   4.016   4.959
    1C        C  268   4.264   2.770   2.058
    1C        C  269   4.198   2.733   2.176
    1C        C  270   4.341   2.891   2.299
    1C        C  271   4.250   2.782   2.298
    1C        C  272   4.386   2.951   2.419
    1C        C  273   4.340   2.895   2.540
    1C        C  274   4.448   3.080   2.659
    1C        C  275   4.375   2.960   2.661
    1C        C  276   4.471   3.150   2.780
    1C        C  277   4.447   3.086   2.904
    1C        C  278   4.507   3.290   3.024
    1C        C  279   4.469   3.154   3.026
    1C        C  280   4.515   3.362   3.146
    1C        C  281   4.497   3.296   3.270
    1C        C  282   4.508   3.510   3.390
    1C        C  283   4.506   3.368   3.391
    1C        C  284   4.508   3.582   3.511
    1C        C  285   4.511   3.510   3.634
    1C        C  286   4.487   3.725   3.752
    1C        C  287   4.508   3.585   3.754
    1C        C  288   4.467   3.794   3.874
    1C        C  289   4.485   3.727   3.997
    1C        C  290   4.428   3.933   4.116
    1C        C  291   4.469   3.798   4.118
    1C        C  292   4.402   4.002   4.237
    1C        C  293   4.427   3.940   4.361
    1C        C  294   4.331   4.132   4.478
    1C        C  295   4.400   4.009   4.482
    1C        C  296   4.289   4.194   4.597
    1C        C  297   4.335   4.140   4.719
    1C        C  298   4.204   4.316   4.838
    1C        C  299   4.293   4.204   4.839
    1C        C  300   4.165   4.398   4.949
    1C        C  301   4.353   2.876   2.066
    1C        C  302   4.471   3.068   2.176
    1C        C  303   4.393   2.948   2.180
    1C        C  304   4.483   3.143   2.296
    1C        C  305   4.449   3.078   2.417
    1C        C  306   4.512   3.282   2.536
    1C        C  307   4.482   3.144   2.538
    1C        C  308   4.521   3.355   2.656
    1C        C  309   4.504   3.288   2.779
    1C        C  310   4.517   3.500   2.897
    1C        C  311   4.516   3.359   2.901
    1C        C  312   4.509   3.569   3.020
    1C        C  313   4.515   3.503   3.145
    1C        C  314   4.482   3.715   3.263
    1C        C  315   4.511   3.577   3.265
    1C        C  316   4.467   3.787   3.383
    1C        C  317   4.487   3.721   3.507
    1C        C  318   4.424   3.924   3.625
    1C        C  319   4.469   3.790   3.629
    1C        C  320   4.397   3.990   3.747
    1C        C  321   4.420   3.927   3.871
    1C        C  322   4.321   4.115   3.990
    1C        C  323   4.392   3.993   3.993
    1C        C  324   4.279   4.174   4.112
    1C        C  325   4.326   4.121   4.235
    1C        C  326   4.196   4.292   4.351
    1C        C  327   4.291   4.188   4.354
    1C        C  328   4.144   4.345   4.471
    1C        C  329   4.194   4.298   4.595
    1C        C  330   4.027   4.436   4.713
    1C        C  331   4.143   4.353   4.715
    1C        C  332   3.970   4.492   4.830
    1C        C  333   4.051   4.479   4.943
    1C        C  334   4.542   3.267   2.064
    1C        C  335   4.528   3.128   2.060
    1C        C  336   4.538   3.351   2.176
    1C        C  337   4.518   3.281   2.297
    1C        C  338   4.523   3.497   2.412
    1C        C  339   4.521   3.356   2.416
    1C        C  340   4.519   3.570   2.533
    1C        C  341   4.520   3.496   2.654
    1C        C  342   4.492   3.709   2.775
    1C        C  343   4.516   3.570   2.775
    1C        C  344   4.472   3.778   2.896
    1C        C  345   4.487   3.709   3.019
    1C        C  346   4.425   3.916   3.137
    1C        C  347   4.464   3.780   3.139
    1C        C  348   4.394   3.982   3.259
    1C        C  349   4.427   3.922   3.382
    1C        C  350   4.320   4.108   3.502
    1C        C  351   4.397   3.990   3.503
    1C        C  352   4.281   4.169   3.624
    1C        C  353   4.321   4.110   3.745
    1C        C  354   4.178   4.268   3.867
    1C        C  355   4.276   4.166   3.867
    1C        C  356   4.126   4.321   3.987
    1C        C  357   4.180   4.274   4.109
    1C        C  358   4.012   4.403   4.230
    1C        C  359   4.132   4.329   4.230
    1C        C  360   3.955   4.445   4.352
    1C        C  361   4.022   4.416   4.473
    1C        C  362   3.830   4.515   4.593
    1C        C  363   3.959   4.459   4.592
    1C        C  364   3.760   4.542   4.713
    1C        C  365   3.835   4.534   4.832
    1C        C  366   3.626   4.586   4.951
    1C        C  367   3.764   4.571   4.947
    1C        C  368   4.513   3.565   2.053
    1C        C  369   4.523   3.491   2.172
    1C        C  370   4.510   3.709   2.287
    1C        C  371   4.520   3.569   2.290
    1C        C  372   4.492   3.779   2.409
    1C        C  373   4.502   3.710   2.531
    1C        C  374   4.425   3.910   2.649
    1C        C  375   4.475   3.778   2.653
    1C        C  376   4.400   3.977   2.771
    1C        C  377   4.430   3.913   2.893
    1C        C  378   4.323   4.097   3.011
    1C        C  379   4.401   3.980   3.014
    1C        C  380   4.278   4.155   3.132
    1C        C  381   4.318   4.101   3.257
    1C        C  382   4.180   4.263   3.377
    1C        C  383   4.276   4.159   3.378
    1C        C  384   4.131   4.313   3.499
    1C        C  385   4.183   4.271   3.623
    1C        C  386   4.010   4.397   3.742
    1C        C  387   4.126   4.316   3.745
    1C        C  388   3.947   4.433   3.863
    1C        C  389   4.008   4.399   3.986
    1C        C  390   3.818   4.491   4.108
    1C        C  391   3.948   4.436   4.108
    1C        C  392   3.750   4.513   4.230
    1C        C  393   3.824   4.497   4.350
    1C        C  394   3.618   4.545   4.475
    1C        C  395   3.758   4.528   4.471
    1C        C  396   3.544   4.552   4.596
    1C        C  397   3.621   4.562   4.714
    1C        C  398   3.410   4.550   4.839
    1C        C  399   3.549   4.573   4.835
    1C        C  400   3.343   4.505   4.953
    1C        C  401   4.507   3.704   2.049
    1C        C  402   4.452   3.915   2.161
    1C        C  403   4.493   3.780   2.166
    1C        C  404   4.411   3.973   2.282
    1C        C  405   4.435   3.908   2.405
    1C        C  406   4.329   4.095   2.526
    1C        C  407   4.402   3.974   2.526
    1C        C  408   4.282   4.153   2.647
    1C        C  409   4.324   4.096   2.769
    1C        C  410   4.179   4.254   2.888
    1C        C  411   4.279   4.155   2.890
    1C        C  412   4.127   4.302   3.010
    1C        C  413   4.181   4.258   3.133
    1C        C  414   4.004   4.379   3.252
    1C        C  415   4.126   4.307   3.254
    1C        C  416   3.947   4.416   3.376
    1C        C  417   4.010   4.387   3.500
    1C        C  418   3.813   4.473   3.618
    1C        C  419   3.945   4.423   3.620
    1C        C  420   3.747   4.495   3.741
    1C        C  421   3.815   4.485   3.864
    1C        C  422   3.609   4.533   3.988
    1C        C  423   3.749   4.510   3.986
    1C        C  424   3.541   4.537   4.111
    1C        C  425   3.611   4.535   4.234
    1C        C  426   3.402   4.549   4.356
    1C        C  427   3.543   4.554   4.356
    1C        C  428   3.330   4.537   4.477
    1C        C  429   3.403   4.549   4.598
    1C        C  430   3.194   4.517   4.723
    1C        C  431   3.333   4.546   4.721
    1C        C  432   3.124   4.491   4.844
    1C        C  433   3.206   4.482   4.957
    1C        C  434   4.386   4.127   2.053
    1C        C  435   4.442   3.999   2.049
    1C        C  436   4.300   4.159   2.163
    1C        C  437   4.331   4.091   2.283
    1C        C  438   4.180   4.244   2.402
    1C        C  439   4.282   4.147   2.404
    1C        C  440   4.128   4.299   2.521
    1C        C  441   4.181   4.251   2.643
    1C        C  442   4.008   4.376   2.765
    1C        C  443   4.126   4.298   2.764
    1C        C  444   3.945   4.410   2.887
    1C        C  445   4.008   4.377   3.009
    1C        C  446   3.814   4.471   3.130
    1C        C  447   3.944   4.414   3.130
    1C        C  448   3.749   4.492   3.254
    1C        C  449   3.816   4.467   3.376
    1C        C  450   3.607   4.521   3.496
    1C        C  451   3.744   4.489   3.496
    1C        C  452   3.540   4.535   3.620
    1C        C  453   3.609   4.526   3.743
    1C        C  454   3.398   4.542   3.865
    1C        C  455   3.539   4.539   3.866
    1C        C  456   3.330   4.530   3.988
    1C        C  457   3.399   4.537   4.111
    1C        C  458   3.194   4.498   4.237
    1C        C  459   3.331   4.536   4.234
    1C        C  460   3.123   4.484   4.358
    1C        C  461   3.192   4.507   4.479
    1C        C  462   2.995   4.436   4.602
    1C        C  463   3.125   4.492   4.602
    1C        C  464   2.928   4.405   4.723
    1C        C  465   2.989   4.443   4.845
    1C        C  466   2.801   4.342   4.956
    1C        C  467   2.908   4.431   4.963
    1C        C  468   4.121   4.281   2.043
    1C        C  469   4.188   4.248   2.161
    1C        C  470   4.004   4.367   2.278
    1C        C  471   4.124   4.290   2.281
    1C        C  472   3.941   4.399   2.400
    1C        C  473   4.009   4.375   2.522
    1C        C  474   3.812   4.458   2.642
    1C        C  475   3.943   4.404   2.643
    1C        C  476   3.747   4.485   2.764
    1C        C  477   3.816   4.466   2.886
    1C        C  478   3.607   4.510   3.010
    1C        C  479   3.746   4.488   3.007
    1C        C  480   3.537   4.523   3.132
    1C        C  481   3.611   4.522   3.252
    1C        C  482   3.397   4.525   3.377
    1C        C  483   3.538   4.529   3.373
    1C        C  484   3.328   4.522   3.500
    1C        C  485   3.399   4.536   3.621
    1C        C  486   3.191   4.494   3.745
    1C        C  487   3.327   4.532   3.743
    1C        C  488   3.126   4.473   3.869
    1C        C  489   3.194   4.493   3.991
    1C        C  490   2.999   4.415   4.114
    1C        C  491   3.127   4.475   4.115
    1C        C  492   2.937   4.384   4.237
    1C        C  493   2.995   4.425   4.359
    1C        C  494   2.827   4.301   4.482
    1C        C  495   2.934   4.394   4.482
    1C        C  496   2.768   4.259   4.603
    1C        C  497   2.815   4.319   4.722
    1C        C  498   2.666   4.166   4.845
    1C        C  499   2.751   4.280   4.841
    1C        C  500   2.600   4.116   4.958
    1C        C  501   3.999   4.348   2.036
    1C        C  502   3.816   4.459   2.157
    1C        C  503   3.944   4.401   2.154
    1C        C  504   3.746   4.482   2.277
    1C        C  505   3.811   4.454   2.399
    1C        C  506   3.606   4.509   2.520
    1C        C  507   3.743   4.477   2.520
    1C        C  508   3.535   4.516   2.642
    1C        C  509   3.606   4.503   2.764
    1C        C  510   3.396   4.518   2.886
    1C        C  511   3.537   4.511   2.887
    1C        C  512   3.323   4.513   3.007
    1C        C  513   3.396   4.520   3.128
    1C        C  514   3.192   4.489   3.254
    1C        C  515   3.330   4.520   3.253
    1C        C  516   3.125   4.467   3.377
    1C        C  517   3.190   4.492   3.500
    1C        C  518   2.998   4.407   3.624
    1C        C  519   3.124   4.472   3.623
    1C        C  520   2.938   4.374   3.748
    1C        C  521   2.998   4.413   3.869
    1C        C  522   2.826   4.291   3.996
    1C        C  523   2.938   4.378   3.992
    1C        C  524   2.776   4.244   4.119
    1C        C  525   2.827   4.295   4.240
    1C        C  526   2.690   4.134   4.365
    1C        C  527   2.774   4.248   4.362
    1C        C  528   2.654   4.075   4.488
    1C        C  529   2.685   4.145   4.607
    1C        C  530   2.581   3.961   4.732
    1C        C  531   2.641   4.090   4.729
    1C        C  532   2.545   3.901   4.856
    1C        C  533   2.531   3.994   4.963
    1C        C  534   3.619   4.553   2.037
    1C        C  535   3.753   4.515   2.044
    1C        C  536   3.538   4.533   2.154
    1C        C  537   3.605   4.504   2.275
    1C        C  538   3.395   4.508   2.399
    1C        C  539   3.536   4.514   2.398
    1C        C  540   3.323   4.506   2.521
    1C        C  541   3.393   4.514   2.643
    1C        C  542   3.185   4.482   2.766
    1C        C  543   3.324   4.509   2.765
    1C        C  544   3.116   4.465   2.888
    1C        C  545   3.185   4.482   3.011
    1C        C  546   2.993   4.403   3.134
    1C        C  547   3.120   4.464   3.135
    1C        C  548   2.939   4.363   3.259
    1C        C  549   3.001   4.401   3.381
    1C        C  550   2.825   4.283   3.502
    1C        C  551   2.937   4.369   3.503
    1C        C  552   2.776   4.238   3.627
    1C        C  553   2.827   4.287   3.750
    1C        C  554   2.693   4.127   3.875
    1C        C  555   2.778   4.240   3.874
    1C        C  556   2.659   4.066   3.998
    1C        C  557   2.689   4.132   4.119
    1C        C  558   2.603   3.942   4.245
    1C        C  559   2.652   4.074   4.243
    1C        C  560   2.573   3.880   4.368
    1C        C  561   2.594   3.947   4.491
    1C        C  562   2.532   3.747   4.614
    1C        C  563   2.564   3.885   4.614
    1C        C  564   2.523   3.681   4.738
    1C        C  565   2.530   3.759   4.857
    1C        C  566   2.527   3.546   4.976
    1C        C  567   2.526   3.685   4.976
    1C        C  568   3.324   4.474   2.044
    1C        C  569   3.397   4.510   2.157
    1C        C  570   3.183   4.478   2.279
    1C        C  571   3.322   4.506   2.278
    1C        C  572   3.115   4.454   2.401
    1C        C  573   3.184   4.481   2.522
    1C        C  574   2.987   4.404   2.645
    1C        C  575   3.116   4.463   2.645
    1C        C  576   2.930   4.366   2.768
    1C        C  577   2.989   4.404   2.891
    1C        C  578   2.819   4.278   3.016
    1C        C  579   2.928   4.368   3.013
    1C        C  580   2.773   4.225   3.138
    1C        C  581   2.829   4.275   3.257
    1C        C  582   2.695   4.114   3.384
    1C        C  583   2.780   4.227   3.381
    1C        C  584   2.660   4.057   3.509
    1C        C  585   2.696   4.122   3.629
    1C        C  586   2.600   3.936   3.758
    1C        C  587   2.658   4.065   3.753
    1C        C  588   2.573   3.871   3.880
    1C        C  589   2.603   3.936   4.002
    1C        C  590   2.535   3.737   4.126
    1C        C  591   2.580   3.871   4.125
    1C        C  592   2.524   3.671   4.250
    1C        C  593   2.538   3.743   4.371
    1C        C  594   2.513   3.533   4.498
    1C        C  595   2.525   3.674   4.494
    1C        C  596   2.517   3.463   4.621
    1C        C  597   2.521   3.538   4.740
    1C        C  598   2.534   3.324   4.863
    1C        C  599   2.529   3.465   4.861
    1C        C  600   2.537   3.246   4.979
    1C        C  601   3.191   4.438   2.041
    1C        C  602   2.979   4.398   2.160
    1C        C  603   3.116   4.439   2.160
    1C        C  604   2.920   4.364   2.285
    1C        C  605   2.987   4.395   2.405
    1C        C  606   2.815   4.270   2.526
    1C        C  607   2.924   4.359   2.527
    1C        C  608   2.771   4.221   2.651
    1C        C  609   2.826   4.270   2.771
    1C        C  610   2.688   4.110   2.895
    1C        C  611   2.775   4.222   2.894
    1C        C  612   2.649   4.053   3.018
    1C        C  613   2.686   4.113   3.140
    1C        C  614   2.586   3.929   3.266
    1C        C  615   2.650   4.054   3.264
    1C        C  616   2.567   3.866   3.392
    1C        C  617   2.596   3.932   3.513
    1C        C  618   2.534   3.732   3.637
    1C        C  619   2.570   3.869   3.637
    1C        C  620   2.519   3.665   3.760
    1C        C  621   2.531   3.736   3.882
    1C        C  622   2.506   3.527   4.009
    1C        C  623   2.521   3.667   4.005
    1C        C  624   2.510   3.457   4.132
    1C        C  625   2.515   3.530   4.253
    1C        C  626   2.545   3.323   4.380
    1C        C  627   2.515   3.461   4.376
    1C        C  628   2.560   3.253   4.502
    1C        C  629   2.544   3.325   4.623
    1C        C  630   2.600   3.118   4.742
    1C        C  631   2.554   3.252   4.743
    1C        C  632   2.617   3.046   4.864
    1C        C  633   2.555   3.107   4.978
    1C        C  634   2.779   4.306   2.054
    1C        C  635   2.889   4.392   2.049
    1C        C  636   2.748   4.229   2.167
    1C        C  637   2.810   4.274   2.286
    1C        C  638   2.668   4.113   2.410
    1C        C  639   2.756   4.224   2.406
    1C        C  640   2.637   4.049   2.532
    1C        C  641   2.682   4.111   2.651
    1C        C  642   2.582   3.925   2.778
    1C        C  643   2.644   4.052   2.774
    1C        C  644   2.560   3.859   2.900
    1C        C  645   2.591   3.924   3.022
    1C        C  646   2.532   3.723   3.147
    1C        C  647   2.565   3.860   3.145
    1C        C  648   2.516   3.657   3.271
    1C        C  649   2.531   3.729   3.392
    1C        C  650   2.513   3.520   3.521
    1C        C  651   2.525   3.661   3.515
    1C        C  652   2.518   3.451   3.643
    1C        C  653   2.517   3.524   3.765
    1C        C  654   2.544   3.317   3.890
    1C        C  655   2.514   3.455   3.888
    1C        C  656   2.560   3.249   4.013
    1C        C  657   2.538   3.318   4.135
    1C        C  658   2.616   3.123   4.258
    1C        C  659   2.562   3.253   4.258
    1C        C  660   2.644   3.058   4.380
    1C        C  661   2.606   3.120   4.502
    1C        C  662   2.711   2.933   4.624
    1C        C  663   2.633   3.051   4.622
    1C        C  664   2.752   2.874   4.745
    1C        C  665   2.699   2.929   4.866
    1C        C  666   2.741   2.865   4.983
    1C        C  667   2.681   4.025   2.052
    1C        C  668   2.684   4.103   2.169
    1C        C  669   2.589   3.913   2.290
    1C        C  670   2.638   4.046   2.289
    1C        C  671   2.554   3.850   2.412
    1C        C  672   2.578   3.921   2.532
    1C        C  673   2.521   3.721   2.659
    1C        C  674   2.555   3.858   2.656
    1C        C  675   2.514   3.651   2.781
    1C        C  676   2.529   3.721   2.903
    1C        C  677   2.514   3.510   3.029
    1C        C  678   2.521   3.651   3.025
    1C        C  679   2.514   3.443   3.154
    1C        C  680   2.510   3.516   3.275
    1C        C  681   2.538   3.309   3.401
    1C        C  682   2.516   3.449   3.399
    1C        C  683   2.552   3.241   3.524
    1C        C  684   2.537   3.311   3.646
    1C        C  685   2.605   3.112   3.770
    1C        C  686   2.557   3.244   3.769
    1C        C  687   2.642   3.053   3.893
    1C        C  688   2.609   3.117   4.015
    1C        C  689   2.715   2.933   4.136
    1C        C  690   2.644   3.055   4.137
    1C        C  691   2.755   2.877   4.259
    1C        C  692   2.716   2.937   4.381
    1C        C  693   2.760   2.879   4.503
    1C        C  694   2.627   3.896   2.053
    1C        C  695   2.526   3.706   2.174
    1C        C  696   2.578   3.838   2.171
    1C        C  697   2.506   3.640   2.298
    1C        C  698   2.520   3.713   2.418
    1C        C  699   2.495   3.505   2.543
    1C        C  700   2.504   3.645   2.541
    1C        C  701   2.498   3.435   2.666
    1C        C  702   2.505   3.510   2.786
    1C        C  703   2.531   3.299   2.911
    1C        C  704   2.510   3.439   2.908
    1C        C  705   2.557   3.235   3.035
    1C        C  706   2.542   3.304   3.157
    1C        C  707   2.603   3.104   3.279
    1C        C  708   2.552   3.236   3.280
    1C        C  709   2.637   3.044   3.403
    1C        C  710   2.607   3.111   3.524
    1C        C  711   2.714   2.931   3.648
    1C        C  712   2.636   3.049   3.647
    1C        C  713   2.761   2.877   3.770
    1C        C  714   2.714   2.931   3.892
    1C        C  715   2.756   2.875   4.014
    1C        C  716   2.453   3.501   2.062
    1C        C  717   2.493   3.635   2.058
    1C        C  718   2.476   3.425   2.181
    1C        C  719   2.484   3.500   2.302
    1C        C  720   2.519   3.291   2.422
    1C        C  721   2.493   3.430   2.424
    1C        C  722   2.539   3.223   2.545
    1C        C  723   2.525   3.296   2.665
    1C        C  724   2.603   3.101   2.789
    1C        C  725   2.546   3.230   2.788
    1C        C  726   2.630   3.037   2.912
    1C        C  727   2.600   3.101   3.035
    1C        C  728   2.705   2.918   3.160
    1C        C  729   2.631   3.038   3.158
    1C        C  730   2.751   2.866   3.284
    1C        C  731   2.713   2.925   3.406
    1C        C  732   2.756   2.869   3.529
    1C        C  733   2.492   3.199   2.072
    1C        C  734   2.499   3.284   2.183
    1C        C  735   2.588   3.085   2.303
    1C        C  736   2.535   3.217   2.303
    1C        C  737   2.616   3.020   2.426
    1C        C  738   2.592   3.092   2.545
    1C        C  739   2.706   2.915   2.671
    1C        C  740   2.632   3.035   2.668
    1C        C  741   2.747   2.857   2.793
    1C        C  742   2.709   2.920   2.914
    1C        C  743   2.748   2.864   3.037
    1C        C  744   2.547   3.071   2.071
    1C        C  745   2.679   2.892   2.186
    1C        C  746   2.609   3.014   2.183
    1C        C  747   2.725   2.837   2.308
    1C        C  748   2.685   2.897   2.429
    1C        C  749   2.742   2.851   2.550
    1C        C  750   2.735   2.838   2.069
    1C        C  751   3.662   2.313   1.978
    1C        O  752   3.715   2.202   2.004
    1C        O  753   3.641   2.327   1.840
    1C        C  754   4.623   3.067   1.964
    1C        O  755   4.594   3.061   1.841
    1C        O  756   4.760   3.057   1.992
    1C        C  757   4.461   4.241   1.994
    1C        O  758   4.586   4.244   2.009
    1C        O  759   4.419   4.293   1.871
    1C        C  760   3.598   4.687   1.978
    1C        O  761   3.680   4.781   1.998
    1C        O  762   3.529   4.711   1.858
    1C        C  763   2.882   4.501   1.950
    1C        O  764   2.881   4.476   1.827
    1C        O  765   2.809   4.617   1.976
    1C        C  766   2.342   3.469   1.970
    1C        O  767   2.366   3.464   1.846
    1C        O  768   2.207   3.467   2.006
    1C        C  769   4.698   3.585   5.045
    1C        O  770   4.661   3.541   5.158
    1C        O  771   4.799   3.674   5.084
    1C        C  772   4.258   4.421   5.062
    1C        O  773   4.228   4.365   5.170
    1C        O  774   4.314   4.549   5.072
    1C        C  775   4.149   2.534   5.070
    1C        O  776   4.236   2.448   5.041
    1C        O  777   4.149   2.546   5.210
    1C        C  778   2.906   4.533   5.071
    1C        O  779   2.847   4.642   5.054
    1C        O  780   2.988   4.528   5.185
    1C        C  781   2.427   3.056   5.031
    1C        O  782   2.327   3.037   4.957
    1C        O  783   2.416   3.000   5.158
    1C        C  784   2.416   3.999   5.057
    1C        O  785   2.296   3.997   5.020
    1C        O  786   2.431   3.949   5.187
    1C        C  787   2.941   2.435   2.001
    1C        O  788   2.905   2.473   1.886
    1C        O  789   2.899   2.308   2.039
    1C        C  790   3.195   2.366   5.059
    1C        O  791   3.154   2.256   5.012
    1C        O  792   3.194   2.376   5.198
    1C        H  793   4.264   3.036   5.049
    1C        H  794   4.178   2.809   5.076
    1C        H  795   4.520   3.127   5.048
    1C        H  796   4.509   3.372   5.068
    1C        H  797   4.493   3.782   5.048
    1C        H  798   4.445   3.995   5.051
    1C        H  799   4.240   4.135   5.030
    1C        H  800   4.004   4.490   5.039
    1C        H  801   3.809   4.550   5.042
    1C        H  802   3.590   4.639   5.037
    1C        H  803   3.397   4.468   5.038
    1C        H  804   3.166   4.493   5.056
    1C        H  805   3.906   2.455   5.051
    1C        H  806   3.681   2.462   5.072
    1C        H  807   3.039   2.597   5.071
    1C        H  808   3.444   2.454   5.074
    1C        H  809   2.866   2.723   5.074
    1C        H  810   2.684   2.869   5.073
    1C        H  811   2.535   3.291   5.076
    1C        H  812   2.521   3.499   5.072
    1C        H  813   2.553   3.740   5.063
    1C        H  814   2.636   4.150   5.053
    1C        H  815   2.773   4.298   5.050
    1C        H  816   2.726   2.887   1.974
    1C        H  817   2.851   2.687   1.978
    1C        H  818   3.201   2.404   1.998
    1C        H  819   3.434   2.466   1.979
    1C        H  820   3.866   2.501   1.970
    1C        H  821   4.071   2.592   1.973
    1C        H  822   4.248   2.712   1.969
    1C        H  823   4.401   2.903   1.975
    1C        H  824   4.606   3.304   1.986
    1C        H  825   4.463   3.517   1.972
    1C        H  826   4.562   3.752   1.972
    1C        H  827   3.819   4.531   1.962
    1C        H  828   3.936   4.324   1.954
    1C        H  829   4.176   4.291   1.952
    1C        H  830   4.482   3.966   1.955
    1C        H  831   2.675   3.834   1.980
    1C        H  832   2.686   4.074   1.957
    1C        H  833   2.703   4.313   1.979
    1C        H  834   3.363   4.504   1.949
    1C        H  835   3.140   4.424   1.948
    1C        H  836   2.511   3.003   1.996
    1C        H  837   2.404   3.219   2.015
    1C        H  838   2.494   3.680   1.961
    2V3OU   H29  839   2.807   3.549   5.429
    2V3OU   C27  840   2.784   3.502   5.528
    2V3OU   H27  841   2.723   3.579   5.583
    2V3OU   H28  842   2.725   3.408   5.513
    2V3OU   O11  843   2.909   3.480   5.595
    2V3OU   C15  844   2.921   3.397   5.705
    2V3OU   C13  845   3.048   3.379   5.763
    2V3OU   C14  846   3.076   3.273   5.850
    2V3OU   C16  847   2.971   3.189   5.884
    2V3OU    H6  848   2.989   3.102   5.948
    2V3OU   C12  849   3.216   3.229   5.875
    2V3OU    O2  850   3.236   3.127   5.946
    2V3OU   C10  851   3.324   3.307   5.814
    2V3OU    C8  852   3.457   3.271   5.836
    2V3OU   O10  853   3.493   3.151   5.891
    2V3OU   H26  854   3.405   3.117   5.916
    2V3OU    C6  855   3.566   3.349   5.788
    2V3OU    C5  856   3.540   3.468   5.721
    2V3OU    C4  857   3.702   3.289   5.782
    2V3OU    H4  858   3.729   3.224   5.870
    2V3OU    H5  859   3.707   3.224   5.689
    2V3OU    C2  860   3.811   3.396   5.775
    2V3OU    O6  861   3.809   3.483   5.889
    2V3OU   H21  862   3.767   3.560   5.848
    2V3OU    C3  863   3.781   3.495   5.662
    2V3OU    H2  864   3.864   3.571   5.655
    2V3OU    H3  865   3.785   3.434   5.568
    2V3OU   C25  866   3.948   3.330   5.763
    2V3OU    O7  867   3.990   3.296   5.652
    2V3OU   C26  868   4.027   3.291   5.887
    2V3OU   H22  869   4.073   3.378   5.941
    2V3OU   H23  870   4.116   3.230   5.856
    2V3OU    O8  871   3.958   3.205   5.974
    2V3OU   H24  872   3.923   3.259   6.048
    2V3OU    C1  873   3.646   3.564   5.675
    2V3OU    H1  874   3.626   3.619   5.578
    2V3OU    O3  875   3.658   3.655   5.785
    2V3OU   C19  876   3.618   3.790   5.761
    2V3OU    H9  877   3.520   3.807   5.706
    2V3OU    O4  878   3.717   3.847   5.678
    2V3OU   C20  879   3.848   3.872   5.728
    2V3OU   H10  880   3.892   3.769   5.745
    2V3OU   C24  881   3.609   3.853   5.900
    2V3OU   H16  882   3.537   3.792   5.959
    2V3OU   H17  883   3.564   3.953   5.877
    2V3OU   C23  884   3.748   3.871   5.961
    2V3OU   H15  885   3.790   3.767   5.978
    2V3OU    N1  886   3.733   3.957   6.077
    2V3OU   H19  887   3.805   3.931   6.141
    2V3OU   H20  888   3.648   3.941   6.127
    2V3OU   C21  889   3.845   3.944   5.863
    2V3OU   H11  890   3.950   3.914   5.893
    2V3OU    O5  891   3.829   4.085   5.854
    2V3OU   H18  892   3.777   4.104   5.934
    2V3OU   C22  893   3.910   3.951   5.614
    2V3OU   H12  894   3.855   4.047   5.599
    2V3OU   H13  895   3.908   3.889   5.520
    2V3OU   H14  896   4.020   3.965   5.629
    2V3OU   C11  897   3.158   3.468   5.724
    2V3OU    O1  898   3.137   3.589   5.700
    2V3OU    C9  899   3.299   3.427   5.744
    2V3OU    C7  900   3.404   3.504   5.696
    2V3OU    O9  901   3.384   3.617   5.619
    2V3OU   H25  902   3.287   3.625   5.624
    2V3OU   C17  903   2.817   3.311   5.745
    2V3OU    H7  904   2.716   3.341   5.716
    2V3OU   C18  905   2.841   3.210   5.837
    2V3OU    H8  906   2.756   3.148   5.868
    3SOL     OW  907   3.492   3.217   3.751
    3SOL    HW1  908   3.493   3.142   3.686
    3SOL    HW2  909   3.472   3.303   3.704
    4SOL     OW  910   6.615   6.195   0.560
    4SOL    HW1  911   6.597   6.286   0.522
    4SOL    HW2  912   6.545   6.131   0.528
    5SOL     OW  913   5.424   1.671   0.811
    5SOL    HW1  914   5.429   1.572   0.824
    5SOL    HW2  915   5.444   1.717   0.898
    6SOL     OW  916   5.286   1.263   2.812
    6SOL    HW1  917   5.275   1.309   2.724
    6SOL    HW2  918   5.218   1.298   2.877
    7SOL     OW  919   1.975   4.148   3.937
    7SOL    HW1  920   2.050   4.084   3.914
    7SOL    HW2  921   1.972   4.160   4.036
    8SOL     OW  922   0.839   3.248   4.672
    8SOL    HW1  923   0.904   3.181   4.637
    8SOL    HW2  924   0.794   3.294   4.596
    9SOL     OW  925   6.912   0.626   6.757
    9SOL    HW1  926   6.925   0.528   6.772
    9SOL    HW2  927   6.819   0.651   6.783
   10SOL     OW  928   5.091   4.611   1.829
   10SOL    HW1  929   5.025   4.596   1.756
   10SOL    HW2  930   5.182   4.624   1.790
   11SOL     OW  931   1.894   2.388   0.473
   11SOL    HW1  932   1.849   2.322   0.412
   11SOL    HW2  933   1.825   2.438   0.525
   12SOL     OW  934   3.992   5.375   2.578
   12SOL    HW1  935   4.018   5.438   2.651
   12SOL    HW2  936   4.009   5.281   2.608
   13SOL     OW  937   6.105   6.156   1.421
   13SOL    HW1  938   6.014   6.123   1.444
   13SOL    HW2  939   6.174   6.097   1.463
   14SOL     OW  940   4.336   6.563   5.915
   14SOL    HW1  941   4.316   6.659   5.931
   14SOL    HW2  942   4.254   6.517   5.880
   15SOL     OW  943   1.167   6.477   5.996
   15SOL    HW1  944   1.092   6.461   5.932
   15SOL    HW2  945   1.218   6.392   6.010
   16SOL     OW  946   2.150   4.551   4.876
   16SOL    HW1  947   2.082   4.517   4.941
   16SOL    HW2  948   2.103   4.601   4.803
   17SOL     OW  949   6.083   1.021   5.405
   17SOL    HW1  950   6.080   0.922   5.421
   17SOL    HW2  951   5.996   1.051   5.365
   18SOL     OW  952   3.180   1.542   5.970
   18SOL    HW1  953   3.134   1.512   5.886
   18SOL    HW2  954   3.268   1.583   5.946
   19SOL     OW  955   2.786   6.657   2.874
   19SOL    HW1  956   2.873   6.656   2.922
   19SOL    HW2  957   2.720   6.601   2.923
   20SOL     OW  958   6.277   1.418   5.306
   20SOL    HW1  959   6.177   1.410   5.310
   20SOL    HW2  960   6.303   1.472   5.226
   21SOL     OW  961   2.367   4.347   2.499
   21SOL    HW1  962   2.302   4.278   2.467
   21SOL    HW2  963   2.386   4.411   2.424
   22SOL     OW  964   1.243   0.712   6.883
   22SOL    HW1  965   1.213   0.799   6.844
   22SOL    HW2  966   1.197   0.698   6.971
   23SOL     OW  967   5.342   4.786   1.394
   23SOL    HW1  968   5.288   4.706   1.423
   23SOL    HW2  969   5.338   4.796   1.295
   24SOL     OW  970   4.541   1.380   0.618
   24SOL    HW1  971   4.518   1.445   0.546
   24SOL    HW2  972   4.640   1.375   0.629
   25SOL     OW  973   2.243   0.666   4.622
   25SOL    HW1  974   2.156   0.688   4.667
   25SOL    HW2  975   2.281   0.583   4.663
   26SOL     OW  976   0.416   2.291   6.387
   26SOL    HW1  977   0.374   2.282   6.297
   26SOL    HW2  978   0.391   2.213   6.444
   27SOL     OW  979   6.457   0.575   2.372
   27SOL    HW1  980   6.443   0.562   2.274
   27SOL    HW2  981   6.537   0.522   2.401
   28SOL     OW  982   2.296   0.502   4.985
   28SOL    HW1  983   2.338   0.414   4.964
   28SOL    HW2  984   2.260   0.499   5.078
   29SOL     OW  985   0.097   6.858   0.977
   29SOL    HW1  986   0.118   6.872   1.074
   29SOL    HW2  987   0.177   6.820   0.930
   30SOL     OW  988   4.891   0.261   5.123
   30SOL    HW1  989   4.801   0.217   5.126
   30SOL    HW2  990   4.952   0.218   5.190
   31SOL     OW  991   0.547   3.594   5.221
   31SOL    HW1  992   0.490   3.540   5.159
   31SOL    HW2  993   0.502   3.681   5.242
   32SOL     OW  994   3.894   0.704   1.226
   32SOL    HW1  995   3.811   0.653   1.201
   32SOL    HW2  996   3.888   0.796   1.188
   33SOL     OW  997   2.091   5.442   6.167
   33SOL    HW1  998   2.008   5.392   6.146
   33SOL    HW2  999   2.140   5.396   6.241
   34SOL     OW 1000   3.294   5.535   5.173
   34SOL    HW1 1001   3.388   5.567   5.181
   34SOL    HW2 1002   3.292   5.447   5.127
   35SOL     OW 1003   1.932   3.352   6.696
   35SOL    HW1 1004   1.969   3.346   6.789
   35SOL    HW2 1005   1.964   3.437   6.653
   36SOL     OW 1006   4.036   1.381   3.480
   36SOL    HW1 1007   4.051   1.294   3.433
   36SOL    HW2 1008   4.008   1.364   3.574
   37SOL     OW 1009   2.393   0.140   4.029
   37SOL    HW1 1010   2.493   0.142   4.041
   37SOL    HW2 1011   2.359   0.049   4.052
   38SOL     OW 1012   1.002   3.702   3.064
   38SOL    HW1 1013   1.056   3.779   3.096
   38SOL    HW2 1014   1.011   3.694   2.964
   39SOL     OW 1015   6.402   4.173   1.238
   39SOL    HW1 1016   6.501   4.163   1.231
   39SOL    HW2 1017   6.372   4.144   1.329
   40SOL     OW 1018   4.463   1.870   0.770
   40SOL    HW1 1019   4.466   1.962   0.732
   40SOL    HW2 1020   4.417   1.871   0.858
   41SOL     OW 1021   4.813   4.347   1.509
   41SOL    HW1 1022   4.718   4.340   1.479
   41SOL    HW2 1023   4.847   4.257   1.532
   42SOL     OW 1024   2.396   4.735   6.765
   42SOL    HW1 1025   2.437   4.778   6.684
   42SOL    HW2 1026   2.422   4.788   6.847
   43SOL     OW 1027   4.495   0.158   4.833
   43SOL    HW1 1028   4.522   0.151   4.737
   43SOL    HW2 1029   4.526   0.077   4.882
   44SOL     OW 1030   6.334   0.956   5.949
   44SOL    HW1 1031   6.253   1.013   5.964
   44SOL    HW2 1032   6.319   0.897   5.870
   45SOL     OW 1033   2.105   4.533   5.890
   45SOL    HW1 1034   2.015   4.550   5.930
   45SOL    HW2 1035   2.168   4.605   5.918
   46SOL     OW 1036   1.368   3.630   4.701
   46SOL    HW1 1037   1.344   3.651   4.606
   46SOL    HW2 1038   1.460   3.663   4.720
   47SOL     OW 1039   5.747   3.884   0.695
   47SOL    HW1 1040   5.838   3.926   0.684
   47SOL    HW2 1041   5.754   3.807   0.759
   48SOL     OW 1042   6.319   3.762   0.234
   48SOL    HW1 1043   6.241   3.706   0.261
   48SOL    HW2 1044   6.381   3.774   0.312
   49SOL     OW 1045   2.690   3.713   6.876
   49SOL    HW1 1046   2.733   3.758   6.797
   49SOL    HW2 1047   2.740   3.631   6.900
   50SOL     OW 1048   5.692   2.113   0.531
   50SOL    HW1 1049   5.676   2.171   0.451
   50SOL    HW2 1050   5.789   2.090   0.537
   51SOL     OW 1051   1.239   5.292   2.376
   51SOL    HW1 1052   1.294   5.224   2.424
   51SOL    HW2 1053   1.176   5.336   2.439
   52SOL     OW 1054   5.727   2.740   1.643
   52SOL    HW1 1055   5.635   2.779   1.641
   52SOL    HW2 1056   5.730   2.665   1.709
   53SOL     OW 1057   3.848   0.911   1.951
   53SOL    HW1 1058   3.830   0.945   2.043
   53SOL    HW2 1059   3.904   0.829   1.957
   54SOL     OW 1060   5.546   0.210   6.630
   54SOL    HW1 1061   5.555   0.120   6.588
   54SOL    HW2 1062   5.493   0.270   6.569
   55SOL     OW 1063   1.194   3.553   6.204
   55SOL    HW1 1064   1.195   3.559   6.104
   55SOL    HW2 1065   1.196   3.645   6.243
   56SOL     OW 1066   0.507   2.132   6.785
   56SOL    HW1 1067   0.474   2.210   6.838
   56SOL    HW2 1068   0.467   2.134   6.694
   57SOL     OW 1069   4.451   6.492   1.018
   57SOL    HW1 1070   4.496   6.442   0.944
   57SOL    HW2 1071   4.374   6.544   0.982
   58SOL     OW 1072   1.126   0.696   0.114
   58SOL    HW1 1073   1.079   0.785   0.114
   58SOL    HW2 1074   1.057   0.623   0.118
   59SOL     OW 1075   4.508   3.171   5.472
   59SOL    HW1 1076   4.536   3.260   5.507
   59SOL    HW2 1077   4.587   3.123   5.435
   60SOL     OW 1078   6.024   2.382   1.699
   60SOL    HW1 1079   6.081   2.459   1.729
   60SOL    HW2 1080   5.987   2.335   1.779
   61SOL     OW 1081   1.235   5.941   4.570
   61SOL    HW1 1082   1.231   5.928   4.669
   61SOL    HW2 1083   1.330   5.962   4.543
   62SOL     OW 1084   6.090   3.369   3.003
   62SOL    HW1 1085   6.050   3.386   2.913
   62SOL    HW2 1086   6.154   3.291   2.997
   63SOL     OW 1087   3.762   0.593   6.202
   63SOL    HW1 1088   3.739   0.685   6.235
   63SOL    HW2 1089   3.804   0.599   6.111
   64SOL     OW 1090   1.410   3.380   5.221
   64SOL    HW1 1091   1.452   3.405   5.308
   64SOL    HW2 1092   1.477   3.395   5.147
   65SOL     OW 1093   0.838   5.337   4.575
   65SOL    HW1 1094   0.802   5.391   4.651
   65SOL    HW2 1095   0.763   5.294   4.526
   66SOL     OW 1096   3.854   1.390   1.977
   66SOL    HW1 1097   3.875   1.307   1.925
   66SOL    HW2 1098   3.935   1.418   2.029
   67SOL     OW 1099   6.707   3.251   1.220
   67SOL    HW1 1100   6.703   3.190   1.298
   67SOL    HW2 1101   6.618   3.297   1.209
   68SOL     OW 1102   6.723   1.552   6.697
   68SOL    HW1 1103   6.805   1.603   6.670
   68SOL    HW2 1104   6.741   1.504   6.783
   69SOL     OW 1105   1.164   6.094   6.661
   69SOL    HW1 1106   1.244   6.078   6.604
   69SOL    HW2 1107   1.089   6.036   6.631
   70SOL     OW 1108   5.156   3.980   3.766
   70SOL    HW1 1109   5.149   4.056   3.702
   70SOL    HW2 1110   5.070   3.972   3.817
   71SOL     OW 1111   5.349   2.133   4.015
   71SOL    HW1 1112   5.368   2.065   3.943
   71SOL    HW2 1113   5.321   2.085   4.098
   72SOL     OW 1114   0.710   1.443   3.186
   72SOL    HW1 1115   0.677   1.369   3.245
   72SOL    HW2 1116   0.723   1.408   3.094
   73SOL     OW 1117   2.774   0.279   0.311
   73SOL    HW1 1118   2.719   0.259   0.230
   73SOL    HW2 1119   2.868   0.247   0.296
   74SOL     OW 1120   2.726   2.452   0.760
   74SOL    HW1 1121   2.753   2.543   0.794
   74SOL    HW2 1122   2.744   2.447   0.662
   75SOL     OW 1123   2.664   3.166   0.489
   75SOL    HW1 1124   2.752   3.212   0.503
   75SOL    HW2 1125   2.673   3.100   0.414
   76SOL     OW 1126   3.715   5.159   5.587
   76SOL    HW1 1127   3.660   5.138   5.668
   76SOL    HW2 1128   3.812   5.152   5.610
   77SOL     OW 1129   0.973   5.457   4.360
   77SOL    HW1 1130   0.929   5.405   4.434
   77SOL    HW2 1131   1.072   5.452   4.370
   78SOL     OW 1132   4.677   1.711   1.499
   78SOL    HW1 1133   4.756   1.705   1.560
   78SOL    HW2 1134   4.700   1.770   1.421
   79SOL     OW 1135   1.386   4.658   3.365
   79SOL    HW1 1136   1.327   4.653   3.284
   79SOL    HW2 1137   1.390   4.753   3.397
   80SOL     OW 1138   3.743   1.445   4.771
   80SOL    HW1 1139   3.707   1.424   4.862
   80SOL    HW2 1140   3.823   1.387   4.753
   81SOL     OW 1141   4.104   4.794   1.578
   81SOL    HW1 1142   4.182   4.780   1.639
   81SOL    HW2 1143   4.023   4.749   1.616
   82SOL     OW 1144   2.520   5.967   2.120
   82SOL    HW1 1145   2.554   5.922   2.038
   82SOL    HW2 1146   2.448   6.032   2.095
   83SOL     OW 1147   4.970   1.224   3.935
   83SOL    HW1 1148   4.992   1.248   3.840
   83SOL    HW2 1149   4.999   1.297   3.996
   84SOL     OW 1150   5.523   3.182   2.304
   84SOL    HW1 1151   5.531   3.249   2.230
   84SOL    HW2 1152   5.461   3.217   2.374
   85SOL     OW 1153   2.570   6.811   3.894
   85SOL    HW1 1154   2.620   6.761   3.965
   85SOL    HW2 1155   2.495   6.861   3.936
   86SOL     OW 1156   5.230   6.706   0.151
   86SOL    HW1 1157   5.202   6.699   0.056
   86SOL    HW2 1158   5.150   6.701   0.210
   87SOL     OW 1159   2.031   4.206   6.321
   87SOL    HW1 1160   2.110   4.224   6.263
   87SOL    HW2 1161   2.051   4.233   6.416
   88SOL     OW 1162   2.891   3.549   1.387
   88SOL    HW1 1163   2.981   3.580   1.418
   88SOL    HW2 1164   2.843   3.624   1.343
   89SOL     OW 1165   3.191   3.557   3.653
   89SOL    HW1 1166   3.170   3.636   3.711
   89SOL    HW2 1167   3.107   3.522   3.613
   90SOL     OW 1168   5.275   3.970   2.068
   90SOL    HW1 1169   5.214   3.925   2.003
   90SOL    HW2 1170   5.230   3.979   2.156
   91SOL     OW 1171   4.704   5.768   5.930
   91SOL    HW1 1172   4.752   5.768   5.842
   91SOL    HW2 1173   4.693   5.862   5.963
   92SOL     OW 1174   5.146   4.371   6.978
   92SOL    HW1 1175   5.173   4.422   6.897
   92SOL    HW2 1176   5.074   4.306   6.955
   93SOL     OW 1177   2.870   3.561   2.013
   93SOL    HW1 1178   2.863   3.602   2.103
   93SOL    HW2 1179   2.842   3.465   2.017
   94SOL     OW 1180   2.833   2.163   4.386
   94SOL    HW1 1181   2.879   2.168   4.297
   94SOL    HW2 1182   2.735   2.151   4.372
   95SOL     OW 1183   0.065   0.261   3.874
   95SOL    HW1 1184   0.151   0.308   3.856
   95SOL    HW2 1185   0.083   0.170   3.912
   96SOL     OW 1186   6.763   5.119   0.112
   96SOL    HW1 1187   6.669   5.142   0.137
   96SOL    HW2 1188   6.797   5.185   0.045
   97SOL     OW 1189   2.475   4.312   5.754
   97SOL    HW1 1190   2.539   4.242   5.724
   97SOL    HW2 1191   2.507   4.402   5.724
   98SOL     OW 1192   1.021   2.073   3.672
   98SOL    HW1 1193   0.936   2.021   3.663
   98SOL    HW2 1194   1.008   2.165   3.637
   99SOL     OW 1195   3.202   4.094   5.120
   99SOL    HW1 1196   3.221   4.162   5.191
   99SOL    HW2 1197   3.112   4.112   5.080
  100SOL     OW 1198   0.181   0.594   4.897
  100SOL    HW1 1199   0.108   0.559   4.957
  100SOL    HW2 1200   0.267   0.597   4.948
  101SOL     OW 1201   5.550   4.046   2.597
  101SOL    HW1 1202   5.589   4.124   2.647
  101SOL    HW2 1203   5.459   4.071   2.565
  102SOL     OW 1204   4.235   0.544   0.050
  102SOL    HW1 1205   4.211   0.640   0.037
  102SOL    HW2 1206   4.151   0.488   0.046
  103SOL     OW 1207   1.844   1.458   2.005
  103SOL    HW1 1208   1.888   1.419   2.086
  103SOL    HW2 1209   1.901   1.444   1.925
  104SOL     OW 1210   6.321   4.807   2.222
  104SOL    HW1 1211   6.254   4.757   2.167
  104SOL    HW2 1212   6.306   4.905   2.212
  105SOL     OW 1213   6.771   1.056   5.389
  105SOL    HW1 1214   6.827   1.134   5.417
  105SOL    HW2 1215   6.831   0.979   5.367
  106SOL     OW 1216   4.562   2.916   1.374
  106SOL    HW1 1217   4.548   2.817   1.364
  106SOL    HW2 1218   4.475   2.963   1.360
  107SOL     OW 1219   5.803   0.092   1.738
  107SOL    HW1 1220   5.820   0.133   1.648
  107SOL    HW2 1221   5.869   0.019   1.754
  108SOL     OW 1222   3.064   1.253   4.590
  108SOL    HW1 1223   3.022   1.207   4.668
  108SOL    HW2 1224   3.060   1.352   4.603
  109SOL     OW 1225   1.892   1.354   4.621
  109SOL    HW1 1226   1.924   1.290   4.691
  109SOL    HW2 1227   1.919   1.447   4.644
  110SOL     OW 1228   3.615   4.171   5.696
  110SOL    HW1 1229   3.699   4.161   5.749
  110SOL    HW2 1230   3.601   4.090   5.639
  111SOL     OW 1231   5.931   2.729   0.489
  111SOL    HW1 1232   5.960   2.677   0.408
  111SOL    HW2 1233   5.905   2.666   0.562
  112SOL     OW 1234   5.194   6.675   6.913
  112SOL    HW1 1235   5.221   6.737   6.840
  112SOL    HW2 1236   5.233   6.585   6.898
  113SOL     OW 1237   0.159   5.227   2.436
  113SOL    HW1 1238   0.110   5.308   2.405
  113SOL    HW2 1239   0.131   5.204   2.529
  114SOL     OW 1240   7.018   2.192   1.967
  114SOL    HW1 1241   0.091   2.174   1.946
  114SOL    HW2 1242   7.008   2.209   2.065
  115SOL     OW 1243   5.744   6.721   3.643
  115SOL    HW1 1244   5.669   6.785   3.624
  115SOL    HW2 1245   5.810   6.724   3.567
  116SOL     OW 1246   0.144   5.090   0.768
  116SOL    HW1 1247   0.235   5.122   0.740
  116SOL    HW2 1248   0.096   5.052   0.689
  117SOL     OW 1249   2.251   2.893   0.077
  117SOL    HW1 1250   2.152   2.884   0.073
  117SOL    HW2 1251   2.289   2.881   7.008
  118SOL     OW 1252   0.472   2.140   2.455
  118SOL    HW1 1253   0.566   2.154   2.486
  118SOL    HW2 1254   0.409   2.163   2.529
  119SOL     OW 1255   6.068   0.032   5.141
  119SOL    HW1 1256   6.165   0.036   5.166
  119SOL    HW2 1257   6.054   6.980   5.076
  120SOL     OW 1258   4.832   1.421   4.368
  120SOL    HW1 1259   4.902   1.414   4.438
  120SOL    HW2 1260   4.869   1.469   4.289
  121SOL     OW 1261   0.503   5.153   0.125
  121SOL    HW1 1262   0.405   5.141   0.106
  121SOL    HW2 1263   0.515   5.224   0.193
  122SOL     OW 1264   6.933   4.680   6.293
  122SOL    HW1 1265   6.940   4.740   6.373
  122SOL    HW2 1266   7.021   4.636   6.278
  123SOL     OW 1267   0.810   2.591   1.514
  123SOL    HW1 1268   0.724   2.633   1.487
  123SOL    HW2 1269   0.845   2.638   1.596
  124SOL     OW 1270   1.290   3.107   6.850
  124SOL    HW1 1271   1.209   3.104   6.791
  124SOL    HW2 1272   1.326   3.015   6.862
  125SOL     OW 1273   4.619   3.176   0.444
  125SOL    HW1 1274   4.567   3.177   0.359
  125SOL    HW2 1275   4.705   3.127   0.431
  126SOL     OW 1276   3.675   3.039   4.353
  126SOL    HW1 1277   3.643   2.955   4.310
  126SOL    HW2 1278   3.606   3.111   4.342
  127SOL     OW 1279   0.495   5.446   5.727
  127SOL    HW1 1280   0.401   5.456   5.758
  127SOL    HW2 1281   0.501   5.367   5.665
  128SOL     OW 1282   5.050   3.918   0.032
  128SOL    HW1 1283   5.099   3.842   0.074
  128SOL    HW2 1284   5.074   4.003   0.079
  129SOL     OW 1285   0.455   5.425   2.369
  129SOL    HW1 1286   0.409   5.442   2.456
  129SOL    HW2 1287   0.446   5.329   2.344
  130SOL     OW 1288   5.710   2.985   4.077
  130SOL    HW1 1289   5.648   3.034   4.016
  130SOL    HW2 1290   5.695   3.016   4.171
  131SOL     OW 1291   0.651   2.191   3.487
  131SOL    HW1 1292   0.678   2.267   3.428
  131SOL    HW2 1293   0.719   2.118   3.480
  132SOL     OW 1294   3.481   2.597   0.937
  132SOL    HW1 1295   3.569   2.597   0.985
  132SOL    HW2 1296   3.407   2.601   1.004
  133SOL     OW 1297   5.489   6.083   6.308
  133SOL    HW1 1298   5.472   6.109   6.403
  133SOL    HW2 1299   5.544   6.000   6.305
  134SOL     OW 1300   5.671   1.718   1.377
  134SOL    HW1 1301   5.698   1.730   1.282
  134SOL    HW2 1302   5.734   1.767   1.437
  135SOL     OW 1303   4.914   3.731   3.890
  135SOL    HW1 1304   4.873   3.657   3.836
  135SOL    HW2 1305   4.960   3.693   3.970
  136SOL     OW 1306   3.631   0.727   6.668
  136SOL    HW1 1307   3.594   0.769   6.585
  136SOL    HW2 1308   3.625   0.627   6.661
  137SOL     OW 1309   2.589   4.197   6.006
  137SOL    HW1 1310   2.497   4.202   6.045
  137SOL    HW2 1311   2.590   4.245   5.918
  138SOL     OW 1312   1.338   5.185   6.359
  138SOL    HW1 1313   1.394   5.122   6.412
  138SOL    HW2 1314   1.242   5.172   6.383
  139SOL     OW 1315   1.517   6.987   0.955
  139SOL    HW1 1316   1.529   6.944   0.865
  139SOL    HW2 1317   1.567   0.051   0.956
  140SOL     OW 1318   4.157   0.805   1.439
  140SOL    HW1 1319   4.124   0.836   1.528
  140SOL    HW2 1320   4.156   0.705   1.436
  141SOL     OW 1321   0.628   3.034   0.641
  141SOL    HW1 1322   0.654   3.050   0.737
  141SOL    HW2 1323   0.546   3.088   0.620
  142SOL     OW 1324   1.805   3.615   0.880
  142SOL    HW1 1325   1.734   3.652   0.819
  142SOL    HW2 1326   1.845   3.533   0.838
  143SOL     OW 1327   4.134   6.353   2.472
  143SOL    HW1 1328   4.189   6.435   2.487
  143SOL    HW2 1329   4.187   6.288   2.418
  144SOL     OW 1330   3.341   5.861   3.069
  144SOL    HW1 1331   3.267   5.884   3.132
  144SOL    HW2 1332   3.390   5.781   3.102
  145SOL     OW 1333   0.312   4.706   3.819
  145SOL    HW1 1334   0.242   4.732   3.752
  145SOL    HW2 1335   0.268   4.683   3.906
  146SOL     OW 1336   4.939   0.923   6.305
  146SOL    HW1 1337   4.992   0.901   6.223
  146SOL    HW2 1338   4.968   0.863   6.380
  147SOL     OW 1339   4.526   0.515   4.855
  147SOL    HW1 1340   4.433   0.518   4.819
  147SOL    HW2 1341   4.526   0.476   4.947
  148SOL     OW 1342   1.599   5.910   1.730
  148SOL    HW1 1343   1.670   5.925   1.662
  148SOL    HW2 1344   1.592   5.812   1.751
  149SOL     OW 1345   2.091   2.392   4.611
  149SOL    HW1 1346   2.074   2.457   4.537
  149SOL    HW2 1347   2.160   2.326   4.583
  150SOL     OW 1348   4.080   1.668   4.830
  150SOL    HW1 1349   4.055   1.580   4.871
  150SOL    HW2 1350   4.179   1.670   4.814
  151SOL     OW 1351   4.759   2.626   0.903
  151SOL    HW1 1352   4.713   2.568   0.836
  151SOL    HW2 1353   4.696   2.695   0.937
  152SOL     OW 1354   0.440   2.368   1.407
  152SOL    HW1 1355   0.372   2.425   1.452
  152SOL    HW2 1356   0.405   2.274   1.400
  153SOL     OW 1357   2.257   1.394   3.677
  153SOL    HW1 1358   2.176   1.446   3.649
  153SOL    HW2 1359   2.230   1.303   3.707
  154SOL     OW 1360   6.272   2.629   2.444
  154SOL    HW1 1361   6.270   2.571   2.362
  154SOL    HW2 1362   6.243   2.721   2.419
  155SOL     OW 1363   0.042   5.434   2.936
  155SOL    HW1 1364   6.973   5.470   2.922
  155SOL    HW2 1365   0.081   5.472   3.020
  156SOL     OW 1366   5.299   2.915   0.196
  156SOL    HW1 1367   5.295   2.995   0.255
  156SOL    HW2 1368   5.221   2.855   0.215
  157SOL     OW 1369   5.242   6.213   1.187
  157SOL    HW1 1370   5.338   6.187   1.184
  157SOL    HW2 1371   5.235   6.312   1.203
  158SOL     OW 1372   0.772   2.714   3.555
  158SOL    HW1 1373   0.805   2.712   3.649
  158SOL    HW2 1374   0.832   2.660   3.497
  159SOL     OW 1375   6.037   5.589   0.512
  159SOL    HW1 1376   6.122   5.537   0.502
  159SOL    HW2 1377   5.959   5.526   0.510
  160SOL     OW 1378   5.598   0.269   1.426
  160SOL    HW1 1379   5.604   0.341   1.356
  160SOL    HW2 1380   5.555   0.306   1.508
  161SOL     OW 1381   6.834   6.557   1.213
  161SOL    HW1 1382   6.913   6.507   1.178
  161SOL    HW2 1383   6.777   6.588   1.137
  162SOL     OW 1384   4.463   6.758   6.534
  162SOL    HW1 1385   4.366   6.769   6.553
  162SOL    HW2 1386   4.486   6.660   6.534
  163SOL     OW 1387   0.805   3.962   2.595
  163SOL    HW1 1388   0.882   4.024   2.585
  163SOL    HW2 1389   0.750   3.989   2.674
  164SOL     OW 1390   2.693   1.903   3.742
  164SOL    HW1 1391   2.759   1.945   3.680
  164SOL    HW2 1392   2.670   1.811   3.710
  165SOL     OW 1393   0.035   6.664   3.762
  165SOL    HW1 1394   0.025   6.565   3.773
  165SOL    HW2 1395   0.125   6.692   3.794
  166SOL     OW 1396   6.872   3.901   3.563
  166SOL    HW1 1397   6.783   3.874   3.525
  166SOL    HW2 1398   6.869   3.998   3.589
  167SOL     OW 1399   2.814   1.792   6.327
  167SOL    HW1 1400   2.801   1.878   6.375
  167SOL    HW2 1401   2.755   1.788   6.247
  168SOL     OW 1402   4.021   3.647   1.653
  168SOL    HW1 1403   4.032   3.746   1.650
  168SOL    HW2 1404   4.080   3.605   1.584
  169SOL     OW 1405   4.488   2.104   1.042
  169SOL    HW1 1406   4.508   2.082   1.137
  169SOL    HW2 1407   4.508   2.025   0.984
  170SOL     OW 1408   6.480   5.362   1.619
  170SOL    HW1 1409   6.402   5.424   1.610
  170SOL    HW2 1410   6.473   5.290   1.550
  171SOL     OW 1411   3.564   3.262   0.900
  171SOL    HW1 1412   3.529   3.189   0.843
  171SOL    HW2 1413   3.622   3.223   0.972
  172SOL     OW 1414   0.805   1.742   6.784
  172SOL    HW1 1415   0.770   1.766   6.693
  172SOL    HW2 1416   0.729   1.715   6.842
  173SOL     OW 1417   6.147   1.437   4.000
  173SOL    HW1 1418   6.232   1.473   3.960
  173SOL    HW2 1419   6.069   1.472   3.948
  174SOL     OW 1420   5.580   4.400   4.653
  174SOL    HW1 1421   5.629   4.389   4.567
  174SOL    HW2 1422   5.485   4.426   4.635
  175SOL     OW 1423   0.319   0.227   2.659
  175SOL    HW1 1424   0.298   0.213   2.756
  175SOL    HW2 1425   0.289   0.318   2.631
  176SOL     OW 1426   5.975   3.975   1.854
  176SOL    HW1 1427   6.045   3.908   1.833
  176SOL    HW2 1428   6.014   4.067   1.850
  177SOL     OW 1429   5.825   2.065   3.704
  177SOL    HW1 1430   5.820   2.158   3.668
  177SOL    HW2 1431   5.875   2.065   3.791
  178SOL     OW 1432   2.972   5.963   4.723
  178SOL    HW1 1433   2.877   5.933   4.712
  178SOL    HW2 1434   3.033   5.884   4.715
  179SOL     OW 1435   3.423   4.200   1.446
  179SOL    HW1 1436   3.390   4.107   1.428
  179SOL    HW2 1437   3.394   4.229   1.537
  180SOL     OW 1438   4.211   1.104   0.073
  180SOL    HW1 1439   4.198   1.138   7.003
  180SOL    HW2 1440   4.216   1.181   0.137
  181SOL     OW 1441   3.626   2.102   5.593
  181SOL    HW1 1442   3.538   2.056   5.605
  181SOL    HW2 1443   3.612   2.201   5.591
  182SOL     OW 1444   3.060   2.766   6.172
  182SOL    HW1 1445   3.042   2.728   6.081
  182SOL    HW2 1446   3.159   2.769   6.187
  183SOL     OW 1447   3.175   0.387   3.285
  183SOL    HW1 1448   3.227   0.468   3.259
  183SOL    HW2 1449   3.109   0.366   3.213
  184SOL     OW 1450   5.143   5.711   3.821
  184SOL    HW1 1451   5.229   5.685   3.778
  184SOL    HW2 1452   5.070   5.650   3.792
  185SOL     OW 1453   6.829   0.440   4.693
  185SOL    HW1 1454   6.781   0.389   4.622
  185SOL    HW2 1455   6.904   0.491   4.652
  186SOL     OW 1456   3.969   5.784   4.709
  186SOL    HW1 1457   3.875   5.779   4.745
  186SOL    HW2 1458   4.023   5.845   4.766
  187SOL     OW 1459   4.136   6.335   1.497
  187SOL    HW1 1460   4.090   6.401   1.438
  187SOL    HW2 1461   4.231   6.363   1.511
  188SOL     OW 1462   1.564   2.914   2.944
  188SOL    HW1 1463   1.608   2.947   2.861
  188SOL    HW2 1464   1.473   2.955   2.952
  189SOL     OW 1465   5.618   5.048   5.595
  189SOL    HW1 1466   5.577   5.000   5.672
  189SOL    HW2 1467   5.685   4.989   5.550
  190SOL     OW 1468   5.911   0.356   0.469
  190SOL    HW1 1469   5.961   0.441   0.484
  190SOL    HW2 1470   5.934   0.290   0.541
  191SOL     OW 1471   0.316   1.165   5.558
  191SOL    HW1 1472   0.401   1.212   5.583
  191SOL    HW2 1473   0.251   1.232   5.520
  192SOL     OW 1474   0.129   5.469   1.109
  192SOL    HW1 1475   0.082   5.398   1.161
  192SOL    HW2 1476   0.169   5.428   1.026
  193SOL     OW 1477   2.510   6.530   0.401
  193SOL    HW1 1478   2.437   6.464   0.382
  193SOL    HW2 1479   2.526   6.536   0.499
  194SOL     OW 1480   3.947   6.062   2.242
  194SOL    HW1 1481   4.045   6.078   2.258
  194SOL    HW2 1482   3.913   5.993   2.305
  195SOL     OW 1483   3.677   1.240   1.417
  195SOL    HW1 1484   3.654   1.272   1.509
  195SOL    HW2 1485   3.656   1.143   1.409
  196SOL     OW 1486   3.207   2.154   0.467
  196SOL    HW1 1487   3.224   2.233   0.525
  196SOL    HW2 1488   3.251   2.073   0.506
  197SOL     OW 1489   1.732   6.306   0.061
  197SOL    HW1 1490   1.641   6.344   0.053
  197SOL    HW2 1491   1.782   6.353   0.134
  198SOL     OW 1492   4.170   0.018   0.047
  198SOL    HW1 1493   4.231   0.081   0.095
  198SOL    HW2 1494   4.159   0.047   6.975
  199SOL     OW 1495   0.635   0.442   2.828
  199SOL    HW1 1496   0.613   0.422   2.732
  199SOL    HW2 1497   0.575   0.515   2.861
  200SOL     OW 1498   0.753   4.301   3.086
  200SOL    HW1 1499   0.715   4.377   3.140
  200SOL    HW2 1500   0.793   4.233   3.147
  201SOL     OW 1501   5.043   1.201   6.365
  201SOL    HW1 1502   5.011   1.251   6.284
  201SOL    HW2 1503   4.985   1.121   6.380
  202SOL     OW 1504   3.684   1.211   2.603
  202SOL    HW1 1505   3.638   1.289   2.646
  202SOL    HW2 1506   3.628   1.176   2.528
  203SOL     OW 1507   5.706   2.734   0.046
  203SOL    HW1 1508   5.671   2.706   6.980
  203SOL    HW2 1509   5.630   2.738   0.112
  204SOL     OW 1510   2.792   6.147   1.654
  204SOL    HW1 1511   2.696   6.176   1.648
  204SOL    HW2 1512   2.831   6.180   1.741
  205SOL     OW 1513   6.028   0.880   0.582
  205SOL    HW1 1514   5.948   0.904   0.527
  205SOL    HW2 1515   6.080   0.962   0.603
  206SOL     OW 1516   0.390   4.788   2.009
  206SOL    HW1 1517   0.424   4.704   2.050
  206SOL    HW2 1518   0.465   4.838   1.966
  207SOL     OW 1519   4.791   1.333   5.344
  207SOL    HW1 1520   4.889   1.324   5.365
  207SOL    HW2 1521   4.744   1.374   5.421
  208SOL     OW 1522   3.311   4.661   6.029
  208SOL    HW1 1523   3.315   4.660   5.930
  208SOL    HW2 1524   3.215   4.661   6.059
  209SOL     OW 1525   6.812   5.106   5.891
  209SOL    HW1 1526   6.714   5.123   5.880
  209SOL    HW2 1527   6.827   5.009   5.909
  210SOL     OW 1528   3.801   2.158   2.266
  210SOL    HW1 1529   3.842   2.241   2.304
  210SOL    HW2 1530   3.768   2.176   2.174
  211SOL     OW 1531   1.337   1.912   1.671
  211SOL    HW1 1532   1.402   1.919   1.596
  211SOL    HW2 1533   1.255   1.864   1.640
  212SOL     OW 1534   0.407   4.883   4.179
  212SOL    HW1 1535   0.374   4.790   4.195
  212SOL    HW2 1536   0.414   4.899   4.081
  213SOL     OW 1537   3.848   2.650   6.806
  213SOL    HW1 1538   3.921   2.716   6.792
  213SOL    HW2 1539   3.877   2.582   6.873
  214SOL     OW 1540   1.579   6.630   3.082
  214SOL    HW1 1541   1.626   6.716   3.065
  214SOL    HW2 1542   1.638   6.553   3.057
  215SOL     OW 1543   3.543   3.535   2.525
  215SOL    HW1 1544   3.523   3.586   2.442
  215SOL    HW2 1545   3.532   3.437   2.508
  216SOL     OW 1546   1.449   6.090   5.982
  216SOL    HW1 1547   1.520   6.122   6.046
  216SOL    HW2 1548   1.422   6.165   5.922
  217SOL     OW 1549   6.787   2.779   3.953
  217SOL    HW1 1550   6.885   2.782   3.973
  217SOL    HW2 1551   6.766   2.697   3.899
  218SOL     OW 1552   1.672   3.575   5.217
  218SOL    HW1 1553   1.587   3.596   5.264
  218SOL    HW2 1554   1.689   3.477   5.221
  219SOL     OW 1555   4.285   5.326   0.379
  219SOL    HW1 1556   4.342   5.245   0.371
  219SOL    HW2 1557   4.340   5.404   0.408
  220SOL     OW 1558   1.820   4.424   1.082
  220SOL    HW1 1559   1.887   4.467   1.021
  220SOL    HW2 1560   1.768   4.496   1.129
  221SOL     OW 1561   6.731   2.487   3.856
  221SOL    HW1 1562   6.635   2.501   3.832
  221SOL    HW2 1563   6.739   2.406   3.915
  222SOL     OW 1564   1.210   6.373   5.073
  222SOL    HW1 1565   1.197   6.433   4.994
  222SOL    HW2 1566   1.284   6.309   5.054
  223SOL     OW 1567   5.860   4.013   2.216
  223SOL    HW1 1568   5.810   4.012   2.129
  223SOL    HW2 1569   5.839   4.098   2.264
  224SOL     OW 1570   3.551   2.026   2.083
  224SOL    HW1 1571   3.478   2.010   2.016
  224SOL    HW2 1572   3.624   2.080   2.040
  225SOL     OW 1573   0.344   0.293   0.725
  225SOL    HW1 1574   0.409   0.219   0.741
  225SOL    HW2 1575   0.381   0.356   0.657
  226SOL     OW 1576   0.453   5.329   1.109
  226SOL    HW1 1577   0.442   5.412   1.053
  226SOL    HW2 1578   0.385   5.262   1.082
  227SOL     OW 1579   1.627   2.824   3.230
  227SOL    HW1 1580   1.601   2.827   3.133
  227SOL    HW2 1581   1.726   2.826   3.237
  228SOL     OW 1582   3.925   6.843   2.905
  228SOL    HW1 1583   3.932   6.892   2.992
  228SOL    HW2 1584   3.861   6.766   2.915
  229SOL     OW 1585   6.311   5.805   2.845
  229SOL    HW1 1586   6.407   5.793   2.869
  229SOL    HW2 1587   6.292   5.902   2.829
  230SOL     OW 1588   1.644   4.234   5.419
  230SOL    HW1 1589   1.600   4.201   5.503
  230SOL    HW2 1590   1.743   4.225   5.428
  231SOL     OW 1591   0.554   2.082   0.171
  231SOL    HW1 1592   0.465   2.062   0.211
  231SOL    HW2 1593   0.605   2.144   0.230
  232SOL     OW 1594   2.043   4.924   6.679
  232SOL    HW1 1595   2.134   4.956   6.654
  232SOL    HW2 1596   2.026   4.835   6.636
  233SOL     OW 1597   3.239   1.008   5.981
  233SOL    HW1 1598   3.153   1.019   6.031
  233SOL    HW2 1599   3.273   1.098   5.952
  234SOL     OW 1600   3.154   5.803   0.062
  234SOL    HW1 1601   3.085   5.730   0.061
  234SOL    HW2 1602   3.109   5.891   0.048
  235SOL     OW 1603   3.656   2.990   4.661
  235SOL    HW1 1604   3.740   2.952   4.699
  235SOL    HW2 1605   3.665   2.998   4.561
  236SOL     OW 1606   6.831   2.041   5.524
  236SOL    HW1 1607   6.915   2.028   5.472
  236SOL    HW2 1608   6.847   2.015   5.620
  237SOL     OW 1609   0.219   6.832   1.798
  237SOL    HW1 1610   0.153   6.758   1.788
  237SOL    HW2 1611   0.221   6.862   1.893
  238SOL     OW 1612   6.973   2.223   2.219
  238SOL    HW1 1613   0.042   2.216   2.260
  238SOL    HW2 1614   6.930   2.308   2.249
  239SOL     OW 1615   0.388   5.162   0.712
  239SOL    HW1 1616   0.469   5.204   0.752
  239SOL    HW2 1617   0.415   5.102   0.637
  240SOL     OW 1618   6.634   3.455   5.365
  240SOL    HW1 1619   6.634   3.440   5.464
  240SOL    HW2 1620   6.727   3.445   5.330
  241SOL     OW 1621   6.389   1.468   3.831
  241SOL    HW1 1622   6.426   1.552   3.791
  241SOL    HW2 1623   6.375   1.400   3.759
  242SOL     OW 1624   1.959   2.597   3.366
  242SOL    HW1 1625   1.906   2.572   3.447
  242SOL    HW2 1626   1.929   2.687   3.333
  243SOL     OW 1627   4.404   0.853   5.417
  243SOL    HW1 1628   4.484   0.912   5.421
  243SOL    HW2 1629   4.324   0.907   5.391
  244SOL     OW 1630   6.740   0.439   5.745
  244SOL    HW1 1631   6.651   0.444   5.699
  244SOL    HW2 1632   6.785   0.528   5.742
  245SOL     OW 1633   5.515   2.730   3.417
  245SOL    HW1 1634   5.439   2.795   3.410
  245SOL    HW2 1635   5.538   2.695   3.326
  246SOL     OW 1636   4.939   3.231   3.692
  246SOL    HW1 1637   4.884   3.302   3.649
  246SOL    HW2 1638   5.008   3.273   3.752
  247SOL     OW 1639   3.382   0.579   3.962
  247SOL    HW1 1640   3.429   0.667   3.956
  247SOL    HW2 1641   3.339   0.558   3.874
  248SOL     OW 1642   6.120   1.788   2.198
  248SOL    HW1 1643   6.178   1.840   2.262
  248SOL    HW2 1644   6.150   1.693   2.195
  249SOL     OW 1645   2.369   6.370   3.835
  249SOL    HW1 1646   2.467   6.351   3.829
  249SOL    HW2 1647   2.318   6.297   3.788
  250SOL     OW 1648   5.280   3.217   6.378
  250SOL    HW1 1649   5.251   3.175   6.464
  250SOL    HW2 1650   5.296   3.315   6.393
  251SOL     OW 1651   1.930   2.294   0.823
  251SOL    HW1 1652   1.884   2.241   0.752
  251SOL    HW2 1653   1.888   2.273   0.912
  252SOL     OW 1654   0.304   1.486   7.018
  252SOL    HW1 1655   0.218   1.452   0.035
  252SOL    HW2 1656   0.347   1.414   6.964
  253SOL     OW 1657   1.683   4.098   5.129
  253SOL    HW1 1658   1.668   4.148   5.214
  253SOL    HW2 1659   1.742   4.020   5.145
  254SOL     OW 1660   5.184   3.761   5.553
  254SOL    HW1 1661   5.104   3.792   5.604
  254SOL    HW2 1662   5.234   3.694   5.608
  255SOL     OW 1663   3.679   2.055   3.316
  255SOL    HW1 1664   3.658   1.975   3.372
  255SOL    HW2 1665   3.599   2.081   3.263
  256SOL     OW 1666   6.528   5.677   0.380
  256SOL    HW1 1667   6.579   5.750   0.424
  256SOL    HW2 1668   6.508   5.703   0.285
  257SOL     OW 1669   3.430   5.211   6.451
  257SOL    HW1 1670   3.451   5.298   6.496
  257SOL    HW2 1671   3.342   5.217   6.405
  258SOL     OW 1672   5.142   3.969   4.556
  258SOL    HW1 1673   5.237   3.940   4.565
  258SOL    HW2 1674   5.110   4.006   4.643
  259SOL     OW 1675   0.948   2.209   3.340
  259SOL    HW1 1676   0.988   2.250   3.258
  259SOL    HW2 1677   0.953   2.274   3.416
  260SOL     OW 1678   6.463   6.666   5.532
  260SOL    HW1 1679   6.521   6.691   5.610
  260SOL    HW2 1680   6.427   6.574   5.546
  261SOL     OW 1681   1.161   1.536   2.851
  261SOL    HW1 1682   1.210   1.614   2.811
  261SOL    HW2 1683   1.215   1.495   2.923
  262SOL     OW 1684   1.757   5.110   1.851
  262SOL    HW1 1685   1.761   5.167   1.933
  262SOL    HW2 1686   1.713   5.022   1.874
  263SOL     OW 1687   6.495   1.900   5.169
  263SOL    HW1 1688   6.555   1.842   5.114
  263SOL    HW2 1689   6.545   1.982   5.198
  264SOL     OW 1690   2.845   3.852   6.099
  264SOL    HW1 1691   2.747   3.859   6.121
  264SOL    HW2 1692   2.860   3.771   6.042
  265SOL     OW 1693   5.385   5.580   5.507
  265SOL    HW1 1694   5.447   5.624   5.442
  265SOL    HW2 1695   5.291   5.611   5.490
  266SOL     OW 1696   3.361   2.607   6.593
  266SOL    HW1 1697   3.406   2.644   6.674
  266SOL    HW2 1698   3.351   2.507   6.603
  267SOL     OW 1699   1.273   1.484   5.906
  267SOL    HW1 1700   1.346   1.504   5.971
  267SOL    HW2 1701   1.301   1.512   5.814
  268SOL     OW 1702   3.462   5.973   3.314
  268SOL    HW1 1703   3.443   6.043   3.245
  268SOL    HW2 1704   3.470   6.016   3.404
  269SOL     OW 1705   1.803   1.405   4.988
  269SOL    HW1 1706   1.842   1.356   5.065
  269SOL    HW2 1707   1.706   1.381   4.978
  270SOL     OW 1708   5.338   6.648   4.607
  270SOL    HW1 1709   5.291   6.589   4.541
  270SOL    HW2 1710   5.336   6.606   4.697
  271SOL     OW 1711   1.168   1.875   0.095
  271SOL    HW1 1712   1.129   1.788   0.064
  271SOL    HW2 1713   1.160   1.943   0.023
  272SOL     OW 1714   5.122   5.930   2.029
  272SOL    HW1 1715   5.197   5.995   2.014
  272SOL    HW2 1716   5.092   5.935   2.124
  273SOL     OW 1717   2.794   6.648   4.734
  273SOL    HW1 1718   2.804   6.748   4.736
  273SOL    HW2 1719   2.884   6.605   4.726
  274SOL     OW 1720   5.753   1.669   1.119
  274SOL    HW1 1721   5.803   1.616   1.050
  274SOL    HW2 1722   5.665   1.699   1.083
  275SOL     OW 1723   5.454   5.832   5.684
  275SOL    HW1 1724   5.412   5.912   5.640
  275SOL    HW2 1725   5.442   5.752   5.626
  276SOL     OW 1726   0.194   6.386   3.742
  276SOL    HW1 1727   0.222   6.326   3.667
  276SOL    HW2 1728   0.094   6.389   3.747
  277SOL     OW 1729   4.775   2.322   5.340
  277SOL    HW1 1730   4.845   2.390   5.364
  277SOL    HW2 1731   4.808   2.231   5.363
  278SOL     OW 1732   5.751   3.656   3.296
  278SOL    HW1 1733   5.816   3.677   3.369
  278SOL    HW2 1734   5.779   3.572   3.249
  279SOL     OW 1735   0.504   3.658   4.126
  279SOL    HW1 1736   0.513   3.620   4.218
  279SOL    HW2 1737   0.447   3.598   4.070
  280SOL     OW 1738   3.339   1.152   3.383
  280SOL    HW1 1739   3.400   1.073   3.391
  280SOL    HW2 1740   3.317   1.168   3.287
  281SOL     OW 1741   5.649   6.497   4.645
  281SOL    HW1 1742   5.671   6.539   4.557
  281SOL    HW2 1743   5.690   6.406   4.649
  282SOL     OW 1744   1.191   2.414   0.360
  282SOL    HW1 1745   1.143   2.410   0.272
  282SOL    HW2 1746   1.124   2.411   0.434
  283SOL     OW 1747   5.393   2.873   4.573
  283SOL    HW1 1748   5.353   2.964   4.562
  283SOL    HW2 1749   5.409   2.855   4.670
  284SOL     OW 1750   4.822   5.521   2.823
  284SOL    HW1 1751   4.728   5.502   2.794
  284SOL    HW2 1752   4.869   5.573   2.751
  285SOL     OW 1753   4.315   0.481   5.743
  285SOL    HW1 1754   4.339   0.539   5.665
  285SOL    HW2 1755   4.223   0.443   5.729
  286SOL     OW 1756   2.608   5.267   5.522
  286SOL    HW1 1757   2.678   5.196   5.528
  286SOL    HW2 1758   2.518   5.226   5.534
  287SOL     OW 1759   3.305   0.320   6.819
  287SOL    HW1 1760   3.337   0.264   6.895
  287SOL    HW2 1761   3.239   0.388   6.852
  288SOL     OW 1762   4.475   1.393   0.919
  288SOL    HW1 1763   4.462   1.433   0.828
  288SOL    HW2 1764   4.561   1.425   0.958
  289SOL     OW 1765   6.439   5.470   3.729
  289SOL    HW1 1766   6.352   5.458   3.682
  289SOL    HW2 1767   6.513   5.467   3.662
  290SOL     OW 1768   3.765   0.851   6.322
  290SOL    HW1 1769   3.854   0.876   6.360
  290SOL    HW2 1770   3.706   0.817   6.396
  291SOL     OW 1771   3.739   0.535   5.585
  291SOL    HW1 1772   3.776   0.614   5.537
  291SOL    HW2 1773   3.698   0.564   5.671
  292SOL     OW 1774   4.703   0.502   4.035
  292SOL    HW1 1775   4.794   0.503   4.075
  292SOL    HW2 1776   4.635   0.485   4.106
  293SOL     OW 1777   5.799   6.730   2.495
  293SOL    HW1 1778   5.817   6.775   2.582
  293SOL    HW2 1779   5.801   6.631   2.507
  294SOL     OW 1780   5.724   1.034   6.296
  294SOL    HW1 1781   5.634   1.070   6.322
  294SOL    HW2 1782   5.783   1.032   6.377
  295SOL     OW 1783   1.240   0.652   4.731
  295SOL    HW1 1784   1.192   0.714   4.793
  295SOL    HW2 1785   1.190   0.646   4.645
  296SOL     OW 1786   0.661   2.416   1.259
  296SOL    HW1 1787   0.667   2.323   1.222
  296SOL    HW2 1788   0.584   2.422   1.322
  297SOL     OW 1789   5.113   3.440   3.348
  297SOL    HW1 1790   5.019   3.405   3.346
  297SOL    HW2 1791   5.112   3.538   3.329
  298SOL     OW 1792   4.711   0.645   6.399
  298SOL    HW1 1793   4.706   0.733   6.445
  298SOL    HW2 1794   4.673   0.653   6.307
  299SOL     OW 1795   0.917   0.477   0.114
  299SOL    HW1 1796   0.900   0.441   0.022
  299SOL    HW2 1797   0.943   0.402   0.175
  300SOL     OW 1798   3.903   0.064   3.543
  300SOL    HW1 1799   3.930   0.059   3.447
  300SOL    HW2 1800   3.917   6.997   3.586
  301SOL     OW 1801   6.639   5.005   0.417
  301SOL    HW1 1802   6.626   5.064   0.337
  301SOL    HW2 1803   6.689   5.056   0.487
  302SOL     OW 1804   6.892   5.055   2.381
  302SOL    HW1 1805   6.920   5.135   2.329
  302SOL    HW2 1806   6.969   4.991   2.386
  303SOL     OW 1807   5.450   5.857   3.419
  303SOL    HW1 1808   5.419   5.772   3.377
  303SOL    HW2 1809   5.503   5.909   3.352
  304SOL     OW 1810   2.755   6.018   5.021
  304SOL    HW1 1811   2.749   5.934   4.968
  304SOL    HW2 1812   2.836   6.070   4.992
  305SOL     OW 1813   1.242   2.531   1.977
  305SOL    HW1 1814   1.207   2.446   1.937
  305SOL    HW2 1815   1.270   2.593   1.904
  306SOL     OW 1816   0.158   0.123   3.588
  306SOL    HW1 1817   0.144   0.055   3.660
  306SOL    HW2 1818   0.080   0.185   3.584
  307SOL     OW 1819   3.494   3.245   4.398
  307SOL    HW1 1820   3.556   3.287   4.464
  307SOL    HW2 1821   3.489   3.302   4.316
  308SOL     OW 1822   5.928   2.050   3.092
  308SOL    HW1 1823   6.024   2.076   3.096
  308SOL    HW2 1824   5.910   1.978   3.160
  309SOL     OW 1825   1.722   5.711   6.559
  309SOL    HW1 1826   1.655   5.723   6.486
  309SOL    HW2 1827   1.807   5.674   6.520
  310SOL     OW 1828   5.233   6.802   5.185
  310SOL    HW1 1829   5.299   6.727   5.187
  310SOL    HW2 1830   5.245   6.856   5.102
  311SOL     OW 1831   1.419   5.502   2.391
  311SOL    HW1 1832   1.356   5.424   2.390
  311SOL    HW2 1833   1.421   5.541   2.483
  312SOL     OW 1834   3.505   0.336   3.662
  312SOL    HW1 1835   3.426   0.307   3.608
  312SOL    HW2 1836   3.498   0.295   3.754
  313SOL     OW 1837   3.281   3.883   2.954
  313SOL    HW1 1838   3.302   3.981   2.951
  313SOL    HW2 1839   3.201   3.864   2.896
  314SOL     OW 1840   3.386   5.571   6.098
  314SOL    HW1 1841   3.320   5.571   6.173
  314SOL    HW2 1842   3.478   5.587   6.134
  315SOL     OW 1843   6.293   0.982   4.369
  315SOL    HW1 1844   6.250   0.965   4.281
  315SOL    HW2 1845   6.393   0.983   4.358
  316SOL     OW 1846   4.359   0.788   6.284
  316SOL    HW1 1847   4.341   0.740   6.369
  316SOL    HW2 1848   4.437   0.745   6.237
  317SOL     OW 1849   1.318   1.702   1.052
  317SOL    HW1 1850   1.331   1.637   1.127
  317SOL    HW2 1851   1.221   1.722   1.041
  318SOL     OW 1852   0.569   0.038   5.408
  318SOL    HW1 1853   0.470   0.050   5.409
  318SOL    HW2 1854   0.597   7.006   5.487
  319SOL     OW 1855   0.807   1.233   3.469
  319SOL    HW1 1856   0.795   1.174   3.548
  319SOL    HW2 1857   0.722   1.237   3.416
  320SOL     OW 1858   5.720   2.143   6.308
  320SOL    HW1 1859   5.672   2.074   6.253
  320SOL    HW2 1860   5.677   2.150   6.398
  321SOL     OW 1861   4.826   2.671   0.550
  321SOL    HW1 1862   4.738   2.638   0.585
  321SOL    HW2 1863   4.811   2.754   0.496
  322SOL     OW 1864   3.114   3.381   6.352
  322SOL    HW1 1865   3.141   3.369   6.447
  322SOL    HW2 1866   3.035   3.442   6.347
  323SOL     OW 1867   1.730   3.657   2.277
  323SOL    HW1 1868   1.716   3.754   2.300
  323SOL    HW2 1869   1.828   3.637   2.274
  324SOL     OW 1870   0.757   0.260   2.974
  324SOL    HW1 1871   0.852   0.262   2.942
  324SOL    HW2 1872   0.704   0.327   2.923
  325SOL     OW 1873   6.855   3.831   1.254
  325SOL    HW1 1874   6.796   3.768   1.305
  325SOL    HW2 1875   6.818   3.923   1.259
  326SOL     OW 1876   0.855   6.290   6.508
  326SOL    HW1 1877   0.819   6.200   6.484
  326SOL    HW2 1878   0.890   6.335   6.426
  327SOL     OW 1879   5.141   5.488   5.045
  327SOL    HW1 1880   5.218   5.485   4.981
  327SOL    HW2 1881   5.157   5.423   5.120
  328SOL     OW 1882   1.640   4.020   3.156
  328SOL    HW1 1883   1.671   3.930   3.124
  328SOL    HW2 1884   1.695   4.046   3.235
  329SOL     OW 1885   3.060   2.756   1.654
  329SOL    HW1 1886   3.142   2.782   1.705
  329SOL    HW2 1887   3.048   2.657   1.658
  330SOL     OW 1888   2.343   4.737   1.003
  330SOL    HW1 1889   2.255   4.751   1.048
  330SOL    HW2 1890   2.415   4.781   1.057
  331SOL     OW 1891   6.401   5.395   6.318
  331SOL    HW1 1892   6.497   5.379   6.343
  331SOL    HW2 1893   6.396   5.423   6.222
  332SOL     OW 1894   5.853   2.508   3.088
  332SOL    HW1 1895   5.920   2.444   3.124
  332SOL    HW2 1896   5.847   2.498   2.988
  333SOL     OW 1897   3.359   0.870   5.152
  333SOL    HW1 1898   3.406   0.817   5.082
  333SOL    HW2 1899   3.274   0.907   5.115
  334SOL     OW 1900   3.983   3.884   3.341
  334SOL    HW1 1901   3.987   3.956   3.411
  334SOL    HW2 1902   3.972   3.926   3.251
  335SOL     OW 1903   4.289   1.787   1.354
  335SOL    HW1 1904   4.309   1.711   1.292
  335SOL    HW2 1905   4.258   1.866   1.301
  336SOL     OW 1906   2.850   1.729   4.207
  336SOL    HW1 1907   2.940   1.725   4.249
  336SOL    HW2 1908   2.858   1.762   4.113
  337SOL     OW 1909   1.341   0.927   5.419
  337SOL    HW1 1910   1.277   0.894   5.350
  337SOL    HW2 1911   1.407   0.989   5.377
  338SOL     OW 1912   4.216   1.669   1.592
  338SOL    HW1 1913   4.208   1.731   1.513
  338SOL    HW2 1914   4.313   1.655   1.614
  339SOL     OW 1915   4.221   6.224   5.665
  339SOL    HW1 1916   4.175   6.137   5.686
  339SOL    HW2 1917   4.235   6.231   5.566
  340SOL     OW 1918   4.972   1.942   4.382
  340SOL    HW1 1919   4.971   2.016   4.314
  340SOL    HW2 1920   5.045   1.877   4.359
  341SOL     OW 1921   6.348   6.058   2.824
  341SOL    HW1 1922   6.289   6.139   2.822
  341SOL    HW2 1923   6.425   6.074   2.886
  342SOL     OW 1924   4.824   2.076   2.676
  342SOL    HW1 1925   4.920   2.088   2.651
  342SOL    HW2 1926   4.777   2.164   2.670
  343SOL     OW 1927   6.838   6.080   2.685
  343SOL    HW1 1928   6.904   6.007   2.673
  343SOL    HW2 1929   6.777   6.058   2.762
  344SOL     OW 1930   0.632   1.900   0.759
  344SOL    HW1 1931   0.582   1.823   0.798
  344SOL    HW2 1932   0.567   1.963   0.715
  345SOL     OW 1933   6.633   3.215   4.291
  345SOL    HW1 1934   6.685   3.131   4.274
  345SOL    HW2 1935   6.665   3.257   4.376
  346SOL     OW 1936   2.160   6.587   3.439
  346SOL    HW1 1937   2.163   6.656   3.367
  346SOL    HW2 1938   2.071   6.591   3.485
  347SOL     OW 1939   2.423   4.885   0.463
  347SOL    HW1 1940   2.397   4.981   0.471
  347SOL    HW2 1941   2.355   4.827   0.508
  348SOL     OW 1942   4.525   5.480   1.879
  348SOL    HW1 1943   4.567   5.415   1.816
  348SOL    HW2 1944   4.462   5.539   1.828
  349SOL     OW 1945   5.724   4.410   1.497
  349SOL    HW1 1946   5.727   4.413   1.397
  349SOL    HW2 1947   5.701   4.500   1.534
  350SOL     OW 1948   3.604   2.843   0.449
  350SOL    HW1 1949   3.690   2.892   0.433
  350SOL    HW2 1950   3.556   2.829   0.362
  351SOL     OW 1951   3.324   4.655   1.209
  351SOL    HW1 1952   3.302   4.561   1.236
  351SOL    HW2 1953   3.248   4.693   1.156
  352SOL     OW 1954   4.100   0.177   2.680
  352SOL    HW1 1955   4.125   0.081   2.693
  352SOL    HW2 1956   4.004   0.183   2.654
  353SOL     OW 1957   1.654   6.925   6.062
  353SOL    HW1 1958   1.592   6.926   5.983
  353SOL    HW2 1959   1.697   7.015   6.071
  354SOL     OW 1960   0.315   2.267   0.431
  354SOL    HW1 1961   0.372   2.349   0.447
  354SOL    HW2 1962   0.220   2.295   0.418
  355SOL     OW 1963   1.376   1.542   3.047
  355SOL    HW1 1964   1.292   1.527   3.099
  355SOL    HW2 1965   1.391   1.640   3.035
  356SOL     OW 1966   1.689   0.759   5.619
  356SOL    HW1 1967   1.714   0.846   5.574
  356SOL    HW2 1968   1.715   0.763   5.715
  357SOL     OW 1969   5.296   0.271   5.252
  357SOL    HW1 1970   5.255   0.305   5.167
  357SOL    HW2 1971   5.362   0.339   5.286
  358SOL     OW 1972   3.700   5.854   6.595
  358SOL    HW1 1973   3.731   5.799   6.672
  358SOL    HW2 1974   3.661   5.794   6.525
  359SOL     OW 1975   2.302   2.037   2.508
  359SOL    HW1 1976   2.298   2.116   2.446
  359SOL    HW2 1977   2.308   1.953   2.454
  360SOL     OW 1978   0.960   4.589   4.164
  360SOL    HW1 1979   1.014   4.643   4.229
  360SOL    HW2 1980   0.987   4.493   4.171
  361SOL     OW 1981   6.615   1.966   2.783
  361SOL    HW1 1982   6.617   2.000   2.877
  361SOL    HW2 1983   6.650   1.872   2.780
  362SOL     OW 1984   3.730   4.042   0.921
  362SOL    HW1 1985   3.695   4.064   1.012
  362SOL    HW2 1986   3.693   3.954   0.891
  363SOL     OW 1987   5.317   5.730   1.630
  363SOL    HW1 1988   5.343   5.803   1.567
  363SOL    HW2 1989   5.311   5.644   1.581
  364SOL     OW 1990   1.022   6.345   6.265
  364SOL    HW1 1991   0.961   6.314   6.192
  364SOL    HW2 1992   1.117   6.333   6.237
  365SOL     OW 1993   4.515   1.735   3.265
  365SOL    HW1 1994   4.437   1.750   3.204
  365SOL    HW2 1995   4.490   1.668   3.335
  366SOL     OW 1996   5.267   1.542   0.117
  366SOL    HW1 1997   5.191   1.581   0.168
  366SOL    HW2 1998   5.351   1.592   0.138
  367SOL     OW 1999   5.312   1.361   5.618
  367SOL    HW1 2000   5.411   1.345   5.612
  367SOL    HW2 2001   5.267   1.278   5.651
  368SOL     OW 2002   6.616   1.886   5.786
  368SOL    HW1 2003   6.590   1.978   5.756
  368SOL    HW2 2004   6.558   1.858   5.862
  369SOL     OW 2005   6.587   3.245   2.144
  369SOL    HW1 2006   6.506   3.260   2.088
  369SOL    HW2 2007   6.666   3.228   2.085
  370SOL     OW 2008   1.323   3.160   3.738
  370SOL    HW1 2009   1.385   3.230   3.703
  370SOL    HW2 2010   1.336   3.150   3.836
  371SOL     OW 2011   1.146   5.060   6.995
  371SOL    HW1 2012   1.183   4.971   7.021
  371SOL    HW2 2013   1.217   5.130   7.005
  372SOL     OW 2014   3.822   6.207   6.066
  372SOL    HW1 2015   3.765   6.150   6.125
  372SOL    HW2 2016   3.829   6.166   5.976
  373SOL     OW 2017   5.732   5.450   3.593
  373SOL    HW1 2018   5.727   5.477   3.689
  373SOL    HW2 2019   5.816   5.397   3.578
  374SOL     OW 2020   2.836   1.627   2.906
  374SOL    HW1 2021   2.817   1.660   2.814
  374SOL    HW2 2022   2.907   1.557   2.902
  375SOL     OW 2023   1.136   5.009   4.525
  375SOL    HW1 2024   1.145   5.028   4.427
  375SOL    HW2 2025   1.133   4.911   4.540
  376SOL     OW 2026   3.079   0.927   3.929
  376SOL    HW1 2027   3.052   1.015   3.967
  376SOL    HW2 2028   3.048   0.920   3.834
  377SOL     OW 2029   1.020   1.665   6.983
  377SOL    HW1 2030   0.962   1.686   6.904
  377SOL    HW2 2031   1.081   1.589   6.961
  378SOL     OW 2032   3.997   0.735   2.338
  378SOL    HW1 2033   4.003   0.830   2.369
  378SOL    HW2 2034   4.082   0.687   2.362
  379SOL     OW 2035   5.875   1.589   6.330
  379SOL    HW1 2036   5.928   1.627   6.406
  379SOL    HW2 2037   5.928   1.517   6.285
  380SOL     OW 2038   4.254   2.625   0.326
  380SOL    HW1 2039   4.157   2.633   0.351
  380SOL    HW2 2040   4.309   2.671   0.396
  381SOL     OW 2041   1.856   3.626   3.161
  381SOL    HW1 2042   1.955   3.611   3.162
  381SOL    HW2 2043   1.835   3.711   3.113
  382SOL     OW 2044   4.869   0.531   7.003
  382SOL    HW1 2045   4.808   0.610   7.014
  382SOL    HW2 2046   4.864   0.498   6.909
  383SOL     OW 2047   4.785   2.361   0.724
  383SOL    HW1 2048   4.768   2.268   0.689
  383SOL    HW2 2049   4.882   2.382   0.714
  384SOL     OW 2050   6.307   3.755   4.899
  384SOL    HW1 2051   6.347   3.667   4.872
  384SOL    HW2 2052   6.308   3.816   4.820
  385SOL     OW 2053   4.490   3.726   0.341
  385SOL    HW1 2054   4.514   3.643   0.392
  385SOL    HW2 2055   4.538   3.726   0.253
  386SOL     OW 2056   3.760   6.221   3.680
  386SOL    HW1 2057   3.818   6.152   3.723
  386SOL    HW2 2058   3.813   6.305   3.668
  387SOL     OW 2059   2.733   6.474   3.606
  387SOL    HW1 2060   2.689   6.563   3.598
  387SOL    HW2 2061   2.759   6.457   3.701
  388SOL     OW 2062   1.760   4.367   6.389
  388SOL    HW1 2063   1.765   4.268   6.400
  388SOL    HW2 2064   1.686   4.403   6.446
  389SOL     OW 2065   2.951   3.575   2.966
  389SOL    HW1 2066   3.030   3.604   3.020
  389SOL    HW2 2067   2.884   3.648   2.964
  390SOL     OW 2068   2.240   1.490   4.108
  390SOL    HW1 2069   2.205   1.400   4.133
  390SOL    HW2 2070   2.164   1.549   4.081
  391SOL     OW 2071   0.650   3.038   0.062
  391SOL    HW1 2072   0.625   3.030   6.989
  391SOL    HW2 2073   0.599   2.971   0.116
  392SOL     OW 2074   2.583   5.499   2.122
  392SOL    HW1 2075   2.491   5.460   2.117
  392SOL    HW2 2076   2.649   5.437   2.081
  393SOL     OW 2077   5.860   4.525   5.038
  393SOL    HW1 2078   5.783   4.481   4.991
  393SOL    HW2 2079   5.865   4.621   5.012
  394SOL     OW 2080   2.205   0.759   6.751
  394SOL    HW1 2081   2.197   0.661   6.767
  394SOL    HW2 2082   2.130   0.806   6.799
  395SOL     OW 2083   6.307   3.591   1.389
  395SOL    HW1 2084   6.302   3.688   1.366
  395SOL    HW2 2085   6.315   3.580   1.488
  396SOL     OW 2086   3.155   3.833   3.980
  396SOL    HW1 2087   3.240   3.787   4.007
  396SOL    HW2 2088   3.077   3.781   4.015
  397SOL     OW 2089   4.282   2.387   6.344
  397SOL    HW1 2090   4.219   2.378   6.267
  397SOL    HW2 2091   4.360   2.325   6.331
  398SOL     OW 2092   0.922   5.224   1.706
  398SOL    HW1 2093   0.972   5.233   1.619
  398SOL    HW2 2094   0.960   5.147   1.757
  399SOL     OW 2095   4.850   5.302   1.893
  399SOL    HW1 2096   4.855   5.230   1.962
  399SOL    HW2 2097   4.811   5.267   1.809
  400SOL     OW 2098   1.295   5.725   5.402
  400SOL    HW1 2099   1.254   5.682   5.483
  400SOL    HW2 2100   1.222   5.750   5.337
  401SOL     OW 2101   4.955   1.366   6.980
  401SOL    HW1 2102   4.862   1.331   6.987
  401SOL    HW2 2103   4.989   1.388   0.049
  402SOL     OW 2104   5.387   4.626   1.142
  402SOL    HW1 2105   5.356   4.561   1.072
  402SOL    HW2 2106   5.485   4.614   1.159
  403SOL     OW 2107   4.861   2.939   6.180
  403SOL    HW1 2108   4.936   2.874   6.189
  403SOL    HW2 2109   4.774   2.893   6.199
  404SOL     OW 2110   0.290   0.192   4.480
  404SOL    HW1 2111   0.270   0.104   4.436
  404SOL    HW2 2112   0.267   0.266   4.418
  405SOL     OW 2113   0.417   2.169   0.700
  405SOL    HW1 2114   0.358   2.155   0.621
  405SOL    HW2 2115   0.506   2.205   0.669
  406SOL     OW 2116   2.092   3.447   4.089
  406SOL    HW1 2117   2.003   3.488   4.109
  406SOL    HW2 2118   2.078   3.357   4.047
  407SOL     OW 2119   2.703   0.654   4.468
  407SOL    HW1 2120   2.638   0.661   4.544
  407SOL    HW2 2121   2.762   0.575   4.483
  408SOL     OW 2122   1.927   0.502   3.423
  408SOL    HW1 2123   1.922   0.409   3.386
  408SOL    HW2 2124   1.906   0.499   3.521
  409SOL     OW 2125   6.335   3.310   3.433
  409SOL    HW1 2126   6.315   3.231   3.376
  409SOL    HW2 2127   6.385   3.281   3.515
  410SOL     OW 2128   2.598   1.311   6.636
  410SOL    HW1 2129   2.589   1.409   6.655
  410SOL    HW2 2130   2.507   1.268   6.640
  411SOL     OW 2131   6.212   4.470   5.643
  411SOL    HW1 2132   6.130   4.525   5.635
  411SOL    HW2 2133   6.293   4.529   5.646
  412SOL     OW 2134   3.603   0.483   2.761
  412SOL    HW1 2135   3.541   0.518   2.690
  412SOL    HW2 2136   3.609   0.549   2.836
  413SOL     OW 2137   2.484   6.769   0.850
  413SOL    HW1 2138   2.411   6.836   0.863
  413SOL    HW2 2139   2.527   6.749   0.938
  414SOL     OW 2140   3.792   3.868   0.277
  414SOL    HW1 2141   3.869   3.898   0.333
  414SOL    HW2 2142   3.706   3.885   0.326
  415SOL     OW 2143   2.622   6.613   1.055
  415SOL    HW1 2144   2.721   6.623   1.052
  415SOL    HW2 2145   2.592   6.610   1.150
  416SOL     OW 2146   4.090   5.918   4.900
  416SOL    HW1 2147   4.130   6.003   4.865
  416SOL    HW2 2148   4.160   5.864   4.946
  417SOL     OW 2149   4.612   6.205   1.629
  417SOL    HW1 2150   4.563   6.289   1.651
  417SOL    HW2 2151   4.704   6.228   1.597
  418SOL     OW 2152   5.051   4.909   1.184
  418SOL    HW1 2153   4.957   4.915   1.151
  418SOL    HW2 2154   5.113   4.902   1.105
  419SOL     OW 2155   6.643   6.625   1.411
  419SOL    HW1 2156   6.600   6.535   1.425
  419SOL    HW2 2157   6.729   6.613   1.362
  420SOL     OW 2158   4.742   5.133   0.200
  420SOL    HW1 2159   4.766   5.118   0.295
  420SOL    HW2 2160   4.646   5.162   0.194
  421SOL     OW 2161   2.088   6.616   6.360
  421SOL    HW1 2162   2.103   6.715   6.355
  421SOL    HW2 2163   2.135   6.571   6.284
  422SOL     OW 2164   5.582   4.059   6.735
  422SOL    HW1 2165   5.534   4.146   6.728
  422SOL    HW2 2166   5.582   4.014   6.645
  423SOL     OW 2167   0.299   2.962   6.879
  423SOL    HW1 2168   0.249   2.890   6.831
  423SOL    HW2 2169   0.260   2.974   6.970
  424SOL     OW 2170   2.634   3.958   0.447
  424SOL    HW1 2171   2.680   3.878   0.485
  424SOL    HW2 2172   2.568   3.930   0.378
  425SOL     OW 2173   3.290   1.514   0.429
  425SOL    HW1 2174   3.353   1.562   0.491
  425SOL    HW2 2175   3.284   1.418   0.455
  426SOL     OW 2176   5.383   4.245   6.018
  426SOL    HW1 2177   5.377   4.190   5.934
  426SOL    HW2 2178   5.319   4.322   6.012
  427SOL     OW 2179   5.611   3.759   1.189
  427SOL    HW1 2180   5.687   3.741   1.252
  427SOL    HW2 2181   5.647   3.772   1.096
  428SOL     OW 2182   3.617   0.962   5.033
  428SOL    HW1 2183   3.659   0.871   5.038
  428SOL    HW2 2184   3.538   0.966   5.094
  429SOL     OW 2185   1.461   4.670   6.804
  429SOL    HW1 2186   1.465   4.769   6.818
  429SOL    HW2 2187   1.527   4.625   6.864
  430SOL     OW 2188   1.101   0.577   5.322
  430SOL    HW1 2189   1.020   0.563   5.379
  430SOL    HW2 2190   1.183   0.559   5.376
  431SOL     OW 2191   3.466   1.672   0.610
  431SOL    HW1 2192   3.452   1.771   0.606
  431SOL    HW2 2193   3.499   1.646   0.700
  432SOL     OW 2194   0.150   1.875   1.191
  432SOL    HW1 2195   0.092   1.941   1.239
  432SOL    HW2 2196   0.188   1.810   1.258
  433SOL     OW 2197   3.378   6.404   5.216
  433SOL    HW1 2198   3.332   6.387   5.303
  433SOL    HW2 2199   3.474   6.427   5.232
  434SOL     OW 2200   6.958   3.558   1.746
  434SOL    HW1 2201   7.010   3.615   1.810
  434SOL    HW2 2202   6.883   3.513   1.795
  435SOL     OW 2203   3.132   4.314   0.050
  435SOL    HW1 2204   3.157   4.223   0.083
  435SOL    HW2 2205   3.081   4.305   6.986
  436SOL     OW 2206   1.762   0.631   0.440
  436SOL    HW1 2207   1.770   0.701   0.511
  436SOL    HW2 2208   1.832   0.646   0.370
  437SOL     OW 2209   6.899   6.914   6.531
  437SOL    HW1 2210   6.889   6.964   6.618
  437SOL    HW2 2211   6.820   6.933   6.473
  438SOL     OW 2212   1.364   2.652   1.756
  438SOL    HW1 2213   1.359   2.752   1.759
  438SOL    HW2 2214   1.413   2.623   1.674
  439SOL     OW 2215   6.736   4.737   2.949
  439SOL    HW1 2216   6.821   4.684   2.944
  439SOL    HW2 2217   6.677   4.713   2.873
  440SOL     OW 2218   1.314   2.737   4.035
  440SOL    HW1 2219   1.303   2.810   4.102
  440SOL    HW2 2220   1.406   2.698   4.043
  441SOL     OW 2221   1.082   1.512   3.682
  441SOL    HW1 2222   1.030   1.553   3.608
  441SOL    HW2 2223   1.174   1.488   3.650
  442SOL     OW 2224   0.026   3.785   0.150
  442SOL    HW1 2225   7.018   3.702   0.196
  442SOL    HW2 2226   0.025   3.861   0.214
  443SOL     OW 2227   0.675   3.906   5.515
  443SOL    HW1 2228   0.691   3.815   5.478
  443SOL    HW2 2229   0.755   3.964   5.497
  444SOL     OW 2230   4.433   2.834   6.440
  444SOL    HW1 2231   4.471   2.769   6.374
  444SOL    HW2 2232   4.429   2.791   6.530
  445SOL     OW 2233   2.423   4.392   3.037
  445SOL    HW1 2234   2.513   4.432   3.051
  445SOL    HW2 2235   2.407   4.376   2.939
  446SOL     OW 2236   4.350   4.918   4.006
  446SOL    HW1 2237   4.375   4.924   3.910
  446SOL    HW2 2238   4.366   5.006   4.051
  447SOL     OW 2239   6.505   5.354   0.699
  447SOL    HW1 2240   6.596   5.357   0.741
  447SOL    HW2 2241   6.485   5.260   0.670
  448SOL     OW 2242   4.202   0.750   4.836
  448SOL    HW1 2243   4.236   0.721   4.926
  448SOL    HW2 2244   4.232   0.685   4.767
  449SOL     OW 2245   5.386   0.764   4.413
  449SOL    HW1 2246   5.294   0.765   4.453
  449SOL    HW2 2247   5.418   0.858   4.401
  450SOL     OW 2248   0.223   5.976   3.618
  450SOL    HW1 2249   0.237   5.989   3.717
  450SOL    HW2 2250   0.167   5.894   3.604
  451SOL     OW 2251   0.662   2.296   3.039
  451SOL    HW1 2252   0.620   2.208   3.020
  451SOL    HW2 2253   0.659   2.314   3.137
  452SOL     OW 2254   0.076   4.637   6.640
  452SOL    HW1 2255   0.021   4.554   6.634
  452SOL    HW2 2256   0.158   4.619   6.694
  453SOL     OW 2257   3.309   1.488   6.642
  453SOL    HW1 2258   3.288   1.458   6.549
  453SOL    HW2 2259   3.317   1.588   6.644
  454SOL     OW 2260   1.326   6.225   6.869
  454SOL    HW1 2261   1.285   6.206   6.958
  454SOL    HW2 2262   1.261   6.203   6.797
  455SOL     OW 2263   5.568   0.825   5.034
  455SOL    HW1 2264   5.485   0.838   4.980
  455SOL    HW2 2265   5.624   0.753   4.993
  456SOL     OW 2266   4.621   6.015   6.148
  456SOL    HW1 2267   4.656   6.103   6.179
  456SOL    HW2 2268   4.530   6.028   6.108
  457SOL     OW 2269   2.410   4.890   2.940
  457SOL    HW1 2270   2.312   4.877   2.957
  457SOL    HW2 2271   2.452   4.802   2.916
  458SOL     OW 2272   6.156   5.215   5.810
  458SOL    HW1 2273   6.085   5.152   5.778
  458SOL    HW2 2274   6.113   5.292   5.858
  459SOL     OW 2275   1.766   0.715   2.575
  459SOL    HW1 2276   1.674   0.745   2.598
  459SOL    HW2 2277   1.772   0.615   2.584
  460SOL     OW 2278   6.995   1.930   2.789
  460SOL    HW1 2279   6.948   2.007   2.831
  460SOL    HW2 2280   6.958   1.914   2.698
  461SOL     OW 2281   4.820   6.557   5.319
  461SOL    HW1 2282   4.898   6.495   5.318
  461SOL    HW2 2283   4.827   6.619   5.397
  462SOL     OW 2284   3.297   3.042   6.812
  462SOL    HW1 2285   3.274   3.021   6.717
  462SOL    HW2 2286   3.389   3.081   6.815
  463SOL     OW 2287   6.921   5.024   2.779
  463SOL    HW1 2288   6.949   5.116   2.751
  463SOL    HW2 2289   6.896   5.025   2.876
  464SOL     OW 2290   1.745   1.441   5.981
  464SOL    HW1 2291   1.764   1.378   5.906
  464SOL    HW2 2292   1.817   1.510   5.985
  465SOL     OW 2293   7.010   2.392   3.916
  465SOL    HW1 2294   6.964   2.461   3.860
  465SOL    HW2 2295   0.031   2.436   3.994
  466SOL     OW 2296   1.461   6.754   4.038
  466SOL    HW1 2297   1.533   6.711   3.984
  466SOL    HW2 2298   1.379   6.697   4.035
  467SOL     OW 2299   1.315   0.453   5.519
  467SOL    HW1 2300   1.345   0.547   5.536
  467SOL    HW2 2301   1.236   0.433   5.576
  468SOL     OW 2302   3.701   4.963   1.100
  468SOL    HW1 2303   3.647   5.042   1.075
  468SOL    HW2 2304   3.646   4.880   1.091
  469SOL     OW 2305   2.166   5.422   6.946
  469SOL    HW1 2306   2.082   5.384   6.984
  469SOL    HW2 2307   2.144   5.490   6.876
  470SOL     OW 2308   4.178   0.487   2.431
  470SOL    HW1 2309   4.233   0.462   2.351
  470SOL    HW2 2310   4.214   0.440   2.512
  471SOL     OW 2311   2.213   2.847   4.769
  471SOL    HW1 2312   2.252   2.934   4.798
  471SOL    HW2 2313   2.126   2.863   4.721
  472SOL     OW 2314   4.242   5.373   5.760
  472SOL    HW1 2315   4.264   5.404   5.852
  472SOL    HW2 2316   4.260   5.446   5.695
  473SOL     OW 2317   1.547   3.306   2.725
  473SOL    HW1 2318   1.458   3.351   2.716
  473SOL    HW2 2319   1.613   3.373   2.760
  474SOL     OW 2320   4.059   5.024   5.154
  474SOL    HW1 2321   4.003   4.998   5.233
  474SOL    HW2 2322   4.098   5.115   5.169
  475SOL     OW 2323   0.167   6.786   6.161
  475SOL    HW1 2324   0.127   6.787   6.253
  475SOL    HW2 2325   0.260   6.751   6.165
  476SOL     OW 2326   6.657   4.627   2.665
  476SOL    HW1 2327   6.705   4.688   2.603
  476SOL    HW2 2328   6.563   4.659   2.677
  477SOL     OW 2329   2.226   5.261   3.614
  477SOL    HW1 2330   2.173   5.328   3.562
  477SOL    HW2 2331   2.181   5.172   3.611
  478SOL     OW 2332   3.809   5.229   3.735
  478SOL    HW1 2333   3.901   5.257   3.708
  478SOL    HW2 2334   3.763   5.305   3.781
  479SOL     OW 2335   3.337   2.724   0.647
  479SOL    HW1 2336   3.390   2.724   0.562
  479SOL    HW2 2337   3.396   2.752   0.723
  480SOL     OW 2338   0.606   6.512   2.543
  480SOL    HW1 2339   0.653   6.501   2.455
  480SOL    HW2 2340   0.618   6.605   2.575
  481SOL     OW 2341   3.856   0.080   1.191
  481SOL    HW1 2342   3.855   0.040   1.283
  481SOL    HW2 2343   3.839   0.009   1.123
  482SOL     OW 2344   5.768   4.838   2.673
  482SOL    HW1 2345   5.780   4.821   2.575
  482SOL    HW2 2346   5.781   4.935   2.691
  483SOL     OW 2347   5.589   1.940   2.237
  483SOL    HW1 2348   5.677   1.892   2.237
  483SOL    HW2 2349   5.519   1.880   2.276
  484SOL     OW 2350   0.432   2.958   4.136
  484SOL    HW1 2351   0.430   3.019   4.057
  484SOL    HW2 2352   0.523   2.917   4.144
  485SOL     OW 2353   3.616   5.172   2.135
  485SOL    HW1 2354   3.650   5.228   2.211
  485SOL    HW2 2355   3.528   5.209   2.104
  486SOL     OW 2356   0.664   0.310   0.625
  486SOL    HW1 2357   0.644   0.401   0.588
  486SOL    HW2 2358   0.759   0.307   0.655
  487SOL     OW 2359   0.545   2.442   6.812
  487SOL    HW1 2360   0.456   2.482   6.832
  487SOL    HW2 2361   0.611   2.470   6.882
  488SOL     OW 2362   0.251   2.004   2.180
  488SOL    HW1 2363   0.311   1.996   2.100
  488SOL    HW2 2364   0.256   2.096   2.217
  489SOL     OW 2365   3.204   6.203   6.917
  489SOL    HW1 2366   3.296   6.182   6.883
  489SOL    HW2 2367   3.195   6.301   6.932
  490SOL     OW 2368   6.308   6.265   4.154
  490SOL    HW1 2369   6.334   6.357   4.180
  490SOL    HW2 2370   6.375   6.228   4.090
  491SOL     OW 2371   1.528   2.707   2.424
  491SOL    HW1 2372   1.616   2.713   2.377
  491SOL    HW2 2373   1.542   2.671   2.517
  492SOL     OW 2374   2.769   0.262   5.606
  492SOL    HW1 2375   2.836   0.241   5.677
  492SOL    HW2 2376   2.681   0.221   5.630
  493SOL     OW 2377   6.212   4.384   5.275
  493SOL    HW1 2378   6.261   4.459   5.230
  493SOL    HW2 2379   6.114   4.405   5.276
  494SOL     OW 2380   0.385   0.019   0.533
  494SOL    HW1 2381   0.363   7.016   0.627
  494SOL    HW2 2382   0.304   0.059   0.490
  495SOL     OW 2383   4.677   4.678   1.684
  495SOL    HW1 2384   4.775   4.664   1.669
  495SOL    HW2 2385   4.642   4.607   1.745
  496SOL     OW 2386   5.351   3.458   2.773
  496SOL    HW1 2387   5.372   3.473   2.870
  496SOL    HW2 2388   5.307   3.369   2.761
  497SOL     OW 2389   3.878   0.997   4.684
  497SOL    HW1 2390   3.904   0.917   4.738
  497SOL    HW2 2391   3.810   1.050   4.734
  498SOL     OW 2392   0.486   2.962   2.974
  498SOL    HW1 2393   0.439   2.990   2.890
  498SOL    HW2 2394   0.581   2.939   2.953
  499SOL     OW 2395   3.495   0.620   4.982
  499SOL    HW1 2396   3.437   0.542   5.004
  499SOL    HW2 2397   3.480   0.647   4.887
  500SOL     OW 2398   0.669   3.354   2.745
  500SOL    HW1 2399   0.586   3.345   2.799
  500SOL    HW2 2400   0.749   3.344   2.805
  501SOL     OW 2401   1.748   3.002   6.560
  501SOL    HW1 2402   1.762   2.967   6.467
  501SOL    HW2 2403   1.650   3.000   6.581
  502SOL     OW 2404   4.312   5.151   0.010
  502SOL    HW1 2405   4.343   5.085   6.964
  502SOL    HW2 2406   4.255   5.221   6.989
  503SOL     OW 2407   5.981   4.629   5.581
  503SOL    HW1 2408   5.951   4.720   5.552
  503SOL    HW2 2409   6.004   4.575   5.500
  504SOL     OW 2410   2.006   6.484   4.110
  504SOL    HW1 2411   2.084   6.519   4.058
  504SOL    HW2 2412   2.032   6.399   4.156
  505SOL     OW 2413   4.717   0.371   5.827
  505SOL    HW1 2414   4.725   0.272   5.815
  505SOL    HW2 2415   4.709   0.415   5.738
  506SOL     OW 2416   1.689   4.401   5.192
  506SOL    HW1 2417   1.604   4.445   5.165
  506SOL    HW2 2418   1.685   4.376   5.289
  507SOL     OW 2419   3.324   0.137   5.001
  507SOL    HW1 2420   3.338   0.071   5.075
  507SOL    HW2 2421   3.237   0.185   5.015
  508SOL     OW 2422   6.798   3.844   3.131
  508SOL    HW1 2423   6.829   3.810   3.042
  508SOL    HW2 2424   6.874   3.841   3.195
  509SOL     OW 2425   4.707   1.235   1.993
  509SOL    HW1 2426   4.607   1.233   1.987
  509SOL    HW2 2427   4.740   1.323   1.959
  510SOL     OW 2428   6.965   4.662   4.913
  510SOL    HW1 2429   6.944   4.580   4.966
  510SOL    HW2 2430   7.006   4.636   4.826
  511SOL     OW 2431   0.698   6.303   0.388
  511SOL    HW1 2432   0.733   6.223   0.340
  511SOL    HW2 2433   0.661   6.368   0.322
  512SOL     OW 2434   1.019   3.683   6.745
  512SOL    HW1 2435   1.108   3.687   6.791
  512SOL    HW2 2436   1.016   3.750   6.672
  513SOL     OW 2437   6.588   5.407   3.972
  513SOL    HW1 2438   6.510   5.420   3.910
  513SOL    HW2 2439   6.562   5.344   4.044
  514SOL     OW 2440   6.347   1.924   4.194
  514SOL    HW1 2441   6.411   1.853   4.227
  514SOL    HW2 2442   6.395   2.012   4.190
  515SOL     OW 2443   2.178   6.605   5.768
  515SOL    HW1 2444   2.240   6.683   5.765
  515SOL    HW2 2445   2.106   6.621   5.835
  516SOL     OW 2446   2.038   5.049   1.737
  516SOL    HW1 2447   2.077   4.967   1.778
  516SOL    HW2 2448   1.946   5.064   1.773
  517SOL     OW 2449   4.371   6.836   1.540
  517SOL    HW1 2450   4.336   6.929   1.534
  517SOL    HW2 2451   4.356   6.788   1.453
  518SOL     OW 2452   2.365   2.662   1.601
  518SOL    HW1 2453   2.361   2.630   1.696
  518SOL    HW2 2454   2.280   2.639   1.554
  519SOL     OW 2455   0.196   0.088   6.069
  519SOL    HW1 2456   0.097   0.094   6.054
  519SOL    HW2 2457   0.213   0.057   6.163
  520SOL     OW 2458   5.321   4.841   6.066
  520SOL    HW1 2459   5.264   4.874   5.990
  520SOL    HW2 2460   5.339   4.744   6.055
  521SOL     OW 2461   6.811   1.712   6.925
  521SOL    HW1 2462   6.820   1.777   6.850
  521SOL    HW2 2463   6.715   1.688   6.937
  522SOL     OW 2464   3.921   3.034   4.458
  522SOL    HW1 2465   3.839   3.046   4.402
  522SOL    HW2 2466   3.972   2.954   4.425
  523SOL     OW 2467   6.761   0.002   4.649
  523SOL    HW1 2468   6.798   0.049   4.729
  523SOL    HW2 2469   6.666   0.030   4.635
  524SOL     OW 2470   2.717   1.035   6.337
  524SOL    HW1 2471   2.719   1.078   6.247
  524SOL    HW2 2472   2.807   1.039   6.379
  525SOL     OW 2473   2.601   4.115   6.787
  525SOL    HW1 2474   2.642   4.175   6.856
  525SOL    HW2 2475   2.662   4.108   6.708
  526SOL     OW 2476   3.427   5.487   4.782
  526SOL    HW1 2477   3.364   5.473   4.705
  526SOL    HW2 2478   3.520   5.495   4.748
  527SOL     OW 2479   0.013   1.412   0.095
  527SOL    HW1 2480   7.007   1.502   0.126
  527SOL    HW2 2481   6.998   1.342   0.156
  528SOL     OW 2482   2.587   1.222   5.138
  528SOL    HW1 2483   2.512   1.275   5.097
  528SOL    HW2 2484   2.566   1.202   5.234
  529SOL     OW 2485   1.122   4.754   4.585
  529SOL    HW1 2486   1.143   4.656   4.588
  529SOL    HW2 2487   1.024   4.768   4.601
  530SOL     OW 2488   2.240   3.081   5.379
  530SOL    HW1 2489   2.155   3.042   5.345
  530SOL    HW2 2490   2.310   3.077   5.308
  531SOL     OW 2491   1.173   0.343   1.303
  531SOL    HW1 2492   1.158   0.245   1.291
  531SOL    HW2 2493   1.203   0.383   1.217
  532SOL     OW 2494   0.936   1.235   5.308
  532SOL    HW1 2495   0.984   1.258   5.393
  532SOL    HW2 2496   0.926   1.317   5.252
  533SOL     OW 2497   5.625   6.566   4.913
  533SOL    HW1 2498   5.713   6.611   4.924
  533SOL    HW2 2499   5.615   6.534   4.819
  534SOL     OW 2500   4.550   5.562   2.633
  534SOL    HW1 2501   4.495   5.560   2.549
  534SOL    HW2 2502   4.594   5.651   2.642
  535SOL     OW 2503   0.337   3.974   3.697
  535SOL    HW1 2504   0.339   4.073   3.710
  535SOL    HW2 2505   0.354   3.953   3.601
  536SOL     OW 2506   1.694   5.515   1.379
  536SOL    HW1 2507   1.656   5.477   1.463
  536SOL    HW2 2508   1.693   5.615   1.385
  537SOL     OW 2509   2.212   0.156   2.155
  537SOL    HW1 2510   2.301   0.173   2.111
  537SOL    HW2 2511   2.198   0.223   2.228
  538SOL     OW 2512   0.998   6.078   2.929
  538SOL    HW1 2513   0.921   6.086   2.866
  538SOL    HW2 2514   0.965   6.083   3.024
  539SOL     OW 2515   1.891   4.999   2.155
  539SOL    HW1 2516   1.884   4.920   2.093
  539SOL    HW2 2517   1.823   4.991   2.228
  540SOL     OW 2518   1.957   2.563   2.344
  540SOL    HW1 2519   2.028   2.579   2.412
  540SOL    HW2 2520   1.957   2.466   2.317
  541SOL     OW 2521   2.889   5.895   5.861
  541SOL    HW1 2522   2.811   5.952   5.887
  541SOL    HW2 2523   2.878   5.864   5.766
  542SOL     OW 2524   6.052   5.499   6.815
  542SOL    HW1 2525   6.132   5.464   6.767
  542SOL    HW2 2526   6.051   5.462   6.908
  543SOL     OW 2527   1.321   4.978   6.652
  543SOL    HW1 2528   1.296   5.074   6.640
  543SOL    HW2 2529   1.343   4.961   6.748
  544SOL     OW 2530   0.675   4.417   0.437
  544SOL    HW1 2531   0.700   4.441   0.343
  544SOL    HW2 2532   0.735   4.344   0.470
  545SOL     OW 2533   3.514   1.265   2.983
  545SOL    HW1 2534   3.531   1.363   2.990
  545SOL    HW2 2535   3.600   1.215   2.994
  546SOL     OW 2536   1.507   3.569   0.653
  546SOL    HW1 2537   1.549   3.553   0.564
  546SOL    HW2 2538   1.471   3.483   0.689
  547SOL     OW 2539   2.817   3.522   0.001
  547SOL    HW1 2540   2.786   3.427   0.004
  547SOL    HW2 2541   2.911   3.525   6.989
  548SOL     OW 2542   3.446   2.900   4.133
  548SOL    HW1 2543   3.497   2.951   4.064
  548SOL    HW2 2544   3.403   2.820   4.091
  549SOL     OW 2545   5.930   3.609   1.256
  549SOL    HW1 2546   6.007   3.546   1.242
  549SOL    HW2 2547   5.929   3.639   1.351
  550SOL     OW 2548   6.745   3.781   2.608
  550SOL    HW1 2549   6.833   3.745   2.578
  550SOL    HW2 2550   6.761   3.861   2.666
  551SOL     OW 2551   6.460   1.939   0.719
  551SOL    HW1 2552   6.465   1.880   0.799
  551SOL    HW2 2553   6.427   2.030   0.746
  552SOL     OW 2554   3.542   5.654   0.656
  552SOL    HW1 2555   3.621   5.642   0.717
  552SOL    HW2 2556   3.553   5.738   0.603
  553SOL     OW 2557   1.955   1.399   1.425
  553SOL    HW1 2558   1.909   1.315   1.452
  553SOL    HW2 2559   2.020   1.425   1.497
  554SOL     OW 2560   5.965   6.427   5.257
  554SOL    HW1 2561   6.055   6.431   5.301
  554SOL    HW2 2562   5.967   6.477   5.170
  555SOL     OW 2563   1.145   4.413   4.334
  555SOL    HW1 2564   1.184   4.424   4.425
  555SOL    HW2 2565   1.212   4.443   4.266
  556SOL     OW 2566   5.652   2.700   3.642
  556SOL    HW1 2567   5.600   2.711   3.557
  556SOL    HW2 2568   5.744   2.737   3.630
  557SOL     OW 2569   0.299   6.471   6.272
  557SOL    HW1 2570   0.320   6.377   6.245
  557SOL    HW2 2571   0.362   6.500   6.345
  558SOL     OW 2572   3.984   3.991   5.166
  558SOL    HW1 2573   3.990   3.963   5.071
  558SOL    HW2 2574   3.961   4.089   5.171
  559SOL     OW 2575   0.160   6.420   6.043
  559SOL    HW1 2576   0.092   6.349   6.063
  559SOL    HW2 2577   0.184   6.468   6.128
  560SOL     OW 2578   4.441   0.338   0.448
  560SOL    HW1 2579   4.408   0.246   0.467
  560SOL    HW2 2580   4.427   0.396   0.528
  561SOL     OW 2581   5.641   6.974   0.722
  561SOL    HW1 2582   5.647   0.018   0.648
  561SOL    HW2 2583   5.642   6.882   0.683
  562SOL     OW 2584   5.403   1.709   5.345
  562SOL    HW1 2585   5.351   1.749   5.269
  562SOL    HW2 2586   5.427   1.615   5.323
  563SOL     OW 2587   3.164   6.476   4.107
  563SOL    HW1 2588   3.189   6.568   4.077
  563SOL    HW2 2589   3.225   6.448   4.182
  564SOL     OW 2590   6.937   1.322   6.504
  564SOL    HW1 2591   6.978   1.365   6.584
  564SOL    HW2 2592   6.946   1.222   6.511
  565SOL     OW 2593   4.475   3.827   5.313
  565SOL    HW1 2594   4.463   3.730   5.336
  565SOL    HW2 2595   4.433   3.883   5.384
  566SOL     OW 2596   5.148   4.455   2.659
  566SOL    HW1 2597   5.126   4.550   2.679
  566SOL    HW2 2598   5.078   4.416   2.599
  567SOL     OW 2599   3.657   3.387   4.586
  567SOL    HW1 2600   3.671   3.330   4.667
  567SOL    HW2 2601   3.735   3.448   4.574
  568SOL     OW 2602   2.608   1.674   6.949
  568SOL    HW1 2603   2.524   1.698   6.998
  568SOL    HW2 2604   2.678   1.648   7.014
  569SOL     OW 2605   2.140   3.106   0.861
  569SOL    HW1 2606   2.112   3.018   0.899
  569SOL    HW2 2607   2.228   3.132   0.899
  570SOL     OW 2608   0.100   6.154   1.021
  570SOL    HW1 2609   0.005   6.131   1.040
  570SOL    HW2 2610   0.158   6.120   1.096
  571SOL     OW 2611   4.384   5.293   2.946
  571SOL    HW1 2612   4.353   5.303   2.852
  571SOL    HW2 2613   4.383   5.196   2.971
  572SOL     OW 2614   1.320   3.968   4.958
  572SOL    HW1 2615   1.353   4.061   4.939
  572SOL    HW2 2616   1.291   3.926   4.872
  573SOL     OW 2617   3.916   2.067   5.634
  573SOL    HW1 2618   3.940   1.970   5.635
  573SOL    HW2 2619   3.816   2.076   5.633
  574SOL     OW 2620   1.663   1.522   4.398
  574SOL    HW1 2621   1.741   1.517   4.336
  574SOL    HW2 2622   1.675   1.455   4.471
  575SOL     OW 2623   5.501   2.422   0.190
  575SOL    HW1 2624   5.461   2.403   0.100
  575SOL    HW2 2625   5.498   2.521   0.206
  576SOL     OW 2626   1.301   1.308   2.589
  576SOL    HW1 2627   1.348   1.378   2.644
  576SOL    HW2 2628   1.208   1.295   2.624
  577SOL     OW 2629   3.300   2.108   3.501
  577SOL    HW1 2630   3.269   2.134   3.593
  577SOL    HW2 2631   3.319   2.010   3.498
  578SOL     OW 2632   0.107   3.337   3.920
  578SOL    HW1 2633   0.196   3.383   3.925
  578SOL    HW2 2634   0.035   3.404   3.937
  579SOL     OW 2635   4.695   2.713   6.591
  579SOL    HW1 2636   4.612   2.757   6.626
  579SOL    HW2 2637   4.726   2.644   6.655
  580SOL     OW 2638   1.238   5.649   6.573
  580SOL    HW1 2639   1.306   5.719   6.595
  580SOL    HW2 2640   1.277   5.559   6.590
  581SOL     OW 2641   4.057   3.166   2.753
  581SOL    HW1 2642   3.999   3.090   2.782
  581SOL    HW2 2643   4.062   3.233   2.827
  582SOL     OW 2644   5.686   3.511   2.139
  582SOL    HW1 2645   5.720   3.531   2.232
  582SOL    HW2 2646   5.631   3.588   2.107
  583SOL     OW 2647   2.474   4.517   7.014
  583SOL    HW1 2648   2.439   4.500   6.921
  583SOL    HW2 2649   2.571   4.541   7.009
  584SOL     OW 2650   0.006   5.022   4.553
  584SOL    HW1 2651   0.087   5.016   4.611
  584SOL    HW2 2652   6.946   5.016   4.609
  585SOL     OW 2653   6.946   1.678   0.118
  585SOL    HW1 2654   6.889   1.686   0.036
  585SOL    HW2 2655   6.900   1.722   0.195
  586SOL     OW 2656   2.503   6.560   0.675
  586SOL    HW1 2657   2.502   6.623   0.753
  586SOL    HW2 2658   2.470   6.470   0.704
  587SOL     OW 2659   0.958   3.296   5.265
  587SOL    HW1 2660   0.950   3.309   5.364
  587SOL    HW2 2661   0.902   3.364   5.217
  588SOL     OW 2662   3.486   6.593   1.587
  588SOL    HW1 2663   3.545   6.664   1.627
  588SOL    HW2 2664   3.505   6.506   1.632
  589SOL     OW 2665   4.072   5.115   2.641
  589SOL    HW1 2666   4.026   5.091   2.726
  589SOL    HW2 2667   4.051   5.046   2.571
  590SOL     OW 2668   0.152   1.544   1.997
  590SOL    HW1 2669   0.099   1.609   1.943
  590SOL    HW2 2670   0.171   1.463   1.941
  591SOL     OW 2671   3.519   6.823   3.051
  591SOL    HW1 2672   3.486   6.783   3.137
  591SOL    HW2 2673   3.599   6.772   3.020
  592SOL     OW 2674   4.898   0.697   0.705
  592SOL    HW1 2675   4.819   0.743   0.745
  592SOL    HW2 2676   4.882   0.681   0.608
  593SOL     OW 2677   4.863   2.581   3.726
  593SOL    HW1 2678   4.920   2.565   3.645
  593SOL    HW2 2679   4.828   2.675   3.725
  594SOL     OW 2680   3.770   2.851   1.356
  594SOL    HW1 2681   3.674   2.874   1.343
  594SOL    HW2 2682   3.782   2.807   1.444
  595SOL     OW 2683   3.898   6.751   3.543
  595SOL    HW1 2684   3.836   6.782   3.615
  595SOL    HW2 2685   3.863   6.666   3.503
  596SOL     OW 2686   1.190   4.419   2.822
  596SOL    HW1 2687   1.243   4.339   2.847
  596SOL    HW2 2688   1.248   4.484   2.773
  597SOL     OW 2689   3.662   1.733   5.502
  597SOL    HW1 2690   3.755   1.703   5.480
  597SOL    HW2 2691   3.637   1.809   5.442
  598SOL     OW 2692   3.686   4.614   0.842
  598SOL    HW1 2693   3.608   4.675   0.829
  598SOL    HW2 2694   3.666   4.549   0.915
  599SOL     OW 2695   6.474   6.392   2.453
  599SOL    HW1 2696   6.455   6.330   2.529
  599SOL    HW2 2697   6.389   6.436   2.424
  600SOL     OW 2698   2.042   6.981   6.985
  600SOL    HW1 2699   1.952   6.999   6.946
  600SOL    HW2 2700   2.062   6.883   6.979
  601SOL     OW 2701   3.358   5.400   4.060
  601SOL    HW1 2702   3.298   5.321   4.070
  601SOL    HW2 2703   3.340   5.445   3.973
  602SOL     OW 2704   2.235   0.649   0.978
  602SOL    HW1 2705   2.264   0.743   0.962
  602SOL    HW2 2706   2.190   0.613   0.896
  603SOL     OW 2707   3.981   2.207   3.350
  603SOL    HW1 2708   4.016   2.178   3.438
  603SOL    HW2 2709   3.916   2.282   3.363
  604SOL     OW 2710   0.163   3.995   6.392
  604SOL    HW1 2711   0.150   3.896   6.384
  604SOL    HW2 2712   0.082   4.036   6.432
  605SOL     OW 2713   6.037   0.394   4.150
  605SOL    HW1 2714   5.969   0.438   4.209
  605SOL    HW2 2715   6.006   0.396   4.055
  606SOL     OW 2716   3.176   6.991   3.290
  606SOL    HW1 2717   3.190   6.896   3.263
  606SOL    HW2 2718   3.137   0.019   3.214
  607SOL     OW 2719   5.145   0.999   4.055
  607SOL    HW1 2720   5.071   0.971   4.117
  607SOL    HW2 2721   5.114   1.077   4.000
  608SOL     OW 2722   4.252   1.336   1.597
  608SOL    HW1 2723   4.244   1.418   1.541
  608SOL    HW2 2724   4.333   1.284   1.569
  609SOL     OW 2725   3.654   4.160   4.556
  609SOL    HW1 2726   3.557   4.136   4.559
  609SOL    HW2 2727   3.681   4.202   4.643
  610SOL     OW 2728   4.956   2.147   4.203
  610SOL    HW1 2729   5.012   2.181   4.128
  610SOL    HW2 2730   4.901   2.221   4.241
  611SOL     OW 2731   1.005   6.864   0.639
  611SOL    HW1 2732   0.952   6.841   0.557
  611SOL    HW2 2733   0.945   6.864   0.718
  612SOL     OW 2734   3.453   5.127   5.474
  612SOL    HW1 2735   3.386   5.146   5.545
  612SOL    HW2 2736   3.545   5.128   5.514
  613SOL     OW 2737   3.305   2.081   6.893
  613SOL    HW1 2738   3.358   2.138   6.956
  613SOL    HW2 2739   3.225   2.044   6.941
  614SOL     OW 2740   4.967   4.513   0.914
  614SOL    HW1 2741   4.991   4.544   1.006
  614SOL    HW2 2742   4.871   4.489   0.910
  615SOL     OW 2743   6.341   6.864   0.908
  615SOL    HW1 2744   6.322   6.788   0.846
  615SOL    HW2 2745   6.383   6.939   0.858
  616SOL     OW 2746   5.652   1.816   4.483
  616SOL    HW1 2747   5.677   1.719   4.477
  616SOL    HW2 2748   5.731   1.872   4.458
  617SOL     OW 2749   0.174   5.366   5.536
  617SOL    HW1 2750   0.102   5.420   5.493
  617SOL    HW2 2751   0.134   5.302   5.601
  618SOL     OW 2752   6.528   3.631   0.390
  618SOL    HW1 2753   6.466   3.637   0.468
  618SOL    HW2 2754   6.608   3.577   0.414
  619SOL     OW 2755   2.477   0.703   6.617
  619SOL    HW1 2756   2.398   0.755   6.651
  619SOL    HW2 2757   2.456   0.606   6.617
  620SOL     OW 2758   6.881   1.704   2.237
  620SOL    HW1 2759   6.889   1.784   2.296
  620SOL    HW2 2760   6.946   1.634   2.266
  621SOL     OW 2761   3.553   0.962   6.901
  621SOL    HW1 2762   3.481   1.026   6.927
  621SOL    HW2 2763   3.610   0.942   6.981
  622SOL     OW 2764   1.170   1.672   5.084
  622SOL    HW1 2765   1.090   1.714   5.040
  622SOL    HW2 2766   1.188   1.718   5.171
  623SOL     OW 2767   6.162   6.873   4.335
  623SOL    HW1 2768   6.175   6.784   4.377
  623SOL    HW2 2769   6.247   6.901   4.289
  624SOL     OW 2770   6.286   0.974   6.234
  624SOL    HW1 2771   6.194   1.014   6.233
  624SOL    HW2 2772   6.335   1.003   6.152
  625SOL     OW 2773   2.271   1.667   0.399
  625SOL    HW1 2774   2.296   1.763   0.386
  625SOL    HW2 2775   2.255   1.650   0.496
  626SOL     OW 2776   0.295   5.347   3.638
  626SOL    HW1 2777   0.336   5.299   3.560
  626SOL    HW2 2778   0.358   5.417   3.671
  627SOL     OW 2779   6.455   0.333   6.741
  627SOL    HW1 2780   6.461   0.269   6.665
  627SOL    HW2 2781   6.402   0.292   6.815
  628SOL     OW 2782   4.565   4.820   6.019
  628SOL    HW1 2783   4.565   4.724   6.048
  628SOL    HW2 2784   4.511   4.874   6.084
  629SOL     OW 2785   0.579   6.467   6.123
  629SOL    HW1 2786   0.522   6.548   6.135
  629SOL    HW2 2787   0.556   6.422   6.037
  630SOL     OW 2788   6.619   0.934   1.147
  630SOL    HW1 2789   6.622   0.922   1.246
  630SOL    HW2 2790   6.604   1.031   1.126
  631SOL     OW 2791   1.909   3.079   4.515
  631SOL    HW1 2792   2.000   3.121   4.511
  631SOL    HW2 2793   1.851   3.130   4.579
  632SOL     OW 2794   3.352   3.502   7.010
  632SOL    HW1 2795   3.396   3.484   0.075
  632SOL    HW2 2796   3.296   3.585   7.016
  633SOL     OW 2797   1.761   6.140   1.258
  633SOL    HW1 2798   1.708   6.063   1.223
  633SOL    HW2 2799   1.851   6.141   1.216
  634SOL     OW 2800   3.018   3.122   4.016
  634SOL    HW1 2801   3.118   3.126   4.016
  634SOL    HW2 2802   2.985   3.128   4.110
  635SOL     OW 2803   5.526   0.725   6.892
  635SOL    HW1 2804   5.549   0.753   6.985
  635SOL    HW2 2805   5.503   0.806   6.838
  636SOL     OW 2806   2.617   0.657   5.946
  636SOL    HW1 2807   2.711   0.640   5.975
  636SOL    HW2 2808   2.569   0.570   5.935
  637SOL     OW 2809   6.751   1.131   2.808
  637SOL    HW1 2810   6.663   1.089   2.783
  637SOL    HW2 2811   6.826   1.073   2.774
  638SOL     OW 2812   6.365   3.486   4.797
  638SOL    HW1 2813   6.380   3.403   4.851
  638SOL    HW2 2814   6.271   3.486   4.761
  639SOL     OW 2815   5.390   4.951   2.331
  639SOL    HW1 2816   5.370   4.997   2.418
  639SOL    HW2 2817   5.357   4.857   2.336
  640SOL     OW 2818   0.711   2.081   2.078
  640SOL    HW1 2819   0.735   2.143   2.153
  640SOL    HW2 2820   0.670   1.998   2.116
  641SOL     OW 2821   2.273   5.196   4.712
  641SOL    HW1 2822   2.276   5.179   4.614
  641SOL    HW2 2823   2.192   5.152   4.751
  642SOL     OW 2824   0.838   3.874   4.897
  642SOL    HW1 2825   0.741   3.888   4.882
  642SOL    HW2 2826   0.855   3.776   4.912
  643SOL     OW 2827   5.040   5.501   0.509
  643SOL    HW1 2828   5.087   5.540   0.588
  643SOL    HW2 2829   4.956   5.552   0.491
  644SOL     OW 2830   6.531   6.357   5.331
  644SOL    HW1 2831   6.561   6.364   5.426
  644SOL    HW2 2832   6.447   6.410   5.319
  645SOL     OW 2833   3.755   5.135   1.918
  645SOL    HW1 2834   3.731   5.133   2.015
  645SOL    HW2 2835   3.678   5.101   1.863
  646SOL     OW 2836   3.788   1.617   5.113
  646SOL    HW1 2837   3.842   1.696   5.142
  646SOL    HW2 2838   3.848   1.550   5.069
  647SOL     OW 2839   4.086   2.811   6.075
  647SOL    HW1 2840   4.074   2.819   6.174
  647SOL    HW2 2841   4.003   2.772   6.034
  648SOL     OW 2842   6.261   1.336   3.207
  648SOL    HW1 2843   6.172   1.313   3.246
  648SOL    HW2 2844   6.279   1.279   3.128
  649SOL     OW 2845   2.170   6.061   0.585
  649SOL    HW1 2846   2.259   6.026   0.554
  649SOL    HW2 2847   2.128   6.115   0.512
  650SOL     OW 2848   0.560   4.005   1.049
  650SOL    HW1 2849   0.470   4.020   1.090
  650SOL    HW2 2850   0.553   4.017   0.950
  651SOL     OW 2851   1.409   0.109   4.800
  651SOL    HW1 2852   1.389   0.062   4.886
  651SOL    HW2 2853   1.331   0.099   4.739
  652SOL     OW 2854   3.504   6.348   1.730
  652SOL    HW1 2855   3.600   6.339   1.706
  652SOL    HW2 2856   3.474   6.268   1.782
  653SOL     OW 2857   1.344   6.683   2.076
  653SOL    HW1 2858   1.284   6.654   2.151
  653SOL    HW2 2859   1.411   6.610   2.058
  654SOL     OW 2860   0.114   0.262   4.660
  654SOL    HW1 2861   0.181   0.218   4.601
  654SOL    HW2 2862   0.077   0.343   4.614
  655SOL     OW 2863   6.790   3.810   2.296
  655SOL    HW1 2864   6.747   3.762   2.219
  655SOL    HW2 2865   6.730   3.803   2.377
  656SOL     OW 2866   3.501   6.184   0.491
  656SOL    HW1 2867   3.433   6.151   0.557
  656SOL    HW2 2868   3.455   6.231   0.416
  657SOL     OW 2869   3.605   3.389   2.229
  657SOL    HW1 2870   3.684   3.450   2.220
  657SOL    HW2 2871   3.635   3.294   2.228
  658SOL     OW 2872   1.513   2.634   5.018
  658SOL    HW1 2873   1.519   2.569   5.093
  658SOL    HW2 2874   1.588   2.700   5.025
  659SOL     OW 2875   2.071   5.922   6.357
  659SOL    HW1 2876   2.091   5.833   6.316
  659SOL    HW2 2877   1.999   5.969   6.306
  660SOL     OW 2878   4.959   4.361   2.467
  660SOL    HW1 2879   4.893   4.288   2.485
  660SOL    HW2 2880   5.003   4.346   2.379
  661SOL     OW 2881   4.844   4.293   4.388
  661SOL    HW1 2882   4.813   4.363   4.324
  661SOL    HW2 2883   4.928   4.251   4.354
  662SOL     OW 2884   4.839   3.528   0.370
  662SOL    HW1 2885   4.838   3.554   0.274
  662SOL    HW2 2886   4.888   3.596   0.423
  663SOL     OW 2887   0.708   4.090   0.174
  663SOL    HW1 2888   0.691   4.096   0.076
  663SOL    HW2 2889   0.785   4.150   0.199
  664SOL     OW 2890   2.051   6.737   6.911
  664SOL    HW1 2891   2.107   6.757   6.830
  664SOL    HW2 2892   1.980   6.671   6.887
  665SOL     OW 2893   4.040   4.894   1.329
  665SOL    HW1 2894   4.091   4.974   1.298
  665SOL    HW2 2895   4.080   4.861   1.415
  666SOL     OW 2896   3.306   1.597   0.168
  666SOL    HW1 2897   3.303   1.580   0.267
  666SOL    HW2 2898   3.392   1.561   0.131
  667SOL     OW 2899   1.224   3.141   3.362
  667SOL    HW1 2900   1.181   3.051   3.364
  667SOL    HW2 2901   1.310   3.136   3.311
  668SOL     OW 2902   5.000   6.873   0.425
  668SOL    HW1 2903   5.039   6.964   0.439
  668SOL    HW2 2904   4.902   6.880   0.408
  669SOL     OW 2905   2.065   5.874   3.083
  669SOL    HW1 2906   2.158   5.889   3.049
  669SOL    HW2 2907   2.017   5.962   3.086
  670SOL     OW 2908   3.163   3.104   3.268
  670SOL    HW1 2909   3.142   3.074   3.174
  670SOL    HW2 2910   3.128   3.196   3.282
  671SOL     OW 2911   1.691   0.434   6.047
  671SOL    HW1 2912   1.762   0.473   6.107
  671SOL    HW2 2913   1.602   0.468   6.075
  672SOL     OW 2914   2.634   2.460   3.943
  672SOL    HW1 2915   2.656   2.499   3.853
  672SOL    HW2 2916   2.569   2.520   3.990
  673SOL     OW 2917   5.875   6.863   1.452
  673SOL    HW1 2918   5.822   6.946   1.433
  673SOL    HW2 2919   5.815   6.783   1.446
  674SOL     OW 2920   0.415   2.055   3.905
  674SOL    HW1 2921   0.371   2.142   3.928
  674SOL    HW2 2922   0.411   1.994   3.984
  675SOL     OW 2923   6.035   2.694   4.979
  675SOL    HW1 2924   6.093   2.706   5.059
  675SOL    HW2 2925   6.065   2.613   4.928
  676SOL     OW 2926   2.046   4.458   4.586
  676SOL    HW1 2927   1.982   4.420   4.653
  676SOL    HW2 2928   1.998   4.485   4.503
  677SOL     OW 2929   5.908   6.829   0.809
  677SOL    HW1 2930   5.820   6.854   0.769
  677SOL    HW2 2931   5.928   6.733   0.788
  678SOL     OW 2932   2.384   1.455   6.426
  678SOL    HW1 2933   2.391   1.442   6.525
  678SOL    HW2 2934   2.433   1.381   6.379
  679SOL     OW 2935   5.473   0.037   2.665
  679SOL    HW1 2936   5.386   0.078   2.640
  679SOL    HW2 2937   5.523   0.099   2.727
  680SOL     OW 2938   5.148   4.068   5.234
  680SOL    HW1 2939   5.198   4.039   5.152
  680SOL    HW2 2940   5.066   4.011   5.245
  681SOL     OW 2941   1.320   0.041   2.096
  681SOL    HW1 2942   1.353   6.978   2.057
  681SOL    HW2 2943   1.224   0.055   2.072
  682SOL     OW 2944   1.244   6.017   0.694
  682SOL    HW1 2945   1.281   6.034   0.785
  682SOL    HW2 2946   1.173   6.085   0.674
  683SOL     OW 2947   5.650   1.456   0.588
  683SOL    HW1 2948   5.689   1.465   0.496
  683SOL    HW2 2949   5.562   1.504   0.591
  684SOL     OW 2950   7.020   6.164   6.075
  684SOL    HW1 2951   6.970   6.152   6.161
  684SOL    HW2 2952   0.058   6.085   6.061
  685SOL     OW 2953   5.710   0.546   5.494
  685SOL    HW1 2954   5.795   0.563   5.544
  685SOL    HW2 2955   5.686   0.627   5.441
  686SOL     OW 2956   5.645   5.350   2.912
  686SOL    HW1 2957   5.696   5.336   2.827
  686SOL    HW2 2958   5.554   5.308   2.904
  687SOL     OW 2959   6.377   3.421   5.325
  687SOL    HW1 2960   6.356   3.457   5.234
  687SOL    HW2 2961   6.475   3.434   5.343
  688SOL     OW 2962   6.885   4.060   5.129
  688SOL    HW1 2963   6.814   4.007   5.175
  688SOL    HW2 2964   6.892   4.031   5.033
  689SOL     OW 2965   5.922   4.182   6.183
  689SOL    HW1 2966   5.936   4.214   6.276
  689SOL    HW2 2967   5.825   4.166   6.168
  690SOL     OW 2968   1.198   1.903   3.543
  690SOL    HW1 2969   1.147   1.980   3.581
  690SOL    HW2 2970   1.235   1.848   3.617
  691SOL     OW 2971   0.336   3.128   6.461
  691SOL    HW1 2972   0.283   3.211   6.444
  691SOL    HW2 2973   0.428   3.151   6.490
  692SOL     OW 2974   1.945   0.231   2.954
  692SOL    HW1 2975   1.972   0.306   3.014
  692SOL    HW2 2976   2.018   0.162   2.952
  693SOL     OW 2977   0.103   1.530   2.287
  693SOL    HW1 2978   0.126   1.521   2.191
  693SOL    HW2 2979   0.180   1.571   2.337
  694SOL     OW 2980   1.891   0.532   1.587
  694SOL    HW1 2981   1.791   0.525   1.596
  694SOL    HW2 2982   1.928   0.447   1.552
  695SOL     OW 2983   3.949   6.672   5.600
  695SOL    HW1 2984   3.883   6.725   5.653
  695SOL    HW2 2985   4.042   6.702   5.623
  696SOL     OW 2986   4.416   5.589   2.373
  696SOL    HW1 2987   4.392   5.676   2.416
  696SOL    HW2 2988   4.335   5.548   2.331
  697SOL     OW 2989   1.343   4.063   3.500
  697SOL    HW1 2990   1.427   4.030   3.543
  697SOL    HW2 2991   1.302   4.136   3.555
  698SOL     OW 2992   4.585   6.980   3.766
  698SOL    HW1 2993   4.502   6.962   3.819
  698SOL    HW2 2994   4.660   6.925   3.802
  699SOL     OW 2995   1.676   4.865   0.825
  699SOL    HW1 2996   1.672   4.792   0.757
  699SOL    HW2 2997   1.742   4.934   0.797
  700SOL     OW 2998   2.192   1.234   4.542
  700SOL    HW1 2999   2.251   1.154   4.556
  700SOL    HW2 3000   2.104   1.219   4.587
  701SOL     OW 3001   0.202   4.317   5.988
  701SOL    HW1 3002   0.246   4.273   5.910
  701SOL    HW2 3003   0.271   4.356   6.048
  702SOL     OW 3004   5.881   5.637   4.820
  702SOL    HW1 3005   5.874   5.537   4.817
  702SOL    HW2 3006   5.876   5.667   4.915
  703SOL     OW 3007   3.886   3.889   6.756
  703SOL    HW1 3008   3.933   3.935   6.831
  703SOL    HW2 3009   3.947   3.822   6.713
  704SOL     OW 3010   2.324   0.081   0.136
  704SOL    HW1 3011   2.328   7.008   0.164
  704SOL    HW2 3012   2.305   0.086   0.038
  705SOL     OW 3013   5.959   2.384   2.494
  705SOL    HW1 3014   6.007   2.441   2.561
  705SOL    HW2 3015   5.940   2.437   2.412
  706SOL     OW 3016   3.992   1.791   3.999
  706SOL    HW1 3017   3.954   1.766   3.910
  706SOL    HW2 3018   4.084   1.828   3.987
  707SOL     OW 3019   4.914   0.886   1.447
  707SOL    HW1 3020   4.897   0.882   1.545
  707SOL    HW2 3021   4.832   0.918   1.400
  708SOL     OW 3022   4.046   0.896   1.676
  708SOL    HW1 3023   4.033   0.995   1.668
  708SOL    HW2 3024   4.104   0.877   1.756
  709SOL     OW 3025   0.875   5.067   0.050
  709SOL    HW1 3026   0.971   5.065   0.020
  709SOL    HW2 3027   0.852   4.981   0.095
  710SOL     OW 3028   3.131   3.978   2.535
  710SOL    HW1 3029   3.054   3.915   2.544
  710SOL    HW2 3030   3.150   3.995   2.438
  711SOL     OW 3031   0.533   0.543   3.912
  711SOL    HW1 3032   0.578   0.485   3.844
  711SOL    HW2 3033   0.595   0.618   3.937
  712SOL     OW 3034   1.797   4.129   1.799
  712SOL    HW1 3035   1.835   4.139   1.707
  712SOL    HW2 3036   1.861   4.168   1.866
  713SOL     OW 3037   3.874   2.963   2.876
  713SOL    HW1 3038   3.853   2.929   2.967
  713SOL    HW2 3039   3.814   2.921   2.809
  714SOL     OW 3040   4.732   5.395   5.109
  714SOL    HW1 3041   4.695   5.452   5.036
  714SOL    HW2 3042   4.713   5.439   5.197
  715SOL     OW 3043   4.314   0.388   6.425
  715SOL    HW1 3044   4.264   0.475   6.431
  715SOL    HW2 3045   4.373   0.390   6.344
  716SOL     OW 3046   0.113   4.772   1.930
  716SOL    HW1 3047   0.206   4.764   1.965
  716SOL    HW2 3048   0.052   4.805   2.002
  717SOL     OW 3049   6.201   2.295   0.077
  717SOL    HW1 3050   6.211   2.253   0.168
  717SOL    HW2 3051   6.115   2.265   0.036
  718SOL     OW 3052   3.698   3.885   6.540
  718SOL    HW1 3053   3.785   3.918   6.577
  718SOL    HW2 3054   3.656   3.958   6.486
  719SOL     OW 3055   5.505   4.184   0.744
  719SOL    HW1 3056   5.605   4.190   0.749
  719SOL    HW2 3057   5.478   4.103   0.693
  720SOL     OW 3058   2.614   1.104   6.085
  720SOL    HW1 3059   2.619   1.148   5.995
  720SOL    HW2 3060   2.546   1.031   6.083
  721SOL     OW 3061   1.525   6.939   5.570
  721SOL    HW1 3062   1.488   6.933   5.663
  721SOL    HW2 3063   1.487   6.864   5.515
  722SOL     OW 3064   4.232   0.108   5.125
  722SOL    HW1 3065   4.270   0.079   5.038
  722SOL    HW2 3066   4.149   0.162   5.109
  723SOL     OW 3067   1.048   3.155   2.117
  723SOL    HW1 3068   1.031   3.142   2.214
  723SOL    HW2 3069   1.061   3.252   2.097
  724SOL     OW 3070   0.189   1.111   5.056
  724SOL    HW1 3071   0.109   1.169   5.046
  724SOL    HW2 3072   0.268   1.167   5.082
  725SOL     OW 3073   2.054   5.399   1.267
  725SOL    HW1 3074   2.004   5.409   1.353
  725SOL    HW2 3075   2.013   5.457   1.197
  726SOL     OW 3076   4.139   0.161   6.828
  726SOL    HW1 3077   4.059   0.149   6.770
  726SOL    HW2 3078   4.195   0.237   6.794
  727SOL     OW 3079   3.052   5.085   4.352
  727SOL    HW1 3080   3.004   5.072   4.266
  727SOL    HW2 3081   3.150   5.099   4.334
  728SOL     OW 3082   6.905   3.692   5.229
  728SOL    HW1 3083   6.962   3.759   5.275
  728SOL    HW2 3084   6.822   3.736   5.195
  729SOL     OW 3085   2.792   0.139   1.331
  729SOL    HW1 3086   2.739   0.195   1.268
  729SOL    HW2 3087   2.888   0.167   1.327
  730SOL     OW 3088   5.910   0.300   3.880
  730SOL    HW1 3089   5.962   0.221   3.848
  730SOL    HW2 3090   5.861   0.275   3.964
  731SOL     OW 3091   5.643   3.807   3.606
  731SOL    HW1 3092   5.613   3.760   3.689
  731SOL    HW2 3093   5.721   3.760   3.566
  732SOL     OW 3094   6.574   2.656   1.809
  732SOL    HW1 3095   6.606   2.564   1.831
  732SOL    HW2 3096   6.534   2.657   1.718
  733SOL     OW 3097   4.645   4.364   3.963
  733SOL    HW1 3098   4.578   4.316   3.907
  733SOL    HW2 3099   4.736   4.354   3.923
  734SOL     OW 3100   6.614   4.201   0.992
  734SOL    HW1 3101   6.663   4.180   0.908
  734SOL    HW2 3102   6.520   4.168   0.985
  735SOL     OW 3103   1.495   4.479   6.261
  735SOL    HW1 3104   1.458   4.392   6.228
  735SOL    HW2 3105   1.588   4.490   6.226
  736SOL     OW 3106   6.797   1.289   3.393
  736SOL    HW1 3107   6.766   1.214   3.452
  736SOL    HW2 3108   6.773   1.268   3.298
  737SOL     OW 3109   5.255   3.222   0.612
  737SOL    HW1 3110   5.292   3.254   0.699
  737SOL    HW2 3111   5.155   3.216   0.618
  738SOL     OW 3112   0.908   3.857   4.034
  738SOL    HW1 3113   0.859   3.775   4.065
  738SOL    HW2 3114   0.923   3.852   3.935
  739SOL     OW 3115   4.643   6.420   6.563
  739SOL    HW1 3116   4.564   6.360   6.566
  739SOL    HW2 3117   4.695   6.411   6.648
  740SOL     OW 3118   6.180   6.594   1.545
  740SOL    HW1 3119   6.215   6.508   1.508
  740SOL    HW2 3120   6.137   6.646   1.472
  741SOL     OW 3121   2.109   0.319   2.353
  741SOL    HW1 3122   2.141   0.414   2.363
  741SOL    HW2 3123   2.046   0.297   2.427
  742SOL     OW 3124   1.111   6.835   3.264
  742SOL    HW1 3125   1.171   6.889   3.206
  742SOL    HW2 3126   1.082   6.889   3.342
  743SOL     OW 3127   2.200   4.086   4.365
  743SOL    HW1 3128   2.147   4.112   4.446
  743SOL    HW2 3129   2.279   4.146   4.356
  744SOL     OW 3130   6.904   5.581   0.500
  744SOL    HW1 3131   6.918   5.632   0.415
  744SOL    HW2 3132   6.896   5.645   0.576
  745SOL     OW 3133   1.442   5.616   2.638
  745SOL    HW1 3134   1.535   5.632   2.605
  745SOL    HW2 3135   1.419   5.682   2.709
  746SOL     OW 3136   1.770   1.013   5.137
  746SOL    HW1 3137   1.800   0.937   5.195
  746SOL    HW2 3138   1.813   1.098   5.168
  747SOL     OW 3139   5.077   4.928   2.929
  747SOL    HW1 3140   5.007   4.908   2.861
  747SOL    HW2 3141   5.035   4.974   3.007
  748SOL     OW 3142   4.476   3.386   1.378
  748SOL    HW1 3143   4.411   3.439   1.324
  748SOL    HW2 3144   4.555   3.362   1.321
  749SOL     OW 3145   6.702   1.529   5.842
  749SOL    HW1 3146   6.737   1.573   5.760
  749SOL    HW2 3147   6.775   1.522   5.910
  750SOL     OW 3148   2.327   4.206   0.531
  750SOL    HW1 3149   2.376   4.232   0.448
  750SOL    HW2 3150   2.368   4.252   0.609
  751SOL     OW 3151   4.516   1.037   0.084
  751SOL    HW1 3152   4.448   1.109   0.100
  751SOL    HW2 3153   4.480   0.949   0.114
  752SOL     OW 3154   5.024   2.485   2.130
  752SOL    HW1 3155   4.926   2.505   2.133
  752SOL    HW2 3156   5.057   2.465   2.222
  753SOL     OW 3157   2.084   2.670   4.134
  753SOL    HW1 3158   2.164   2.653   4.078
  753SOL    HW2 3159   2.051   2.763   4.119
  754SOL     OW 3160   4.415   5.765   6.929
  754SOL    HW1 3161   4.345   5.745   6.861
  754SOL    HW2 3162   4.503   5.730   6.897
  755SOL     OW 3163   0.273   5.959   0.639
  755SOL    HW1 3164   0.326   5.978   0.722
  755SOL    HW2 3165   0.283   5.863   0.613
  756SOL     OW 3166   5.088   0.676   2.931
  756SOL    HW1 3167   5.080   0.765   2.977
  756SOL    HW2 3168   5.083   0.689   2.832
  757SOL     OW 3169   0.075   6.954   3.811
  757SOL    HW1 3170   0.047   6.858   3.799
  757SOL    HW2 3171   7.022   7.014   3.785
  758SOL     OW 3172   3.695   2.645   1.173
  758SOL    HW1 3173   3.768   2.649   1.105
  758SOL    HW2 3174   3.702   2.724   1.234
  759SOL     OW 3175   1.255   1.112   6.547
  759SOL    HW1 3176   1.215   1.170   6.618
  759SOL    HW2 3177   1.355   1.115   6.554
  760SOL     OW 3178   4.900   1.563   5.809
  760SOL    HW1 3179   4.906   1.615   5.895
  760SOL    HW2 3180   4.993   1.546   5.775
  761SOL     OW 3181   5.666   2.289   6.909
  761SOL    HW1 3182   5.710   2.200   6.918
  761SOL    HW2 3183   5.717   2.345   6.843
  762SOL     OW 3184   2.313   6.575   4.307
  762SOL    HW1 3185   2.313   6.667   4.346
  762SOL    HW2 3186   2.266   6.575   4.219
  763SOL     OW 3187   4.109   5.882   6.788
  763SOL    HW1 3188   4.100   5.981   6.797
  763SOL    HW2 3189   4.079   5.839   6.873
  764SOL     OW 3190   4.475   1.405   2.357
  764SOL    HW1 3191   4.497   1.417   2.454
  764SOL    HW2 3192   4.534   1.334   2.319
  765SOL     OW 3193   6.905   0.176   3.224
  765SOL    HW1 3194   6.809   0.148   3.235
  765SOL    HW2 3195   6.960   0.133   3.295
  766SOL     OW 3196   0.401   6.276   0.089
  766SOL    HW1 3197   0.392   6.304   0.185
  766SOL    HW2 3198   0.311   6.283   0.044
  767SOL     OW 3199   6.018   0.001   2.521
  767SOL    HW1 3200   6.106   0.048   2.523
  767SOL    HW2 3201   5.993   6.995   2.614
  768SOL     OW 3202   2.926   6.389   2.835
  768SOL    HW1 3203   2.945   6.418   2.741
  768SOL    HW2 3204   2.881   6.300   2.834
  769SOL     OW 3205   4.112   1.011   5.449
  769SOL    HW1 3206   4.111   1.109   5.466
  769SOL    HW2 3207   4.082   0.993   5.356
  770SOL     OW 3208   2.978   5.011   3.889
  770SOL    HW1 3209   2.947   4.938   3.828
  770SOL    HW2 3210   3.077   5.010   3.896
  771SOL     OW 3211   0.738   5.257   3.548
  771SOL    HW1 3212   0.804   5.196   3.504
  771SOL    HW2 3213   0.777   5.291   3.634
  772SOL     OW 3214   6.871   3.823   6.205
  772SOL    HW1 3215   6.784   3.776   6.186
  772SOL    HW2 3216   6.933   3.810   6.128
  773SOL     OW 3217   0.190   3.649   2.529
  773SOL    HW1 3218   0.094   3.645   2.504
  773SOL    HW2 3219   0.235   3.720   2.474
  774SOL     OW 3220   1.769   1.184   1.312
  774SOL    HW1 3221   1.725   1.274   1.318
  774SOL    HW2 3222   1.824   1.179   1.228
  775SOL     OW 3223   1.841   2.111   4.627
  775SOL    HW1 3224   1.822   2.198   4.671
  775SOL    HW2 3225   1.922   2.070   4.670
  776SOL     OW 3226   2.222   0.280   6.118
  776SOL    HW1 3227   2.222   0.379   6.106
  776SOL    HW2 3228   2.131   0.244   6.100
  777SOL     OW 3229   4.222   1.396   1.015
  777SOL    HW1 3230   4.172   1.396   0.928
  777SOL    HW2 3231   4.320   1.398   0.997
  778SOL     OW 3232   4.410   6.386   4.055
  778SOL    HW1 3233   4.464   6.466   4.031
  778SOL    HW2 3234   4.462   6.329   4.119
  779SOL     OW 3235   1.157   1.192   2.077
  779SOL    HW1 3236   1.232   1.172   2.014
  779SOL    HW2 3237   1.184   1.166   2.170
  780SOL     OW 3238   6.049   3.448   4.945
  780SOL    HW1 3239   6.063   3.350   4.928
  780SOL    HW2 3240   5.993   3.460   5.027
  781SOL     OW 3241   6.741   0.924   5.819
  781SOL    HW1 3242   6.688   0.850   5.860
  781SOL    HW2 3243   6.698   1.012   5.842
  782SOL     OW 3244   6.771   3.058   0.923
  782SOL    HW1 3245   6.678   3.097   0.927
  782SOL    HW2 3246   6.783   2.992   0.997
  783SOL     OW 3247   2.659   5.050   0.529
  783SOL    HW1 3248   2.594   4.983   0.493
  783SOL    HW2 3249   2.637   5.141   0.493
  784SOL     OW 3250   4.737   0.807   5.118
  784SOL    HW1 3251   4.757   0.876   5.188
  784SOL    HW2 3252   4.776   0.719   5.147
  785SOL     OW 3253   6.590   2.158   3.303
  785SOL    HW1 3254   6.509   2.212   3.327
  785SOL    HW2 3255   6.669   2.193   3.353
  786SOL     OW 3256   6.989   6.312   0.117
  786SOL    HW1 3257   6.998   6.401   0.072
  786SOL    HW2 3258   6.960   6.325   0.212
  787SOL     OW 3259   3.034   2.210   6.523
  787SOL    HW1 3260   2.935   2.216   6.536
  787SOL    HW2 3261   3.072   2.301   6.508
  788SOL     OW 3262   1.487   3.887   4.393
  788SOL    HW1 3263   1.578   3.896   4.434
  788SOL    HW2 3264   1.481   3.947   4.312
  789SOL     OW 3265   5.422   4.261   1.549
  789SOL    HW1 3266   5.453   4.274   1.455
  789SOL    HW2 3267   5.467   4.329   1.608
  790SOL     OW 3268   3.112   1.304   3.689
  790SOL    HW1 3269   3.090   1.236   3.619
  790SOL    HW2 3270   3.028   1.330   3.737
  791SOL     OW 3271   2.914   1.387   4.227
  791SOL    HW1 3272   3.004   1.418   4.197
  791SOL    HW2 3273   2.851   1.390   4.150
  792SOL     OW 3274   5.540   0.885   3.781
  792SOL    HW1 3275   5.559   0.975   3.740
  792SOL    HW2 3276   5.627   0.840   3.803
  793SOL     OW 3277   5.584   6.950   7.021
  793SOL    HW1 3278   5.667   6.988   6.978
  793SOL    HW2 3279   5.599   6.944   0.097
  794SOL     OW 3280   2.223   5.402   5.868
  794SOL    HW1 3281   2.299   5.422   5.931
  794SOL    HW2 3282   2.230   5.460   5.787
  795SOL     OW 3283   4.808   4.236   6.485
  795SOL    HW1 3284   4.775   4.282   6.567
  795SOL    HW2 3285   4.731   4.216   6.424
  796SOL     OW 3286   0.204   2.171   6.752
  796SOL    HW1 3287   0.193   2.089   6.809
  796SOL    HW2 3288   0.160   2.249   6.797
  797SOL     OW 3289   5.935   2.843   3.994
  797SOL    HW1 3290   5.870   2.910   4.029
  797SOL    HW2 3291   5.922   2.832   3.895
  798SOL     OW 3292   5.268   1.074   6.060
  798SOL    HW1 3293   5.297   1.170   6.065
  798SOL    HW2 3294   5.228   1.056   5.970
  799SOL     OW 3295   6.986   2.821   2.746
  799SOL    HW1 3296   6.893   2.816   2.710
  799SOL    HW2 3297   6.984   2.813   2.846
  800SOL     OW 3298   6.359   1.314   2.340
  800SOL    HW1 3299   6.407   1.388   2.293
  800SOL    HW2 3300   6.322   1.250   2.274
  801SOL     OW 3301   0.472   2.491   3.235
  801SOL    HW1 3302   0.401   2.428   3.266
  801SOL    HW2 3303   0.434   2.583   3.224
  802SOL     OW 3304   5.479   0.861   0.421
  802SOL    HW1 3305   5.504   0.957   0.430
  802SOL    HW2 3306   5.381   0.854   0.404
  803SOL     OW 3307   6.661   6.537   4.850
  803SOL    HW1 3308   6.667   6.617   4.910
  803SOL    HW2 3309   6.751   6.516   4.813
  804SOL     OW 3310   0.479   6.674   0.270
  804SOL    HW1 3311   0.514   6.592   0.225
  804SOL    HW2 3312   0.446   6.651   0.361
  805SOL     OW 3313   2.646   3.042   6.249
  805SOL    HW1 3314   2.738   3.010   6.270
  805SOL    HW2 3315   2.588   2.964   6.227
  806SOL     OW 3316   5.202   0.788   0.363
  806SOL    HW1 3317   5.117   0.837   0.384
  806SOL    HW2 3318   5.217   0.788   0.265
  807SOL     OW 3319   1.534   0.416   3.522
  807SOL    HW1 3320   1.534   0.336   3.583
  807SOL    HW2 3321   1.492   0.493   3.570
  808SOL     OW 3322   5.424   3.296   5.465
  808SOL    HW1 3323   5.442   3.386   5.426
  808SOL    HW2 3324   5.331   3.293   5.502
  809SOL     OW 3325   6.961   4.131   6.498
  809SOL    HW1 3326   6.963   4.121   6.598
  809SOL    HW2 3327   6.981   4.226   6.474
  810SOL     OW 3328   5.850   4.081   0.493
  810SOL    HW1 3329   5.789   4.063   0.571
  810SOL    HW2 3330   5.884   3.995   0.457
  811SOL     OW 3331   5.156   5.239   3.786
  811SOL    HW1 3332   5.103   5.167   3.830
  811SOL    HW2 3333   5.253   5.219   3.795
  812SOL     OW 3334   0.413   6.982   1.680
  812SOL    HW1 3335   0.436   0.020   1.756
  812SOL    HW2 3336   0.348   6.912   1.711
  813SOL     OW 3337   4.970   5.358   2.634
  813SOL    HW1 3338   4.915   5.366   2.551
  813SOL    HW2 3339   4.915   5.383   2.713
  814SOL     OW 3340   5.884   6.387   1.897
  814SOL    HW1 3341   5.927   6.469   1.859
  814SOL    HW2 3342   5.868   6.400   1.995
  815SOL     OW 3343   6.509   1.980   1.078
  815SOL    HW1 3344   6.576   1.960   1.007
  815SOL    HW2 3345   6.505   1.903   1.142
  816SOL     OW 3346   6.622   6.371   0.797
  816SOL    HW1 3347   6.711   6.374   0.843
  816SOL    HW2 3348   6.616   6.289   0.740
  817SOL     OW 3349   1.799   2.989   2.304
  817SOL    HW1 3350   1.881   3.045   2.300
  817SOL    HW2 3351   1.725   3.034   2.253
  818SOL     OW 3352   6.241   1.197   0.866
  818SOL    HW1 3353   6.265   1.133   0.939
  818SOL    HW2 3354   6.291   1.283   0.879
  819SOL     OW 3355   6.689   3.539   3.872
  819SOL    HW1 3356   6.725   3.446   3.878
  819SOL    HW2 3357   6.658   3.569   3.963
  820SOL     OW 3358   0.973   3.291   4.916
  820SOL    HW1 3359   0.966   3.247   4.826
  820SOL    HW2 3360   1.052   3.352   4.916
  821SOL     OW 3361   1.121   3.345   6.817
  821SOL    HW1 3362   1.129   3.251   6.850
  821SOL    HW2 3363   1.042   3.389   6.861
  822SOL     OW 3364   1.495   4.077   4.644
  822SOL    HW1 3365   1.482   4.151   4.578
  822SOL    HW2 3366   1.415   4.016   4.641
  823SOL     OW 3367   3.666   4.041   0.052
  823SOL    HW1 3368   3.638   4.083   0.138
  823SOL    HW2 3369   3.765   4.031   0.050
  824SOL     OW 3370   5.281   2.392   5.603
  824SOL    HW1 3371   5.317   2.345   5.684
  824SOL    HW2 3372   5.197   2.347   5.574
  825SOL     OW 3373   2.172   3.878   2.225
  825SOL    HW1 3374   2.162   3.783   2.254
  825SOL    HW2 3375   2.166   3.884   2.126
  826SOL     OW 3376   6.972   3.556   6.798
  826SOL    HW1 3377   6.944   3.649   6.821
  826SOL    HW2 3378   0.049   3.550   6.799
  827SOL     OW 3379   3.500   6.180   0.053
  827SOL    HW1 3380   3.476   6.179   6.979
  827SOL    HW2 3381   3.593   6.145   0.065
  828SOL     OW 3382   5.510   0.479   5.699
  828SOL    HW1 3383   5.577   0.443   5.764
  828SOL    HW2 3384   5.557   0.535   5.631
  829SOL     OW 3385   3.309   3.198   4.620
  829SOL    HW1 3386   3.347   3.128   4.681
  829SOL    HW2 3387   3.379   3.226   4.554
  830SOL     OW 3388   4.541   4.165   5.354
  830SOL    HW1 3389   4.595   4.230   5.300
  830SOL    HW2 3390   4.449   4.159   5.315
  831SOL     OW 3391   6.649   1.099   5.019
  831SOL    HW1 3392   6.609   1.012   5.049
  831SOL    HW2 3393   6.695   1.085   4.931
  832SOL     OW 3394   2.391   1.721   6.407
  832SOL    HW1 3395   2.336   1.766   6.477
  832SOL    HW2 3396   2.393   1.622   6.424
  833SOL     OW 3397   6.611   6.648   6.193
  833SOL    HW1 3398   6.655   6.566   6.231
  833SOL    HW2 3399   6.551   6.622   6.117
  834SOL     OW 3400   2.915   3.550   4.500
  834SOL    HW1 3401   2.993   3.488   4.511
  834SOL    HW2 3402   2.881   3.578   4.590
  835SOL     OW 3403   3.548   6.740   3.308
  835SOL    HW1 3404   3.612   6.816   3.299
  835SOL    HW2 3405   3.593   6.664   3.356
  836SOL     OW 3406   2.854   1.103   0.524
  836SOL    HW1 3407   2.793   1.112   0.603
  836SOL    HW2 3408   2.873   1.006   0.508
  837SOL     OW 3409   5.215   1.129   5.715
  837SOL    HW1 3410   5.118   1.147   5.698
  837SOL    HW2 3411   5.224   1.046   5.771
  838SOL     OW 3412   2.122   5.377   3.388
  838SOL    HW1 3413   2.050   5.309   3.395
  838SOL    HW2 3414   2.090   5.453   3.331
  839SOL     OW 3415   2.728   2.061   2.889
  839SOL    HW1 3416   2.822   2.061   2.854
  839SOL    HW2 3417   2.727   2.022   2.981
  840SOL     OW 3418   0.841   1.297   6.803
  840SOL    HW1 3419   0.817   1.315   6.898
  840SOL    HW2 3420   0.800   1.367   6.744
  841SOL     OW 3421   0.894   3.415   6.979
  841SOL    HW1 3422   0.807   3.435   6.934
  841SOL    HW2 3423   0.878   3.358   0.037
  842SOL     OW 3424   3.446   4.879   3.178
  842SOL    HW1 3425   3.464   4.927   3.264
  842SOL    HW2 3426   3.533   4.850   3.138
  843SOL     OW 3427   6.529   1.967   2.132
  843SOL    HW1 3428   6.596   2.000   2.199
  843SOL    HW2 3429   6.504   2.042   2.071
  844SOL     OW 3430   4.916   5.706   0.893
  844SOL    HW1 3431   4.990   5.760   0.852
  844SOL    HW2 3432   4.844   5.767   0.926
  845SOL     OW 3433   0.398   4.921   5.079
  845SOL    HW1 3434   0.412   4.822   5.082
  845SOL    HW2 3435   0.339   4.949   5.155
  846SOL     OW 3436   6.237   1.350   6.550
  846SOL    HW1 3437   6.332   1.329   6.573
  846SOL    HW2 3438   6.234   1.425   6.484
  847SOL     OW 3439   4.895   3.399   2.223
  847SOL    HW1 3440   4.906   3.302   2.203
  847SOL    HW2 3441   4.802   3.428   2.201
  848SOL     OW 3442   6.089   0.881   5.672
  848SOL    HW1 3443   6.003   0.913   5.712
  848SOL    HW2 3444   6.134   0.958   5.626
  849SOL     OW 3445   0.536   5.298   4.735
  849SOL    HW1 3446   0.597   5.372   4.764
  849SOL    HW2 3447   0.527   5.231   4.809
  850SOL     OW 3448   3.898   0.947   2.874
  850SOL    HW1 3449   3.828   0.906   2.815
  850SOL    HW2 3450   3.899   0.899   2.962
  851SOL     OW 3451   1.568   0.414   6.719
  851SOL    HW1 3452   1.576   0.338   6.654
  851SOL    HW2 3453   1.491   0.397   6.781
  852SOL     OW 3454   1.678   3.731   6.197
  852SOL    HW1 3455   1.762   3.782   6.185
  852SOL    HW2 3456   1.694   3.653   6.258
  853SOL     OW 3457   1.157   3.941   1.583
  853SOL    HW1 3458   1.146   4.026   1.531
  853SOL    HW2 3459   1.135   3.863   1.524
  854SOL     OW 3460   5.063   5.476   1.941
  854SOL    HW1 3461   4.987   5.422   1.906
  854SOL    HW2 3462   5.058   5.568   1.904
  855SOL     OW 3463   5.049   7.001   1.735
  855SOL    HW1 3464   5.089   6.959   1.817
  855SOL    HW2 3465   5.100   6.971   1.654
  856SOL     OW 3466   2.077   6.774   5.193
  856SOL    HW1 3467   2.119   6.859   5.161
  856SOL    HW2 3468   2.062   6.714   5.114
  857SOL     OW 3469   6.273   3.153   1.609
  857SOL    HW1 3470   6.254   3.071   1.554
  857SOL    HW2 3471   6.199   3.165   1.675
  858SOL     OW 3472   3.311   4.419   1.327
  858SOL    HW1 3473   3.359   4.341   1.367
  858SOL    HW2 3474   3.212   4.405   1.336
  859SOL     OW 3475   6.588   4.831   6.963
  859SOL    HW1 3476   6.598   4.766   6.887
  859SOL    HW2 3477   6.677   4.845   7.006
  860SOL     OW 3478   1.823   5.082   1.096
  860SOL    HW1 3479   1.830   4.988   1.063
  860SOL    HW2 3480   1.847   5.145   1.022
  861SOL     OW 3481   3.874   5.853   5.366
  861SOL    HW1 3482   3.846   5.855   5.463
  861SOL    HW2 3483   3.884   5.757   5.337
  862SOL     OW 3484   4.794   4.131   4.623
  862SOL    HW1 3485   4.802   4.033   4.603
  862SOL    HW2 3486   4.795   4.183   4.537
  863SOL     OW 3487   5.881   1.382   1.210
  863SOL    HW1 3488   5.791   1.363   1.168
  863SOL    HW2 3489   5.953   1.345   1.151
  864SOL     OW 3490   5.851   4.027   2.726
  864SOL    HW1 3491   5.890   4.101   2.780
  864SOL    HW2 3492   5.761   4.003   2.763
  865SOL     OW 3493   1.756   6.667   4.508
  865SOL    HW1 3494   1.833   6.668   4.444
  865SOL    HW2 3495   1.670   6.679   4.457
  866SOL     OW 3496   3.071   1.889   1.927
  866SOL    HW1 3497   3.134   1.835   1.983
  866SOL    HW2 3498   3.093   1.875   1.830
  867SOL     OW 3499   2.097   2.919   6.187
  867SOL    HW1 3500   2.091   3.011   6.147
  867SOL    HW2 3501   2.096   2.851   6.115
  868SOL     OW 3502   5.283   2.844   3.379
  868SOL    HW1 3503   5.241   2.848   3.288
  868SOL    HW2 3504   5.297   2.938   3.412
  869SOL     OW 3505   6.206   5.195   3.057
  869SOL    HW1 3506   6.285   5.256   3.057
  869SOL    HW2 3507   6.124   5.246   3.084
  870SOL     OW 3508   7.006   1.211   0.954
  870SOL    HW1 3509   6.994   1.261   1.040
  870SOL    HW2 3510   6.963   1.260   0.879
  871SOL     OW 3511   6.284   2.753   0.883
  871SOL    HW1 3512   6.217   2.691   0.844
  871SOL    HW2 3513   6.323   2.810   0.810
  872SOL     OW 3514   5.863   2.210   3.345
  872SOL    HW1 3515   5.813   2.131   3.381
  872SOL    HW2 3516   5.926   2.179   3.273
  873SOL     OW 3517   4.526   6.746   5.242
  873SOL    HW1 3518   4.524   6.722   5.145
  873SOL    HW2 3519   4.517   6.663   5.297
  874SOL     OW 3520   0.734   3.248   5.781
  874SOL    HW1 3521   0.758   3.151   5.771
  874SOL    HW2 3522   0.642   3.263   5.746
  875SOL     OW 3523   6.379   4.492   6.850
  875SOL    HW1 3524   6.328   4.531   6.926
  875SOL    HW2 3525   6.470   4.532   6.846
  876SOL     OW 3526   0.920   3.017   2.406
  876SOL    HW1 3527   0.859   3.021   2.486
  876SOL    HW2 3528   0.865   3.015   2.323
  877SOL     OW 3529   6.053   5.784   0.696
  877SOL    HW1 3530   6.068   5.751   0.789
  877SOL    HW2 3531   6.022   5.709   0.638
  878SOL     OW 3532   3.085   4.722   0.190
  878SOL    HW1 3533   3.024   4.767   0.255
  878SOL    HW2 3534   3.178   4.717   0.228
  879SOL     OW 3535   4.750   2.532   2.092
  879SOL    HW1 3536   4.750   2.632   2.096
  879SOL    HW2 3537   4.664   2.497   2.129
  880SOL     OW 3538   3.764   5.317   0.664
  880SOL    HW1 3539   3.751   5.409   0.702
  880SOL    HW2 3540   3.764   5.323   0.564
  881SOL     OW 3541   4.215   5.305   5.237
  881SOL    HW1 3542   4.287   5.281   5.171
  881SOL    HW2 3543   4.244   5.277   5.329
  882SOL     OW 3544   1.404   0.954   4.916
  882SOL    HW1 3545   1.443   0.971   4.826
  882SOL    HW2 3546   1.389   1.041   4.963
  883SOL     OW 3547   3.156   5.201   6.351
  883SOL    HW1 3548   3.074   5.155   6.318
  883SOL    HW2 3549   3.135   5.297   6.371
  884SOL     OW 3550   4.388   3.871   1.165
  884SOL    HW1 3551   4.366   3.920   1.081
  884SOL    HW2 3552   4.441   3.930   1.225
  885SOL     OW 3553   4.470   6.182   0.144
  885SOL    HW1 3554   4.422   6.108   0.190
  885SOL    HW2 3555   4.405   6.252   0.116
  886SOL     OW 3556   4.450   1.542   6.149
  886SOL    HW1 3557   4.524   1.514   6.210
  886SOL    HW2 3558   4.388   1.465   6.134
  887SOL     OW 3559   4.244   0.665   6.484
  887SOL    HW1 3560   4.297   0.661   6.569
  887SOL    HW2 3561   4.146   0.672   6.507
  888SOL     OW 3562   6.471   6.011   3.467
  888SOL    HW1 3563   6.463   6.105   3.501
  888SOL    HW2 3564   6.548   5.966   3.513
  889SOL     OW 3565   0.646   6.961   4.627
  889SOL    HW1 3566   0.645   0.008   4.555
  889SOL    HW2 3567   0.587   6.991   4.703
  890SOL     OW 3568   2.557   4.635   2.010
  890SOL    HW1 3569   2.511   4.561   1.961
  890SOL    HW2 3570   2.655   4.633   1.989
  891SOL     OW 3571   5.397   3.380   6.743
  891SOL    HW1 3572   5.344   3.444   6.799
  891SOL    HW2 3573   5.449   3.431   6.675
  892SOL     OW 3574   2.254   4.792   1.473
  892SOL    HW1 3575   2.330   4.730   1.490
  892SOL    HW2 3576   2.256   4.866   1.541
  893SOL     OW 3577   1.669   0.119   0.318
  893SOL    HW1 3578   1.620   0.188   0.371
  893SOL    HW2 3579   1.747   0.085   0.371
  894SOL     OW 3580   0.927   5.499   3.736
  894SOL    HW1 3581   0.954   5.581   3.786
  894SOL    HW2 3582   0.849   5.457   3.781
  895SOL     OW 3583   2.279   6.540   5.219
  895SOL    HW1 3584   2.196   6.568   5.171
  895SOL    HW2 3585   2.348   6.510   5.153
  896SOL     OW 3586   5.530   6.921   3.166
  896SOL    HW1 3587   5.606   6.977   3.131
  896SOL    HW2 3588   5.566   6.850   3.225
  897SOL     OW 3589   5.484   2.634   5.896
  897SOL    HW1 3590   5.572   2.679   5.909
  897SOL    HW2 3591   5.427   2.689   5.835
  898SOL     OW 3592   5.845   6.309   4.014
  898SOL    HW1 3593   5.859   6.294   3.916
  898SOL    HW2 3594   5.754   6.277   4.040
  899SOL     OW 3595   0.581   4.972   5.889
  899SOL    HW1 3596   0.522   4.989   5.968
  899SOL    HW2 3597   0.644   5.049   5.878
  900SOL     OW 3598   0.744   5.855   3.414
  900SOL    HW1 3599   0.809   5.790   3.453
  900SOL    HW2 3600   0.675   5.805   3.362
  901SOL     OW 3601   6.104   2.363   3.153
  901SOL    HW1 3602   6.108   2.370   3.053
  901SOL    HW2 3603   6.195   2.380   3.192
  902SOL     OW 3604   0.127   6.173   6.987
  902SOL    HW1 3605   0.072   6.169   6.903
  902SOL    HW2 3606   0.076   6.223   0.035
  903SOL     OW 3607   1.286   4.990   0.293
  903SOL    HW1 3608   1.326   5.014   0.381
  903SOL    HW2 3609   1.227   4.910   0.304
  904SOL     OW 3610   1.845   1.396   3.425
  904SOL    HW1 3611   1.908   1.425   3.353
  904SOL    HW2 3612   1.769   1.461   3.431
  905SOL     OW 3613   5.275   2.108   4.954
  905SOL    HW1 3614   5.310   2.201   4.969
  905SOL    HW2 3615   5.187   2.113   4.906
  906SOL     OW 3616   5.952   4.121   5.436
  906SOL    HW1 3617   5.872   4.073   5.400
  906SOL    HW2 3618   6.035   4.078   5.403
  907SOL     OW 3619   6.368   3.211   2.014
  907SOL    HW1 3620   6.362   3.122   1.969
  907SOL    HW2 3621   6.309   3.211   2.095
  908SOL     OW 3622   2.095   0.634   3.752
  908SOL    HW1 3623   2.036   0.618   3.832
  908SOL    HW2 3624   2.051   0.700   3.692
  909SOL     OW 3625   3.354   1.217   1.788
  909SOL    HW1 3626   3.335   1.287   1.857
  909SOL    HW2 3627   3.372   1.130   1.833
  910SOL     OW 3628   1.997   1.935   1.019
  910SOL    HW1 3629   1.949   2.022   1.015
  910SOL    HW2 3630   1.952   1.874   1.085
  911SOL     OW 3631   0.308   3.990   1.159
  911SOL    HW1 3632   0.219   4.026   1.188
  911SOL    HW2 3633   0.297   3.941   1.073
  912SOL     OW 3634   1.211   0.274   5.782
  912SOL    HW1 3635   1.152   0.197   5.759
  912SOL    HW2 3636   1.219   0.282   5.881
  913SOL     OW 3637   2.860   1.386   1.934
  913SOL    HW1 3638   2.763   1.397   1.956
  913SOL    HW2 3639   2.870   1.362   1.838
  914SOL     OW 3640   3.341   6.334   2.849
  914SOL    HW1 3641   3.379   6.349   2.758
  914SOL    HW2 3642   3.302   6.242   2.855
  915SOL     OW 3643   0.534   2.738   0.037
  915SOL    HW1 3644   0.564   2.776   6.972
  915SOL    HW2 3645   0.614   2.717   0.093
  916SOL     OW 3646   2.124   3.206   2.866
  916SOL    HW1 3647   2.122   3.303   2.888
  916SOL    HW2 3648   2.033   3.176   2.837
  917SOL     OW 3649   3.250   2.351   6.745
  917SOL    HW1 3650   3.239   2.424   6.812
  917SOL    HW2 3651   3.199   2.270   6.774
  918SOL     OW 3652   1.091   0.613   6.232
  918SOL    HW1 3653   1.158   0.684   6.212
  918SOL    HW2 3654   1.021   0.612   6.161
  919SOL     OW 3655   2.310   6.097   2.028
  919SOL    HW1 3656   2.317   6.168   1.957
  919SOL    HW2 3657   2.215   6.065   2.033
  920SOL     OW 3658   2.353   0.464   3.915
  920SOL    HW1 3659   2.380   0.368   3.908
  920SOL    HW2 3660   2.388   0.503   4.000
  921SOL     OW 3661   5.682   4.675   5.671
  921SOL    HW1 3662   5.750   4.748   5.674
  921SOL    HW2 3663   5.612   4.698   5.603
  922SOL     OW 3664   2.048   4.033   6.615
  922SOL    HW1 3665   2.047   3.937   6.643
  922SOL    HW2 3666   1.973   4.081   6.661
  923SOL     OW 3667   4.025   0.481   6.640
  923SOL    HW1 3668   4.109   0.430   6.658
  923SOL    HW2 3669   4.008   0.485   6.542
  924SOL     OW 3670   5.878   3.446   3.157
  924SOL    HW1 3671   5.957   3.435   3.097
  924SOL    HW2 3672   5.888   3.385   3.235
  925SOL     OW 3673   6.746   1.753   3.063
  925SOL    HW1 3674   6.658   1.704   3.058
  925SOL    HW2 3675   6.783   1.746   3.155
  926SOL     OW 3676   5.459   6.150   0.893
  926SOL    HW1 3677   5.516   6.067   0.888
  926SOL    HW2 3678   5.363   6.124   0.890
  927SOL     OW 3679   3.935   5.039   5.660
  927SOL    HW1 3680   3.984   4.991   5.587
  927SOL    HW2 3681   4.001   5.078   5.724
  928SOL     OW 3682   0.594   0.918   1.495
  928SOL    HW1 3683   0.645   0.906   1.409
  928SOL    HW2 3684   0.519   0.982   1.480
  929SOL     OW 3685   1.324   2.445   2.290
  929SOL    HW1 3686   1.266   2.508   2.237
  929SOL    HW2 3687   1.420   2.467   2.275
  930SOL     OW 3688   4.882   6.460   3.651
  930SOL    HW1 3689   4.974   6.424   3.667
  930SOL    HW2 3690   4.814   6.395   3.686
  931SOL     OW 3691   1.392   2.908   1.837
  931SOL    HW1 3692   1.429   2.997   1.810
  931SOL    HW2 3693   1.321   2.922   1.906
  932SOL     OW 3694   4.348   6.698   1.269
  932SOL    HW1 3695   4.386   6.612   1.301
  932SOL    HW2 3696   4.421   6.756   1.232
  933SOL     OW 3697   2.200   6.187   2.910
  933SOL    HW1 3698   2.223   6.214   2.817
  933SOL    HW2 3699   2.108   6.148   2.912
  934SOL     OW 3700   2.859   1.330   5.166
  934SOL    HW1 3701   2.844   1.428   5.152
  934SOL    HW2 3702   2.771   1.282   5.166
  935SOL     OW 3703   3.039   3.696   6.259
  935SOL    HW1 3704   3.072   3.786   6.231
  935SOL    HW2 3705   3.062   3.629   6.188
  936SOL     OW 3706   0.420   1.511   1.347
  936SOL    HW1 3707   0.501   1.552   1.389
  936SOL    HW2 3708   0.448   1.444   1.279
  937SOL     OW 3709   4.841   2.386   4.141
  937SOL    HW1 3710   4.864   2.324   4.065
  937SOL    HW2 3711   4.742   2.399   4.144
  938SOL     OW 3712   0.119   2.437   0.174
  938SOL    HW1 3713   0.092   2.453   0.269
  938SOL    HW2 3714   0.203   2.488   0.154
  939SOL     OW 3715   6.106   1.095   6.059
  939SOL    HW1 3716   6.103   1.183   6.012
  939SOL    HW2 3717   6.013   1.060   6.070
  940SOL     OW 3718   0.586   1.010   4.277
  940SOL    HW1 3719   0.572   0.930   4.336
  940SOL    HW2 3720   0.669   0.997   4.223
  941SOL     OW 3721   5.494   2.848   4.804
  941SOL    HW1 3722   5.587   2.877   4.824
  941SOL    HW2 3723   5.447   2.826   4.890
  942SOL     OW 3724   5.281   6.895   4.907
  942SOL    HW1 3725   5.221   6.957   4.857
  942SOL    HW2 3726   5.376   6.911   4.879
  943SOL     OW 3727   5.256   1.811   0.630
  943SOL    HW1 3728   5.309   1.727   0.635
  943SOL    HW2 3729   5.307   1.886   0.673
  944SOL     OW 3730   6.387   3.900   5.102
  944SOL    HW1 3731   6.361   3.990   5.067
  944SOL    HW2 3732   6.366   3.830   5.033
  945SOL     OW 3733   5.396   4.282   5.042
  945SOL    HW1 3734   5.333   4.276   4.965
  945SOL    HW2 3735   5.422   4.190   5.072
  946SOL     OW 3736   5.640   2.583   5.646
  946SOL    HW1 3737   5.611   2.571   5.741
  946SOL    HW2 3738   5.644   2.493   5.601
  947SOL     OW 3739   1.892   3.278   5.664
  947SOL    HW1 3740   1.880   3.309   5.570
  947SOL    HW2 3741   1.989   3.260   5.681
  948SOL     OW 3742   3.580   1.959   0.015
  948SOL    HW1 3743   3.614   1.985   0.106
  948SOL    HW2 3744   3.489   1.919   0.024
  949SOL     OW 3745   5.283   6.003   6.148
  949SOL    HW1 3746   5.361   6.016   6.210
  949SOL    HW2 3747   5.316   6.004   6.053
  950SOL     OW 3748   3.878   5.437   1.511
  950SOL    HW1 3749   3.949   5.446   1.442
  950SOL    HW2 3750   3.829   5.351   1.498
  951SOL     OW 3751   1.255   2.020   3.119
  951SOL    HW1 3752   1.303   2.087   3.176
  951SOL    HW2 3753   1.174   1.987   3.167
  952SOL     OW 3754   4.931   2.171   1.960
  952SOL    HW1 3755   5.016   2.130   1.927
  952SOL    HW2 3756   4.917   2.259   1.915
  953SOL     OW 3757   3.962   0.116   6.620
  953SOL    HW1 3758   3.863   0.122   6.636
  953SOL    HW2 3759   3.986   0.177   6.544
  954SOL     OW 3760   6.424   5.999   0.508
  954SOL    HW1 3761   6.367   5.950   0.574
  954SOL    HW2 3762   6.517   5.964   0.511
  955SOL     OW 3763   0.034   6.922   2.779
  955SOL    HW1 3764   0.044   6.826   2.753
  955SOL    HW2 3765   7.005   6.927   2.865
  956SOL     OW 3766   0.611   2.346   0.951
  956SOL    HW1 3767   0.554   2.426   0.972
  956SOL    HW2 3768   0.567   2.263   0.985
  957SOL     OW 3769   2.704   6.438   5.369
  957SOL    HW1 3770   2.788   6.484   5.396
  957SOL    HW2 3771   2.650   6.499   5.311
  958SOL     OW 3772   5.215   2.513   0.488
  958SOL    HW1 3773   5.271   2.578   0.540
  958SOL    HW2 3774   5.266   2.428   0.474
  959SOL     OW 3775   1.431   4.296   2.769
  959SOL    HW1 3776   1.437   4.249   2.681
  959SOL    HW2 3777   1.443   4.230   2.843
  960SOL     OW 3778   1.709   5.436   5.229
  960SOL    HW1 3779   1.735   5.363   5.293
  960SOL    HW2 3780   1.613   5.458   5.240
  961SOL     OW 3781   3.801   6.762   2.100
  961SOL    HW1 3782   3.831   6.833   2.037
  961SOL    HW2 3783   3.799   6.798   2.193
  962SOL     OW 3784   1.624   6.929   4.684
  962SOL    HW1 3785   1.692   6.922   4.611
  962SOL    HW2 3786   1.598   0.002   4.696
  963SOL     OW 3787   6.464   6.964   1.123
  963SOL    HW1 3788   6.418   6.936   1.039
  963SOL    HW2 3789   6.439   6.902   1.197
  964SOL     OW 3790   5.154   4.332   1.671
  964SOL    HW1 3791   5.243   4.300   1.638
  964SOL    HW2 3792   5.124   4.276   1.748
  965SOL     OW 3793   0.474   2.127   1.076
  965SOL    HW1 3794   0.384   2.139   1.035
  965SOL    HW2 3795   0.481   2.035   1.115
  966SOL     OW 3796   0.435   2.000   1.994
  966SOL    HW1 3797   0.496   2.061   1.943
  966SOL    HW2 3798   0.487   1.921   2.027
  967SOL     OW 3799   0.674   5.832   2.350
  967SOL    HW1 3800   0.732   5.822   2.269
  967SOL    HW2 3801   0.726   5.879   2.422
  968SOL     OW 3802   5.612   3.533   2.728
  968SOL    HW1 3803   5.600   3.610   2.665
  968SOL    HW2 3804   5.526   3.484   2.738
  969SOL     OW 3805   4.487   5.940   5.625
  969SOL    HW1 3806   4.567   5.883   5.642
  969SOL    HW2 3807   4.468   5.943   5.527
  970SOL     OW 3808   4.370   2.194   5.195
  970SOL    HW1 3809   4.371   2.130   5.272
  970SOL    HW2 3810   4.328   2.150   5.116
  971SOL     OW 3811   6.744   1.879   1.739
  971SOL    HW1 3812   6.793   1.871   1.826
  971SOL    HW2 3813   6.666   1.941   1.751
  972SOL     OW 3814   6.891   5.191   1.089
  972SOL    HW1 3815   6.859   5.113   1.142
  972SOL    HW2 3816   6.894   5.167   0.992
  973SOL     OW 3817   5.692   4.031   6.048
  973SOL    HW1 3818   5.696   3.933   6.029
  973SOL    HW2 3819   5.768   4.077   6.002
  974SOL     OW 3820   2.788   1.567   3.911
  974SOL    HW1 3821   2.804   1.658   3.874
  974SOL    HW2 3822   2.716   1.571   3.980
  975SOL     OW 3823   3.744   6.760   5.741
  975SOL    HW1 3824   3.678   6.718   5.679
  975SOL    HW2 3825   3.722   6.734   5.835
  976SOL     OW 3826   0.219   5.096   3.892
  976SOL    HW1 3827   0.310   5.056   3.904
  976SOL    HW2 3828   0.227   5.196   3.892
  977SOL     OW 3829   1.656   1.183   3.969
  977SOL    HW1 3830   1.667   1.256   3.901
  977SOL    HW2 3831   1.577   1.203   4.026
  978SOL     OW 3832   6.119   3.471   4.401
  978SOL    HW1 3833   6.038   3.413   4.413
  978SOL    HW2 3834   6.198   3.429   4.446
  979SOL     OW 3835   5.863   0.619   3.511
  979SOL    HW1 3836   5.859   0.535   3.566
  979SOL    HW2 3837   5.943   0.672   3.538
  980SOL     OW 3838   6.069   0.897   4.806
  980SOL    HW1 3839   6.102   0.822   4.864
  980SOL    HW2 3840   6.122   0.898   4.721
  981SOL     OW 3841   0.012   2.681   5.926
  981SOL    HW1 3842   0.103   2.666   5.889
  981SOL    HW2 3843   7.003   2.772   5.901
  982SOL     OW 3844   1.836   2.544   1.159
  982SOL    HW1 3845   1.817   2.584   1.248
  982SOL    HW2 3846   1.795   2.601   1.087
  983SOL     OW 3847   5.533   1.463   3.113
  983SOL    HW1 3848   5.497   1.491   3.024
  983SOL    HW2 3849   5.633   1.464   3.112
  984SOL     OW 3850   4.654   0.993   4.346
  984SOL    HW1 3851   4.664   0.935   4.427
  984SOL    HW2 3852   4.573   0.965   4.295
  985SOL     OW 3853   3.257   5.367   0.153
  985SOL    HW1 3854   3.308   5.343   0.070
  985SOL    HW2 3855   3.295   5.316   0.230
  986SOL     OW 3856   4.618   5.249   6.253
  986SOL    HW1 3857   4.571   5.337   6.246
  986SOL    HW2 3858   4.694   5.247   6.189
  987SOL     OW 3859   3.836   0.141   2.752
  987SOL    HW1 3860   3.869   0.117   2.843
  987SOL    HW2 3861   3.776   0.068   2.718
  988SOL     OW 3862   3.306   4.015   1.857
  988SOL    HW1 3863   3.225   4.035   1.912
  988SOL    HW2 3864   3.302   4.067   1.772
  989SOL     OW 3865   0.488   6.765   5.827
  989SOL    HW1 3866   0.524   6.673   5.813
  989SOL    HW2 3867   0.411   6.762   5.890
  990SOL     OW 3868   4.804   6.710   3.589
  990SOL    HW1 3869   4.805   6.610   3.578
  990SOL    HW2 3870   4.891   6.740   3.628
  991SOL     OW 3871   6.346   1.563   5.078
  991SOL    HW1 3872   6.253   1.593   5.058
  991SOL    HW2 3873   6.401   1.566   4.995
  992SOL     OW 3874   0.581   3.389   0.925
  992SOL    HW1 3875   0.579   3.429   0.833
  992SOL    HW2 3876   0.545   3.296   0.922
  993SOL     OW 3877   3.240   5.338   3.662
  993SOL    HW1 3878   3.303   5.373   3.593
  993SOL    HW2 3879   3.264   5.244   3.685
  994SOL     OW 3880   3.044   3.549   2.695
  994SOL    HW1 3881   3.023   3.562   2.792
  994SOL    HW2 3882   3.048   3.452   2.673
  995SOL     OW 3883   1.001   1.435   4.786
  995SOL    HW1 3884   1.082   1.406   4.735
  995SOL    HW2 3885   1.018   1.427   4.884
  996SOL     OW 3886   1.630   3.702   2.649
  996SOL    HW1 3887   1.646   3.695   2.551
  996SOL    HW2 3888   1.570   3.780   2.668
  997SOL     OW 3889   6.634   0.891   1.563
  997SOL    HW1 3890   6.612   0.987   1.546
  997SOL    HW2 3891   6.719   0.886   1.616
  998SOL     OW 3892   5.390   0.341   3.162
  998SOL    HW1 3893   5.442   0.403   3.103
  998SOL    HW2 3894   5.451   0.271   3.199
  999SOL     OW 3895   0.356   4.848   1.489
  999SOL    HW1 3896   0.301   4.858   1.572
  999SOL    HW2 3897   0.449   4.880   1.507
 1000SOL     OW 3898   3.644   1.603   4.010
 1000SOL    HW1 3899   3.644   1.696   4.046
 1000SOL    HW2 3900   3.725   1.589   3.953
 1001SOL     OW 3901   4.808   0.474   5.485
 1001SOL    HW1 3902   4.750   0.394   5.490
 1001SOL    HW2 3903   4.895   0.449   5.442
 1002SOL     OW 3904   6.395   1.154   1.335
 1002SOL    HW1 3905   6.408   1.245   1.296
 1002SOL    HW2 3906   6.380   1.088   1.261
 1003SOL     OW 3907   3.899   5.660   2.613
 1003SOL    HW1 3908   3.822   5.613   2.570
 1003SOL    HW2 3909   3.938   5.603   2.684
 1004SOL     OW 3910   6.114   6.060   6.968
 1004SOL    HW1 3911   6.186   5.993   6.984
 1004SOL    HW2 3912   6.025   6.014   6.962
 1005SOL     OW 3913   0.191   6.672   3.293
 1005SOL    HW1 3914   0.165   6.754   3.243
 1005SOL    HW2 3915   0.269   6.628   3.247
 1006SOL     OW 3916   2.015   4.814   1.091
 1006SOL    HW1 3917   2.076   4.892   1.096
 1006SOL    HW2 3918   2.011   4.769   1.180
 1007SOL     OW 3919   0.201   0.840   3.487
 1007SOL    HW1 3920   0.112   0.879   3.466
 1007SOL    HW2 3921   0.271   0.883   3.430
 1008SOL     OW 3922   2.160   3.421   3.320
 1008SOL    HW1 3923   2.129   3.510   3.287
 1008SOL    HW2 3924   2.174   3.359   3.243
 1009SOL     OW 3925   1.416   6.212   5.453
 1009SOL    HW1 3926   1.368   6.279   5.510
 1009SOL    HW2 3927   1.499   6.255   5.416
 1010SOL     OW 3928   4.766   1.750   0.221
 1010SOL    HW1 3929   4.786   1.848   0.216
 1010SOL    HW2 3930   4.673   1.733   0.190
 1011SOL     OW 3931   3.405   6.191   3.170
 1011SOL    HW1 3932   3.478   6.242   3.125
 1011SOL    HW2 3933   3.343   6.153   3.101
 1012SOL     OW 3934   4.670   5.736   6.849
 1012SOL    HW1 3935   4.768   5.739   6.868
 1012SOL    HW2 3936   4.655   5.745   6.751
 1013SOL     OW 3937   0.676   1.175   1.598
 1013SOL    HW1 3938   0.588   1.212   1.571
 1013SOL    HW2 3939   0.678   1.076   1.581
 1014SOL     OW 3940   4.753   0.091   5.846
 1014SOL    HW1 3941   4.742   0.025   5.772
 1014SOL    HW2 3942   4.752   0.043   5.934
 1015SOL     OW 3943   3.400   5.959   3.810
 1015SOL    HW1 3944   3.461   5.893   3.853
 1015SOL    HW2 3945   3.305   5.930   3.824
 1016SOL     OW 3946   4.194   2.682   1.256
 1016SOL    HW1 3947   4.225   2.597   1.298
 1016SOL    HW2 3948   4.179   2.751   1.327
 1017SOL     OW 3949   4.119   1.989   6.382
 1017SOL    HW1 3950   4.105   2.086   6.405
 1017SOL    HW2 3951   4.214   1.964   6.398
 1018SOL     OW 3952   1.713   3.457   2.960
 1018SOL    HW1 3953   1.761   3.476   2.874
 1018SOL    HW2 3954   1.763   3.497   3.036
 1019SOL     OW 3955   6.449   1.119   0.452
 1019SOL    HW1 3956   6.524   1.182   0.431
 1019SOL    HW2 3957   6.485   1.027   0.464
 1020SOL     OW 3958   2.738   1.771   1.711
 1020SOL    HW1 3959   2.693   1.736   1.793
 1020SOL    HW2 3960   2.722   1.870   1.704
 1021SOL     OW 3961   6.580   1.211   1.107
 1021SOL    HW1 3962   6.635   1.294   1.116
 1021SOL    HW2 3963   6.503   1.229   1.046
 1022SOL     OW 3964   4.247   3.418   6.575
 1022SOL    HW1 3965   4.330   3.370   6.546
 1022SOL    HW2 3966   4.176   3.406   6.506
 1023SOL     OW 3967   5.555   1.150   2.842
 1023SOL    HW1 3968   5.490   1.220   2.813
 1023SOL    HW2 3969   5.548   1.137   2.941
 1024SOL     OW 3970   6.701   1.544   3.409
 1024SOL    HW1 3971   6.752   1.460   3.424
 1024SOL    HW2 3972   6.606   1.523   3.386
 1025SOL     OW 3973   3.129   4.774   1.053
 1025SOL    HW1 3974   3.135   4.734   0.962
 1025SOL    HW2 3975   3.033   4.786   1.078
 1026SOL     OW 3976   0.963   2.501   0.529
 1026SOL    HW1 3977   1.015   2.584   0.509
 1026SOL    HW2 3978   0.866   2.517   0.513
 1027SOL     OW 3979   2.696   4.629   2.445
 1027SOL    HW1 3980   2.732   4.680   2.523
 1027SOL    HW2 3981   2.746   4.655   2.362
 1028SOL     OW 3982   1.771   6.539   0.794
 1028SOL    HW1 3983   1.816   6.450   0.792
 1028SOL    HW2 3984   1.672   6.526   0.790
 1029SOL     OW 3985   2.461   0.674   6.352
 1029SOL    HW1 3986   2.458   0.718   6.441
 1029SOL    HW2 3987   2.542   0.707   6.302
 1030SOL     OW 3988   3.888   3.956   4.903
 1030SOL    HW1 3989   3.940   3.961   4.818
 1030SOL    HW2 3990   3.805   4.011   4.896
 1031SOL     OW 3991   2.308   5.847   1.613
 1031SOL    HW1 3992   2.328   5.806   1.524
 1031SOL    HW2 3993   2.318   5.778   1.684
 1032SOL     OW 3994   2.159   0.551   4.341
 1032SOL    HW1 3995   2.129   0.602   4.261
 1032SOL    HW2 3996   2.166   0.613   4.419
 1033SOL     OW 3997   2.527   5.915   2.691
 1033SOL    HW1 3998   2.548   5.853   2.767
 1033SOL    HW2 3999   2.568   5.880   2.607
 1034SOL     OW 4000   1.221   4.723   3.930
 1034SOL    HW1 4001   1.316   4.701   3.950
 1034SOL    HW2 4002   1.167   4.718   4.014
 1035SOL     OW 4003   2.417   1.407   4.603
 1035SOL    HW1 4004   2.335   1.351   4.603
 1035SOL    HW2 4005   2.494   1.354   4.567
 1036SOL     OW 4006   4.585   2.279   0.138
 1036SOL    HW1 4007   4.500   2.266   0.086
 1036SOL    HW2 4008   4.600   2.377   0.154
 1037SOL     OW 4009   2.000   2.104   6.699
 1037SOL    HW1 4010   2.094   2.081   6.725
 1037SOL    HW2 4011   1.939   2.029   6.725
 1038SOL     OW 4012   2.012   0.910   4.843
 1038SOL    HW1 4013   2.008   0.810   4.845
 1038SOL    HW2 4014   2.028   0.941   4.749
 1039SOL     OW 4015   3.922   1.721   3.741
 1039SOL    HW1 4016   3.834   1.687   3.707
 1039SOL    HW2 4017   3.996   1.667   3.700
 1040SOL     OW 4018   6.547   4.164   3.266
 1040SOL    HW1 4019   6.455   4.126   3.262
 1040SOL    HW2 4020   6.555   4.240   3.202
 1041SOL     OW 4021   1.141   0.420   4.445
 1041SOL    HW1 4022   1.069   0.375   4.392
 1041SOL    HW2 4023   1.171   0.360   4.519
 1042SOL     OW 4024   5.312   4.412   1.002
 1042SOL    HW1 4025   5.263   4.427   0.916
 1042SOL    HW2 4026   5.348   4.319   1.005
 1043SOL     OW 4027   3.197   1.413   6.388
 1043SOL    HW1 4028   3.114   1.403   6.333
 1043SOL    HW2 4029   3.277   1.398   6.330
 1044SOL     OW 4030   4.148   3.232   1.898
 1044SOL    HW1 4031   4.195   3.320   1.904
 1044SOL    HW2 4032   4.103   3.212   1.985
 1045SOL     OW 4033   3.177   1.440   3.141
 1045SOL    HW1 4034   3.109   1.422   3.212
 1045SOL    HW2 4035   3.230   1.521   3.166
 1046SOL     OW 4036   4.301   0.480   1.889
 1046SOL    HW1 4037   4.305   0.407   1.956
 1046SOL    HW2 4038   4.384   0.477   1.832
 1047SOL     OW 4039   0.903   4.672   2.575
 1047SOL    HW1 4040   0.878   4.645   2.668
 1047SOL    HW2 4041   0.839   4.631   2.510
 1048SOL     OW 4042   5.101   4.349   5.458
 1048SOL    HW1 4043   5.198   4.363   5.477
 1048SOL    HW2 4044   5.090   4.326   5.361
 1049SOL     OW 4045   0.351   3.321   4.668
 1049SOL    HW1 4046   0.431   3.269   4.637
 1049SOL    HW2 4047   0.347   3.321   4.768
 1050SOL     OW 4048   2.940   0.576   7.004
 1050SOL    HW1 4049   2.857   0.632   7.002
 1050SOL    HW2 4050   2.969   0.564   0.076
 1051SOL     OW 4051   4.547   4.353   1.410
 1051SOL    HW1 4052   4.500   4.276   1.368
 1051SOL    HW2 4053   4.530   4.352   1.509
 1052SOL     OW 4054   3.456   0.185   4.698
 1052SOL    HW1 4055   3.384   0.253   4.706
 1052SOL    HW2 4056   3.524   0.200   4.769
 1053SOL     OW 4057   4.130   4.724   3.815
 1053SOL    HW1 4058   4.175   4.674   3.741
 1053SOL    HW2 4059   4.182   4.714   3.899
 1054SOL     OW 4060   3.744   6.002   4.149
 1054SOL    HW1 4061   3.828   5.949   4.142
 1054SOL    HW2 4062   3.766   6.098   4.168
 1055SOL     OW 4063   4.532   5.039   4.756
 1055SOL    HW1 4064   4.469   5.102   4.710
 1055SOL    HW2 4065   4.564   5.080   4.842
 1056SOL     OW 4066   1.650   6.417   5.320
 1056SOL    HW1 4067   1.602   6.466   5.247
 1056SOL    HW2 4068   1.718   6.477   5.362
 1057SOL     OW 4069   3.432   4.125   2.063
 1057SOL    HW1 4070   3.399   4.070   1.987
 1057SOL    HW2 4071   3.377   4.209   2.069
 1058SOL     OW 4072   3.905   1.155   1.836
 1058SOL    HW1 4073   3.919   1.151   1.736
 1058SOL    HW2 4074   3.878   1.064   1.869
 1059SOL     OW 4075   3.471   1.737   0.920
 1059SOL    HW1 4076   3.376   1.719   0.943
 1059SOL    HW2 4077   3.499   1.826   0.955
 1060SOL     OW 4078   2.439   2.138   5.726
 1060SOL    HW1 4079   2.491   2.112   5.645
 1060SOL    HW2 4080   2.360   2.193   5.699
 1061SOL     OW 4081   3.018   5.975   1.613
 1061SOL    HW1 4082   2.987   6.042   1.681
 1061SOL    HW2 4083   2.953   5.973   1.537
 1062SOL     OW 4084   5.691   4.876   4.597
 1062SOL    HW1 4085   5.673   4.836   4.507
 1062SOL    HW2 4086   5.637   4.829   4.666
 1063SOL     OW 4087   2.036   2.552   6.776
 1063SOL    HW1 4088   2.032   2.643   6.817
 1063SOL    HW2 4089   2.028   2.482   6.848
 1064SOL     OW 4090   6.863   2.900   1.495
 1064SOL    HW1 4091   6.816   2.817   1.464
 1064SOL    HW2 4092   6.892   2.888   1.590
 1065SOL     OW 4093   6.512   6.319   4.902
 1065SOL    HW1 4094   6.477   6.297   4.811
 1065SOL    HW2 4095   6.554   6.410   4.900
 1066SOL     OW 4096   3.760   0.620   3.228
 1066SOL    HW1 4097   3.704   0.657   3.302
 1066SOL    HW2 4098   3.828   0.557   3.265
 1067SOL     OW 4099   1.767   3.240   1.245
 1067SOL    HW1 4100   1.725   3.193   1.322
 1067SOL    HW2 4101   1.867   3.236   1.253
 1068SOL     OW 4102   0.668   3.414   2.264
 1068SOL    HW1 4103   0.685   3.512   2.269
 1068SOL    HW2 4104   0.610   3.394   2.185
 1069SOL     OW 4105   3.757   3.683   1.572
 1069SOL    HW1 4106   3.854   3.661   1.569
 1069SOL    HW2 4107   3.705   3.613   1.522
 1070SOL     OW 4108   2.212   0.901   0.035
 1070SOL    HW1 4109   2.287   0.968   0.038
 1070SOL    HW2 4110   2.136   0.938   7.004
 1071SOL     OW 4111   4.003   6.678   3.158
 1071SOL    HW1 4112   4.083   6.658   3.102
 1071SOL    HW2 4113   4.031   6.692   3.253
 1072SOL     OW 4114   3.867   5.768   2.999
 1072SOL    HW1 4115   3.943   5.827   2.973
 1072SOL    HW2 4116   3.804   5.819   3.059
 1073SOL     OW 4117   2.477   4.734   2.586
 1073SOL    HW1 4118   2.537   4.689   2.519
 1073SOL    HW2 4119   2.514   4.719   2.678
 1074SOL     OW 4120   1.426   5.499   2.053
 1074SOL    HW1 4121   1.365   5.561   2.104
 1074SOL    HW2 4122   1.372   5.429   2.008
 1075SOL     OW 4123   0.127   4.248   3.908
 1075SOL    HW1 4124   0.214   4.204   3.929
 1075SOL    HW2 4125   0.101   4.226   3.813
 1076SOL     OW 4126   0.244   4.781   3.551
 1076SOL    HW1 4127   0.264   4.753   3.457
 1076SOL    HW2 4128   0.213   4.875   3.553
 1077SOL     OW 4129   4.798   0.121   0.436
 1077SOL    HW1 4130   4.725   0.105   0.501
 1077SOL    HW2 4131   4.761   0.166   0.355
 1078SOL     OW 4132   0.548   1.935   1.301
 1078SOL    HW1 4133   0.632   1.969   1.258
 1078SOL    HW2 4134   0.548   1.960   1.397
 1079SOL     OW 4135   2.708   5.712   3.251
 1079SOL    HW1 4136   2.644   5.637   3.232
 1079SOL    HW2 4137   2.685   5.753   3.339
 1080SOL     OW 4138   1.974   5.287   4.369
 1080SOL    HW1 4139   2.026   5.221   4.423
 1080SOL    HW2 4140   1.971   5.257   4.274
 1081SOL     OW 4141   1.475   0.811   6.904
 1081SOL    HW1 4142   1.472   0.858   6.992
 1081SOL    HW2 4143   1.396   0.751   6.896
 1082SOL     OW 4144   2.313   0.116   6.319
 1082SOL    HW1 4145   2.275   0.167   6.242
 1082SOL    HW2 4146   2.371   0.177   6.373
 1083SOL     OW 4147   4.072   3.087   1.473
 1083SOL    HW1 4148   4.048   3.093   1.570
 1083SOL    HW2 4149   3.996   3.122   1.418
 1084SOL     OW 4150   6.307   3.632   0.563
 1084SOL    HW1 4151   6.241   3.641   0.489
 1084SOL    HW2 4152   6.258   3.626   0.650
 1085SOL     OW 4153   2.180   3.847   3.892
 1085SOL    HW1 4154   2.114   3.847   3.967
 1085SOL    HW2 4155   2.169   3.763   3.838
 1086SOL     OW 4156   4.101   4.748   2.094
 1086SOL    HW1 4157   4.063   4.655   2.087
 1086SOL    HW2 4158   4.035   4.814   2.059
 1087SOL     OW 4159   4.458   2.864   5.345
 1087SOL    HW1 4160   4.369   2.829   5.314
 1087SOL    HW2 4161   4.467   2.846   5.444
 1088SOL     OW 4162   5.085   3.692   3.204
 1088SOL    HW1 4163   5.151   3.765   3.189
 1088SOL    HW2 4164   5.014   3.696   3.134
 1089SOL     OW 4165   6.516   0.279   3.448
 1089SOL    HW1 4166   6.499   0.372   3.483
 1089SOL    HW2 4167   6.434   0.247   3.400
 1090SOL     OW 4168   0.558   1.964   5.577
 1090SOL    HW1 4169   0.616   1.956   5.658
 1090SOL    HW2 4170   0.595   2.034   5.516
 1091SOL     OW 4171   0.931   1.785   5.017
 1091SOL    HW1 4172   0.854   1.750   4.964
 1091SOL    HW2 4173   0.897   1.833   5.098
 1092SOL     OW 4174   2.049   4.637   1.290
 1092SOL    HW1 4175   2.041   4.692   1.373
 1092SOL    HW2 4176   2.141   4.600   1.282
 1093SOL     OW 4177   0.915   1.839   2.224
 1093SOL    HW1 4178   0.923   1.750   2.269
 1093SOL    HW2 4179   0.926   1.827   2.125
 1094SOL     OW 4180   0.467   6.498   1.865
 1094SOL    HW1 4181   0.399   6.445   1.814
 1094SOL    HW2 4182   0.452   6.485   1.963
 1095SOL     OW 4183   5.943   3.891   6.405
 1095SOL    HW1 4184   6.005   3.812   6.400
 1095SOL    HW2 4185   5.995   3.972   6.431
 1096SOL     OW 4186   3.329   4.268   1.705
 1096SOL    HW1 4187   3.419   4.270   1.748
 1096SOL    HW2 4188   3.296   4.361   1.691
 1097SOL     OW 4189   1.588   4.868   5.623
 1097SOL    HW1 4190   1.602   4.838   5.717
 1097SOL    HW2 4191   1.493   4.854   5.597
 1098SOL     OW 4192   4.430   1.713   2.667
 1098SOL    HW1 4193   4.520   1.710   2.623
 1098SOL    HW2 4194   4.388   1.623   2.664
 1099SOL     OW 4195   3.720   1.777   2.831
 1099SOL    HW1 4196   3.703   1.872   2.857
 1099SOL    HW2 4197   3.734   1.721   2.913
 1100SOL     OW 4198   0.855   0.586   0.361
 1100SOL    HW1 4199   0.843   0.552   0.267
 1100SOL    HW2 4200   0.905   0.518   0.414
 1101SOL     OW 4201   5.349   2.677   0.635
 1101SOL    HW1 4202   5.274   2.714   0.689
 1101SOL    HW2 4203   5.428   2.659   0.694
 1102SOL     OW 4204   0.612   4.906   3.232
 1102SOL    HW1 4205   0.605   5.001   3.201
 1102SOL    HW2 4206   0.632   4.905   3.330
 1103SOL     OW 4207   0.355   3.114   1.149
 1103SOL    HW1 4208   0.340   3.015   1.143
 1103SOL    HW2 4209   0.443   3.131   1.194
 1104SOL     OW 4210   2.788   5.063   5.714
 1104SOL    HW1 4211   2.748   4.975   5.738
 1104SOL    HW2 4212   2.728   5.137   5.745
 1105SOL     OW 4213   4.346   5.723   0.159
 1105SOL    HW1 4214   4.433   5.715   0.208
 1105SOL    HW2 4215   4.362   5.731   0.061
 1106SOL     OW 4216   0.212   1.828   6.553
 1106SOL    HW1 4217   0.116   1.807   6.574
 1106SOL    HW2 4218   0.263   1.838   6.639
 1107SOL     OW 4219   1.736   0.619   1.055
 1107SOL    HW1 4220   1.761   0.714   1.076
 1107SOL    HW2 4221   1.673   0.585   1.125
 1108SOL     OW 4222   0.643   2.118   5.379
 1108SOL    HW1 4223   0.726   2.128   5.324
 1108SOL    HW2 4224   0.602   2.208   5.394
 1109SOL     OW 4225   5.385   0.931   4.140
 1109SOL    HW1 4226   5.411   1.019   4.181
 1109SOL    HW2 4227   5.293   0.938   4.102
 1110SOL     OW 4228   3.678   3.102   2.309
 1110SOL    HW1 4229   3.763   3.060   2.342
 1110SOL    HW2 4230   3.604   3.036   2.311
 1111SOL     OW 4231   5.664   6.641   0.254
 1111SOL    HW1 4232   5.670   6.741   0.261
 1111SOL    HW2 4233   5.726   6.599   0.321
 1112SOL     OW 4234   6.088   0.844   2.930
 1112SOL    HW1 4235   6.158   0.849   2.859
 1112SOL    HW2 4236   6.057   0.936   2.953
 1113SOL     OW 4237   6.472   3.798   1.877
 1113SOL    HW1 4238   6.393   3.741   1.854
 1113SOL    HW2 4239   6.533   3.747   1.937
 1114SOL     OW 4240   4.866   1.298   4.957
 1114SOL    HW1 4241   4.803   1.357   5.008
 1114SOL    HW2 4242   4.953   1.345   4.944
 1115SOL     OW 4243   2.507   3.120   0.717
 1115SOL    HW1 4244   2.582   3.133   0.653
 1115SOL    HW2 4245   2.441   3.054   0.679
 1116SOL     OW 4246   4.542   6.140   4.533
 1116SOL    HW1 4247   4.443   6.136   4.516
 1116SOL    HW2 4248   4.578   6.225   4.495
 1117SOL     OW 4249   2.564   3.566   1.253
 1117SOL    HW1 4250   2.510   3.526   1.327
 1117SOL    HW2 4251   2.573   3.499   1.179
 1118SOL     OW 4252   2.003   3.827   3.636
 1118SOL    HW1 4253   1.939   3.892   3.676
 1118SOL    HW2 4254   2.010   3.746   3.695
 1119SOL     OW 4255   3.619   4.055   2.220
 1119SOL    HW1 4256   3.602   4.104   2.305
 1119SOL    HW2 4257   3.556   4.087   2.149
 1120SOL     OW 4258   4.517   0.404   4.220
 1120SOL    HW1 4259   4.440   0.365   4.170
 1120SOL    HW2 4260   4.548   0.339   4.289
 1121SOL     OW 4261   5.419   3.577   1.773
 1121SOL    HW1 4262   5.360   3.510   1.819
 1121SOL    HW2 4263   5.364   3.632   1.710
 1122SOL     OW 4264   5.142   4.538   6.718
 1122SOL    HW1 4265   5.157   4.466   6.650
 1122SOL    HW2 4266   5.060   4.589   6.694
 1123SOL     OW 4267   3.536   0.865   2.147
 1123SOL    HW1 4268   3.544   0.771   2.179
 1123SOL    HW2 4269   3.627   0.907   2.142
 1124SOL     OW 4270   0.791   4.319   4.976
 1124SOL    HW1 4271   0.769   4.270   5.060
 1124SOL    HW2 4272   0.706   4.336   4.925
 1125SOL     OW 4273   3.725   3.436   5.049
 1125SOL    HW1 4274   3.766   3.460   4.961
 1125SOL    HW2 4275   3.751   3.343   5.074
 1126SOL     OW 4276   5.876   6.709   2.224
 1126SOL    HW1 4277   5.971   6.738   2.219
 1126SOL    HW2 4278   5.846   6.710   2.320
 1127SOL     OW 4279   1.501   4.981   0.147
 1127SOL    HW1 4280   1.411   4.964   0.187
 1127SOL    HW2 4281   1.560   5.026   0.215
 1128SOL     OW 4282   2.850   1.944   4.524
 1128SOL    HW1 4283   2.764   1.900   4.497
 1128SOL    HW2 4284   2.865   2.025   4.467
 1129SOL     OW 4285   5.790   0.139   7.003
 1129SOL    HW1 4286   5.854   0.213   6.982
 1129SOL    HW2 4287   5.839   0.063   0.022
 1130SOL     OW 4288   0.179   4.643   6.005
 1130SOL    HW1 4289   0.244   4.567   6.011
 1130SOL    HW2 4290   0.191   4.704   6.084
 1131SOL     OW 4291   0.744   4.854   6.409
 1131SOL    HW1 4292   0.763   4.914   6.487
 1131SOL    HW2 4293   0.808   4.876   6.335
 1132SOL     OW 4294   5.096   0.173   5.622
 1132SOL    HW1 4295   5.168   0.242   5.627
 1132SOL    HW2 4296   5.051   0.166   5.711
 1133SOL     OW 4297   0.621   3.267   1.524
 1133SOL    HW1 4298   0.595   3.209   1.601
 1133SOL    HW2 4299   0.636   3.360   1.555
 1134SOL     OW 4300   5.868   3.450   6.119
 1134SOL    HW1 4301   5.930   3.374   6.138
 1134SOL    HW2 4302   5.847   3.453   6.022
 1135SOL     OW 4303   4.268   1.705   3.099
 1135SOL    HW1 4304   4.218   1.660   3.173
 1135SOL    HW2 4305   4.211   1.707   3.017
 1136SOL     OW 4306   3.500   5.039   4.129
 1136SOL    HW1 4307   3.568   4.988   4.182
 1136SOL    HW2 4308   3.536   5.130   4.108
 1137SOL     OW 4309   1.711   1.287   5.533
 1137SOL    HW1 4310   1.747   1.228   5.606
 1137SOL    HW2 4311   1.747   1.379   5.545
 1138SOL     OW 4312   0.927   4.022   5.496
 1138SOL    HW1 4313   0.935   4.070   5.583
 1138SOL    HW2 4314   0.998   3.953   5.489
 1139SOL     OW 4315   1.324   6.377   1.676
 1139SOL    HW1 4316   1.239   6.420   1.645
 1139SOL    HW2 4317   1.303   6.302   1.739
 1140SOL     OW 4318   3.338   1.877   3.639
 1140SOL    HW1 4319   3.328   1.819   3.720
 1140SOL    HW2 4320   3.379   1.964   3.664
 1141SOL     OW 4321   6.899   5.575   5.748
 1141SOL    HW1 4322   6.922   5.663   5.791
 1141SOL    HW2 4323   6.931   5.500   5.806
 1142SOL     OW 4324   6.123   0.989   3.751
 1142SOL    HW1 4325   6.160   1.020   3.839
 1142SOL    HW2 4326   6.064   1.060   3.713
 1143SOL     OW 4327   4.159   1.950   3.214
 1143SOL    HW1 4328   4.199   1.859   3.224
 1143SOL    HW2 4329   4.224   2.010   3.167
 1144SOL     OW 4330   6.991   6.238   4.951
 1144SOL    HW1 4331   6.990   6.231   5.050
 1144SOL    HW2 4332   6.955   6.153   4.911
 1145SOL     OW 4333   0.913   5.300   5.166
 1145SOL    HW1 4334   0.927   5.244   5.084
 1145SOL    HW2 4335   0.819   5.287   5.198
 1146SOL     OW 4336   5.619   2.161   0.795
 1146SOL    HW1 4337   5.702   2.188   0.844
 1146SOL    HW2 4338   5.641   2.138   0.701
 1147SOL     OW 4339   6.386   2.494   1.680
 1147SOL    HW1 4340   6.447   2.415   1.691
 1147SOL    HW2 4341   6.332   2.484   1.596
 1148SOL     OW 4342   3.872   0.351   0.578
 1148SOL    HW1 4343   3.904   0.411   0.651
 1148SOL    HW2 4344   3.858   0.259   0.614
 1149SOL     OW 4345   6.573   3.403   2.369
 1149SOL    HW1 4346   6.664   3.373   2.400
 1149SOL    HW2 4347   6.552   3.359   2.281
 1150SOL     OW 4348   1.342   4.705   6.315
 1150SOL    HW1 4349   1.390   4.625   6.280
 1150SOL    HW2 4350   1.356   4.782   6.254
 1151SOL     OW 4351   4.637   5.436   6.801
 1151SOL    HW1 4352   4.644   5.533   6.824
 1151SOL    HW2 4353   4.701   5.384   6.858
 1152SOL     OW 4354   0.313   0.490   4.662
 1152SOL    HW1 4355   0.264   0.535   4.736
 1152SOL    HW2 4356   0.381   0.427   4.700
 1153SOL     OW 4357   2.353   5.240   2.353
 1153SOL    HW1 4358   2.421   5.257   2.425
 1153SOL    HW2 4359   2.386   5.276   2.266
 1154SOL     OW 4360   1.768   5.187   1.538
 1154SOL    HW1 4361   1.786   5.094   1.571
 1154SOL    HW2 4362   1.698   5.184   1.467
 1155SOL     OW 4363   3.167   5.799   2.235
 1155SOL    HW1 4364   3.246   5.854   2.262
 1155SOL    HW2 4365   3.087   5.858   2.225
 1156SOL     OW 4366   2.389   0.566   4.172
 1156SOL    HW1 4367   2.362   0.578   4.268
 1156SOL    HW2 4368   2.489   0.561   4.167
 1157SOL     OW 4369   1.005   2.776   4.328
 1157SOL    HW1 4370   0.935   2.829   4.281
 1157SOL    HW2 4371   1.081   2.759   4.265
 1158SOL     OW 4372   4.591   5.486   5.341
 1158SOL    HW1 4373   4.559   5.393   5.328
 1158SOL    HW2 4374   4.629   5.495   5.434
 1159SOL     OW 4375   4.932   5.097   3.101
 1159SOL    HW1 4376   4.883   5.151   3.032
 1159SOL    HW2 4377   4.921   5.140   3.190
 1160SOL     OW 4378   2.989   3.386   0.387
 1160SOL    HW1 4379   3.086   3.409   0.386
 1160SOL    HW2 4380   2.963   3.351   0.477
 1161SOL     OW 4381   4.337   0.344   3.797
 1161SOL    HW1 4382   4.286   0.405   3.858
 1161SOL    HW2 4383   4.421   0.315   3.843
 1162SOL     OW 4384   3.592   4.187   1.792
 1162SOL    HW1 4385   3.589   4.095   1.752
 1162SOL    HW2 4386   3.592   4.180   1.891
 1163SOL     OW 4387   4.834   2.539   2.736
 1163SOL    HW1 4388   4.832   2.464   2.670
 1163SOL    HW2 4389   4.746   2.546   2.782
 1164SOL     OW 4390   5.892   3.300   3.398
 1164SOL    HW1 4391   5.947   3.348   3.467
 1164SOL    HW2 4392   5.925   3.207   3.388
 1165SOL     OW 4393   1.114   4.864   2.057
 1165SOL    HW1 4394   1.172   4.784   2.042
 1165SOL    HW2 4395   1.161   4.928   2.117
 1166SOL     OW 4396   3.792   3.137   6.639
 1166SOL    HW1 4397   3.892   3.144   6.638
 1166SOL    HW2 4398   3.765   3.041   6.633
 1167SOL     OW 4399   4.677   1.463   5.072
 1167SOL    HW1 4400   4.596   1.403   5.079
 1167SOL    HW2 4401   4.692   1.508   5.160
 1168SOL     OW 4402   6.130   6.135   3.770
 1168SOL    HW1 4403   6.204   6.133   3.837
 1168SOL    HW2 4404   6.144   6.063   3.702
 1169SOL     OW 4405   1.154   3.489   1.765
 1169SOL    HW1 4406   1.168   3.584   1.791
 1169SOL    HW2 4407   1.206   3.469   1.682
 1170SOL     OW 4408   2.942   0.576   0.803
 1170SOL    HW1 4409   3.026   0.588   0.750
 1170SOL    HW2 4410   2.954   0.616   0.893
 1171SOL     OW 4411   1.838   6.334   0.553
 1171SOL    HW1 4412   1.752   6.334   0.604
 1171SOL    HW2 4413   1.913   6.309   0.614
 1172SOL     OW 4414   3.165   3.611   5.125
 1172SOL    HW1 4415   3.089   3.568   5.076
 1172SOL    HW2 4416   3.251   3.581   5.086
 1173SOL     OW 4417   4.449   1.011   6.098
 1173SOL    HW1 4418   4.533   1.063   6.112
 1173SOL    HW2 4419   4.422   0.968   6.184
 1174SOL     OW 4420   3.136   6.154   0.930
 1174SOL    HW1 4421   3.052   6.202   0.953
 1174SOL    HW2 4422   3.205   6.170   1.000
 1175SOL     OW 4423   6.015   4.637   5.861
 1175SOL    HW1 4424   5.984   4.555   5.911
 1175SOL    HW2 4425   5.990   4.629   5.765
 1176SOL     OW 4426   6.040   3.997   0.706
 1176SOL    HW1 4427   6.089   4.072   0.663
 1176SOL    HW2 4428   6.082   3.910   0.679
 1177SOL     OW 4429   6.209   2.741   6.674
 1177SOL    HW1 4430   6.183   2.647   6.655
 1177SOL    HW2 4431   6.138   2.785   6.729
 1178SOL     OW 4432   5.275   4.609   2.158
 1178SOL    HW1 4433   5.323   4.626   2.245
 1178SOL    HW2 4434   5.325   4.541   2.105
 1179SOL     OW 4435   2.632   6.131   6.265
 1179SOL    HW1 4436   2.550   6.077   6.245
 1179SOL    HW2 4437   2.707   6.070   6.290
 1180SOL     OW 4438   2.136   1.779   4.121
 1180SOL    HW1 4439   2.089   1.837   4.054
 1180SOL    HW2 4440   2.076   1.765   4.200
 1181SOL     OW 4441   2.347   4.397   2.763
 1181SOL    HW1 4442   2.261   4.351   2.784
 1181SOL    HW2 4443   2.383   4.364   2.676
 1182SOL     OW 4444   1.436   4.134   2.980
 1182SOL    HW1 4445   1.504   4.070   3.017
 1182SOL    HW2 4446   1.352   4.084   2.957
 1183SOL     OW 4447   4.981   6.004   1.510
 1183SOL    HW1 4448   4.945   5.933   1.450
 1183SOL    HW2 4449   4.940   5.995   1.601
 1184SOL     OW 4450   2.990   3.218   5.380
 1184SOL    HW1 4451   2.975   3.186   5.474
 1184SOL    HW2 4452   3.065   3.167   5.338
 1185SOL     OW 4453   1.896   1.642   6.366
 1185SOL    HW1 4454   1.971   1.577   6.383
 1185SOL    HW2 4455   1.809   1.592   6.363
 1186SOL     OW 4456   4.051   1.449   5.016
 1186SOL    HW1 4457   4.091   1.454   5.108
 1186SOL    HW2 4458   4.031   1.353   4.994
 1187SOL     OW 4459   6.955   0.755   5.044
 1187SOL    HW1 4460   7.007   0.675   5.071
 1187SOL    HW2 4461   6.871   0.726   4.998
 1188SOL     OW 4462   1.245   6.974   5.805
 1188SOL    HW1 4463   1.244   6.874   5.802
 1188SOL    HW2 4464   1.170   7.010   5.749
 1189SOL     OW 4465   6.174   1.159   1.855
 1189SOL    HW1 4466   6.243   1.097   1.819
 1189SOL    HW2 4467   6.083   1.125   1.831
 1190SOL     OW 4468   3.949   4.958   3.189
 1190SOL    HW1 4469   3.994   4.923   3.271
 1190SOL    HW2 4470   3.979   5.051   3.172
 1191SOL     OW 4471   3.240   5.097   6.694
 1191SOL    HW1 4472   3.283   5.009   6.714
 1191SOL    HW2 4473   3.275   5.133   6.607
 1192SOL     OW 4474   4.551   4.995   2.568
 1192SOL    HW1 4475   4.536   4.926   2.496
 1192SOL    HW2 4476   4.507   5.081   2.540
 1193SOL     OW 4477   4.423   0.488   3.568
 1193SOL    HW1 4478   4.522   0.502   3.566
 1193SOL    HW2 4479   4.396   0.452   3.657
 1194SOL     OW 4480   5.962   0.199   0.910
 1194SOL    HW1 4481   5.984   0.296   0.912
 1194SOL    HW2 4482   5.958   0.164   1.004
 1195SOL     OW 4483   4.200   0.614   6.132
 1195SOL    HW1 4484   4.198   0.671   6.214
 1195SOL    HW2 4485   4.264   0.654   6.066
 1196SOL     OW 4486   0.295   5.435   2.092
 1196SOL    HW1 4487   0.293   5.350   2.040
 1196SOL    HW2 4488   0.284   5.415   2.189
 1197SOL     OW 4489   2.943   5.159   6.059
 1197SOL    HW1 4490   2.982   5.075   6.098
 1197SOL    HW2 4491   2.975   5.169   5.965
 1198SOL     OW 4492   3.216   1.768   2.866
 1198SOL    HW1 4493   3.153   1.778   2.789
 1198SOL    HW2 4494   3.293   1.830   2.853
 1199SOL     OW 4495   3.919   3.969   3.069
 1199SOL    HW1 4496   3.986   3.898   3.047
 1199SOL    HW2 4497   3.847   3.970   3.000
 1200SOL     OW 4498   3.349   4.440   6.935
 1200SOL    HW1 4499   3.280   4.408   7.001
 1200SOL    HW2 4500   3.333   4.536   6.913
 1201SOL     OW 4501   1.191   0.779   4.975
 1201SOL    HW1 4502   1.172   0.807   5.069
 1201SOL    HW2 4503   1.252   0.846   4.933
 1202SOL     OW 4504   5.952   6.621   4.963
 1202SOL    HW1 4505   6.009   6.577   4.894
 1202SOL    HW2 4506   6.010   6.653   5.039
 1203SOL     OW 4507   6.145   0.118   2.001
 1203SOL    HW1 4508   6.140   0.121   1.901
 1203SOL    HW2 4509   6.240   0.104   2.029
 1204SOL     OW 4510   3.027   0.260   0.396
 1204SOL    HW1 4511   3.122   0.258   0.426
 1204SOL    HW2 4512   2.968   0.283   0.473
 1205SOL     OW 4513   0.337   2.692   5.362
 1205SOL    HW1 4514   0.436   2.687   5.356
 1205SOL    HW2 4515   0.309   2.785   5.387
 1206SOL     OW 4516   1.199   1.363   4.614
 1206SOL    HW1 4517   1.188   1.313   4.528
 1206SOL    HW2 4518   1.244   1.450   4.596
 1207SOL     OW 4519   5.497   6.332   6.912
 1207SOL    HW1 4520   5.536   6.323   6.820
 1207SOL    HW2 4521   5.550   6.399   6.964
 1208SOL     OW 4522   3.941   3.069   3.943
 1208SOL    HW1 4523   3.949   3.086   4.041
 1208SOL    HW2 4524   3.846   3.050   3.919
 1209SOL     OW 4525   5.987   5.137   4.305
 1209SOL    HW1 4526   6.012   5.055   4.357
 1209SOL    HW2 4527   5.910   5.182   4.350
 1210SOL     OW 4528   3.171   6.740   2.649
 1210SOL    HW1 4529   3.165   6.827   2.598
 1210SOL    HW2 4530   3.231   6.751   2.728
 1211SOL     OW 4531   1.199   3.916   4.664
 1211SOL    HW1 4532   1.218   3.986   4.595
 1211SOL    HW2 4533   1.131   3.950   4.729
 1212SOL     OW 4534   2.207   3.880   4.574
 1212SOL    HW1 4535   2.148   3.961   4.574
 1212SOL    HW2 4536   2.295   3.902   4.533
 1213SOL     OW 4537   5.743   2.800   5.542
 1213SOL    HW1 4538   5.713   2.722   5.596
 1213SOL    HW2 4539   5.837   2.824   5.566
 1214SOL     OW 4540   2.223   2.709   3.430
 1214SOL    HW1 4541   2.205   2.800   3.391
 1214SOL    HW2 4542   2.139   2.655   3.428
 1215SOL     OW 4543   0.626   4.921   1.538
 1215SOL    HW1 4544   0.649   4.999   1.480
 1215SOL    HW2 4545   0.709   4.887   1.582
 1216SOL     OW 4546   2.674   0.041   2.098
 1216SOL    HW1 4547   2.714   6.972   2.099
 1216SOL    HW2 4548   2.734   0.103   2.047
 1217SOL     OW 4549   1.371   1.006   2.733
 1217SOL    HW1 4550   1.394   1.102   2.714
 1217SOL    HW2 4551   1.397   0.983   2.826
 1218SOL     OW 4552   0.708   3.314   3.876
 1218SOL    HW1 4553   0.771   3.319   3.798
 1218SOL    HW2 4554   0.614   3.307   3.843
 1219SOL     OW 4555   2.883   5.948   2.467
 1219SOL    HW1 4556   2.836   6.034   2.487
 1219SOL    HW2 4557   2.818   5.872   2.471
 1220SOL     OW 4558   6.445   3.538   2.781
 1220SOL    HW1 4559   6.453   3.487   2.866
 1220SOL    HW2 4560   6.369   3.603   2.787
 1221SOL     OW 4561   4.646   3.044   7.012
 1221SOL    HW1 4562   4.658   3.096   6.927
 1221SOL    HW2 4563   4.734   3.040   0.038
 1222SOL     OW 4564   6.473   6.106   1.316
 1222SOL    HW1 4565   6.498   6.151   1.231
 1222SOL    HW2 4566   6.541   6.035   1.337
 1223SOL     OW 4567   6.218   6.157   5.371
 1223SOL    HW1 4568   6.157   6.079   5.354
 1223SOL    HW2 4569   6.260   6.186   5.285
 1224SOL     OW 4570   5.705   5.112   2.249
 1224SOL    HW1 4571   5.697   5.154   2.159
 1224SOL    HW2 4572   5.614   5.089   2.284
 1225SOL     OW 4573   5.037   1.636   0.238
 1225SOL    HW1 4574   5.040   1.547   0.284
 1225SOL    HW2 4575   4.942   1.661   0.220
 1226SOL     OW 4576   5.293   4.751   0.482
 1226SOL    HW1 4577   5.280   4.768   0.385
 1226SOL    HW2 4578   5.391   4.747   0.502
 1227SOL     OW 4579   5.178   4.062   6.722
 1227SOL    HW1 4580   5.256   4.117   6.753
 1227SOL    HW2 4581   5.093   4.105   6.753
 1228SOL     OW 4582   3.701   3.157   3.433
 1228SOL    HW1 4583   3.680   3.069   3.390
 1228SOL    HW2 4584   3.753   3.142   3.517
 1229SOL     OW 4585   1.826   5.312   2.941
 1229SOL    HW1 4586   1.787   5.350   3.024
 1229SOL    HW2 4587   1.901   5.370   2.909
 1230SOL     OW 4588   5.551   4.684   1.542
 1230SOL    HW1 4589   5.490   4.727   1.476
 1230SOL    HW2 4590   5.498   4.646   1.617
 1231SOL     OW 4591   1.777   1.864   6.514
 1231SOL    HW1 4592   1.798   1.937   6.449
 1231SOL    HW2 4593   1.803   1.776   6.475
 1232SOL     OW 4594   2.809   0.639   5.670
 1232SOL    HW1 4595   2.867   0.611   5.746
 1232SOL    HW2 4596   2.782   0.735   5.683
 1233SOL     OW 4597   0.836   5.510   5.556
 1233SOL    HW1 4598   0.744   5.542   5.532
 1233SOL    HW2 4599   0.898   5.528   5.479
 1234SOL     OW 4600   0.424   3.175   0.549
 1234SOL    HW1 4601   0.360   3.099   0.562
 1234SOL    HW2 4602   0.373   3.260   0.534
 1235SOL     OW 4603   6.324   4.924   1.537
 1235SOL    HW1 4604   6.287   4.841   1.496
 1235SOL    HW2 4605   6.265   4.955   1.611
 1236SOL     OW 4606   1.644   1.097   2.604
 1236SOL    HW1 4607   1.666   1.148   2.521
 1236SOL    HW2 4608   1.600   1.011   2.580
 1237SOL     OW 4609   0.406   0.211   5.096
 1237SOL    HW1 4610   0.417   0.111   5.097
 1237SOL    HW2 4611   0.430   0.248   5.186
 1238SOL     OW 4612   0.405   0.550   4.379
 1238SOL    HW1 4613   0.371   0.569   4.472
 1238SOL    HW2 4614   0.478   0.482   4.384
 1239SOL     OW 4615   5.392   5.224   5.057
 1239SOL    HW1 4616   5.421   5.155   4.991
 1239SOL    HW2 4617   5.351   5.180   5.136
 1240SOL     OW 4618   6.846   4.107   2.982
 1240SOL    HW1 4619   6.842   4.093   3.081
 1240SOL    HW2 4620   6.925   4.164   2.960
 1241SOL     OW 4621   4.709   4.860   5.325
 1241SOL    HW1 4622   4.640   4.905   5.382
 1241SOL    HW2 4623   4.681   4.766   5.308
 1242SOL     OW 4624   1.295   5.221   0.150
 1242SOL    HW1 4625   1.269   5.128   0.179
 1242SOL    HW2 4626   1.217   5.282   0.163
 1243SOL     OW 4627   1.336   4.290   5.102
 1243SOL    HW1 4628   1.390   4.261   5.022
 1243SOL    HW2 4629   1.277   4.366   5.076
 1244SOL     OW 4630   5.862   0.183   5.624
 1244SOL    HW1 4631   5.913   0.141   5.699
 1244SOL    HW2 4632   5.874   0.129   5.540
 1245SOL     OW 4633   4.794   6.740   0.749
 1245SOL    HW1 4634   4.846   6.817   0.785
 1245SOL    HW2 4635   4.700   6.769   0.730
 1246SOL     OW 4636   5.016   0.728   0.117
 1246SOL    HW1 4637   5.059   0.801   0.063
 1246SOL    HW2 4638   5.021   0.642   0.066
 1247SOL     OW 4639   6.912   6.932   3.034
 1247SOL    HW1 4640   6.873   6.878   3.108
 1247SOL    HW2 4641   6.861   7.017   3.024
 1248SOL     OW 4642   1.509   6.430   4.249
 1248SOL    HW1 4643   1.595   6.416   4.200
 1248SOL    HW2 4644   1.458   6.344   4.251
 1249SOL     OW 4645   5.538   5.653   6.876
 1249SOL    HW1 4646   5.525   5.554   6.887
 1249SOL    HW2 4647   5.471   5.689   6.812
 1250SOL     OW 4648   6.578   3.199   4.992
 1250SOL    HW1 4649   6.646   3.138   4.951
 1250SOL    HW2 4650   6.624   3.267   5.049
 1251SOL     OW 4651   3.148   0.723   2.499
 1251SOL    HW1 4652   3.207   0.776   2.437
 1251SOL    HW2 4653   3.104   0.785   2.564
 1252SOL     OW 4654   1.979   6.391   6.479
 1252SOL    HW1 4655   2.035   6.446   6.418
 1252SOL    HW2 4656   1.992   6.422   6.573
 1253SOL     OW 4657   2.905   0.812   0.573
 1253SOL    HW1 4658   2.965   0.790   0.496
 1253SOL    HW2 4659   2.836   0.740   0.583
 1254SOL     OW 4660   6.037   0.514   2.659
 1254SOL    HW1 4661   6.075   0.599   2.694
 1254SOL    HW2 4662   6.026   0.449   2.735
 1255SOL     OW 4663   5.774   1.612   5.319
 1255SOL    HW1 4664   5.864   1.648   5.344
 1255SOL    HW2 4665   5.757   1.629   5.222
 1256SOL     OW 4666   1.199   5.323   4.130
 1256SOL    HW1 4667   1.251   5.331   4.045
 1256SOL    HW2 4668   1.179   5.226   4.148
 1257SOL     OW 4669   0.830   6.535   4.068
 1257SOL    HW1 4670   0.928   6.552   4.081
 1257SOL    HW2 4671   0.804   6.451   4.115
 1258SOL     OW 4672   4.331   6.419   5.206
 1258SOL    HW1 4673   4.279   6.500   5.178
 1258SOL    HW2 4674   4.409   6.447   5.262
 1259SOL     OW 4675   6.194   0.143   4.229
 1259SOL    HW1 4676   6.157   0.231   4.198
 1259SOL    HW2 4677   6.173   0.131   4.326
 1260SOL     OW 4678   2.397   1.437   1.492
 1260SOL    HW1 4679   2.497   1.437   1.493
 1260SOL    HW2 4680   2.365   1.509   1.431
 1261SOL     OW 4681   6.346   4.543   5.921
 1261SOL    HW1 4682   6.280   4.494   5.977
 1261SOL    HW2 4683   6.394   4.479   5.861
 1262SOL     OW 4684   4.140   4.960   0.667
 1262SOL    HW1 4685   4.041   4.971   0.677
 1262SOL    HW2 4686   4.161   4.937   0.572
 1263SOL     OW 4687   6.667   1.897   1.414
 1263SOL    HW1 4688   6.708   1.964   1.351
 1263SOL    HW2 4689   6.725   1.886   1.494
 1264SOL     OW 4690   0.435   3.284   3.814
 1264SOL    HW1 4691   0.426   3.185   3.825
 1264SOL    HW2 4692   0.378   3.314   3.737
 1265SOL     OW 4693   6.853   5.363   4.677
 1265SOL    HW1 4694   6.851   5.373   4.777
 1265SOL    HW2 4695   6.828   5.449   4.634
 1266SOL     OW 4696   1.951   1.699   4.688
 1266SOL    HW1 4697   2.024   1.757   4.725
 1266SOL    HW2 4698   1.881   1.684   4.759
 1267SOL     OW 4699   6.998   4.771   2.721
 1267SOL    HW1 4700   6.988   4.712   2.801
 1267SOL    HW2 4701   6.945   4.855   2.734
 1268SOL     OW 4702   6.874   3.071   6.995
 1268SOL    HW1 4703   6.782   3.109   7.005
 1268SOL    HW2 4704   6.937   3.120   0.032
 1269SOL     OW 4705   6.973   5.807   5.873
 1269SOL    HW1 4706   0.036   5.787   5.824
 1269SOL    HW2 4707   6.955   5.905   5.869
 1270SOL     OW 4708   1.716   3.229   4.641
 1270SOL    HW1 4709   1.710   3.320   4.600
 1270SOL    HW2 4710   1.630   3.207   4.686
 1271SOL     OW 4711   5.020   1.331   2.936
 1271SOL    HW1 4712   4.993   1.412   2.885
 1271SOL    HW2 4713   4.954   1.258   2.919
 1272SOL     OW 4714   0.674   6.180   1.451
 1272SOL    HW1 4715   0.592   6.124   1.443
 1272SOL    HW2 4716   0.735   6.141   1.520
 1273SOL     OW 4717   2.895   6.559   6.367
 1273SOL    HW1 4718   2.839   6.565   6.285
 1273SOL    HW2 4719   2.870   6.633   6.430
 1274SOL     OW 4720   6.665   2.415   1.934
 1274SOL    HW1 4721   6.613   2.338   1.972
 1274SOL    HW2 4722   6.729   2.449   2.002
 1275SOL     OW 4723   3.549   2.080   4.254
 1275SOL    HW1 4724   3.612   2.127   4.315
 1275SOL    HW2 4725   3.469   2.049   4.305
 1276SOL     OW 4726   6.395   0.044   3.691
 1276SOL    HW1 4727   6.430   0.124   3.643
 1276SOL    HW2 4728   6.435   0.041   3.783
 1277SOL     OW 4729   0.580   0.919   4.965
 1277SOL    HW1 4730   0.570   0.888   5.059
 1277SOL    HW2 4731   0.491   0.942   4.927
 1278SOL     OW 4732   2.237   1.616   5.932
 1278SOL    HW1 4733   2.282   1.705   5.936
 1278SOL    HW2 4734   2.302   1.544   5.957
 1279SOL     OW 4735   2.452   5.435   6.631
 1279SOL    HW1 4736   2.530   5.422   6.569
 1279SOL    HW2 4737   2.482   5.487   6.711
 1280SOL     OW 4738   2.018   0.035   3.248
 1280SOL    HW1 4739   2.030   0.032   3.149
 1280SOL    HW2 4740   2.035   0.128   3.281
 1281SOL     OW 4741   1.145   6.088   3.462
 1281SOL    HW1 4742   1.095   6.002   3.473
 1281SOL    HW2 4743   1.191   6.111   3.548
 1282SOL     OW 4744   0.991   0.179   2.188
 1282SOL    HW1 4745   1.008   0.178   2.287
 1282SOL    HW2 4746   1.003   0.272   2.154
 1283SOL     OW 4747   5.385   5.498   6.514
 1283SOL    HW1 4748   5.412   5.405   6.491
 1283SOL    HW2 4749   5.288   5.500   6.538
 1284SOL     OW 4750   2.684   2.241   1.889
 1284SOL    HW1 4751   2.615   2.260   1.959
 1284SOL    HW2 4752   2.774   2.267   1.923
 1285SOL     OW 4753   4.531   2.362   5.447
 1285SOL    HW1 4754   4.556   2.450   5.488
 1285SOL    HW2 4755   4.604   2.332   5.386
 1286SOL     OW 4756   6.157   5.054   1.706
 1286SOL    HW1 4757   6.193   5.095   1.790
 1286SOL    HW2 4758   6.072   5.101   1.680
 1287SOL     OW 4759   6.829   5.251   6.897
 1287SOL    HW1 4760   6.845   5.159   6.862
 1287SOL    HW2 4761   6.852   5.318   6.827
 1288SOL     OW 4762   6.208   3.223   2.248
 1288SOL    HW1 4763   6.197   3.292   2.320
 1288SOL    HW2 4764   6.247   3.140   2.288
 1289SOL     OW 4765   0.281   6.238   2.611
 1289SOL    HW1 4766   0.208   6.232   2.680
 1289SOL    HW2 4767   0.248   6.199   2.525
 1290SOL     OW 4768   0.558   6.421   1.375
 1290SOL    HW1 4769   0.598   6.337   1.413
 1290SOL    HW2 4770   0.631   6.485   1.351
 1291SOL     OW 4771   2.393   6.148   0.158
 1291SOL    HW1 4772   2.483   6.155   0.201
 1291SOL    HW2 4773   2.363   6.239   0.128
 1292SOL     OW 4774   1.048   5.837   0.779
 1292SOL    HW1 4775   0.960   5.841   0.733
 1292SOL    HW2 4776   1.115   5.890   0.728
 1293SOL     OW 4777   6.908   1.879   5.797
 1293SOL    HW1 4778   6.813   1.881   5.767
 1293SOL    HW2 4779   6.912   1.892   5.896
 1294SOL     OW 4780   0.979   2.099   2.290
 1294SOL    HW1 4781   0.954   2.015   2.243
 1294SOL    HW2 4782   0.954   2.091   2.387
 1295SOL     OW 4783   6.016   3.262   1.455
 1295SOL    HW1 4784   6.001   3.204   1.375
 1295SOL    HW2 4785   6.100   3.234   1.502
 1296SOL     OW 4786   3.895   2.195   5.915
 1296SOL    HW1 4787   3.890   2.294   5.896
 1296SOL    HW2 4788   3.898   2.145   5.828
 1297SOL     OW 4789   6.077   1.349   5.962
 1297SOL    HW1 4790   6.147   1.392   6.018
 1297SOL    HW2 4791   6.112   1.335   5.869
 1298SOL     OW 4792   5.534   3.048   3.195
 1298SOL    HW1 4793   5.481   3.054   3.279
 1298SOL    HW2 4794   5.472   3.049   3.116
 1299SOL     OW 4795   0.881   4.175   3.819
 1299SOL    HW1 4796   0.926   4.223   3.894
 1299SOL    HW2 4797   0.915   4.081   3.815
 1300SOL     OW 4798   3.170   3.328   1.533
 1300SOL    HW1 4799   3.074   3.305   1.548
 1300SOL    HW2 4800   3.227   3.248   1.549
 1301SOL     OW 4801   1.210   0.172   3.348
 1301SOL    HW1 4802   1.136   0.196   3.285
 1301SOL    HW2 4803   1.172   0.114   3.422
 1302SOL     OW 4804   3.031   6.227   4.762
 1302SOL    HW1 4805   2.989   6.148   4.716
 1302SOL    HW2 4806   3.129   6.230   4.740
 1303SOL     OW 4807   3.659   1.852   1.325
 1303SOL    HW1 4808   3.736   1.869   1.387
 1303SOL    HW2 4809   3.678   1.895   1.237
 1304SOL     OW 4810   3.026   0.599   6.741
 1304SOL    HW1 4811   2.982   0.668   6.685
 1304SOL    HW2 4812   3.024   0.628   6.837
 1305SOL     OW 4813   4.498   6.604   5.013
 1305SOL    HW1 4814   4.598   6.600   5.014
 1305SOL    HW2 4815   4.461   6.512   5.028
 1306SOL     OW 4816   0.761   4.389   4.622
 1306SOL    HW1 4817   0.732   4.298   4.591
 1306SOL    HW2 4818   0.861   4.392   4.626
 1307SOL     OW 4819   1.254   2.313   4.809
 1307SOL    HW1 4820   1.273   2.244   4.739
 1307SOL    HW2 4821   1.336   2.329   4.864
 1308SOL     OW 4822   4.963   5.942   3.012
 1308SOL    HW1 4823   4.910   6.022   2.983
 1308SOL    HW2 4824   5.017   5.909   2.934
 1309SOL     OW 4825   5.928   2.745   4.496
 1309SOL    HW1 4826   5.838   2.736   4.538
 1309SOL    HW2 4827   5.966   2.834   4.518
 1310SOL     OW 4828   5.194   3.629   5.092
 1310SOL    HW1 4829   5.183   3.536   5.127
 1310SOL    HW2 4830   5.135   3.642   5.012
 1311SOL     OW 4831   6.024   5.963   5.298
 1311SOL    HW1 4832   6.001   5.903   5.222
 1311SOL    HW2 4833   5.964   6.043   5.296
 1312SOL     OW 4834   0.822   6.376   0.638
 1312SOL    HW1 4835   0.869   6.459   0.611
 1312SOL    HW2 4836   0.778   6.334   0.559
 1313SOL     OW 4837   3.616   5.399   5.162
 1313SOL    HW1 4838   3.524   5.375   5.195
 1313SOL    HW2 4839   3.666   5.315   5.140
 1314SOL     OW 4840   0.119   1.412   5.028
 1314SOL    HW1 4841   0.044   1.346   5.040
 1314SOL    HW2 4842   0.104   1.464   4.944
 1315SOL     OW 4843   2.167   1.337   2.601
 1315SOL    HW1 4844   2.192   1.270   2.670
 1315SOL    HW2 4845   2.249   1.381   2.566
 1316SOL     OW 4846   3.040   6.689   2.960
 1316SOL    HW1 4847   3.123   6.633   2.970
 1316SOL    HW2 4848   3.062   6.771   2.908
 1317SOL     OW 4849   0.191   5.671   3.979
 1317SOL    HW1 4850   0.152   5.730   3.908
 1317SOL    HW2 4851   0.286   5.698   3.996
 1318SOL     OW 4852   0.031   6.342   0.705
 1318SOL    HW1 4853   0.106   6.379   0.760
 1318SOL    HW2 4854   6.968   6.355   0.754
 1319SOL     OW 4855   6.371   1.114   6.441
 1319SOL    HW1 4856   6.320   1.095   6.525
 1319SOL    HW2 4857   6.341   1.052   6.369
 1320SOL     OW 4858   5.115   5.547   6.485
 1320SOL    HW1 4859   5.029   5.496   6.489
 1320SOL    HW2 4860   5.095   5.645   6.482
 1321SOL     OW 4861   3.535   2.704   6.785
 1321SOL    HW1 4862   3.595   2.775   6.746
 1321SOL    HW2 4863   3.586   2.649   6.850
 1322SOL     OW 4864   6.284   1.616   4.422
 1322SOL    HW1 4865   6.347   1.648   4.352
 1322SOL    HW2 4866   6.234   1.536   4.388
 1323SOL     OW 4867   6.557   1.548   4.784
 1323SOL    HW1 4868   6.555   1.461   4.833
 1323SOL    HW2 4869   6.482   1.551   4.718
 1324SOL     OW 4870   1.704   3.519   1.185
 1324SOL    HW1 4871   1.747   3.524   1.095
 1324SOL    HW2 4872   1.736   3.438   1.233
 1325SOL     OW 4873   2.964   5.989   2.224
 1325SOL    HW1 4874   3.013   6.075   2.239
 1325SOL    HW2 4875   2.933   5.953   2.312
 1326SOL     OW 4876   5.511   3.464   4.349
 1326SOL    HW1 4877   5.593   3.432   4.301
 1326SOL    HW2 4878   5.463   3.531   4.292
 1327SOL     OW 4879   3.764   5.354   2.878
 1327SOL    HW1 4880   3.745   5.392   2.969
 1327SOL    HW2 4881   3.685   5.369   2.819
 1328SOL     OW 4882   2.006   2.820   6.833
 1328SOL    HW1 4883   2.105   2.828   6.840
 1328SOL    HW2 4884   1.973   2.876   6.757
 1329SOL     OW 4885   0.327   0.471   0.487
 1329SOL    HW1 4886   0.407   0.463   0.428
 1329SOL    HW2 4887   0.248   0.433   0.440
 1330SOL     OW 4888   5.738   6.632   1.380
 1330SOL    HW1 4889   5.666   6.600   1.320
 1330SOL    HW2 4890   5.793   6.555   1.410
 1331SOL     OW 4891   5.524   0.507   2.079
 1331SOL    HW1 4892   5.472   0.431   2.120
 1331SOL    HW2 4893   5.541   0.488   1.983
 1332SOL     OW 4894   4.593   1.394   1.597
 1332SOL    HW1 4895   4.661   1.381   1.525
 1332SOL    HW2 4896   4.540   1.477   1.578
 1333SOL     OW 4897   4.017   4.244   5.260
 1333SOL    HW1 4898   4.078   4.305   5.210
 1333SOL    HW2 4899   4.008   4.276   5.354
 1334SOL     OW 4900   0.044   3.942   4.446
 1334SOL    HW1 4901   7.020   4.022   4.483
 1334SOL    HW2 4902   0.101   3.901   4.517
 1335SOL     OW 4903   2.607   4.986   3.084
 1335SOL    HW1 4904   2.663   4.913   3.124
 1335SOL    HW2 4905   2.533   4.946   3.030
 1336SOL     OW 4906   0.414   0.616   5.019
 1336SOL    HW1 4907   0.452   0.604   5.111
 1336SOL    HW2 4908   0.407   0.714   5.000
 1337SOL     OW 4909   2.257   1.978   6.308
 1337SOL    HW1 4910   2.236   1.886   6.275
 1337SOL    HW2 4911   2.238   2.044   6.235
 1338SOL     OW 4912   3.982   5.540   0.681
 1338SOL    HW1 4913   3.963   5.450   0.642
 1338SOL    HW2 4914   4.077   5.565   0.661
 1339SOL     OW 4915   6.605   4.142   5.738
 1339SOL    HW1 4916   6.505   4.146   5.738
 1339SOL    HW2 4917   6.636   4.072   5.801
 1340SOL     OW 4918   1.486   2.030   6.467
 1340SOL    HW1 4919   1.574   2.040   6.420
 1340SOL    HW2 4920   1.473   2.106   6.531
 1341SOL     OW 4921   3.784   0.934   3.827
 1341SOL    HW1 4922   3.866   0.962   3.876
 1341SOL    HW2 4923   3.723   1.012   3.817
 1342SOL     OW 4924   0.183   6.478   0.910
 1342SOL    HW1 4925   0.141   6.498   0.998
 1342SOL    HW2 4926   0.240   6.396   0.919
 1343SOL     OW 4927   4.293   5.076   3.432
 1343SOL    HW1 4928   4.241   5.047   3.512
 1343SOL    HW2 4929   4.280   5.174   3.418
 1344SOL     OW 4930   6.594   1.390   2.716
 1344SOL    HW1 4931   6.502   1.351   2.722
 1344SOL    HW2 4932   6.656   1.338   2.774
 1345SOL     OW 4933   0.606   0.076   3.765
 1345SOL    HW1 4934   0.600   0.048   3.861
 1345SOL    HW2 4935   0.565   0.005   3.707
 1346SOL     OW 4936   0.392   1.067   3.914
 1346SOL    HW1 4937   0.390   1.045   4.011
 1346SOL    HW2 4938   0.411   0.984   3.861
 1347SOL     OW 4939   5.669   0.467   3.158
 1347SOL    HW1 4940   5.680   0.420   3.246
 1347SOL    HW2 4941   5.742   0.439   3.096
 1348SOL     OW 4942   5.251   4.777   5.080
 1348SOL    HW1 4943   5.184   4.774   5.006
 1348SOL    HW2 4944   5.284   4.684   5.098
 1349SOL     OW 4945   4.173   3.191   0.065
 1349SOL    HW1 4946   4.191   3.224   0.158
 1349SOL    HW2 4947   4.155   3.269   0.005
 1350SOL     OW 4948   2.715   0.760   6.283
 1350SOL    HW1 4949   2.709   0.855   6.315
 1350SOL    HW2 4950   2.778   0.709   6.342
 1351SOL     OW 4951   0.649   0.735   4.345
 1351SOL    HW1 4952   0.606   0.699   4.428
 1351SOL    HW2 4953   0.620   0.680   4.267
 1352SOL     OW 4954   0.391   0.976   3.356
 1352SOL    HW1 4955   0.441   0.992   3.441
 1352SOL    HW2 4956   0.366   1.064   3.315
 1353SOL     OW 4957   1.291   4.269   3.667
 1353SOL    HW1 4958   1.245   4.354   3.694
 1353SOL    HW2 4959   1.354   4.288   3.591
 1354SOL     OW 4960   0.551   6.995   2.045
 1354SOL    HW1 4961   0.623   7.023   1.981
 1354SOL    HW2 4962   0.583   7.005   2.139
 1355SOL     OW 4963   4.697   3.148   6.756
 1355SOL    HW1 4964   4.706   3.221   6.688
 1355SOL    HW2 4965   4.771   3.081   6.744
 1356SOL     OW 4966   3.052   3.930   2.815
 1356SOL    HW1 4967   3.099   3.987   2.748
 1356SOL    HW2 4968   2.958   3.914   2.786
 1357SOL     OW 4969   2.751   3.035   5.494
 1357SOL    HW1 4970   2.693   2.994   5.565
 1357SOL    HW2 4971   2.847   3.012   5.512
 1358SOL     OW 4972   2.017   1.955   5.957
 1358SOL    HW1 4973   2.008   2.046   5.997
 1358SOL    HW2 4974   2.006   1.886   6.028
 1359SOL     OW 4975   6.129   1.418   6.854
 1359SOL    HW1 4976   6.187   1.427   6.773
 1359SOL    HW2 4977   6.186   1.418   6.936
 1360SOL     OW 4978   3.602   3.796   4.224
 1360SOL    HW1 4979   3.523   3.793   4.163
 1360SOL    HW2 4980   3.618   3.890   4.253
 1361SOL     OW 4981   0.963   6.073   0.395
 1361SOL    HW1 4982   1.034   6.089   0.327
 1361SOL    HW2 4983   0.956   6.151   0.456
 1362SOL     OW 4984   2.629   3.310   6.170
 1362SOL    HW1 4985   2.650   3.215   6.194
 1362SOL    HW2 4986   2.648   3.369   6.248
 1363SOL     OW 4987   5.808   6.451   2.164
 1363SOL    HW1 4988   5.828   6.549   2.170
 1363SOL    HW2 4989   5.717   6.433   2.203
 1364SOL     OW 4990   0.065   3.257   1.762
 1364SOL    HW1 4991   6.998   3.293   1.787
 1364SOL    HW2 4992   0.074   3.256   1.662
 1365SOL     OW 4993   0.838   3.912   5.933
 1365SOL    HW1 4994   0.741   3.904   5.958
 1365SOL    HW2 4995   0.856   3.856   5.852
 1366SOL     OW 4996   5.677   0.761   0.715
 1366SOL    HW1 4997   5.693   0.808   0.802
 1366SOL    HW2 4998   5.580   0.739   0.707
 1367SOL     OW 4999   0.983   5.734   4.557
 1367SOL    HW1 5000   1.008   5.831   4.559
 1367SOL    HW2 5001   0.994   5.699   4.464
 1368SOL     OW 5002   0.886   6.573   5.848
 1368SOL    HW1 5003   0.909   6.655   5.899
 1368SOL    HW2 5004   0.903   6.588   5.751
 1369SOL     OW 5005   2.631   6.696   3.156
 1369SOL    HW1 5006   2.679   6.735   3.234
 1369SOL    HW2 5007   2.623   6.597   3.168
 1370SOL     OW 5008   6.274   2.280   2.628
 1370SOL    HW1 5009   6.244   2.184   2.625
 1370SOL    HW2 5010   6.374   2.283   2.638
 1371SOL     OW 5011   6.034   1.928   5.120
 1371SOL    HW1 5012   5.993   1.941   5.030
 1371SOL    HW2 5013   6.113   1.989   5.130
 1372SOL     OW 5014   6.663   2.363   0.000
 1372SOL    HW1 5015   6.732   2.323   0.061
 1372SOL    HW2 5016   6.643   2.456   0.029
 1373SOL     OW 5017   4.844   2.603   1.469
 1373SOL    HW1 5018   4.908   2.634   1.399
 1373SOL    HW2 5019   4.862   2.507   1.491
 1374SOL     OW 5020   4.283   4.553   6.966
 1374SOL    HW1 5021   4.303   4.618   0.016
 1374SOL    HW2 5022   4.204   4.497   6.992
 1375SOL     OW 5023   5.746   5.608   4.479
 1375SOL    HW1 5024   5.828   5.577   4.527
 1375SOL    HW2 5025   5.682   5.647   4.545
 1376SOL     OW 5026   2.362   5.114   5.708
 1376SOL    HW1 5027   2.280   5.097   5.653
 1376SOL    HW2 5028   2.413   5.029   5.720
 1377SOL     OW 5029   1.889   1.191   2.732
 1377SOL    HW1 5030   1.877   1.284   2.697
 1377SOL    HW2 5031   1.803   1.142   2.725
 1378SOL     OW 5032   4.702   2.455   4.472
 1378SOL    HW1 5033   4.760   2.508   4.411
 1378SOL    HW2 5034   4.721   2.357   4.459
 1379SOL     OW 5035   5.094   5.569   1.027
 1379SOL    HW1 5036   5.058   5.507   1.097
 1379SOL    HW2 5037   5.018   5.615   0.981
 1380SOL     OW 5038   6.963   5.307   1.921
 1380SOL    HW1 5039   6.971   5.254   2.005
 1380SOL    HW2 5040   0.028   5.351   1.901
 1381SOL     OW 5041   5.930   2.504   5.644
 1381SOL    HW1 5042   6.000   2.534   5.709
 1381SOL    HW2 5043   5.842   2.499   5.690
 1382SOL     OW 5044   4.562   2.555   0.189
 1382SOL    HW1 5045   4.490   2.614   0.153
 1382SOL    HW2 5046   4.651   2.599   0.177
 1383SOL     OW 5047   0.195   1.017   2.098
 1383SOL    HW1 5048   0.123   1.041   2.163
 1383SOL    HW2 5049   0.241   1.101   2.067
 1384SOL     OW 5050   5.761   1.049   2.045
 1384SOL    HW1 5051   5.800   1.103   1.971
 1384SOL    HW2 5052   5.791   1.086   2.133
 1385SOL     OW 5053   0.997   5.535   1.933
 1385SOL    HW1 5054   1.004   5.632   1.909
 1385SOL    HW2 5055   1.002   5.526   2.033
 1386SOL     OW 5056   2.999   5.804   4.402
 1386SOL    HW1 5057   3.017   5.766   4.493
 1386SOL    HW2 5058   3.018   5.734   4.333
 1387SOL     OW 5059   2.960   5.494   2.156
 1387SOL    HW1 5060   2.903   5.569   2.190
 1387SOL    HW2 5061   3.017   5.527   2.081
 1388SOL     OW 5062   6.540   0.076   1.471
 1388SOL    HW1 5063   6.613   0.103   1.534
 1388SOL    HW2 5064   6.492   7.019   1.507
 1389SOL     OW 5065   6.390   1.518   2.883
 1389SOL    HW1 5066   6.458   1.528   2.955
 1389SOL    HW2 5067   6.383   1.604   2.831
 1390SOL     OW 5068   6.912   1.733   6.361
 1390SOL    HW1 5069   6.939   1.706   6.453
 1390SOL    HW2 5070   6.838   1.675   6.329
 1391SOL     OW 5071   1.057   2.680   3.044
 1391SOL    HW1 5072   1.135   2.662   2.985
 1391SOL    HW2 5073   1.074   2.762   3.098
 1392SOL     OW 5074   4.954   4.875   5.505
 1392SOL    HW1 5075   4.874   4.870   5.445
 1392SOL    HW2 5076   4.983   4.782   5.529
 1393SOL     OW 5077   4.115   6.937   5.708
 1393SOL    HW1 5078   4.150   0.006   5.691
 1393SOL    HW2 5079   4.048   6.913   5.638
 1394SOL     OW 5080   2.682   6.165   5.690
 1394SOL    HW1 5081   2.771   6.197   5.660
 1394SOL    HW2 5082   2.610   6.223   5.651
 1395SOL     OW 5083   3.670   4.685   5.567
 1395SOL    HW1 5084   3.671   4.676   5.666
 1395SOL    HW2 5085   3.577   4.704   5.536
 1396SOL     OW 5086   6.036   5.633   4.577
 1396SOL    HW1 5087   6.102   5.558   4.584
 1396SOL    HW2 5088   6.014   5.666   4.669
 1397SOL     OW 5089   4.730   6.039   4.720
 1397SOL    HW1 5090   4.679   6.099   4.658
 1397SOL    HW2 5091   4.828   6.045   4.699
 1398SOL     OW 5092   1.346   1.183   5.049
 1398SOL    HW1 5093   1.359   1.142   5.139
 1398SOL    HW2 5094   1.285   1.261   5.056
 1399SOL     OW 5095   3.247   6.321   1.446
 1399SOL    HW1 5096   3.332   6.274   1.470
 1399SOL    HW2 5097   3.170   6.276   1.492
 1400SOL     OW 5098   0.910   0.057   1.967
 1400SOL    HW1 5099   0.921   0.098   2.058
 1400SOL    HW2 5100   0.988   0.080   1.910
 1401SOL     OW 5101   0.232   1.256   4.704
 1401SOL    HW1 5102   0.303   1.256   4.634
 1401SOL    HW2 5103   0.250   1.183   4.770
 1402SOL     OW 5104   6.700   2.680   0.370
 1402SOL    HW1 5105   6.635   2.674   0.446
 1402SOL    HW2 5106   6.779   2.622   0.389
 1403SOL     OW 5107   2.505   6.891   2.236
 1403SOL    HW1 5108   2.570   6.816   2.227
 1403SOL    HW2 5109   2.538   6.970   2.184
 1404SOL     OW 5110   5.662   0.438   0.415
 1404SOL    HW1 5111   5.751   0.396   0.433
 1404SOL    HW2 5112   5.619   0.462   0.502
 1405SOL     OW 5113   2.137   3.627   0.817
 1405SOL    HW1 5114   2.214   3.626   0.754
 1405SOL    HW2 5115   2.106   3.721   0.832
 1406SOL     OW 5116   1.306   4.259   1.196
 1406SOL    HW1 5117   1.334   4.225   1.286
 1406SOL    HW2 5118   1.388   4.279   1.142
 1407SOL     OW 5119   6.723   2.109   2.266
 1407SOL    HW1 5120   6.808   2.161   2.252
 1407SOL    HW2 5121   6.726   2.066   2.357
 1408SOL     OW 5122   5.553   0.950   6.053
 1408SOL    HW1 5123   5.638   0.991   6.087
 1408SOL    HW2 5124   5.475   0.995   6.096
 1409SOL     OW 5125   0.051   0.490   4.536
 1409SOL    HW1 5126   0.144   0.514   4.564
 1409SOL    HW2 5127   0.035   0.519   4.442
 1410SOL     OW 5128   0.231   2.895   6.547
 1410SOL    HW1 5129   0.307   2.833   6.566
 1410SOL    HW2 5130   0.267   2.980   6.508
 1411SOL     OW 5131   1.902   6.927   2.469
 1411SOL    HW1 5132   1.921   6.837   2.431
 1411SOL    HW2 5133   1.951   6.997   2.417
 1412SOL     OW 5134   1.294   2.765   0.253
 1412SOL    HW1 5135   1.326   2.848   0.207
 1412SOL    HW2 5136   1.247   2.706   0.187
 1413SOL     OW 5137   2.247   0.294   4.216
 1413SOL    HW1 5138   2.247   0.386   4.176
 1413SOL    HW2 5139   2.286   0.229   4.151
 1414SOL     OW 5140   2.480   1.614   1.711
 1414SOL    HW1 5141   2.488   1.674   1.790
 1414SOL    HW2 5142   2.424   1.535   1.734
 1415SOL     OW 5143   3.962   6.342   5.565
 1415SOL    HW1 5144   3.934   6.437   5.582
 1415SOL    HW2 5145   4.034   6.341   5.495
 1416SOL     OW 5146   4.373   4.729   2.066
 1416SOL    HW1 5147   4.399   4.818   2.105
 1416SOL    HW2 5148   4.274   4.726   2.051
 1417SOL     OW 5149   2.476   1.841   6.785
 1417SOL    HW1 5150   2.454   1.934   6.816
 1417SOL    HW2 5151   2.566   1.815   6.820
 1418SOL     OW 5152   3.139   4.025   3.197
 1418SOL    HW1 5153   3.158   4.114   3.158
 1418SOL    HW2 5154   3.222   3.988   3.238
 1419SOL     OW 5155   3.817   6.726   4.778
 1419SOL    HW1 5156   3.782   6.639   4.812
 1419SOL    HW2 5157   3.741   6.788   4.761
 1420SOL     OW 5158   1.089   5.863   1.999
 1420SOL    HW1 5159   1.007   5.920   2.010
 1420SOL    HW2 5160   1.134   5.885   1.913
 1421SOL     OW 5161   3.100   2.176   2.530
 1421SOL    HW1 5162   3.011   2.213   2.501
 1421SOL    HW2 5163   3.089   2.121   2.612
 1422SOL     OW 5164   1.880   5.156   0.816
 1422SOL    HW1 5165   1.871   5.221   0.742
 1422SOL    HW2 5166   1.880   5.063   0.779
 1423SOL     OW 5167   5.119   6.983   2.784
 1423SOL    HW1 5168   5.045   7.007   2.847
 1423SOL    HW2 5169   5.205   7.019   2.820
 1424SOL     OW 5170   6.140   4.917   4.982
 1424SOL    HW1 5171   6.223   4.882   4.939
 1424SOL    HW2 5172   6.158   4.935   5.079
 1425SOL     OW 5173   2.226   6.823   3.828
 1425SOL    HW1 5174   2.131   6.847   3.808
 1425SOL    HW2 5175   2.261   6.764   3.755
 1426SOL     OW 5176   1.208   1.743   5.594
 1426SOL    HW1 5177   1.246   1.679   5.528
 1426SOL    HW2 5178   1.139   1.697   5.649
 1427SOL     OW 5179   6.185   0.255   3.572
 1427SOL    HW1 5180   6.179   0.156   3.560
 1427SOL    HW2 5181   6.238   0.295   3.497
 1428SOL     OW 5182   5.617   1.844   7.006
 1428SOL    HW1 5183   5.585   1.797   6.924
 1428SOL    HW2 5184   5.555   1.825   0.059
 1429SOL     OW 5185   6.887   0.452   0.755
 1429SOL    HW1 5186   6.957   0.381   0.750
 1429SOL    HW2 5187   6.816   0.423   0.820
 1430SOL     OW 5188   1.874   4.758   3.643
 1430SOL    HW1 5189   1.903   4.810   3.723
 1430SOL    HW2 5190   1.949   4.701   3.611
 1431SOL     OW 5191   2.878   0.761   1.542
 1431SOL    HW1 5192   2.871   0.858   1.565
 1431SOL    HW2 5193   2.960   0.723   1.585
 1432SOL     OW 5194   2.270   0.762   2.659
 1432SOL    HW1 5195   2.205   0.834   2.682
 1432SOL    HW2 5196   2.262   0.738   2.562
 1433SOL     OW 5197   4.191   0.457   4.016
 1433SOL    HW1 5198   4.171   0.457   4.114
 1433SOL    HW2 5199   4.111   0.490   3.966
 1434SOL     OW 5200   0.793   0.683   5.743
 1434SOL    HW1 5201   0.822   0.769   5.701
 1434SOL    HW2 5202   0.873   0.636   5.780
 1435SOL     OW 5203   5.969   1.658   2.673
 1435SOL    HW1 5204   6.024   1.693   2.597
 1435SOL    HW2 5205   5.948   1.732   2.737
 1436SOL     OW 5206   4.234   3.843   0.241
 1436SOL    HW1 5207   4.291   3.779   0.293
 1436SOL    HW2 5208   4.259   3.937   0.264
 1437SOL     OW 5209   3.246   0.942   2.732
 1437SOL    HW1 5210   3.324   0.976   2.784
 1437SOL    HW2 5211   3.242   0.987   2.643
 1438SOL     OW 5212   3.153   6.782   0.995
 1438SOL    HW1 5213   3.233   6.730   1.027
 1438SOL    HW2 5214   3.091   6.721   0.946
 1439SOL     OW 5215   0.163   6.133   2.390
 1439SOL    HW1 5216   0.114   6.053   2.356
 1439SOL    HW2 5217   0.148   6.211   2.329
 1440SOL     OW 5218   2.735   3.678   0.515
 1440SOL    HW1 5219   2.745   3.647   0.421
 1440SOL    HW2 5220   2.806   3.637   0.572
 1441SOL     OW 5221   5.929   6.637   1.093
 1441SOL    HW1 5222   5.988   6.717   1.104
 1441SOL    HW2 5223   5.834   6.664   1.109
 1442SOL     OW 5224   5.552   5.349   0.374
 1442SOL    HW1 5225   5.534   5.272   0.314
 1442SOL    HW2 5226   5.494   5.427   0.347
 1443SOL     OW 5227   1.581   2.424   3.052
 1443SOL    HW1 5228   1.608   2.515   3.021
 1443SOL    HW2 5229   1.631   2.355   3.000
 1444SOL     OW 5230   6.356   5.895   0.012
 1444SOL    HW1 5231   6.395   5.808   0.041
 1444SOL    HW2 5232   6.396   5.970   0.065
 1445SOL     OW 5233   0.944   3.429   2.607
 1445SOL    HW1 5234   0.866   3.380   2.568
 1445SOL    HW2 5235   0.911   3.498   2.672
 1446SOL     OW 5236   6.672   6.906   6.375
 1446SOL    HW1 5237   6.637   6.829   6.428
 1446SOL    HW2 5238   6.658   6.889   6.278
 1447SOL     OW 5239   6.044   4.930   4.734
 1447SOL    HW1 5240   6.014   5.023   4.714
 1447SOL    HW2 5241   6.075   4.925   4.829
 1448SOL     OW 5242   0.982   2.834   5.763
 1448SOL    HW1 5243   1.032   2.752   5.789
 1448SOL    HW2 5244   1.007   2.861   5.670
 1449SOL     OW 5245   1.440   4.249   4.442
 1449SOL    HW1 5246   1.524   4.303   4.434
 1449SOL    HW2 5247   1.416   4.211   4.352
 1450SOL     OW 5248   2.050   2.064   5.156
 1450SOL    HW1 5249   2.044   1.971   5.121
 1450SOL    HW2 5250   2.131   2.109   5.117
 1451SOL     OW 5251   2.615   6.540   1.713
 1451SOL    HW1 5252   2.566   6.620   1.680
 1451SOL    HW2 5253   2.687   6.515   1.648
 1452SOL     OW 5254   4.757   3.365   6.030
 1452SOL    HW1 5255   4.724   3.439   6.089
 1452SOL    HW2 5256   4.797   3.293   6.086
 1453SOL     OW 5257   0.499   4.143   5.524
 1453SOL    HW1 5258   0.568   4.084   5.482
 1453SOL    HW2 5259   0.543   4.226   5.558
 1454SOL     OW 5260   2.898   1.965   3.560
 1454SOL    HW1 5261   2.908   2.029   3.483
 1454SOL    HW2 5262   2.880   1.873   3.525
 1455SOL     OW 5263   1.237   5.662   2.145
 1455SOL    HW1 5264   1.161   5.609   2.182
 1455SOL    HW2 5265   1.201   5.738   2.091
 1456SOL     OW 5266   6.216   5.257   6.170
 1456SOL    HW1 5267   6.301   5.240   6.219
 1456SOL    HW2 5268   6.174   5.169   6.145
 1457SOL     OW 5269   0.558   4.010   6.367
 1457SOL    HW1 5270   0.468   4.041   6.337
 1457SOL    HW2 5271   0.575   3.918   6.333
 1458SOL     OW 5272   5.688   4.766   5.262
 1458SOL    HW1 5273   5.698   4.686   5.204
 1458SOL    HW2 5274   5.690   4.849   5.205
 1459SOL     OW 5275   4.758   6.603   5.042
 1459SOL    HW1 5276   4.755   6.516   4.991
 1459SOL    HW2 5277   4.795   6.586   5.133
 1460SOL     OW 5278   2.239   6.196   5.228
 1460SOL    HW1 5279   2.275   6.141   5.304
 1460SOL    HW2 5280   2.173   6.142   5.176
 1461SOL     OW 5281   0.223   3.031   2.559
 1461SOL    HW1 5282   0.210   2.991   2.650
 1461SOL    HW2 5283   0.144   3.009   2.502
 1462SOL     OW 5284   0.685   6.974   0.518
 1462SOL    HW1 5285   0.589   7.003   0.517
 1462SOL    HW2 5286   0.689   6.874   0.519
 1463SOL     OW 5287   1.711   5.930   6.722
 1463SOL    HW1 5288   1.743   5.843   6.684
 1463SOL    HW2 5289   1.772   6.004   6.691
 1464SOL     OW 5290   0.020   4.313   4.306
 1464SOL    HW1 5291   6.998   4.247   4.367
 1464SOL    HW2 5292   0.120   4.305   4.316
 1465SOL     OW 5293   1.321   1.520   3.558
 1465SOL    HW1 5294   1.361   1.540   3.468
 1465SOL    HW2 5295   1.328   1.601   3.616
 1466SOL     OW 5296   4.199   2.191   1.792
 1466SOL    HW1 5297   4.208   2.092   1.776
 1466SOL    HW2 5298   4.109   2.211   1.829
 1467SOL     OW 5299   1.358   0.465   3.955
 1467SOL    HW1 5300   1.389   0.456   4.049
 1467SOL    HW2 5301   1.280   0.404   3.940
 1468SOL     OW 5302   2.496   6.435   2.259
 1468SOL    HW1 5303   2.443   6.461   2.178
 1468SOL    HW2 5304   2.548   6.351   2.239
 1469SOL     OW 5305   6.298   5.454   3.305
 1469SOL    HW1 5306   6.389   5.413   3.302
 1469SOL    HW2 5307   6.306   5.554   3.312
 1470SOL     OW 5308   6.548   2.328   0.776
 1470SOL    HW1 5309   6.486   2.262   0.734
 1470SOL    HW2 5310   6.495   2.396   0.826
 1471SOL     OW 5311   5.668   6.630   1.722
 1471SOL    HW1 5312   5.621   6.705   1.768
 1471SOL    HW2 5313   5.765   6.631   1.747
 1472SOL     OW 5314   2.085   6.995   5.952
 1472SOL    HW1 5315   1.986   6.993   5.942
 1472SOL    HW2 5316   2.120   6.902   5.958
 1473SOL     OW 5317   3.162   5.081   4.781
 1473SOL    HW1 5318   3.241   5.120   4.734
 1473SOL    HW2 5319   3.192   5.027   4.859
 1474SOL     OW 5320   4.317   4.579   1.368
 1474SOL    HW1 5321   4.361   4.635   1.298
 1474SOL    HW2 5322   4.358   4.488   1.367
 1475SOL     OW 5323   5.182   0.445   0.089
 1475SOL    HW1 5324   5.262   0.460   0.030
 1475SOL    HW2 5325   5.205   0.378   0.159
 1476SOL     OW 5326   4.360   1.132   2.010
 1476SOL    HW1 5327   4.351   1.110   2.107
 1476SOL    HW2 5328   4.297   1.206   1.987
 1477SOL     OW 5329   4.187   5.349   1.033
 1477SOL    HW1 5330   4.213   5.358   1.129
 1477SOL    HW2 5331   4.245   5.408   0.977
 1478SOL     OW 5332   5.000   5.870   5.573
 1478SOL    HW1 5333   5.034   5.866   5.667
 1478SOL    HW2 5334   5.030   5.955   5.530
 1479SOL     OW 5335   3.593   3.240   1.325
 1479SOL    HW1 5336   3.555   3.167   1.382
 1479SOL    HW2 5337   3.633   3.200   1.243
 1480SOL     OW 5338   2.999   0.570   4.939
 1480SOL    HW1 5339   2.991   0.666   4.968
 1480SOL    HW2 5340   2.908   0.531   4.929
 1481SOL     OW 5341   4.987   2.486   5.381
 1481SOL    HW1 5342   4.998   2.497   5.282
 1481SOL    HW2 5343   4.979   2.576   5.423
 1482SOL     OW 5344   4.401   0.843   0.258
 1482SOL    HW1 5345   4.405   0.743   0.263
 1482SOL    HW2 5346   4.359   0.879   0.341
 1483SOL     OW 5347   4.635   1.217   6.162
 1483SOL    HW1 5348   4.707   1.148   6.166
 1483SOL    HW2 5349   4.637   1.272   6.245
 1484SOL     OW 5350   3.160   5.674   4.670
 1484SOL    HW1 5351   3.118   5.597   4.717
 1484SOL    HW2 5352   3.244   5.701   4.719
 1485SOL     OW 5353   5.196   2.504   2.863
 1485SOL    HW1 5354   5.110   2.550   2.885
 1485SOL    HW2 5355   5.236   2.544   2.780
 1486SOL     OW 5356   5.044   6.642   4.099
 1486SOL    HW1 5357   5.002   6.583   4.030
 1486SOL    HW2 5358   5.062   6.732   4.059
 1487SOL     OW 5359   6.847   0.361   0.506
 1487SOL    HW1 5360   6.773   0.418   0.472
 1487SOL    HW2 5361   6.875   0.394   0.596
 1488SOL     OW 5362   6.281   1.034   3.318
 1488SOL    HW1 5363   6.249   1.121   3.357
 1488SOL    HW2 5364   6.331   0.983   3.387
 1489SOL     OW 5365   4.125   4.905   6.247
 1489SOL    HW1 5366   4.136   4.989   6.193
 1489SOL    HW2 5367   4.030   4.898   6.278
 1490SOL     OW 5368   0.718   2.303   2.287
 1490SOL    HW1 5369   0.748   2.259   2.372
 1490SOL    HW2 5370   0.796   2.313   2.225
 1491SOL     OW 5371   0.236   2.892   2.298
 1491SOL    HW1 5372   0.211   2.796   2.283
 1491SOL    HW2 5373   0.309   2.897   2.366
 1492SOL     OW 5374   6.511   1.380   3.291
 1492SOL    HW1 5375   6.421   1.371   3.250
 1492SOL    HW2 5376   6.530   1.300   3.348
 1493SOL     OW 5377   4.562   2.491   5.841
 1493SOL    HW1 5378   4.601   2.400   5.831
 1493SOL    HW2 5379   4.622   2.547   5.898
 1494SOL     OW 5380   5.948   3.825   6.091
 1494SOL    HW1 5381   5.856   3.856   6.114
 1494SOL    HW2 5382   6.015   3.894   6.121
 1495SOL     OW 5383   5.898   3.994   4.095
 1495SOL    HW1 5384   5.962   4.068   4.076
 1495SOL    HW2 5385   5.842   4.019   4.174
 1496SOL     OW 5386   0.250   5.900   6.944
 1496SOL    HW1 5387   0.237   5.997   6.927
 1496SOL    HW2 5388   0.281   5.886   0.015
 1497SOL     OW 5389   5.350   3.279   2.516
 1497SOL    HW1 5390   5.317   3.372   2.499
 1497SOL    HW2 5391   5.305   3.241   2.597
 1498SOL     OW 5392   3.228   5.034   1.038
 1498SOL    HW1 5393   3.200   5.130   1.036
 1498SOL    HW2 5394   3.147   4.976   1.052
 1499SOL     OW 5395   0.337   3.913   5.512
 1499SOL    HW1 5396   0.337   3.849   5.589
 1499SOL    HW2 5397   0.368   4.003   5.543
 1500SOL     OW 5398   0.558   5.571   1.245
 1500SOL    HW1 5399   0.542   5.479   1.209
 1500SOL    HW2 5400   0.651   5.601   1.221
 1501SOL     OW 5401   5.162   1.630   5.986
 1501SOL    HW1 5402   5.219   1.636   6.068
 1501SOL    HW2 5403   5.100   1.708   5.982
 1502SOL     OW 5404   6.447   0.430   6.446
 1502SOL    HW1 5405   6.503   0.348   6.459
 1502SOL    HW2 5406   6.495   0.509   6.483
 1503SOL     OW 5407   0.514   3.854   2.275
 1503SOL    HW1 5408   0.600   3.804   2.269
 1503SOL    HW2 5409   0.491   3.890   2.184
 1504SOL     OW 5410   0.726   0.947   3.206
 1504SOL    HW1 5411   0.791   0.871   3.212
 1504SOL    HW2 5412   0.673   0.938   3.122
 1505SOL     OW 5413   5.803   6.068   4.952
 1505SOL    HW1 5414   5.903   6.066   4.948
 1505SOL    HW2 5415   5.771   6.160   4.929
 1506SOL     OW 5416   0.962   1.265   0.319
 1506SOL    HW1 5417   1.046   1.211   0.318
 1506SOL    HW2 5418   0.985   1.361   0.336
 1507SOL     OW 5419   1.819   2.664   4.737
 1507SOL    HW1 5420   1.728   2.703   4.743
 1507SOL    HW2 5421   1.883   2.722   4.788
 1508SOL     OW 5422   0.950   0.890   0.334
 1508SOL    HW1 5423   0.910   0.798   0.327
 1508SOL    HW2 5424   0.990   0.916   0.246
 1509SOL     OW 5425   5.131   0.601   3.796
 1509SOL    HW1 5426   5.045   0.571   3.755
 1509SOL    HW2 5427   5.147   0.548   3.880
 1510SOL     OW 5428   3.860   5.804   3.863
 1510SOL    HW1 5429   3.761   5.810   3.850
 1510SOL    HW2 5430   3.899   5.896   3.858
 1511SOL     OW 5431   3.875   3.558   4.515
 1511SOL    HW1 5432   3.854   3.650   4.482
 1511SOL    HW2 5433   3.974   3.547   4.524
 1512SOL     OW 5434   6.525   5.816   0.844
 1512SOL    HW1 5435   6.605   5.799   0.787
 1512SOL    HW2 5436   6.442   5.800   0.791
 1513SOL     OW 5437   3.156   0.418   5.938
 1513SOL    HW1 5438   3.156   0.325   5.974
 1513SOL    HW2 5439   3.190   0.481   6.008
 1514SOL     OW 5440   3.565   2.325   5.308
 1514SOL    HW1 5441   3.485   2.267   5.319
 1514SOL    HW2 5442   3.615   2.331   5.394
 1515SOL     OW 5443   6.551   1.700   2.042
 1515SOL    HW1 5444   6.555   1.798   2.060
 1515SOL    HW2 5445   6.539   1.650   2.128
 1516SOL     OW 5446   6.067   6.099   4.888
 1516SOL    HW1 5447   6.144   6.067   4.944
 1516SOL    HW2 5448   6.099   6.114   4.794
 1517SOL     OW 5449   4.143   6.463   3.698
 1517SOL    HW1 5450   4.131   6.444   3.600
 1517SOL    HW2 5451   4.101   6.551   3.720
 1518SOL     OW 5452   0.066   2.586   0.647
 1518SOL    HW1 5453   0.057   2.513   0.714
 1518SOL    HW2 5454   7.021   2.658   0.665
 1519SOL     OW 5455   6.813   4.133   0.344
 1519SOL    HW1 5456   6.748   4.103   0.274
 1519SOL    HW2 5457   6.816   4.067   0.418
 1520SOL     OW 5458   0.182   5.497   1.843
 1520SOL    HW1 5459   0.230   5.480   1.930
 1520SOL    HW2 5460   0.233   5.565   1.790
 1521SOL     OW 5461   2.273   5.165   6.027
 1521SOL    HW1 5462   2.287   5.187   5.931
 1521SOL    HW2 5463   2.185   5.201   6.058
 1522SOL     OW 5464   4.996   5.105   5.121
 1522SOL    HW1 5465   4.977   5.128   5.026
 1522SOL    HW2 5466   4.916   5.062   5.162
 1523SOL     OW 5467   3.550   6.078   6.509
 1523SOL    HW1 5468   3.455   6.062   6.482
 1523SOL    HW2 5469   3.579   6.006   6.573
 1524SOL     OW 5470   2.302   1.778   2.411
 1524SOL    HW1 5471   2.319   1.712   2.337
 1524SOL    HW2 5472   2.332   1.738   2.498
 1525SOL     OW 5473   5.419   3.008   0.614
 1525SOL    HW1 5474   5.404   2.953   0.532
 1525SOL    HW2 5475   5.362   3.090   0.611
 1526SOL     OW 5476   1.056   1.214   0.639
 1526SOL    HW1 5477   1.068   1.314   0.636
 1526SOL    HW2 5478   0.960   1.194   0.661
 1527SOL     OW 5479   3.753   1.239   4.338
 1527SOL    HW1 5480   3.840   1.248   4.388
 1527SOL    HW2 5481   3.688   1.308   4.371
 1528SOL     OW 5482   4.715   3.745   1.132
 1528SOL    HW1 5483   4.777   3.794   1.071
 1528SOL    HW2 5484   4.636   3.711   1.081
 1529SOL     OW 5485   4.891   1.338   6.156
 1529SOL    HW1 5486   4.960   1.345   6.084
 1529SOL    HW2 5487   4.801   1.325   6.115
 1530SOL     OW 5488   3.881   6.737   1.445
 1530SOL    HW1 5489   3.924   6.827   1.440
 1530SOL    HW2 5490   3.922   6.684   1.519
 1531SOL     OW 5491   3.684   6.663   4.199
 1531SOL    HW1 5492   3.699   6.724   4.121
 1531SOL    HW2 5493   3.640   6.579   4.168
 1532SOL     OW 5494   2.992   5.439   5.854
 1532SOL    HW1 5495   3.027   5.532   5.843
 1532SOL    HW2 5496   2.992   5.413   5.950
 1533SOL     OW 5497   5.286   5.510   1.473
 1533SOL    HW1 5498   5.371   5.471   1.510
 1533SOL    HW2 5499   5.223   5.436   1.450
 1534SOL     OW 5500   3.849   6.081   6.547
 1534SOL    HW1 5501   3.801   5.994   6.555
 1534SOL    HW2 5502   3.783   6.155   6.540
 1535SOL     OW 5503   6.297   6.589   4.475
 1535SOL    HW1 5504   6.369   6.638   4.523
 1535SOL    HW2 5505   6.329   6.564   4.383
 1536SOL     OW 5506   4.058   3.980   6.465
 1536SOL    HW1 5507   4.010   4.041   6.529
 1536SOL    HW2 5508   4.051   4.018   6.372
 1537SOL     OW 5509   3.458   5.461   3.345
 1537SOL    HW1 5510   3.375   5.424   3.304
 1537SOL    HW2 5511   3.438   5.550   3.387
 1538SOL     OW 5512   3.562   1.339   0.303
 1538SOL    HW1 5513   3.592   1.379   0.390
 1538SOL    HW2 5514   3.576   1.405   0.229
 1539SOL     OW 5515   5.755   3.482   1.085
 1539SOL    HW1 5516   5.803   3.521   1.163
 1539SOL    HW2 5517   5.658   3.473   1.106
 1540SOL     OW 5518   2.683   0.218   4.841
 1540SOL    HW1 5519   2.691   0.193   4.745
 1540SOL    HW2 5520   2.762   0.183   4.891
 1541SOL     OW 5521   3.411   2.978   4.777
 1541SOL    HW1 5522   3.466   2.953   4.697
 1541SOL    HW2 5523   3.465   2.964   4.860
 1542SOL     OW 5524   6.741   0.501   2.303
 1542SOL    HW1 5525   6.756   0.402   2.305
 1542SOL    HW2 5526   6.752   0.534   2.209
 1543SOL     OW 5527   3.052   5.452   6.437
 1543SOL    HW1 5528   3.019   5.408   6.520
 1543SOL    HW2 5529   2.985   5.521   6.407
 1544SOL     OW 5530   3.594   2.894   3.378
 1544SOL    HW1 5531   3.566   2.900   3.473
 1544SOL    HW2 5532   3.515   2.911   3.318
 1545SOL     OW 5533   6.373   0.014   2.804
 1545SOL    HW1 5534   6.331   6.963   2.857
 1545SOL    HW2 5535   6.472   0.008   2.811
 1546SOL     OW 5536   5.106   6.616   5.788
 1546SOL    HW1 5537   5.097   6.551   5.863
 1546SOL    HW2 5538   5.146   6.701   5.822
 1547SOL     OW 5539   1.531   4.147   6.911
 1547SOL    HW1 5540   1.523   4.122   6.815
 1547SOL    HW2 5541   1.501   4.242   6.924
 1548SOL     OW 5542   5.963   1.904   0.218
 1548SOL    HW1 5543   5.968   1.838   0.293
 1548SOL    HW2 5544   6.028   1.877   0.147
 1549SOL     OW 5545   4.221   1.230   4.649
 1549SOL    HW1 5546   4.246   1.156   4.712
 1549SOL    HW2 5547   4.290   1.238   4.577
 1550SOL     OW 5548   3.533   3.250   2.508
 1550SOL    HW1 5549   3.604   3.214   2.447
 1550SOL    HW2 5550   3.448   3.264   2.457
 1551SOL     OW 5551   0.685   5.254   6.651
 1551SOL    HW1 5552   0.667   5.285   6.744
 1551SOL    HW2 5553   0.708   5.157   6.652
 1552SOL     OW 5554   2.529   4.169   1.724
 1552SOL    HW1 5555   2.446   4.170   1.779
 1552SOL    HW2 5556   2.582   4.253   1.741
 1553SOL     OW 5557   6.882   1.628   6.058
 1553SOL    HW1 5558   6.885   1.727   6.071
 1553SOL    HW2 5559   6.965   1.587   6.098
 1554SOL     OW 5560   3.101   1.824   3.247
 1554SOL    HW1 5561   3.165   1.774   3.306
 1554SOL    HW2 5562   3.008   1.797   3.270
 1555SOL     OW 5563   6.391   3.115   6.057
 1555SOL    HW1 5564   6.440   3.185   6.108
 1555SOL    HW2 5565   6.379   3.145   5.962
 1556SOL     OW 5566   1.928   1.202   5.682
 1556SOL    HW1 5567   2.013   1.153   5.666
 1556SOL    HW2 5568   1.947   1.299   5.697
 1557SOL     OW 5569   1.175   3.473   6.588
 1557SOL    HW1 5570   1.157   3.445   6.682
 1557SOL    HW2 5571   1.102   3.535   6.557
 1558SOL     OW 5572   7.006   0.497   5.159
 1558SOL    HW1 5573   6.936   0.509   5.229
 1558SOL    HW2 5574   6.985   0.415   5.105
 1559SOL     OW 5575   0.407   2.220   6.045
 1559SOL    HW1 5576   0.395   2.145   5.979
 1559SOL    HW2 5577   0.467   2.289   6.006
 1560SOL     OW 5578   0.098   0.646   6.603
 1560SOL    HW1 5579   0.011   0.633   6.650
 1560SOL    HW2 5580   0.157   0.567   6.621
 1561SOL     OW 5581   5.207   5.977   2.648
 1561SOL    HW1 5582   5.248   6.042   2.712
 1561SOL    HW2 5583   5.276   5.949   2.581
 1562SOL     OW 5584   5.388   0.486   2.857
 1562SOL    HW1 5585   5.323   0.546   2.811
 1562SOL    HW2 5586   5.394   0.399   2.808
 1563SOL     OW 5587   3.392   1.439   6.187
 1563SOL    HW1 5588   3.422   1.528   6.154
 1563SOL    HW2 5589   3.323   1.402   6.125
 1564SOL     OW 5590   2.179   1.998   2.149
 1564SOL    HW1 5591   2.133   1.958   2.228
 1564SOL    HW2 5592   2.278   1.994   2.162
 1565SOL     OW 5593   5.108   3.841   1.886
 1565SOL    HW1 5594   5.063   3.769   1.938
 1565SOL    HW2 5595   5.124   3.810   1.793
 1566SOL     OW 5596   5.292   4.116   3.469
 1566SOL    HW1 5597   5.232   4.154   3.538
 1566SOL    HW2 5598   5.306   4.018   3.487
 1567SOL     OW 5599   6.985   5.320   5.932
 1567SOL    HW1 5600   6.905   5.261   5.918
 1567SOL    HW2 5601   6.993   5.344   6.029
 1568SOL     OW 5602   0.653   0.581   0.564
 1568SOL    HW1 5603   0.705   0.588   0.479
 1568SOL    HW2 5604   0.577   0.645   0.563
 1569SOL     OW 5605   3.779   6.404   5.041
 1569SOL    HW1 5606   3.724   6.400   5.124
 1569SOL    HW2 5607   3.724   6.376   4.962
 1570SOL     OW 5608   2.947   1.709   1.558
 1570SOL    HW1 5609   2.886   1.722   1.637
 1570SOL    HW2 5610   2.928   1.778   1.489
 1571SOL     OW 5611   6.447   3.519   1.662
 1571SOL    HW1 5612   6.386   3.544   1.737
 1571SOL    HW2 5613   6.497   3.600   1.631
 1572SOL     OW 5614   1.231   0.384   1.812
 1572SOL    HW1 5615   1.195   0.328   1.737
 1572SOL    HW2 5616   1.287   0.328   1.873
 1573SOL     OW 5617   4.493   0.222   1.842
 1573SOL    HW1 5618   4.462   0.197   1.750
 1573SOL    HW2 5619   4.586   0.187   1.856
 1574SOL     OW 5620   6.498   2.384   2.228
 1574SOL    HW1 5621   6.527   2.479   2.223
 1574SOL    HW2 5622   6.561   2.333   2.287
 1575SOL     OW 5623   1.744   2.244   0.284
 1575SOL    HW1 5624   1.689   2.327   0.282
 1575SOL    HW2 5625   1.688   2.168   0.318
 1576SOL     OW 5626   5.777   6.037   3.996
 1576SOL    HW1 5627   5.871   6.013   4.022
 1576SOL    HW2 5628   5.756   5.996   3.908
 1577SOL     OW 5629   2.787   0.484   5.446
 1577SOL    HW1 5630   2.787   0.394   5.490
 1577SOL    HW2 5631   2.788   0.555   5.517
 1578SOL     OW 5632   5.467   4.410   5.705
 1578SOL    HW1 5633   5.523   4.455   5.774
 1578SOL    HW2 5634   5.472   4.311   5.717
 1579SOL     OW 5635   0.919   0.673   3.893
 1579SOL    HW1 5636   0.956   0.598   3.948
 1579SOL    HW2 5637   0.971   0.756   3.910
 1580SOL     OW 5638   2.990   4.327   5.350
 1580SOL    HW1 5639   2.944   4.242   5.328
 1580SOL    HW2 5640   2.988   4.388   5.270
 1581SOL     OW 5641   6.870   4.139   4.456
 1581SOL    HW1 5642   6.822   4.063   4.499
 1581SOL    HW2 5643   6.804   4.198   4.409
 1582SOL     OW 5644   0.401   5.130   4.304
 1582SOL    HW1 5645   0.313   5.133   4.350
 1582SOL    HW2 5646   0.417   5.037   4.269
 1583SOL     OW 5647   1.776   2.943   3.512
 1583SOL    HW1 5648   1.858   2.930   3.567
 1583SOL    HW2 5649   1.698   2.961   3.573
 1584SOL     OW 5650   2.391   0.187   5.898
 1584SOL    HW1 5651   2.326   0.191   5.974
 1584SOL    HW2 5652   2.439   0.275   5.891
 1585SOL     OW 5653   5.677   1.341   3.819
 1585SOL    HW1 5654   5.618   1.299   3.887
 1585SOL    HW2 5655   5.657   1.438   3.813
 1586SOL     OW 5656   3.916   3.835   2.591
 1586SOL    HW1 5657   3.946   3.869   2.502
 1586SOL    HW2 5658   3.978   3.762   2.622
 1587SOL     OW 5659   3.424   6.771   6.875
 1587SOL    HW1 5660   3.442   6.674   6.887
 1587SOL    HW2 5661   3.456   6.801   6.785
 1588SOL     OW 5662   5.648   2.585   1.370
 1588SOL    HW1 5663   5.556   2.624   1.376
 1588SOL    HW2 5664   5.706   2.625   1.441
 1589SOL     OW 5665   6.060   4.458   4.804
 1589SOL    HW1 5666   6.087   4.542   4.757
 1589SOL    HW2 5667   6.087   4.464   4.900
 1590SOL     OW 5668   1.646   0.514   6.443
 1590SOL    HW1 5669   1.571   0.555   6.392
 1590SOL    HW2 5670   1.618   0.425   6.478
 1591SOL     OW 5671   1.012   4.570   2.130
 1591SOL    HW1 5672   0.986   4.625   2.209
 1591SOL    HW2 5673   0.951   4.592   2.053
 1592SOL     OW 5674   3.294   3.561   2.824
 1592SOL    HW1 5675   3.207   3.559   2.775
 1592SOL    HW2 5676   3.282   3.523   2.915
 1593SOL     OW 5677   1.346   5.638   4.745
 1593SOL    HW1 5678   1.262   5.661   4.793
 1593SOL    HW2 5679   1.327   5.569   4.675
 1594SOL     OW 5680   6.644   5.302   3.043
 1594SOL    HW1 5681   6.701   5.376   3.008
 1594SOL    HW2 5682   6.692   5.215   3.033
 1595SOL     OW 5683   6.606   4.862   6.234
 1595SOL    HW1 5684   6.588   4.770   6.199
 1595SOL    HW2 5685   6.702   4.885   6.218
 1596SOL     OW 5686   2.561   5.242   5.854
 1596SOL    HW1 5687   2.536   5.337   5.878
 1596SOL    HW2 5688   2.498   5.208   5.785
 1597SOL     OW 5689   2.959   6.243   1.426
 1597SOL    HW1 5690   2.907   6.218   1.344
 1597SOL    HW2 5691   2.903   6.227   1.507
 1598SOL     OW 5692   0.090   4.963   1.243
 1598SOL    HW1 5693   0.180   4.986   1.281
 1598SOL    HW2 5694   0.073   4.865   1.255
 1599SOL     OW 5695   3.794   5.317   6.786
 1599SOL    HW1 5696   3.879   5.266   6.775
 1599SOL    HW2 5697   3.730   5.264   6.840
 1600SOL     OW 5698   4.490   0.992   4.038
 1600SOL    HW1 5699   4.561   1.010   3.970
 1600SOL    HW2 5700   4.499   0.899   4.073
 1601SOL     OW 5701   1.469   5.136   4.185
 1601SOL    HW1 5702   1.538   5.067   4.164
 1601SOL    HW2 5703   1.464   5.201   4.110
 1602SOL     OW 5704   1.106   5.104   3.625
 1602SOL    HW1 5705   1.123   5.196   3.660
 1602SOL    HW2 5706   1.183   5.074   3.568
 1603SOL     OW 5707   0.084   6.477   1.932
 1603SOL    HW1 5708   7.011   6.503   1.918
 1603SOL    HW2 5709   0.121   6.527   2.011
 1604SOL     OW 5710   0.073   4.868   6.483
 1604SOL    HW1 5711   0.102   4.799   6.549
 1604SOL    HW2 5712   0.106   4.958   6.511
 1605SOL     OW 5713   5.962   6.973   2.802
 1605SOL    HW1 5714   5.862   6.982   2.805
 1605SOL    HW2 5715   5.987   6.876   2.811
 1606SOL     OW 5716   5.110   7.007   6.256
 1606SOL    HW1 5717   5.032   0.034   6.293
 1606SOL    HW2 5718   5.153   0.038   6.183
 1607SOL     OW 5719   3.897   2.596   0.978
 1607SOL    HW1 5720   3.979   2.654   0.979
 1607SOL    HW2 5721   3.924   2.502   1.001
 1608SOL     OW 5722   2.254   6.727   0.541
 1608SOL    HW1 5723   2.307   6.811   0.529
 1608SOL    HW2 5724   2.315   6.648   0.535
 1609SOL     OW 5725   4.846   2.071   5.459
 1609SOL    HW1 5726   4.774   2.032   5.402
 1609SOL    HW2 5727   4.853   2.018   5.544
 1610SOL     OW 5728   6.557   5.694   4.332
 1610SOL    HW1 5729   6.566   5.597   4.309
 1610SOL    HW2 5730   6.641   5.743   4.306
 1611SOL     OW 5731   3.216   3.828   1.665
 1611SOL    HW1 5732   3.292   3.800   1.607
 1611SOL    HW2 5733   3.249   3.889   1.737
 1612SOL     OW 5734   2.529   0.718   4.667
 1612SOL    HW1 5735   2.565   0.729   4.760
 1612SOL    HW2 5736   2.433   0.687   4.672
 1613SOL     OW 5737   2.316   5.899   0.309
 1613SOL    HW1 5738   2.391   5.904   0.375
 1613SOL    HW2 5739   2.309   5.986   0.261
 1614SOL     OW 5740   5.769   2.055   0.108
 1614SOL    HW1 5741   5.831   2.011   0.172
 1614SOL    HW2 5742   5.742   1.990   0.037
 1615SOL     OW 5743   6.787   4.536   0.062
 1615SOL    HW1 5744   6.745   4.616   0.104
 1615SOL    HW2 5745   6.848   4.492   0.128
 1616SOL     OW 5746   3.524   2.229   6.099
 1616SOL    HW1 5747   3.517   2.244   6.000
 1616SOL    HW2 5748   3.620   2.232   6.126
 1617SOL     OW 5749   5.022   0.376   3.565
 1617SOL    HW1 5750   5.097   0.382   3.500
 1617SOL    HW2 5751   5.044   0.309   3.636
 1618SOL     OW 5752   5.609   2.848   0.724
 1618SOL    HW1 5753   5.575   2.787   0.795
 1618SOL    HW2 5754   5.539   2.916   0.703
 1619SOL     OW 5755   1.641   3.485   4.571
 1619SOL    HW1 5756   1.635   3.550   4.646
 1619SOL    HW2 5757   1.570   3.504   4.504
 1620SOL     OW 5758   2.945   5.308   1.512
 1620SOL    HW1 5759   2.911   5.271   1.426
 1620SOL    HW2 5760   2.941   5.238   1.583
 1621SOL     OW 5761   1.610   1.006   1.040
 1621SOL    HW1 5762   1.611   1.106   1.029
 1621SOL    HW2 5763   1.703   0.973   1.055
 1622SOL     OW 5764   2.368   2.190   5.192
 1622SOL    HW1 5765   2.326   2.280   5.206
 1622SOL    HW2 5766   2.354   2.161   5.097
 1623SOL     OW 5767   2.784   2.249   5.401
 1623SOL    HW1 5768   2.867   2.300   5.421
 1623SOL    HW2 5769   2.733   2.295   5.328
 1624SOL     OW 5770   2.616   1.261   6.913
 1624SOL    HW1 5771   2.607   1.256   6.814
 1624SOL    HW2 5772   2.704   1.302   6.936
 1625SOL     OW 5773   0.643   5.020   2.306
 1625SOL    HW1 5774   0.564   5.082   2.303
 1625SOL    HW2 5775   0.704   5.049   2.380
 1626SOL     OW 5776   1.833   2.663   6.595
 1626SOL    HW1 5777   1.908   2.635   6.655
 1626SOL    HW2 5778   1.870   2.717   6.519
 1627SOL     OW 5779   5.975   2.762   3.329
 1627SOL    HW1 5780   5.948   2.674   3.368
 1627SOL    HW2 5781   5.897   2.803   3.283
 1628SOL     OW 5782   3.304   4.261   0.389
 1628SOL    HW1 5783   3.316   4.220   0.480
 1628SOL    HW2 5784   3.209   4.291   0.379
 1629SOL     OW 5785   3.789   2.041   3.826
 1629SOL    HW1 5786   3.766   1.981   3.902
 1629SOL    HW2 5787   3.849   2.115   3.858
 1630SOL     OW 5788   0.012   4.431   5.260
 1630SOL    HW1 5789   0.093   4.396   5.212
 1630SOL    HW2 5790   6.965   4.455   5.194
 1631SOL     OW 5791   6.932   0.079   6.036
 1631SOL    HW1 5792   6.866   0.006   6.048
 1631SOL    HW2 5793   6.952   0.091   5.939
 1632SOL     OW 5794   6.245   1.036   1.527
 1632SOL    HW1 5795   6.285   1.098   1.460
 1632SOL    HW2 5796   6.316   1.006   1.591
 1633SOL     OW 5797   5.944   2.333   3.707
 1633SOL    HW1 5798   5.886   2.407   3.674
 1633SOL    HW2 5799   5.970   2.352   3.802
 1634SOL     OW 5800   3.351   0.825   6.705
 1634SOL    HW1 5801   3.369   0.889   6.780
 1634SOL    HW2 5802   3.410   0.745   6.715
 1635SOL     OW 5803   0.363   5.503   4.805
 1635SOL    HW1 5804   0.435   5.447   4.762
 1635SOL    HW2 5805   0.405   5.582   4.849
 1636SOL     OW 5806   2.191   6.138   1.483
 1636SOL    HW1 5807   2.174   6.059   1.542
 1636SOL    HW2 5808   2.142   6.126   1.396
 1637SOL     OW 5809   0.211   3.049   1.878
 1637SOL    HW1 5810   0.171   3.136   1.852
 1637SOL    HW2 5811   0.158   3.009   1.953
 1638SOL     OW 5812   0.339   3.299   4.938
 1638SOL    HW1 5813   0.261   3.240   4.959
 1638SOL    HW2 5814   0.424   3.252   4.961
 1639SOL     OW 5815   5.395   5.338   2.242
 1639SOL    HW1 5816   5.404   5.254   2.190
 1639SOL    HW2 5817   5.326   5.396   2.199
 1640SOL     OW 5818   6.712   0.032   1.236
 1640SOL    HW1 5819   6.658   0.067   1.313
 1640SOL    HW2 5820   6.652   7.006   1.173
 1641SOL     OW 5821   5.652   2.623   5.317
 1641SOL    HW1 5822   5.676   2.688   5.389
 1641SOL    HW2 5823   5.570   2.573   5.343
 1642SOL     OW 5824   0.002   2.001   1.505
 1642SOL    HW1 5825   7.016   1.904   1.483
 1642SOL    HW2 5826   0.083   2.016   1.561
 1643SOL     OW 5827   4.642   0.258   5.525
 1643SOL    HW1 5828   4.570   0.290   5.462
 1643SOL    HW2 5829   4.674   0.168   5.495
 1644SOL     OW 5830   3.026   1.036   1.427
 1644SOL    HW1 5831   3.123   1.058   1.424
 1644SOL    HW2 5832   2.993   1.044   1.521
 1645SOL     OW 5833   2.453   6.822   6.541
 1645SOL    HW1 5834   2.541   6.775   6.547
 1645SOL    HW2 5835   2.412   6.805   6.451
 1646SOL     OW 5836   1.066   4.105   0.880
 1646SOL    HW1 5837   1.091   4.127   0.974
 1646SOL    HW2 5838   0.991   4.039   0.879
 1647SOL     OW 5839   5.924   2.826   3.672
 1647SOL    HW1 5840   5.960   2.913   3.638
 1647SOL    HW2 5841   5.987   2.752   3.647
 1648SOL     OW 5842   4.448   6.926   2.086
 1648SOL    HW1 5843   4.510   7.003   2.103
 1648SOL    HW2 5844   4.408   6.896   2.172
 1649SOL     OW 5845   3.524   0.819   3.918
 1649SOL    HW1 5846   3.448   0.877   3.887
 1649SOL    HW2 5847   3.611   0.863   3.894
 1650SOL     OW 5848   2.713   6.657   4.075
 1650SOL    HW1 5849   2.795   6.712   4.085
 1650SOL    HW2 5850   2.721   6.574   4.131
 1651SOL     OW 5851   1.175   0.075   0.536
 1651SOL    HW1 5852   1.088   0.025   0.543
 1651SOL    HW2 5853   1.229   0.060   0.619
 1652SOL     OW 5854   2.666   2.489   1.771
 1652SOL    HW1 5855   2.642   2.392   1.771
 1652SOL    HW2 5856   2.758   2.501   1.809
 1653SOL     OW 5857   0.950   5.460   1.469
 1653SOL    HW1 5858   0.929   5.477   1.373
 1653SOL    HW2 5859   1.049   5.467   1.483
 1654SOL     OW 5860   6.964   3.538   3.048
 1654SOL    HW1 5861   6.907   3.466   3.087
 1654SOL    HW2 5862   6.911   3.623   3.044
 1655SOL     OW 5863   4.928   4.683   6.562
 1655SOL    HW1 5864   4.946   4.640   6.474
 1655SOL    HW2 5865   5.008   4.736   6.590
 1656SOL     OW 5866   0.895   4.977   3.488
 1656SOL    HW1 5867   0.912   4.887   3.528
 1656SOL    HW2 5868   0.978   5.033   3.496
 1657SOL     OW 5869   1.656   0.572   5.242
 1657SOL    HW1 5870   1.578   0.589   5.182
 1657SOL    HW2 5871   1.624   0.536   5.330
 1658SOL     OW 5872   5.884   5.963   3.030
 1658SOL    HW1 5873   5.914   5.964   3.126
 1658SOL    HW2 5874   5.802   6.019   3.021
 1659SOL     OW 5875   3.814   2.704   6.015
 1659SOL    HW1 5876   3.743   2.759   5.972
 1659SOL    HW2 5877   3.800   2.701   6.114
 1660SOL     OW 5878   2.072   5.528   3.725
 1660SOL    HW1 5879   1.978   5.520   3.692
 1660SOL    HW2 5880   2.136   5.506   3.651
 1661SOL     OW 5881   3.010   0.368   2.350
 1661SOL    HW1 5882   3.026   0.467   2.359
 1661SOL    HW2 5883   2.949   0.351   2.272
 1662SOL     OW 5884   0.873   0.603   3.619
 1662SOL    HW1 5885   0.811   0.673   3.585
 1662SOL    HW2 5886   0.894   0.621   3.715
 1663SOL     OW 5887   2.447   0.284   2.748
 1663SOL    HW1 5888   2.523   0.273   2.684
 1663SOL    HW2 5889   2.382   0.349   2.710
 1664SOL     OW 5890   2.299   5.675   3.803
 1664SOL    HW1 5891   2.208   5.633   3.795
 1664SOL    HW2 5892   2.308   5.748   3.736
 1665SOL     OW 5893   0.042   0.551   4.170
 1665SOL    HW1 5894   0.070   0.583   4.080
 1665SOL    HW2 5895   6.965   0.558   4.178
 1666SOL     OW 5896   5.609   3.023   6.354
 1666SOL    HW1 5897   5.533   2.959   6.361
 1666SOL    HW2 5898   5.633   3.057   6.445
 1667SOL     OW 5899   6.692   0.173   5.778
 1667SOL    HW1 5900   6.610   0.181   5.834
 1667SOL    HW2 5901   6.726   0.264   5.754
 1668SOL     OW 5902   4.087   0.563   5.584
 1668SOL    HW1 5903   3.999   0.548   5.629
 1668SOL    HW2 5904   4.113   0.659   5.592
 1669SOL     OW 5905   5.609   6.738   5.660
 1669SOL    HW1 5906   5.657   6.697   5.583
 1669SOL    HW2 5907   5.532   6.792   5.627
 1670SOL     OW 5908   5.342   4.524   6.053
 1670SOL    HW1 5909   5.353   4.556   6.146
 1670SOL    HW2 5910   5.431   4.519   6.008
 1671SOL     OW 5911   4.999   3.276   7.004
 1671SOL    HW1 5912   4.985   3.311   0.074
 1671SOL    HW2 5913   4.928   3.312   6.943
 1672SOL     OW 5914   1.630   5.032   2.570
 1672SOL    HW1 5915   1.694   4.987   2.632
 1672SOL    HW2 5916   1.656   5.128   2.559
 1673SOL     OW 5917   0.013   3.184   4.244
 1673SOL    HW1 5918   0.103   3.213   4.279
 1673SOL    HW2 5919   6.966   3.250   4.272
 1674SOL     OW 5920   0.580   4.249   6.651
 1674SOL    HW1 5921   0.486   4.214   6.653
 1674SOL    HW2 5922   0.644   4.175   6.671
 1675SOL     OW 5923   4.621   1.724   6.621
 1675SOL    HW1 5924   4.711   1.767   6.608
 1675SOL    HW2 5925   4.564   1.784   6.677
 1676SOL     OW 5926   1.361   0.068   2.876
 1676SOL    HW1 5927   1.405   0.157   2.878
 1676SOL    HW2 5928   1.421   0.002   2.830
 1677SOL     OW 5929   5.714   1.910   4.924
 1677SOL    HW1 5930   5.803   1.925   4.881
 1677SOL    HW2 5931   5.642   1.923   4.856
 1678SOL     OW 5932   5.089   0.440   1.174
 1678SOL    HW1 5933   5.032   0.436   1.256
 1678SOL    HW2 5934   5.141   0.525   1.174
 1679SOL     OW 5935   0.420   3.535   6.614
 1679SOL    HW1 5936   0.401   3.616   6.557
 1679SOL    HW2 5937   0.436   3.564   6.708
 1680SOL     OW 5938   1.110   1.846   4.596
 1680SOL    HW1 5939   1.091   1.815   4.503
 1680SOL    HW2 5940   1.059   1.931   4.613
 1681SOL     OW 5941   6.310   5.465   1.199
 1681SOL    HW1 5942   6.357   5.389   1.155
 1681SOL    HW2 5943   6.218   5.475   1.159
 1682SOL     OW 5944   6.476   3.718   5.962
 1682SOL    HW1 5945   6.451   3.665   6.044
 1682SOL    HW2 5946   6.486   3.655   5.884
 1683SOL     OW 5947   5.473   6.504   1.498
 1683SOL    HW1 5948   5.562   6.539   1.524
 1683SOL    HW2 5949   5.478   6.405   1.484
 1684SOL     OW 5950   0.955   6.045   4.862
 1684SOL    HW1 5951   1.054   6.029   4.872
 1684SOL    HW2 5952   0.906   5.994   4.932
 1685SOL     OW 5953   1.461   1.323   6.937
 1685SOL    HW1 5954   1.534   1.342   6.871
 1685SOL    HW2 5955   1.502   1.291   0.000
 1686SOL     OW 5956   1.497   6.899   7.005
 1686SOL    HW1 5957   1.490   6.952   6.921
 1686SOL    HW2 5958   1.447   6.945   0.056
 1687SOL     OW 5959   1.628   6.239   2.031
 1687SOL    HW1 5960   1.642   6.225   1.933
 1687SOL    HW2 5961   1.672   6.164   2.081
 1688SOL     OW 5962   1.197   1.760   3.308
 1688SOL    HW1 5963   1.214   1.816   3.389
 1688SOL    HW2 5964   1.135   1.807   3.246
 1689SOL     OW 5965   2.082   1.957   2.935
 1689SOL    HW1 5966   2.095   1.966   3.034
 1689SOL    HW2 5967   2.104   2.044   2.892
 1690SOL     OW 5968   1.374   1.176   1.175
 1690SOL    HW1 5969   1.354   1.094   1.122
 1690SOL    HW2 5970   1.437   1.235   1.124
 1691SOL     OW 5971   5.408   4.441   2.535
 1691SOL    HW1 5972   5.492   4.409   2.579
 1691SOL    HW2 5973   5.342   4.468   2.604
 1692SOL     OW 5974   1.376   0.472   2.101
 1692SOL    HW1 5975   1.434   0.449   2.179
 1692SOL    HW2 5976   1.355   0.388   2.050
 1693SOL     OW 5977   3.006   2.196   3.448
 1693SOL    HW1 5978   3.091   2.143   3.439
 1693SOL    HW2 5979   3.028   2.292   3.466
 1694SOL     OW 5980   5.480   5.642   4.985
 1694SOL    HW1 5981   5.539   5.718   5.012
 1694SOL    HW2 5982   5.387   5.659   5.019
 1695SOL     OW 5983   3.200   2.619   5.748
 1695SOL    HW1 5984   3.251   2.595   5.830
 1695SOL    HW2 5985   3.176   2.535   5.699
 1696SOL     OW 5986   4.308   6.179   0.928
 1696SOL    HW1 5987   4.391   6.234   0.937
 1696SOL    HW2 5988   4.265   6.168   1.018
 1697SOL     OW 5989   0.998   1.416   1.812
 1697SOL    HW1 5990   1.038   1.357   1.742
 1697SOL    HW2 5991   1.072   1.458   1.865
 1698SOL     OW 5992   4.573   1.954   1.727
 1698SOL    HW1 5993   4.517   1.944   1.645
 1698SOL    HW2 5994   4.617   2.044   1.727
 1699SOL     OW 5995   2.261   3.355   1.134
 1699SOL    HW1 5996   2.182   3.391   1.085
 1699SOL    HW2 5997   2.288   3.418   1.207
 1700SOL     OW 5998   6.640   3.140   3.084
 1700SOL    HW1 5999   6.615   3.212   3.148
 1700SOL    HW2 6000   6.614   3.166   2.991
 1701SOL     OW 6001   5.765   3.525   3.908
 1701SOL    HW1 6002   5.688   3.570   3.861
 1701SOL    HW2 6003   5.851   3.557   3.868
 1702SOL     OW 6004   4.636   3.812   0.844
 1702SOL    HW1 6005   4.677   3.894   0.884
 1702SOL    HW2 6006   4.705   3.763   0.791
 1703SOL     OW 6007   1.560   3.774   0.179
 1703SOL    HW1 6008   1.596   3.787   0.087
 1703SOL    HW2 6009   1.536   3.678   0.192
 1704SOL     OW 6010   0.749   0.805   1.828
 1704SOL    HW1 6011   0.739   0.706   1.815
 1704SOL    HW2 6012   0.841   0.833   1.799
 1705SOL     OW 6013   4.356   3.125   1.719
 1705SOL    HW1 6014   4.265   3.117   1.760
 1705SOL    HW2 6015   4.423   3.081   1.778
 1706SOL     OW 6016   3.332   0.684   0.363
 1706SOL    HW1 6017   3.400   0.739   0.315
 1706SOL    HW2 6018   3.363   0.589   0.367
 1707SOL     OW 6019   5.207   2.294   3.516
 1707SOL    HW1 6020   5.284   2.324   3.573
 1707SOL    HW2 6021   5.231   2.304   3.419
 1708SOL     OW 6022   0.170   5.154   3.213
 1708SOL    HW1 6023   0.233   5.227   3.189
 1708SOL    HW2 6024   0.188   5.074   3.156
 1709SOL     OW 6025   2.823   6.349   2.186
 1709SOL    HW1 6026   2.798   6.407   2.108
 1709SOL    HW2 6027   2.895   6.394   2.238
 1710SOL     OW 6028   0.717   5.777   4.608
 1710SOL    HW1 6029   0.702   5.813   4.516
 1710SOL    HW2 6030   0.812   5.748   4.617
 1711SOL     OW 6031   1.055   4.444   5.358
 1711SOL    HW1 6032   1.109   4.402   5.431
 1711SOL    HW2 6033   1.011   4.372   5.304
 1712SOL     OW 6034   0.309   4.327   0.262
 1712SOL    HW1 6035   0.252   4.326   0.343
 1712SOL    HW2 6036   0.378   4.254   0.268
 1713SOL     OW 6037   0.989   2.454   1.297
 1713SOL    HW1 6038   1.066   2.472   1.359
 1713SOL    HW2 6039   0.903   2.472   1.345
 1714SOL     OW 6040   3.197   1.811   0.708
 1714SOL    HW1 6041   3.148   1.836   0.624
 1714SOL    HW2 6042   3.230   1.717   0.700
 1715SOL     OW 6043   0.099   3.082   2.921
 1715SOL    HW1 6044   0.033   3.050   2.990
 1715SOL    HW2 6045   0.142   3.003   2.878
 1716SOL     OW 6046   0.440   5.862   0.206
 1716SOL    HW1 6047   0.393   5.941   0.246
 1716SOL    HW2 6048   0.530   5.891   0.174
 1717SOL     OW 6049   2.829   0.391   6.695
 1717SOL    HW1 6050   2.876   0.468   6.739
 1717SOL    HW2 6051   2.733   0.391   6.721
 1718SOL     OW 6052   1.168   4.423   6.381
 1718SOL    HW1 6053   1.117   4.499   6.420
 1718SOL    HW2 6054   1.245   4.400   6.440
 1719SOL     OW 6055   2.278   3.540   1.335
 1719SOL    HW1 6056   2.305   3.635   1.319
 1719SOL    HW2 6057   2.318   3.508   1.421
 1720SOL     OW 6058   6.725   0.659   1.047
 1720SOL    HW1 6059   6.752   0.753   1.026
 1720SOL    HW2 6060   6.735   0.642   1.145
 1721SOL     OW 6061   2.197   6.343   3.258
 1721SOL    HW1 6062   2.223   6.374   3.167
 1721SOL    HW2 6063   2.170   6.421   3.314
 1722SOL     OW 6064   5.756   6.472   2.471
 1722SOL    HW1 6065   5.741   6.472   2.372
 1722SOL    HW2 6066   5.670   6.458   2.518
 1723SOL     OW 6067   6.563   1.508   2.282
 1723SOL    HW1 6068   6.626   1.581   2.308
 1723SOL    HW2 6069   6.584   1.427   2.337
 1724SOL     OW 6070   4.917   1.106   0.263
 1724SOL    HW1 6071   4.867   1.142   0.184
 1724SOL    HW2 6072   4.905   1.007   0.268
 1725SOL     OW 6073   3.956   4.343   1.577
 1725SOL    HW1 6074   3.920   4.257   1.539
 1725SOL    HW2 6075   3.988   4.401   1.502
 1726SOL     OW 6076   0.371   3.924   4.733
 1726SOL    HW1 6077   0.318   3.866   4.795
 1726SOL    HW2 6078   0.467   3.900   4.739
 1727SOL     OW 6079   3.680   3.983   5.171
 1727SOL    HW1 6080   3.584   3.954   5.165
 1727SOL    HW2 6081   3.739   3.903   5.179
 1728SOL     OW 6082   4.252   4.649   3.201
 1728SOL    HW1 6083   4.291   4.740   3.193
 1728SOL    HW2 6084   4.276   4.595   3.120
 1729SOL     OW 6085   2.092   3.785   2.663
 1729SOL    HW1 6086   2.119   3.689   2.657
 1729SOL    HW2 6087   2.102   3.828   2.574
 1730SOL     OW 6088   6.244   2.636   5.459
 1730SOL    HW1 6089   6.288   2.559   5.505
 1730SOL    HW2 6090   6.263   2.720   5.508
 1731SOL     OW 6091   2.142   5.616   0.792
 1731SOL    HW1 6092   2.218   5.551   0.791
 1731SOL    HW2 6093   2.105   5.626   0.700
 1732SOL     OW 6094   0.266   4.383   6.585
 1732SOL    HW1 6095   0.351   4.351   6.543
 1732SOL    HW2 6096   0.287   4.458   6.648
 1733SOL     OW 6097   1.516   3.141   0.932
 1733SOL    HW1 6098   1.476   3.162   1.021
 1733SOL    HW2 6099   1.616   3.138   0.940
 1734SOL     OW 6100   4.923   2.301   1.551
 1734SOL    HW1 6101   5.011   2.301   1.598
 1734SOL    HW2 6102   4.931   2.252   1.464
 1735SOL     OW 6103   6.393   5.166   1.453
 1735SOL    HW1 6104   6.449   5.141   1.374
 1735SOL    HW2 6105   6.358   5.083   1.496
 1736SOL     OW 6106   3.865   3.276   0.316
 1736SOL    HW1 6107   3.961   3.251   0.333
 1736SOL    HW2 6108   3.851   3.287   0.218
 1737SOL     OW 6109   2.205   6.790   3.232
 1737SOL    HW1 6110   2.227   6.884   3.258
 1737SOL    HW2 6111   2.258   6.765   3.151
 1738SOL     OW 6112   2.069   3.077   2.232
 1738SOL    HW1 6113   2.131   2.999   2.238
 1738SOL    HW2 6114   2.028   3.079   2.141
 1739SOL     OW 6115   4.343   2.042   4.984
 1739SOL    HW1 6116   4.268   2.101   4.955
 1739SOL    HW2 6117   4.429   2.093   4.977
 1740SOL     OW 6118   0.523   1.008   5.787
 1740SOL    HW1 6119   0.580   1.064   5.726
 1740SOL    HW2 6120   0.560   1.012   5.880
 1741SOL     OW 6121   1.182   0.165   2.705
 1741SOL    HW1 6122   1.238   0.092   2.745
 1741SOL    HW2 6123   1.242   0.234   2.664
 1742SOL     OW 6124   6.518   0.680   4.352
 1742SOL    HW1 6125   6.430   0.642   4.327
 1742SOL    HW2 6126   6.518   0.779   4.335
 1743SOL     OW 6127   3.949   1.510   1.334
 1743SOL    HW1 6128   3.901   1.538   1.417
 1743SOL    HW2 6129   3.946   1.410   1.326
 1744SOL     OW 6130   2.883   0.436   1.265
 1744SOL    HW1 6131   2.890   0.536   1.273
 1744SOL    HW2 6132   2.787   0.410   1.260
 1745SOL     OW 6133   0.295   2.292   2.972
 1745SOL    HW1 6134   0.395   2.297   2.964
 1745SOL    HW2 6135   0.264   2.205   2.932
 1746SOL     OW 6136   2.744   0.904   5.720
 1746SOL    HW1 6137   2.710   0.987   5.763
 1746SOL    HW2 6138   2.778   0.924   5.629
 1747SOL     OW 6139   3.171   0.174   2.053
 1747SOL    HW1 6140   3.247   0.109   2.052
 1747SOL    HW2 6141   3.167   0.221   1.965
 1748SOL     OW 6142   5.110   2.131   2.657
 1748SOL    HW1 6143   5.196   2.083   2.672
 1748SOL    HW2 6144   5.106   2.163   2.562
 1749SOL     OW 6145   4.139   0.157   6.388
 1749SOL    HW1 6146   4.171   0.083   6.447
 1749SOL    HW2 6147   4.190   0.241   6.408
 1750SOL     OW 6148   4.521   1.478   2.993
 1750SOL    HW1 6149   4.568   1.564   2.971
 1750SOL    HW2 6150   4.561   1.438   3.075
 1751SOL     OW 6151   1.620   5.218   3.885
 1751SOL    HW1 6152   1.597   5.246   3.792
 1751SOL    HW2 6153   1.664   5.294   3.933
 1752SOL     OW 6154   6.142   1.544   0.658
 1752SOL    HW1 6155   6.048   1.577   0.650
 1752SOL    HW2 6156   6.180   1.571   0.747
 1753SOL     OW 6157   1.437   0.055   1.743
 1753SOL    HW1 6158   1.348   0.082   1.780
 1753SOL    HW2 6159   1.429   6.993   1.692
 1754SOL     OW 6160   3.934   3.287   0.704
 1754SOL    HW1 6161   3.951   3.253   0.797
 1754SOL    HW2 6162   3.838   3.315   0.696
 1755SOL     OW 6163   5.122   4.016   0.761
 1755SOL    HW1 6164   5.086   4.109   0.764
 1755SOL    HW2 6165   5.111   3.972   0.850
 1756SOL     OW 6166   6.771   5.574   4.509
 1756SOL    HW1 6167   6.715   5.656   4.494
 1756SOL    HW2 6168   6.744   5.502   4.446
 1757SOL     OW 6169   3.325   6.554   4.729
 1757SOL    HW1 6170   3.390   6.597   4.791
 1757SOL    HW2 6171   3.277   6.624   4.676
 1758SOL     OW 6172   2.057   0.750   3.346
 1758SOL    HW1 6173   1.997   0.829   3.332
 1758SOL    HW2 6174   2.001   0.670   3.367
 1759SOL     OW 6175   0.558   5.440   6.419
 1759SOL    HW1 6176   0.617   5.521   6.417
 1759SOL    HW2 6177   0.552   5.405   6.512
 1760SOL     OW 6178   6.346   0.772   3.081
 1760SOL    HW1 6179   6.387   0.863   3.087
 1760SOL    HW2 6180   6.308   0.758   2.989
 1761SOL     OW 6181   6.325   1.421   1.241
 1761SOL    HW1 6182   6.267   1.457   1.314
 1761SOL    HW2 6183   6.411   1.473   1.239
 1762SOL     OW 6184   5.841   1.560   5.894
 1762SOL    HW1 6185   5.830   1.488   5.962
 1762SOL    HW2 6186   5.753   1.603   5.876
 1763SOL     OW 6187   2.016   3.820   4.135
 1763SOL    HW1 6188   1.943   3.888   4.139
 1763SOL    HW2 6189   2.051   3.803   4.227
 1764SOL     OW 6190   0.379   3.390   3.575
 1764SOL    HW1 6191   0.448   3.341   3.523
 1764SOL    HW2 6192   0.288   3.360   3.548
 1765SOL     OW 6193   2.763   1.958   6.618
 1765SOL    HW1 6194   2.697   1.937   6.546
 1765SOL    HW2 6195   2.750   2.052   6.649
 1766SOL     OW 6196   5.377   3.279   5.007
 1766SOL    HW1 6197   5.303   3.326   4.958
 1766SOL    HW2 6198   5.465   3.308   4.969
 1767SOL     OW 6199   5.510   3.300   2.047
 1767SOL    HW1 6200   5.550   3.391   2.033
 1767SOL    HW2 6201   5.438   3.285   1.980
 1768SOL     OW 6202   5.185   6.587   3.794
 1768SOL    HW1 6203   5.222   6.617   3.882
 1768SOL    HW2 6204   5.156   6.492   3.800
 1769SOL     OW 6205   3.811   1.518   2.323
 1769SOL    HW1 6206   3.803   1.562   2.412
 1769SOL    HW2 6207   3.722   1.483   2.295
 1770SOL     OW 6208   2.571   5.949   5.402
 1770SOL    HW1 6209   2.650   6.009   5.417
 1770SOL    HW2 6210   2.587   5.893   5.320
 1771SOL     OW 6211   3.867   5.626   6.501
 1771SOL    HW1 6212   3.836   5.534   6.528
 1771SOL    HW2 6213   3.803   5.664   6.434
 1772SOL     OW 6214   3.010   6.630   3.375
 1772SOL    HW1 6215   2.987   6.564   3.304
 1772SOL    HW2 6216   3.070   6.587   3.442
 1773SOL     OW 6217   1.554   5.400   6.269
 1773SOL    HW1 6218   1.594   5.408   6.178
 1773SOL    HW2 6219   1.627   5.404   6.338
 1774SOL     OW 6220   4.469   5.643   1.357
 1774SOL    HW1 6221   4.480   5.713   1.428
 1774SOL    HW2 6222   4.418   5.681   1.281
 1775SOL     OW 6223   0.828   4.105   2.154
 1775SOL    HW1 6224   0.860   4.012   2.135
 1775SOL    HW2 6225   0.782   4.142   2.074
 1776SOL     OW 6226   3.986   6.269   4.474
 1776SOL    HW1 6227   3.982   6.333   4.551
 1776SOL    HW2 6228   3.965   6.176   4.506
 1777SOL     OW 6229   4.230   6.111   0.679
 1777SOL    HW1 6230   4.260   6.140   0.770
 1777SOL    HW2 6231   4.131   6.101   0.677
 1778SOL     OW 6232   5.039   3.905   6.002
 1778SOL    HW1 6233   5.059   3.963   6.081
 1778SOL    HW2 6234   4.940   3.898   5.990
 1779SOL     OW 6235   3.763   0.687   5.016
 1779SOL    HW1 6236   3.825   0.609   5.004
 1779SOL    HW2 6237   3.670   0.653   5.030
 1780SOL     OW 6238   3.269   3.034   6.538
 1780SOL    HW1 6239   3.358   3.014   6.498
 1780SOL    HW2 6240   3.203   3.051   6.464
 1781SOL     OW 6241   4.006   5.457   3.230
 1781SOL    HW1 6242   3.924   5.403   3.244
 1781SOL    HW2 6243   3.990   5.551   3.261
 1782SOL     OW 6244   2.719   1.133   3.496
 1782SOL    HW1 6245   2.751   1.058   3.439
 1782SOL    HW2 6246   2.708   1.215   3.440
 1783SOL     OW 6247   2.397   5.964   6.275
 1783SOL    HW1 6248   2.338   6.043   6.293
 1783SOL    HW2 6249   2.394   5.902   6.353
 1784SOL     OW 6250   3.541   0.326   5.835
 1784SOL    HW1 6251   3.526   0.422   5.858
 1784SOL    HW2 6252   3.496   0.305   5.747
 1785SOL     OW 6253   6.001   3.185   2.510
 1785SOL    HW1 6254   5.931   3.185   2.438
 1785SOL    HW2 6255   6.030   3.091   2.529
 1786SOL     OW 6256   2.180   2.621   0.333
 1786SOL    HW1 6257   2.123   2.634   0.251
 1786SOL    HW2 6258   2.123   2.626   0.415
 1787SOL     OW 6259   3.598   1.926   5.980
 1787SOL    HW1 6260   3.653   1.918   6.063
 1787SOL    HW2 6261   3.647   1.883   5.904
 1788SOL     OW 6262   1.752   5.199   5.344
 1788SOL    HW1 6263   1.753   5.182   5.246
 1788SOL    HW2 6264   1.823   5.146   5.388
 1789SOL     OW 6265   6.067   1.621   0.219
 1789SOL    HW1 6266   6.166   1.619   0.208
 1789SOL    HW2 6267   6.026   1.549   0.163
 1790SOL     OW 6268   3.721   6.926   3.415
 1790SOL    HW1 6269   3.770   6.839   3.425
 1790SOL    HW2 6270   3.787   7.001   3.415
 1791SOL     OW 6271   0.235   0.072   2.935
 1791SOL    HW1 6272   0.167   0.056   2.864
 1791SOL    HW2 6273   0.238   7.017   2.998
 1792SOL     OW 6274   1.052   3.521   5.421
 1792SOL    HW1 6275   1.018   3.468   5.498
 1792SOL    HW2 6276   0.981   3.584   5.390
 1793SOL     OW 6277   6.942   0.598   3.606
 1793SOL    HW1 6278   6.870   0.617   3.673
 1793SOL    HW2 6279   6.938   0.666   3.533
 1794SOL     OW 6280   4.975   5.633   6.017
 1794SOL    HW1 6281   5.048   5.615   6.083
 1794SOL    HW2 6282   4.904   5.689   6.060
 1795SOL     OW 6283   6.846   2.721   0.718
 1795SOL    HW1 6284   6.768   2.710   0.780
 1795SOL    HW2 6285   6.865   2.818   0.704
 1796SOL     OW 6286   2.053   0.945   5.637
 1796SOL    HW1 6287   2.078   0.956   5.541
 1796SOL    HW2 6288   2.061   0.849   5.663
 1797SOL     OW 6289   1.240   6.744   0.613
 1797SOL    HW1 6290   1.161   6.804   0.628
 1797SOL    HW2 6291   1.285   6.770   0.527
 1798SOL     OW 6292   4.591   2.641   3.501
 1798SOL    HW1 6293   4.530   2.568   3.531
 1798SOL    HW2 6294   4.577   2.722   3.558
 1799SOL     OW 6295   0.367   1.915   5.934
 1799SOL    HW1 6296   0.307   1.895   5.857
 1799SOL    HW2 6297   0.318   1.899   6.020
 1800SOL     OW 6298   4.064   4.469   1.362
 1800SOL    HW1 6299   4.153   4.483   1.403
 1800SOL    HW2 6300   4.069   4.394   1.295
 1801SOL     OW 6301   0.020   0.329   2.430
 1801SOL    HW1 6302   6.969   0.308   2.365
 1801SOL    HW2 6303   0.094   0.375   2.382
 1802SOL     OW 6304   6.570   5.847   4.590
 1802SOL    HW1 6305   6.525   5.798   4.515
 1802SOL    HW2 6306   6.552   5.799   4.676
 1803SOL     OW 6307   6.880   5.682   0.245
 1803SOL    HW1 6308   6.859   5.588   0.219
 1803SOL    HW2 6309   6.801   5.740   0.227
 1804SOL     OW 6310   3.120   3.850   5.261
 1804SOL    HW1 6311   3.145   3.920   5.194
 1804SOL    HW2 6312   3.139   3.759   5.223
 1805SOL     OW 6313   5.259   3.776   6.179
 1805SOL    HW1 6314   5.187   3.816   6.122
 1805SOL    HW2 6315   5.218   3.731   6.259
 1806SOL     OW 6316   1.728   0.122   1.423
 1806SOL    HW1 6317   1.706   0.047   1.486
 1806SOL    HW2 6318   1.644   0.160   1.386
 1807SOL     OW 6319   6.196   1.883   4.872
 1807SOL    HW1 6320   6.255   1.913   4.946
 1807SOL    HW2 6321   6.238   1.907   4.784
 1808SOL     OW 6322   0.219   5.035   4.717
 1808SOL    HW1 6323   0.273   5.108   4.758
 1808SOL    HW2 6324   0.263   5.004   4.633
 1809SOL     OW 6325   2.977   2.204   6.216
 1809SOL    HW1 6326   3.014   2.125   6.265
 1809SOL    HW2 6327   3.046   2.276   6.213
 1810SOL     OW 6328   3.142   6.437   3.542
 1810SOL    HW1 6329   3.130   6.338   3.533
 1810SOL    HW2 6330   3.201   6.470   3.468
 1811SOL     OW 6331   6.020   5.672   3.269
 1811SOL    HW1 6332   5.933   5.677   3.220
 1811SOL    HW2 6333   6.095   5.686   3.204
 1812SOL     OW 6334   4.190   5.936   5.495
 1812SOL    HW1 6335   4.243   5.859   5.461
 1812SOL    HW2 6336   4.183   6.006   5.424
 1813SOL     OW 6337   5.747   4.487   7.017
 1813SOL    HW1 6338   5.803   4.407   0.015
 1813SOL    HW2 6339   5.686   4.506   0.072
 1814SOL     OW 6340   4.564   0.034   2.347
 1814SOL    HW1 6341   4.541   0.072   2.436
 1814SOL    HW2 6342   4.505   6.978   2.327
 1815SOL     OW 6343   0.383   0.737   2.937
 1815SOL    HW1 6344   0.474   0.729   2.896
 1815SOL    HW2 6345   0.392   0.757   3.034
 1816SOL     OW 6346   1.543   3.508   0.124
 1816SOL    HW1 6347   1.630   3.496   0.077
 1816SOL    HW2 6348   1.468   3.482   0.063
 1817SOL     OW 6349   1.946   5.565   2.590
 1817SOL    HW1 6350   1.912   5.516   2.510
 1817SOL    HW2 6351   1.952   5.662   2.569
 1818SOL     OW 6352   1.665   0.468   2.850
 1818SOL    HW1 6353   1.686   0.395   2.785
 1818SOL    HW2 6354   1.590   0.525   2.814
 1819SOL     OW 6355   1.506   4.138   1.435
 1819SOL    HW1 6356   1.491   4.078   1.514
 1819SOL    HW2 6357   1.557   4.088   1.365
 1820SOL     OW 6358   4.847   0.321   2.738
 1820SOL    HW1 6359   4.751   0.322   2.766
 1820SOL    HW2 6360   4.859   0.377   2.656
 1821SOL     OW 6361   2.223   1.580   3.327
 1821SOL    HW1 6362   2.167   1.659   3.350
 1821SOL    HW2 6363   2.300   1.574   3.390
 1822SOL     OW 6364   3.368   2.477   1.640
 1822SOL    HW1 6365   3.274   2.492   1.669
 1822SOL    HW2 6366   3.398   2.386   1.668
 1823SOL     OW 6367   4.226   6.592   2.047
 1823SOL    HW1 6368   4.317   6.633   2.033
 1823SOL    HW2 6369   4.187   6.625   2.132
 1824SOL     OW 6370   4.591   2.642   1.438
 1824SOL    HW1 6371   4.556   2.688   1.519
 1824SOL    HW2 6372   4.689   2.624   1.450
 1825SOL     OW 6373   0.944   0.436   1.412
 1825SOL    HW1 6374   1.029   0.452   1.363
 1825SOL    HW2 6375   0.958   0.454   1.510
 1826SOL     OW 6376   3.037   0.496   0.204
 1826SOL    HW1 6377   3.009   0.417   0.259
 1826SOL    HW2 6378   3.131   0.484   0.174
 1827SOL     OW 6379   6.690   5.523   1.695
 1827SOL    HW1 6380   6.616   5.459   1.680
 1827SOL    HW2 6381   6.777   5.474   1.695
 1828SOL     OW 6382   0.508   2.747   6.243
 1828SOL    HW1 6383   0.495   2.660   6.197
 1828SOL    HW2 6384   0.604   2.775   6.237
 1829SOL     OW 6385   5.437   5.863   3.015
 1829SOL    HW1 6386   5.378   5.941   2.992
 1829SOL    HW2 6387   5.454   5.808   2.934
 1830SOL     OW 6388   4.583   6.387   3.104
 1830SOL    HW1 6389   4.618   6.430   3.187
 1830SOL    HW2 6390   4.501   6.334   3.127
 1831SOL     OW 6391   5.258   6.251   1.734
 1831SOL    HW1 6392   5.232   6.340   1.771
 1831SOL    HW2 6393   5.228   6.245   1.638
 1832SOL     OW 6394   4.435   2.639   0.841
 1832SOL    HW1 6395   4.467   2.606   0.931
 1832SOL    HW2 6396   4.427   2.738   0.844
 1833SOL     OW 6397   5.081   0.363   4.994
 1833SOL    HW1 6398   5.006   0.315   5.039
 1833SOL    HW2 6399   5.044   0.442   4.943
 1834SOL     OW 6400   3.545   3.436   1.536
 1834SOL    HW1 6401   3.558   3.364   1.469
 1834SOL    HW2 6402   3.550   3.397   1.628
 1835SOL     OW 6403   1.405   5.086   0.779
 1835SOL    HW1 6404   1.344   5.155   0.817
 1835SOL    HW2 6405   1.402   5.004   0.838
 1836SOL     OW 6406   0.524   0.224   0.393
 1836SOL    HW1 6407   0.449   0.181   0.442
 1836SOL    HW2 6408   0.604   0.229   0.453
 1837SOL     OW 6409   1.047   2.335   4.471
 1837SOL    HW1 6410   1.059   2.396   4.550
 1837SOL    HW2 6411   1.135   2.322   4.425
 1838SOL     OW 6412   6.889   2.704   4.669
 1838SOL    HW1 6413   6.897   2.604   4.662
 1838SOL    HW2 6414   6.978   2.742   4.693
 1839SOL     OW 6415   6.436   2.990   5.370
 1839SOL    HW1 6416   6.452   3.040   5.455
 1839SOL    HW2 6417   6.363   3.034   5.318
 1840SOL     OW 6418   2.714   5.636   0.483
 1840SOL    HW1 6419   2.790   5.592   0.434
 1840SOL    HW2 6420   2.684   5.717   0.433
 1841SOL     OW 6421   2.216   3.094   3.622
 1841SOL    HW1 6422   2.314   3.110   3.633
 1841SOL    HW2 6423   2.168   3.182   3.617
 1842SOL     OW 6424   0.842   4.275   0.854
 1842SOL    HW1 6425   0.818   4.199   0.793
 1842SOL    HW2 6426   0.938   4.298   0.841
 1843SOL     OW 6427   2.463   1.743   5.324
 1843SOL    HW1 6428   2.472   1.841   5.343
 1843SOL    HW2 6429   2.553   1.701   5.326
 1844SOL     OW 6430   4.177   2.263   4.093
 1844SOL    HW1 6431   4.080   2.241   4.095
 1844SOL    HW2 6432   4.199   2.308   4.006
 1845SOL     OW 6433   3.568   6.969   0.014
 1845SOL    HW1 6434   3.527   6.882   7.011
 1845SOL    HW2 6435   3.661   6.974   7.001
 1846SOL     OW 6436   2.543   2.504   6.723
 1846SOL    HW1 6437   2.627   2.476   6.770
 1846SOL    HW2 6438   2.565   2.568   6.650
 1847SOL     OW 6439   0.746   0.242   1.106
 1847SOL    HW1 6440   0.734   0.179   1.184
 1847SOL    HW2 6441   0.775   0.190   1.026
 1848SOL     OW 6442   3.034   6.670   2.066
 1848SOL    HW1 6443   3.048   6.611   1.986
 1848SOL    HW2 6444   3.000   6.759   2.037
 1849SOL     OW 6445   3.212   1.868   6.698
 1849SOL    HW1 6446   3.123   1.822   6.702
 1849SOL    HW2 6447   3.234   1.906   6.787
 1850SOL     OW 6448   6.230   2.620   2.957
 1850SOL    HW1 6449   6.182   2.659   3.035
 1850SOL    HW2 6450   6.179   2.543   2.920
 1851SOL     OW 6451   0.532   2.467   2.434
 1851SOL    HW1 6452   0.564   2.404   2.363
 1851SOL    HW2 6453   0.560   2.560   2.411
 1852SOL     OW 6454   4.133   3.197   0.361
 1852SOL    HW1 6455   4.149   3.135   0.437
 1852SOL    HW2 6456   4.196   3.274   0.366
 1853SOL     OW 6457   1.110   4.209   1.416
 1853SOL    HW1 6458   1.011   4.219   1.404
 1853SOL    HW2 6459   1.155   4.213   1.327
 1854SOL     OW 6460   2.829   5.699   4.618
 1854SOL    HW1 6461   2.743   5.693   4.567
 1854SOL    HW2 6462   2.856   5.608   4.649
 1855SOL     OW 6463   5.536   5.181   0.729
 1855SOL    HW1 6464   5.499   5.183   0.822
 1855SOL    HW2 6465   5.462   5.168   0.664
 1856SOL     OW 6466   5.536   2.261   4.781
 1856SOL    HW1 6467   5.550   2.162   4.786
 1856SOL    HW2 6468   5.592   2.299   4.707
 1857SOL     OW 6469   3.964   1.120   3.933
 1857SOL    HW1 6470   3.969   1.178   3.852
 1857SOL    HW2 6471   4.056   1.095   3.962
 1858SOL     OW 6472   5.095   2.830   3.617
 1858SOL    HW1 6473   5.170   2.851   3.554
 1858SOL    HW2 6474   5.097   2.732   3.639
 1859SOL     OW 6475   4.424   2.408   3.342
 1859SOL    HW1 6476   4.383   2.417   3.252
 1859SOL    HW2 6477   4.480   2.326   3.346
 1860SOL     OW 6478   6.066   1.095   4.512
 1860SOL    HW1 6479   5.969   1.084   4.490
 1860SOL    HW2 6480   6.118   1.020   4.472
 1861SOL     OW 6481   5.298   6.621   3.087
 1861SOL    HW1 6482   5.288   6.557   3.163
 1861SOL    HW2 6483   5.385   6.670   3.096
 1862SOL     OW 6484   1.892   1.396   0.165
 1862SOL    HW1 6485   1.912   1.339   0.245
 1862SOL    HW2 6486   1.949   1.367   0.088
 1863SOL     OW 6487   2.925   2.722   1.383
 1863SOL    HW1 6488   2.868   2.690   1.458
 1863SOL    HW2 6489   2.920   2.822   1.378
 1864SOL     OW 6490   1.134   6.513   4.849
 1864SOL    HW1 6491   1.080   6.471   4.776
 1864SOL    HW2 6492   1.074   6.570   4.905
 1865SOL     OW 6493   4.229   1.822   5.921
 1865SOL    HW1 6494   4.175   1.883   5.979
 1865SOL    HW2 6495   4.245   1.865   5.832
 1866SOL     OW 6496   4.620   4.420   2.278
 1866SOL    HW1 6497   4.622   4.344   2.213
 1866SOL    HW2 6498   4.668   4.499   2.239
 1867SOL     OW 6499   0.179   4.095   0.069
 1867SOL    HW1 6500   0.139   4.187   0.060
 1867SOL    HW2 6501   0.127   4.042   0.135
 1868SOL     OW 6502   5.757   4.534   6.208
 1868SOL    HW1 6503   5.795   4.517   6.299
 1868SOL    HW2 6504   5.673   4.480   6.196
 1869SOL     OW 6505   6.521   1.325   5.268
 1869SOL    HW1 6506   6.515   1.231   5.233
 1869SOL    HW2 6507   6.430   1.355   5.297
 1870SOL     OW 6508   1.778   5.440   4.484
 1870SOL    HW1 6509   1.774   5.456   4.583
 1870SOL    HW2 6510   1.843   5.367   4.465
 1871SOL     OW 6511   2.006   7.010   0.377
 1871SOL    HW1 6512   1.910   7.005   0.404
 1871SOL    HW2 6513   2.052   6.925   0.403
 1872SOL     OW 6514   1.933   4.608   0.281
 1872SOL    HW1 6515   2.018   4.612   0.228
 1872SOL    HW2 6516   1.857   4.588   0.220
 1873SOL     OW 6517   4.132   1.525   6.517
 1873SOL    HW1 6518   4.115   1.580   6.436
 1873SOL    HW2 6519   4.046   1.504   6.563
 1874SOL     OW 6520   1.577   1.451   1.912
 1874SOL    HW1 6521   1.671   1.420   1.923
 1874SOL    HW2 6522   1.560   1.529   1.973
 1875SOL     OW 6523   0.508   6.739   6.398
 1875SOL    HW1 6524   0.570   6.793   6.455
 1875SOL    HW2 6525   0.472   6.662   6.451
 1876SOL     OW 6526   2.865   6.922   4.392
 1876SOL    HW1 6527   2.796   6.992   4.372
 1876SOL    HW2 6528   2.911   6.944   4.478
 1877SOL     OW 6529   1.223   0.152   3.828
 1877SOL    HW1 6530   1.179   0.121   3.912
 1877SOL    HW2 6531   1.167   0.223   3.785
 1878SOL     OW 6532   6.421   2.505   4.773
 1878SOL    HW1 6533   6.430   2.573   4.701
 1878SOL    HW2 6534   6.494   2.516   4.841
 1879SOL     OW 6535   1.012   4.063   4.840
 1879SOL    HW1 6536   0.941   3.996   4.862
 1879SOL    HW2 6537   1.062   4.086   4.924
 1880SOL     OW 6538   6.075   1.635   4.985
 1880SOL    HW1 6539   6.101   1.729   4.961
 1880SOL    HW2 6540   6.009   1.638   5.060
 1881SOL     OW 6541   6.553   1.844   0.493
 1881SOL    HW1 6542   6.523   1.749   0.503
 1881SOL    HW2 6543   6.538   1.893   0.579
 1882SOL     OW 6544   0.869   4.130   6.106
 1882SOL    HW1 6545   0.843   4.056   6.043
 1882SOL    HW2 6546   0.889   4.213   6.053
 1883SOL     OW 6547   0.281   2.803   3.074
 1883SOL    HW1 6548   0.211   2.860   3.117
 1883SOL    HW2 6549   0.367   2.854   3.068
 1884SOL     OW 6550   0.238   2.037   1.649
 1884SOL    HW1 6551   0.232   1.943   1.682
 1884SOL    HW2 6552   0.291   2.092   1.714
 1885SOL     OW 6553   2.083   2.156   5.647
 1885SOL    HW1 6554   2.143   2.090   5.691
 1885SOL    HW2 6555   2.131   2.198   5.570
 1886SOL     OW 6556   1.419   6.534   3.276
 1886SOL    HW1 6557   1.475   6.559   3.355
 1886SOL    HW2 6558   1.464   6.563   3.192
 1887SOL     OW 6559   1.310   6.223   6.212
 1887SOL    HW1 6560   1.340   6.221   6.117
 1887SOL    HW2 6561   1.263   6.138   6.235
 1888SOL     OW 6562   2.986   1.295   1.041
 1888SOL    HW1 6563   2.973   1.393   1.052
 1888SOL    HW2 6564   2.934   1.246   1.111
 1889SOL     OW 6565   1.729   3.740   3.387
 1889SOL    HW1 6566   1.631   3.757   3.374
 1889SOL    HW2 6567   1.766   3.694   3.306
 1890SOL     OW 6568   0.816   5.975   3.868
 1890SOL    HW1 6569   0.869   5.948   3.949
 1890SOL    HW2 6570   0.864   5.946   3.786
 1891SOL     OW 6571   4.071   3.580   2.620
 1891SOL    HW1 6572   4.109   3.580   2.527
 1891SOL    HW2 6573   3.989   3.523   2.623
 1892SOL     OW 6574   0.224   0.482   1.942
 1892SOL    HW1 6575   0.274   0.426   2.008
 1892SOL    HW2 6576   0.126   0.475   1.961
 1893SOL     OW 6577   3.565   3.388   3.299
 1893SOL    HW1 6578   3.606   3.303   3.333
 1893SOL    HW2 6579   3.545   3.379   3.202
 1894SOL     OW 6580   3.766   3.792   4.450
 1894SOL    HW1 6581   3.728   3.783   4.358
 1894SOL    HW2 6582   3.706   3.849   4.506
 1895SOL     OW 6583   4.174   7.015   0.376
 1895SOL    HW1 6584   4.242   0.045   0.326
 1895SOL    HW2 6585   4.186   6.918   0.357
 1896SOL     OW 6586   5.186   1.943   1.029
 1896SOL    HW1 6587   5.263   1.979   0.976
 1896SOL    HW2 6588   5.131   2.020   1.063
 1897SOL     OW 6589   2.531   4.966   3.563
 1897SOL    HW1 6590   2.583   4.884   3.589
 1897SOL    HW2 6591   2.584   5.020   3.498
 1898SOL     OW 6592   1.365   5.863   3.387
 1898SOL    HW1 6593   1.461   5.888   3.403
 1898SOL    HW2 6594   1.325   5.926   3.320
 1899SOL     OW 6595   0.066   0.109   1.819
 1899SOL    HW1 6596   0.073   0.040   1.747
 1899SOL    HW2 6597   7.011   0.169   1.800
 1900SOL     OW 6598   3.089   0.354   6.981
 1900SOL    HW1 6599   3.047   0.263   6.977
 1900SOL    HW2 6600   3.017   0.424   6.986
 1901SOL     OW 6601   3.045   3.889   0.600
 1901SOL    HW1 6602   3.007   3.903   0.508
 1901SOL    HW2 6603   2.983   3.831   0.653
 1902SOL     OW 6604   1.558   6.477   4.869
 1902SOL    HW1 6605   1.573   6.394   4.817
 1902SOL    HW2 6606   1.618   6.549   4.835
 1903SOL     OW 6607   1.047   3.118   4.541
 1903SOL    HW1 6608   1.082   3.187   4.478
 1903SOL    HW2 6609   1.073   3.027   4.510
 1904SOL     OW 6610   5.661   5.249   2.578
 1904SOL    HW1 6611   5.736   5.259   2.512
 1904SOL    HW2 6612   5.611   5.335   2.586
 1905SOL     OW 6613   0.483   0.793   3.758
 1905SOL    HW1 6614   0.565   0.803   3.814
 1905SOL    HW2 6615   0.465   0.696   3.742
 1906SOL     OW 6616   2.632   0.023   5.456
 1906SOL    HW1 6617   2.685   7.003   5.382
 1906SOL    HW2 6618   2.669   7.016   5.544
 1907SOL     OW 6619   4.824   2.665   0.129
 1907SOL    HW1 6620   4.852   2.681   0.035
 1907SOL    HW2 6621   4.874   2.727   0.190
 1908SOL     OW 6622   3.639   1.356   1.085
 1908SOL    HW1 6623   3.626   1.425   1.157
 1908SOL    HW2 6624   3.559   1.296   1.082
 1909SOL     OW 6625   7.011   4.864   5.246
 1909SOL    HW1 6626   7.018   4.874   5.146
 1909SOL    HW2 6627   0.063   4.913   5.290
 1910SOL     OW 6628   6.468   6.288   6.027
 1910SOL    HW1 6629   6.411   6.284   6.109
 1910SOL    HW2 6630   6.490   6.196   5.996
 1911SOL     OW 6631   7.000   5.403   4.229
 1911SOL    HW1 6632   0.055   5.374   4.286
 1911SOL    HW2 6633   6.983   5.334   4.159
 1912SOL     OW 6634   2.457   5.038   2.668
 1912SOL    HW1 6635   2.456   4.975   2.590
 1912SOL    HW2 6636   2.414   4.994   2.747
 1913SOL     OW 6637   2.753   4.608   5.334
 1913SOL    HW1 6638   2.826   4.597   5.267
 1913SOL    HW2 6639   2.791   4.641   5.420
 1914SOL     OW 6640   2.654   4.418   6.264
 1914SOL    HW1 6641   2.716   4.341   6.272
 1914SOL    HW2 6642   2.579   4.408   6.330
 1915SOL     OW 6643   5.030   2.687   6.216
 1915SOL    HW1 6644   5.104   2.737   6.260
 1915SOL    HW2 6645   5.061   2.650   6.129
 1916SOL     OW 6646   3.973   0.685   2.050
 1916SOL    HW1 6647   4.070   0.702   2.033
 1916SOL    HW2 6648   3.951   0.710   2.145
 1917SOL     OW 6649   2.724   4.480   1.491
 1917SOL    HW1 6650   2.694   4.471   1.586
 1917SOL    HW2 6651   2.815   4.438   1.481
 1918SOL     OW 6652   6.802   1.752   4.392
 1918SOL    HW1 6653   6.897   1.783   4.395
 1918SOL    HW2 6654   6.794   1.673   4.332
 1919SOL     OW 6655   1.045   1.991   0.868
 1919SOL    HW1 6656   1.098   1.908   0.888
 1919SOL    HW2 6657   0.948   1.970   0.868
 1920SOL     OW 6658   5.027   2.488   0.693
 1920SOL    HW1 6659   4.957   2.555   0.668
 1920SOL    HW2 6660   5.106   2.498   0.631
 1921SOL     OW 6661   2.284   3.256   6.866
 1921SOL    HW1 6662   2.281   3.242   6.767
 1921SOL    HW2 6663   2.191   3.264   6.902
 1922SOL     OW 6664   2.984   3.638   2.276
 1922SOL    HW1 6665   2.926   3.583   2.335
 1922SOL    HW2 6666   3.050   3.579   2.229
 1923SOL     OW 6667   4.471   0.398   5.356
 1923SOL    HW1 6668   4.424   0.310   5.350
 1923SOL    HW2 6669   4.482   0.437   5.265
 1924SOL     OW 6670   4.518   6.943   0.887
 1924SOL    HW1 6671   4.472   6.864   0.848
 1924SOL    HW2 6672   4.565   6.994   0.814
 1925SOL     OW 6673   1.133   4.370   1.023
 1925SOL    HW1 6674   1.069   4.443   1.049
 1925SOL    HW2 6675   1.183   4.339   1.103
 1926SOL     OW 6676   3.395   0.029   2.039
 1926SOL    HW1 6677   3.380   6.958   2.008
 1926SOL    HW2 6678   3.493   0.046   2.046
 1927SOL     OW 6679   1.987   5.347   1.531
 1927SOL    HW1 6680   1.897   5.305   1.546
 1927SOL    HW2 6681   2.055   5.301   1.587
 1928SOL     OW 6682   4.689   4.240   2.999
 1928SOL    HW1 6683   4.614   4.288   3.044
 1928SOL    HW2 6684   4.684   4.255   2.900
 1929SOL     OW 6685   2.853   0.710   2.867
 1929SOL    HW1 6686   2.870   0.759   2.782
 1929SOL    HW2 6687   2.820   0.618   2.847
 1930SOL     OW 6688   4.871   2.947   6.644
 1930SOL    HW1 6689   4.959   2.937   6.599
 1930SOL    HW2 6690   4.802   2.894   6.595
 1931SOL     OW 6691   0.784   1.616   4.812
 1931SOL    HW1 6692   0.753   1.687   4.749
 1931SOL    HW2 6693   0.865   1.571   4.773
 1932SOL     OW 6694   4.478   2.445   2.117
 1932SOL    HW1 6695   4.435   2.532   2.142
 1932SOL    HW2 6696   4.408   2.382   2.084
 1933SOL     OW 6697   1.179   1.481   1.139
 1933SOL    HW1 6698   1.154   1.399   1.191
 1933SOL    HW2 6699   1.182   1.459   1.042
 1934SOL     OW 6700   0.300   0.305   5.956
 1934SOL    HW1 6701   0.264   0.221   5.997
 1934SOL    HW2 6702   0.230   0.377   5.959
 1935SOL     OW 6703   6.939   5.213   4.055
 1935SOL    HW1 6704   0.004   5.184   4.017
 1935SOL    HW2 6705   6.888   5.133   4.088
 1936SOL     OW 6706   4.687   2.997   5.268
 1936SOL    HW1 6707   4.588   2.986   5.271
 1936SOL    HW2 6708   4.729   2.913   5.233
 1937SOL     OW 6709   5.169   5.207   6.591
 1937SOL    HW1 6710   5.095   5.168   6.535
 1937SOL    HW2 6711   5.225   5.267   6.535
 1938SOL     OW 6712   0.802   2.993   6.203
 1938SOL    HW1 6713   0.822   2.898   6.179
 1938SOL    HW2 6714   0.734   3.029   6.139
 1939SOL     OW 6715   1.148   0.192   4.624
 1939SOL    HW1 6716   1.099   0.215   4.709
 1939SOL    HW2 6717   1.162   0.094   4.619
 1940SOL     OW 6718   6.417   4.507   0.737
 1940SOL    HW1 6719   6.348   4.440   0.766
 1940SOL    HW2 6720   6.505   4.461   0.726
 1941SOL     OW 6721   0.063   2.506   4.152
 1941SOL    HW1 6722   0.044   2.428   4.212
 1941SOL    HW2 6723   0.091   2.585   4.207
 1942SOL     OW 6724   5.315   3.750   2.530
 1942SOL    HW1 6725   5.318   3.664   2.479
 1942SOL    HW2 6726   5.349   3.824   2.473
 1943SOL     OW 6727   1.015   1.386   2.662
 1943SOL    HW1 6728   0.940   1.443   2.627
 1943SOL    HW2 6729   1.056   1.429   2.742
 1944SOL     OW 6730   0.173   2.545   2.425
 1944SOL    HW1 6731   0.211   2.542   2.517
 1944SOL    HW2 6732   0.170   2.453   2.387
 1945SOL     OW 6733   4.960   0.664   2.046
 1945SOL    HW1 6734   4.929   0.573   2.017
 1945SOL    HW2 6735   5.016   0.704   1.974
 1946SOL     OW 6736   5.897   5.130   1.608
 1946SOL    HW1 6737   5.818   5.096   1.660
 1946SOL    HW2 6738   5.877   5.125   1.510
 1947SOL     OW 6739   6.268   4.684   3.932
 1947SOL    HW1 6740   6.335   4.757   3.916
 1947SOL    HW2 6741   6.180   4.711   3.895
 1948SOL     OW 6742   4.874   3.715   3.486
 1948SOL    HW1 6743   4.954   3.715   3.426
 1948SOL    HW2 6744   4.831   3.805   3.485
 1949SOL     OW 6745   3.861   4.903   6.317
 1949SOL    HW1 6746   3.907   4.875   6.401
 1949SOL    HW2 6747   3.779   4.956   6.340
 1950SOL     OW 6748   3.497   4.076   3.920
 1950SOL    HW1 6749   3.409   4.063   3.873
 1950SOL    HW2 6750   3.480   4.102   4.015
 1951SOL     OW 6751   5.907   4.419   6.020
 1951SOL    HW1 6752   5.916   4.326   6.055
 1951SOL    HW2 6753   5.837   4.467   6.072
 1952SOL     OW 6754   5.296   5.129   6.814
 1952SOL    HW1 6755   5.233   5.151   6.740
 1952SOL    HW2 6756   5.245   5.094   6.893
 1953SOL     OW 6757   0.268   1.389   6.583
 1953SOL    HW1 6758   0.327   1.310   6.599
 1953SOL    HW2 6759   0.283   1.424   6.490
 1954SOL     OW 6760   4.292   0.251   2.032
 1954SOL    HW1 6761   4.230   0.186   2.077
 1954SOL    HW2 6762   4.350   0.202   1.967
 1955SOL     OW 6763   0.908   2.015   2.555
 1955SOL    HW1 6764   0.825   2.070   2.569
 1955SOL    HW2 6765   0.911   1.941   2.621
 1956SOL     OW 6766   5.843   0.341   1.874
 1956SOL    HW1 6767   5.801   0.339   1.965
 1956SOL    HW2 6768   5.820   0.257   1.826
 1957SOL     OW 6769   5.300   1.718   4.151
 1957SOL    HW1 6770   5.378   1.655   4.153
 1957SOL    HW2 6771   5.280   1.745   4.057
 1958SOL     OW 6772   4.259   1.913   0.948
 1958SOL    HW1 6773   4.198   1.985   0.915
 1958SOL    HW2 6774   4.205   1.837   0.984
 1959SOL     OW 6775   0.657   0.613   4.679
 1959SOL    HW1 6776   0.719   0.644   4.751
 1959SOL    HW2 6777   0.587   0.682   4.663
 1960SOL     OW 6778   5.841   4.274   3.750
 1960SOL    HW1 6779   5.761   4.311   3.703
 1960SOL    HW2 6780   5.854   4.322   3.837
 1961SOL     OW 6781   6.706   3.985   4.657
 1961SOL    HW1 6782   6.648   4.059   4.689
 1961SOL    HW2 6783   6.760   3.950   4.734
 1962SOL     OW 6784   0.862   0.212   2.665
 1962SOL    HW1 6785   0.824   0.121   2.684
 1962SOL    HW2 6786   0.804   0.281   2.709
 1963SOL     OW 6787   0.871   1.700   1.836
 1963SOL    HW1 6788   0.873   1.793   1.872
 1963SOL    HW2 6789   0.963   1.661   1.837
 1964SOL     OW 6790   5.142   3.978   1.041
 1964SOL    HW1 6791   5.135   4.066   1.089
 1964SOL    HW2 6792   5.233   3.970   1.001
 1965SOL     OW 6793   0.366   4.599   4.219
 1965SOL    HW1 6794   0.324   4.626   4.132
 1965SOL    HW2 6795   0.383   4.501   4.219
 1966SOL     OW 6796   1.717   4.607   6.961
 1966SOL    HW1 6797   1.751   4.533   7.019
 1966SOL    HW2 6798   1.784   4.681   6.957
 1967SOL     OW 6799   5.639   3.497   2.998
 1967SOL    HW1 6800   5.733   3.497   3.033
 1967SOL    HW2 6801   5.641   3.501   2.898
 1968SOL     OW 6802   2.744   1.638   5.221
 1968SOL    HW1 6803   2.739   1.590   5.134
 1968SOL    HW2 6804   2.823   1.699   5.221
 1969SOL     OW 6805   2.738   6.678   0.387
 1969SOL    HW1 6806   2.662   6.616   0.407
 1969SOL    HW2 6807   2.713   6.738   0.311
 1970SOL     OW 6808   6.073   5.570   5.307
 1970SOL    HW1 6809   6.049   5.573   5.404
 1970SOL    HW2 6810   6.089   5.475   5.280
 1971SOL     OW 6811   1.618   6.028   4.995
 1971SOL    HW1 6812   1.585   5.962   4.928
 1971SOL    HW2 6813   1.627   5.983   5.084
 1972SOL     OW 6814   5.931   2.699   2.872
 1972SOL    HW1 6815   5.966   2.656   2.789
 1972SOL    HW2 6816   6.006   2.744   2.920
 1973SOL     OW 6817   2.196   4.045   6.854
 1973SOL    HW1 6818   2.167   4.010   6.765
 1973SOL    HW2 6819   2.239   3.971   6.906
 1974SOL     OW 6820   3.731   6.446   4.725
 1974SOL    HW1 6821   3.720   6.366   4.784
 1974SOL    HW2 6822   3.720   6.419   4.630
 1975SOL     OW 6823   1.695   2.249   3.574
 1975SOL    HW1 6824   1.733   2.203   3.493
 1975SOL    HW2 6825   1.628   2.317   3.545
 1976SOL     OW 6826   0.118   6.827   6.433
 1976SOL    HW1 6827   0.124   6.752   6.500
 1976SOL    HW2 6828   0.030   6.873   6.442
 1977SOL     OW 6829   2.126   4.632   5.641
 1977SOL    HW1 6830   2.039   4.614   5.596
 1977SOL    HW2 6831   2.122   4.600   5.736
 1978SOL     OW 6832   2.786   7.009   1.630
 1978SOL    HW1 6833   2.850   0.046   1.582
 1978SOL    HW2 6834   2.694   7.022   1.593
 1979SOL     OW 6835   0.402   4.888   6.853
 1979SOL    HW1 6836   0.424   4.861   6.759
 1979SOL    HW2 6837   0.474   4.946   6.889
 1980SOL     OW 6838   3.744   1.734   0.895
 1980SOL    HW1 6839   3.790   1.664   0.950
 1980SOL    HW2 6840   3.646   1.712   0.890
 1981SOL     OW 6841   4.196   2.228   3.166
 1981SOL    HW1 6842   4.138   2.239   3.085
 1981SOL    HW2 6843   4.140   2.208   3.246
 1982SOL     OW 6844   6.864   2.416   5.647
 1982SOL    HW1 6845   6.859   2.459   5.737
 1982SOL    HW2 6846   6.773   2.382   5.622
 1983SOL     OW 6847   0.437   0.704   2.011
 1983SOL    HW1 6848   0.431   0.615   1.965
 1983SOL    HW2 6849   0.445   0.690   2.110
 1984SOL     OW 6850   5.082   2.936   5.311
 1984SOL    HW1 6851   5.045   2.896   5.227
 1984SOL    HW2 6852   5.133   3.019   5.287
 1985SOL     OW 6853   5.854   3.535   2.621
 1985SOL    HW1 6854   5.766   3.551   2.664
 1985SOL    HW2 6855   5.904   3.464   2.670
 1986SOL     OW 6856   3.823   2.312   1.650
 1986SOL    HW1 6857   3.757   2.330   1.724
 1986SOL    HW2 6858   3.795   2.230   1.601
 1987SOL     OW 6859   2.628   1.112   1.977
 1987SOL    HW1 6860   2.642   1.203   2.017
 1987SOL    HW2 6861   2.717   1.069   1.961
 1988SOL     OW 6862   6.745   1.785   1.087
 1988SOL    HW1 6863   6.782   1.744   1.171
 1988SOL    HW2 6864   6.810   1.852   1.051
 1989SOL     OW 6865   3.056   5.202   5.045
 1989SOL    HW1 6866   3.008   5.206   4.958
 1989SOL    HW2 6867   3.128   5.271   5.046
 1990SOL     OW 6868   3.843   0.642   0.900
 1990SOL    HW1 6869   3.801   0.594   0.976
 1990SOL    HW2 6870   3.885   0.576   0.837
 1991SOL     OW 6871   2.708   5.352   0.850
 1991SOL    HW1 6872   2.797   5.325   0.885
 1991SOL    HW2 6873   2.654   5.394   0.923
 1992SOL     OW 6874   0.399   5.771   1.249
 1992SOL    HW1 6875   0.404   5.794   1.152
 1992SOL    HW2 6876   0.460   5.695   1.268
 1993SOL     OW 6877   2.224   2.889   3.896
 1993SOL    HW1 6878   2.286   2.913   3.971
 1993SOL    HW2 6879   2.130   2.907   3.923
 1994SOL     OW 6880   2.862   2.877   0.336
 1994SOL    HW1 6881   2.765   2.868   0.360
 1994SOL    HW2 6882   2.880   2.833   0.248
 1995SOL     OW 6883   5.678   2.382   5.054
 1995SOL    HW1 6884   5.658   2.442   4.977
 1995SOL    HW2 6885   5.650   2.426   5.139
 1996SOL     OW 6886   3.824   1.958   0.775
 1996SOL    HW1 6887   3.777   1.874   0.803
 1996SOL    HW2 6888   3.756   2.031   0.761
 1997SOL     OW 6889   4.003   0.827   3.405
 1997SOL    HW1 6890   3.951   0.793   3.484
 1997SOL    HW2 6891   4.097   0.792   3.410
 1998SOL     OW 6892   1.818   3.189   0.967
 1998SOL    HW1 6893   1.810   3.159   1.062
 1998SOL    HW2 6894   1.878   3.269   0.963
 1999SOL     OW 6895   1.984   6.894   6.262
 1999SOL    HW1 6896   1.885   6.897   6.275
 1999SOL    HW2 6897   2.030   6.928   6.344
 2000SOL     OW 6898   3.951   4.288   5.741
 2000SOL    HW1 6899   3.942   4.188   5.742
 2000SOL    HW2 6900   3.946   4.323   5.834
 2001SOL     OW 6901   2.001   1.514   6.952
 2001SOL    HW1 6902   2.010   1.596   6.897
 2001SOL    HW2 6903   2.019   1.536   0.025
 2002SOL     OW 6904   6.938   4.358   0.242
 2002SOL    HW1 6905   6.893   4.293   0.304
 2002SOL    HW2 6906   6.960   4.441   0.293
 2003SOL     OW 6907   6.641   5.508   2.729
 2003SOL    HW1 6908   6.544   5.498   2.752
 2003SOL    HW2 6909   6.651   5.518   2.630
 2004SOL     OW 6910   2.847   6.900   3.099
 2004SOL    HW1 6911   2.938   6.885   3.061
 2004SOL    HW2 6912   2.780   6.851   3.043
 2005SOL     OW 6913   1.501   6.476   0.981
 2005SOL    HW1 6914   1.593   6.461   1.018
 2005SOL    HW2 6915   1.453   6.544   1.036
 2006SOL     OW 6916   5.798   0.271   2.915
 2006SOL    HW1 6917   5.775   0.227   2.828
 2006SOL    HW2 6918   5.895   0.293   2.916
 2007SOL     OW 6919   5.524   4.949   0.021
 2007SOL    HW1 6920   5.609   4.979   6.999
 2007SOL    HW2 6921   5.520   4.849   0.019
 2008SOL     OW 6922   1.817   3.495   3.789
 2008SOL    HW1 6923   1.818   3.432   3.712
 2008SOL    HW2 6924   1.807   3.444   3.874
 2009SOL     OW 6925   6.240   0.130   2.616
 2009SOL    HW1 6926   6.303   0.083   2.678
 2009SOL    HW2 6927   6.292   0.176   2.544
 2010SOL     OW 6928   1.266   1.725   1.361
 2010SOL    HW1 6929   1.203   1.724   1.440
 2010SOL    HW2 6930   1.274   1.818   1.327
 2011SOL     OW 6931   0.504   7.009   6.071
 2011SOL    HW1 6932   0.419   0.024   6.107
 2011SOL    HW2 6933   0.565   0.061   6.045
 2012SOL     OW 6934   1.430   3.500   1.615
 2012SOL    HW1 6935   1.444   3.599   1.606
 2012SOL    HW2 6936   1.425   3.476   1.712
 2013SOL     OW 6937   0.431   3.420   2.871
 2013SOL    HW1 6938   0.356   3.405   2.936
 2013SOL    HW2 6939   0.403   3.488   2.803
 2014SOL     OW 6940   3.527   0.234   4.214
 2014SOL    HW1 6941   3.526   0.177   4.296
 2014SOL    HW2 6942   3.455   0.303   4.220
 2015SOL     OW 6943   4.425   0.542   1.584
 2015SOL    HW1 6944   4.422   0.623   1.525
 2015SOL    HW2 6945   4.518   0.530   1.619
 2016SOL     OW 6946   1.447   0.422   5.817
 2016SOL    HW1 6947   1.521   0.360   5.790
 2016SOL    HW2 6948   1.360   0.387   5.782
 2017SOL     OW 6949   3.981   6.340   3.140
 2017SOL    HW1 6950   3.891   6.340   3.183
 2017SOL    HW2 6951   4.040   6.406   3.187
 2018SOL     OW 6952   1.068   0.900   3.903
 2018SOL    HW1 6953   1.043   0.990   3.940
 2018SOL    HW2 6954   1.125   0.912   3.821
 2019SOL     OW 6955   5.963   5.197   6.327
 2019SOL    HW1 6956   5.988   5.293   6.325
 2019SOL    HW2 6957   5.972   5.158   6.235
 2020SOL     OW 6958   2.505   5.912   6.040
 2020SOL    HW1 6959   2.453   5.947   5.961
 2020SOL    HW2 6960   2.449   5.919   6.122
 2021SOL     OW 6961   0.271   5.997   3.883
 2021SOL    HW1 6962   0.261   6.025   3.979
 2021SOL    HW2 6963   0.368   5.987   3.861
 2022SOL     OW 6964   1.922   3.963   5.167
 2022SOL    HW1 6965   2.017   3.982   5.191
 2022SOL    HW2 6966   1.910   3.976   5.068
 2023SOL     OW 6967   6.887   6.375   0.400
 2023SOL    HW1 6968   6.813   6.436   0.371
 2023SOL    HW2 6969   6.953   6.427   0.454
 2024SOL     OW 6970   0.687   5.830   4.334
 2024SOL    HW1 6971   0.771   5.791   4.297
 2024SOL    HW2 6972   0.608   5.789   4.289
 2025SOL     OW 6973   1.401   6.799   4.793
 2025SOL    HW1 6974   1.395   6.829   4.888
 2025SOL    HW2 6975   1.494   6.811   4.760
 2026SOL     OW 6976   6.945   0.063   5.761
 2026SOL    HW1 6977   6.854   0.091   5.790
 2026SOL    HW2 6978   6.998   0.143   5.733
 2027SOL     OW 6979   6.800   6.021   2.394
 2027SOL    HW1 6980   6.819   6.077   2.474
 2027SOL    HW2 6981   6.702   6.024   2.373
 2028SOL     OW 6982   3.377   5.130   4.340
 2028SOL    HW1 6983   3.412   5.079   4.261
 2028SOL    HW2 6984   3.374   5.228   4.318
 2029SOL     OW 6985   6.149   2.391   6.770
 2029SOL    HW1 6986   6.194   2.349   6.849
 2029SOL    HW2 6987   6.065   2.341   6.749
 2030SOL     OW 6988   2.359   6.518   2.496
 2030SOL    HW1 6989   2.405   6.526   2.408
 2030SOL    HW2 6990   2.420   6.476   2.563
 2031SOL     OW 6991   6.827   6.118   3.736
 2031SOL    HW1 6992   6.789   6.135   3.827
 2031SOL    HW2 6993   6.905   6.056   3.744
 2032SOL     OW 6994   2.700   2.220   6.225
 2032SOL    HW1 6995   2.668   2.201   6.132
 2032SOL    HW2 6996   2.797   2.200   6.232
 2033SOL     OW 6997   2.203   1.928   0.765
 2033SOL    HW1 6998   2.158   1.930   0.854
 2033SOL    HW2 6999   2.274   1.998   0.761
 2034SOL     OW 7000   6.895   4.409   5.042
 2034SOL    HW1 7001   6.807   4.395   5.086
 2034SOL    HW2 7002   6.933   4.320   5.014
 2035SOL     OW 7003   5.568   0.726   3.202
 2035SOL    HW1 7004   5.626   0.649   3.177
 2035SOL    HW2 7005   5.485   0.725   3.147
 2036SOL     OW 7006   0.998   3.912   1.853
 2036SOL    HW1 7007   1.010   3.998   1.803
 2036SOL    HW2 7008   1.084   3.861   1.851
 2037SOL     OW 7009   0.177   2.820   0.090
 2037SOL    HW1 7010   0.229   2.745   0.049
 2037SOL    HW2 7011   0.237   2.875   0.148
 2038SOL     OW 7012   1.352   1.470   6.276
 2038SOL    HW1 7013   1.415   1.486   6.200
 2038SOL    HW2 7014   1.260   1.451   6.241
 2039SOL     OW 7015   5.807   6.556   2.797
 2039SOL    HW1 7016   5.781   6.468   2.837
 2039SOL    HW2 7017   5.886   6.544   2.737
 2040SOL     OW 7018   1.737   2.675   0.698
 2040SOL    HW1 7019   1.699   2.680   0.606
 2040SOL    HW2 7020   1.681   2.729   0.761
 2041SOL     OW 7021   2.183   0.526   6.379
 2041SOL    HW1 7022   2.262   0.583   6.361
 2041SOL    HW2 7023   2.116   0.538   6.306
 2042SOL     OW 7024   5.044   0.982   5.455
 2042SOL    HW1 7025   5.106   0.912   5.489
 2042SOL    HW2 7026   5.092   1.069   5.449
 2043SOL     OW 7027   0.077   4.029   1.335
 2043SOL    HW1 7028   7.003   4.047   1.317
 2043SOL    HW2 7029   0.098   3.933   1.317
 2044SOL     OW 7030   4.249   0.360   1.219
 2044SOL    HW1 7031   4.223   0.330   1.311
 2044SOL    HW2 7032   4.229   0.457   1.209
 2045SOL     OW 7033   1.163   6.104   5.755
 2045SOL    HW1 7034   1.216   6.185   5.779
 2045SOL    HW2 7035   1.152   6.045   5.835
 2046SOL     OW 7036   1.058   2.091   4.929
 2046SOL    HW1 7037   1.030   2.103   5.024
 2046SOL    HW2 7038   1.106   2.173   4.898
 2047SOL     OW 7039   0.252   0.358   0.991
 2047SOL    HW1 7040   0.290   0.331   0.903
 2047SOL    HW2 7041   0.218   0.452   0.986
 2048SOL     OW 7042   0.680   1.834   4.642
 2048SOL    HW1 7043   0.682   1.873   4.549
 2048SOL    HW2 7044   0.711   1.903   4.707
 2049SOL     OW 7045   5.119   1.662   5.086
 2049SOL    HW1 7046   5.195   1.726   5.099
 2049SOL    HW2 7047   5.154   1.574   5.054
 2050SOL     OW 7048   0.904   1.469   4.066
 2050SOL    HW1 7049   0.956   1.419   3.997
 2050SOL    HW2 7050   0.875   1.557   4.029
 2051SOL     OW 7051   2.863   6.289   0.369
 2051SOL    HW1 7052   2.876   6.340   0.454
 2051SOL    HW2 7053   2.872   6.351   0.291
 2052SOL     OW 7054   0.954   4.282   6.504
 2052SOL    HW1 7055   0.879   4.293   6.439
 2052SOL    HW2 7056   1.040   4.307   6.460
 2053SOL     OW 7057   0.198   5.674   3.678
 2053SOL    HW1 7058   0.252   5.595   3.707
 2053SOL    HW2 7059   0.159   5.656   3.588
 2054SOL     OW 7060   3.455   3.495   3.677
 2054SOL    HW1 7061   3.357   3.489   3.658
 2054SOL    HW2 7062   3.484   3.591   3.672
 2055SOL     OW 7063   3.081   2.393   5.676
 2055SOL    HW1 7064   3.080   2.355   5.583
 2055SOL    HW2 7065   3.130   2.331   5.737
 2056SOL     OW 7066   4.104   4.701   0.835
 2056SOL    HW1 7067   4.108   4.788   0.785
 2056SOL    HW2 7068   4.034   4.642   0.794
 2057SOL     OW 7069   5.591   2.102   4.295
 2057SOL    HW1 7070   5.604   2.178   4.359
 2057SOL    HW2 7071   5.493   2.078   4.292
 2058SOL     OW 7072   0.018   6.432   2.932
 2058SOL    HW1 7073   6.956   6.415   2.983
 2058SOL    HW2 7074   0.082   6.357   2.949
 2059SOL     OW 7075   1.453   0.620   6.235
 2059SOL    HW1 7076   1.453   0.653   6.140
 2059SOL    HW2 7077   1.500   0.686   6.293
 2060SOL     OW 7078   1.199   3.120   6.388
 2060SOL    HW1 7079   1.263   3.129   6.464
 2060SOL    HW2 7080   1.115   3.078   6.421
 2061SOL     OW 7081   1.624   2.754   1.914
 2061SOL    HW1 7082   1.538   2.803   1.910
 2061SOL    HW2 7083   1.610   2.663   1.954
 2062SOL     OW 7084   0.136   5.243   4.423
 2062SOL    HW1 7085   0.202   5.282   4.486
 2062SOL    HW2 7086   0.091   5.165   4.466
 2063SOL     OW 7087   0.919   0.934   4.565
 2063SOL    HW1 7088   0.843   0.966   4.622
 2063SOL    HW2 7089   0.950   1.009   4.506
 2064SOL     OW 7090   0.840   2.977   3.453
 2064SOL    HW1 7091   0.769   2.922   3.497
 2064SOL    HW2 7092   0.926   2.967   3.502
 2065SOL     OW 7093   4.266   3.194   5.626
 2065SOL    HW1 7094   4.334   3.186   5.553
 2065SOL    HW2 7095   4.211   3.111   5.628
 2066SOL     OW 7096   0.321   3.002   5.525
 2066SOL    HW1 7097   0.287   3.091   5.556
 2066SOL    HW2 7098   0.256   2.931   5.552
 2067SOL     OW 7099   6.548   5.128   1.218
 2067SOL    HW1 7100   6.627   5.098   1.272
 2067SOL    HW2 7101   6.529   5.061   1.147
 2068SOL     OW 7102   4.081   0.640   4.408
 2068SOL    HW1 7103   4.171   0.681   4.394
 2068SOL    HW2 7104   4.013   0.713   4.418
 2069SOL     OW 7105   0.426   2.521   4.092
 2069SOL    HW1 7106   0.523   2.501   4.074
 2069SOL    HW2 7107   0.371   2.439   4.073
 2070SOL     OW 7108   0.726   4.873   0.622
 2070SOL    HW1 7109   0.794   4.808   0.588
 2070SOL    HW2 7110   0.691   4.927   0.545
 2071SOL     OW 7111   0.132   1.365   5.496
 2071SOL    HW1 7112   0.143   1.436   5.565
 2071SOL    HW2 7113   0.164   1.399   5.408
 2072SOL     OW 7114   4.313   4.469   5.394
 2072SOL    HW1 7115   4.259   4.420   5.325
 2072SOL    HW2 7116   4.254   4.535   5.441
 2073SOL     OW 7117   3.203   5.637   6.306
 2073SOL    HW1 7118   3.138   5.711   6.322
 2073SOL    HW2 7119   3.153   5.550   6.300
 2074SOL     OW 7120   0.982   4.092   5.770
 2074SOL    HW1 7121   0.931   4.031   5.830
 2074SOL    HW2 7122   1.078   4.094   5.797
 2075SOL     OW 7123   6.484   1.716   1.258
 2075SOL    HW1 7124   6.554   1.768   1.306
 2075SOL    HW2 7125   6.400   1.714   1.314
 2076SOL     OW 7126   6.075   6.898   4.918
 2076SOL    HW1 7127   6.016   6.908   4.838
 2076SOL    HW2 7128   6.153   6.839   4.895
 2077SOL     OW 7129   6.179   4.770   0.391
 2077SOL    HW1 7130   6.119   4.698   0.357
 2077SOL    HW2 7131   6.161   4.854   0.339
 2078SOL     OW 7132   1.015   3.114   5.627
 2078SOL    HW1 7133   1.041   3.204   5.663
 2078SOL    HW2 7134   1.096   3.054   5.627
 2079SOL     OW 7135   5.196   1.650   2.004
 2079SOL    HW1 7136   5.250   1.634   2.086
 2079SOL    HW2 7137   5.106   1.606   2.014
 2080SOL     OW 7138   2.445   3.100   6.462
 2080SOL    HW1 7139   2.483   3.133   6.376
 2080SOL    HW2 7140   2.405   3.009   6.449
 2081SOL     OW 7141   5.803   5.721   2.466
 2081SOL    HW1 7142   5.901   5.741   2.474
 2081SOL    HW2 7143   5.771   5.744   2.374
 2082SOL     OW 7144   6.655   5.682   3.928
 2082SOL    HW1 7145   6.705   5.650   3.848
 2082SOL    HW2 7146   6.603   5.606   3.968
 2083SOL     OW 7147   0.897   6.546   3.698
 2083SOL    HW1 7148   0.880   6.495   3.782
 2083SOL    HW2 7149   0.810   6.568   3.654
 2084SOL     OW 7150   6.034   2.004   1.370
 2084SOL    HW1 7151   6.037   1.955   1.456
 2084SOL    HW2 7152   6.033   1.939   1.294
 2085SOL     OW 7153   5.716   5.971   1.104
 2085SOL    HW1 7154   5.777   6.048   1.088
 2085SOL    HW2 7155   5.770   5.888   1.118
 2086SOL     OW 7156   4.916   0.986   6.739
 2086SOL    HW1 7157   4.837   0.932   6.770
 2086SOL    HW2 7158   4.893   1.083   6.742
 2087SOL     OW 7159   4.346   1.410   6.799
 2087SOL    HW1 7160   4.291   1.480   6.845
 2087SOL    HW2 7161   4.373   1.444   6.708
 2088SOL     OW 7162   0.842   5.608   6.342
 2088SOL    HW1 7163   0.775   5.679   6.368
 2088SOL    HW2 7164   0.894   5.640   6.263
 2089SOL     OW 7165   2.458   3.964   0.222
 2089SOL    HW1 7166   2.533   3.934   0.163
 2089SOL    HW2 7167   2.374   3.918   0.195
 2090SOL     OW 7168   5.165   2.822   5.855
 2090SOL    HW1 7169   5.213   2.802   5.770
 2090SOL    HW2 7170   5.107   2.902   5.842
 2091SOL     OW 7171   5.584   6.373   1.774
 2091SOL    HW1 7172   5.604   6.461   1.730
 2091SOL    HW2 7173   5.632   6.300   1.725
 2092SOL     OW 7174   4.246   3.515   1.819
 2092SOL    HW1 7175   4.179   3.568   1.767
 2092SOL    HW2 7176   4.307   3.468   1.756
 2093SOL     OW 7177   3.366   0.973   1.958
 2093SOL    HW1 7178   3.298   0.899   1.951
 2093SOL    HW2 7179   3.417   0.964   2.043
 2094SOL     OW 7180   4.977   2.206   6.350
 2094SOL    HW1 7181   4.943   2.277   6.287
 2094SOL    HW2 7182   5.027   2.137   6.297
 2095SOL     OW 7183   5.423   5.811   4.011
 2095SOL    HW1 7184   5.490   5.885   4.013
 2095SOL    HW2 7185   5.340   5.842   3.964
 2096SOL     OW 7186   5.098   6.956   2.309
 2096SOL    HW1 7187   5.006   6.930   2.338
 2096SOL    HW2 7188   5.123   0.019   2.354
 2097SOL     OW 7189   0.985   5.599   6.607
 2097SOL    HW1 7190   1.068   5.645   6.573
 2097SOL    HW2 7191   0.920   5.589   6.533
 2098SOL     OW 7192   3.106   5.886   3.605
 2098SOL    HW1 7193   3.135   5.806   3.554
 2098SOL    HW2 7194   3.094   5.862   3.701
 2099SOL     OW 7195   4.965   1.842   5.975
 2099SOL    HW1 7196   4.975   1.938   5.948
 2099SOL    HW2 7197   4.879   1.829   6.024
 2100SOL     OW 7198   5.011   0.020   1.295
 2100SOL    HW1 7199   4.992   0.094   1.360
 2100SOL    HW2 7200   5.050   0.059   1.211
 2101SOL     OW 7201   0.621   7.023   2.351
 2101SOL    HW1 7202   0.561   6.993   2.425
 2101SOL    HW2 7203   0.715   6.997   2.372
 2102SOL     OW 7204   3.515   2.430   0.726
 2102SOL    HW1 7205   3.614   2.437   0.709
 2102SOL    HW2 7206   3.487   2.503   0.788
 2103SOL     OW 7207   2.911   5.894   0.574
 2103SOL    HW1 7208   2.971   5.973   0.585
 2103SOL    HW2 7209   2.966   5.813   0.553
 2104SOL     OW 7210   2.004   4.470   3.025
 2104SOL    HW1 7211   1.920   4.491   3.076
 2104SOL    HW2 7212   1.983   4.461   2.928
 2105SOL     OW 7213   6.120   5.339   5.164
 2105SOL    HW1 7214   6.137   5.243   5.186
 2105SOL    HW2 7215   6.201   5.377   5.120
 2106SOL     OW 7216   4.240   3.193   0.643
 2106SOL    HW1 7217   4.141   3.205   0.651
 2106SOL    HW2 7218   4.284   3.282   0.643
 2107SOL     OW 7219   5.054   4.619   5.590
 2107SOL    HW1 7220   5.090   4.557   5.520
 2107SOL    HW2 7221   5.099   4.599   5.677
 2108SOL     OW 7222   5.281   0.374   5.602
 2108SOL    HW1 7223   5.211   0.444   5.588
 2108SOL    HW2 7224   5.370   0.418   5.616
 2109SOL     OW 7225   2.645   6.711   2.595
 2109SOL    HW1 7226   2.693   6.674   2.674
 2109SOL    HW2 7227   2.640   6.642   2.522
 2110SOL     OW 7228   3.915   6.867   0.129
 2110SOL    HW1 7229   4.012   6.891   0.133
 2110SOL    HW2 7230   3.863   6.928   0.188
 2111SOL     OW 7231   1.142   2.672   5.870
 2111SOL    HW1 7232   1.231   2.688   5.826
 2111SOL    HW2 7233   1.118   2.575   5.862
 2112SOL     OW 7234   0.545   0.878   6.758
 2112SOL    HW1 7235   0.569   0.839   6.847
 2112SOL    HW2 7236   0.453   0.917   6.762
 2113SOL     OW 7237   0.509   0.832   4.598
 2113SOL    HW1 7238   0.506   0.918   4.648
 2113SOL    HW2 7239   0.416   0.800   4.580
 2114SOL     OW 7240   1.114   1.415   6.111
 2114SOL    HW1 7241   1.156   1.420   6.021
 2114SOL    HW2 7242   1.128   1.323   6.150
 2115SOL     OW 7243   6.318   6.359   2.870
 2115SOL    HW1 7244   6.366   6.333   2.954
 2115SOL    HW2 7245   6.222   6.379   2.890
 2116SOL     OW 7246   0.890   2.126   0.273
 2116SOL    HW1 7247   0.815   2.186   0.301
 2116SOL    HW2 7248   0.854   2.049   0.221
 2117SOL     OW 7249   6.360   1.532   1.901
 2117SOL    HW1 7250   6.379   1.483   1.816
 2117SOL    HW2 7251   6.425   1.607   1.912
 2118SOL     OW 7252   6.867   2.836   2.186
 2118SOL    HW1 7253   6.797   2.789   2.131
 2118SOL    HW2 7254   6.895   2.777   2.261
 2119SOL     OW 7255   1.571   1.208   0.124
 2119SOL    HW1 7256   1.560   1.205   0.224
 2119SOL    HW2 7257   1.653   1.157   0.098
 2120SOL     OW 7258   5.683   1.089   1.207
 2120SOL    HW1 7259   5.610   1.022   1.199
 2120SOL    HW2 7260   5.700   1.109   1.303
 2121SOL     OW 7261   1.407   0.412   6.988
 2121SOL    HW1 7262   1.396   0.499   0.014
 2121SOL    HW2 7263   1.342   0.345   0.000
 2122SOL     OW 7264   6.144   1.116   3.995
 2122SOL    HW1 7265   6.113   1.205   4.031
 2122SOL    HW2 7266   6.083   1.044   4.028
 2123SOL     OW 7267   1.245   5.218   2.751
 2123SOL    HW1 7268   1.230   5.133   2.802
 2123SOL    HW2 7269   1.262   5.293   2.816
 2124SOL     OW 7270   3.984   3.707   6.151
 2124SOL    HW1 7271   3.906   3.661   6.192
 2124SOL    HW2 7272   4.000   3.671   6.060
 2125SOL     OW 7273   2.037   6.118   3.940
 2125SOL    HW1 7274   2.030   6.037   3.882
 2125SOL    HW2 7275   2.134   6.136   3.961
 2126SOL     OW 7276   2.952   4.502   0.089
 2126SOL    HW1 7277   3.001   4.580   0.129
 2126SOL    HW2 7278   3.013   4.423   0.085
 2127SOL     OW 7279   0.774   2.395   4.481
 2127SOL    HW1 7280   0.870   2.369   4.491
 2127SOL    HW2 7281   0.735   2.349   4.401
 2128SOL     OW 7282   5.066   3.029   1.250
 2128SOL    HW1 7283   5.118   2.985   1.323
 2128SOL    HW2 7284   4.971   2.998   1.253
 2129SOL     OW 7285   5.384   4.047   4.094
 2129SOL    HW1 7286   5.408   4.009   4.005
 2129SOL    HW2 7287   5.351   3.973   4.154
 2130SOL     OW 7288   2.897   1.066   1.655
 2130SOL    HW1 7289   2.908   1.158   1.694
 2130SOL    HW2 7290   2.806   1.031   1.678
 2131SOL     OW 7291   5.459   0.697   4.698
 2131SOL    HW1 7292   5.404   0.635   4.754
 2131SOL    HW2 7293   5.412   0.717   4.613
 2132SOL     OW 7294   1.973   2.576   0.842
 2132SOL    HW1 7295   1.906   2.605   0.774
 2132SOL    HW2 7296   1.965   2.477   0.856
 2133SOL     OW 7297   3.165   2.127   1.621
 2133SOL    HW1 7298   3.172   2.031   1.648
 2133SOL    HW2 7299   3.181   2.185   1.700
 2134SOL     OW 7300   1.860   6.014   4.544
 2134SOL    HW1 7301   1.780   5.993   4.489
 2134SOL    HW2 7302   1.844   6.099   4.595
 2135SOL     OW 7303   1.269   0.687   4.353
 2135SOL    HW1 7304   1.190   0.666   4.296
 2135SOL    HW2 7305   1.317   0.603   4.377
 2136SOL     OW 7306   0.739   4.264   3.609
 2136SOL    HW1 7307   0.763   4.216   3.693
 2136SOL    HW2 7308   0.649   4.306   3.619
 2137SOL     OW 7309   1.137   0.840   5.230
 2137SOL    HW1 7310   1.113   0.753   5.274
 2137SOL    HW2 7311   1.053   0.892   5.212
 2138SOL     OW 7312   0.430   2.860   0.529
 2138SOL    HW1 7313   0.383   2.829   0.612
 2138SOL    HW2 7314   0.526   2.877   0.551
 2139SOL     OW 7315   2.729   1.518   4.993
 2139SOL    HW1 7316   2.638   1.486   4.967
 2139SOL    HW2 7317   2.791   1.510   4.915
 2140SOL     OW 7318   1.831   5.651   3.273
 2140SOL    HW1 7319   1.791   5.698   3.193
 2140SOL    HW2 7320   1.925   5.626   3.253
 2141SOL     OW 7321   5.949   1.352   0.173
 2141SOL    HW1 7322   5.932   1.293   0.252
 2141SOL    HW2 7323   5.976   1.297   0.095
 2142SOL     OW 7324   2.795   1.836   3.094
 2142SOL    HW1 7325   2.768   1.784   3.175
 2142SOL    HW2 7326   2.830   1.773   3.024
 2143SOL     OW 7327   3.531   6.958   0.412
 2143SOL    HW1 7328   3.494   6.964   0.504
 2143SOL    HW2 7329   3.607   7.023   0.402
 2144SOL     OW 7330   0.069   1.025   3.132
 2144SOL    HW1 7331   0.059   0.927   3.116
 2144SOL    HW2 7332   0.079   1.072   3.045
 2145SOL     OW 7333   3.633   5.798   2.739
 2145SOL    HW1 7334   3.691   5.793   2.820
 2145SOL    HW2 7335   3.645   5.887   2.695
 2146SOL     OW 7336   3.498   3.055   1.755
 2146SOL    HW1 7337   3.546   3.138   1.783
 2146SOL    HW2 7338   3.533   2.977   1.807
 2147SOL     OW 7339   0.258   0.765   5.402
 2147SOL    HW1 7340   0.304   0.851   5.381
 2147SOL    HW2 7341   0.207   0.775   5.487
 2148SOL     OW 7342   4.911   3.330   3.039
 2148SOL    HW1 7343   5.009   3.342   3.023
 2148SOL    HW2 7344   4.861   3.354   2.955
 2149SOL     OW 7345   3.180   0.920   3.142
 2149SOL    HW1 7346   3.167   1.014   3.112
 2149SOL    HW2 7347   3.278   0.900   3.147
 2150SOL     OW 7348   3.942   1.517   2.656
 2150SOL    HW1 7349   3.905   1.601   2.615
 2150SOL    HW2 7350   3.878   1.483   2.725
 2151SOL     OW 7351   3.834   2.982   5.723
 2151SOL    HW1 7352   3.863   3.031   5.641
 2151SOL    HW2 7353   3.767   2.913   5.698
 2152SOL     OW 7354   6.494   5.955   1.862
 2152SOL    HW1 7355   6.493   6.046   1.820
 2152SOL    HW2 7356   6.417   5.902   1.827
 2153SOL     OW 7357   4.921   3.041   3.160
 2153SOL    HW1 7358   4.854   3.037   3.234
 2153SOL    HW2 7359   4.949   3.136   3.145
 2154SOL     OW 7360   4.659   6.358   4.905
 2154SOL    HW1 7361   4.600   6.365   4.824
 2154SOL    HW2 7362   4.690   6.264   4.915
 2155SOL     OW 7363   6.979   3.294   0.166
 2155SOL    HW1 7364   0.046   3.250   0.160
 2155SOL    HW2 7365   6.982   3.368   0.233
 2156SOL     OW 7366   1.090   1.180   1.545
 2156SOL    HW1 7367   1.173   1.236   1.556
 2156SOL    HW2 7368   1.116   1.088   1.513
 2157SOL     OW 7369   0.749   1.459   4.473
 2157SOL    HW1 7370   0.770   1.441   4.569
 2157SOL    HW2 7371   0.822   1.422   4.416
 2158SOL     OW 7372   4.355   6.530   2.488
 2158SOL    HW1 7373   4.424   6.548   2.557
 2158SOL    HW2 7374   4.392   6.465   2.421
 2159SOL     OW 7375   2.019   5.850   4.242
 2159SOL    HW1 7376   2.018   5.942   4.281
 2159SOL    HW2 7377   1.973   5.787   4.304
 2160SOL     OW 7378   2.833   3.614   0.252
 2160SOL    HW1 7379   2.852   3.523   0.289
 2160SOL    HW2 7380   2.825   3.609   0.153
 2161SOL     OW 7381   5.477   2.283   3.773
 2161SOL    HW1 7382   5.485   2.309   3.869
 2161SOL    HW2 7383   5.496   2.185   3.764
 2162SOL     OW 7384   0.698   1.404   0.017
 2162SOL    HW1 7385   0.692   1.425   0.114
 2162SOL    HW2 7386   0.677   1.485   6.986
 2163SOL     OW 7387   2.289   1.987   0.070
 2163SOL    HW1 7388   2.222   2.045   0.116
 2163SOL    HW2 7389   2.376   2.036   0.061
 2164SOL     OW 7390   1.240   6.796   1.820
 2164SOL    HW1 7391   1.291   6.735   1.881
 2164SOL    HW2 7392   1.143   6.774   1.823
 2165SOL     OW 7393   2.818   6.490   1.517
 2165SOL    HW1 7394   2.890   6.437   1.473
 2165SOL    HW2 7395   2.859   6.570   1.562
 2166SOL     OW 7396   6.340   1.893   6.819
 2166SOL    HW1 7397   6.417   1.940   6.862
 2166SOL    HW2 7398   6.334   1.920   6.722
 2167SOL     OW 7399   2.539   0.158   1.533
 2167SOL    HW1 7400   2.477   0.226   1.571
 2167SOL    HW2 7401   2.588   0.197   1.455
 2168SOL     OW 7402   6.272   5.622   4.785
 2168SOL    HW1 7403   6.240   5.617   4.879
 2168SOL    HW2 7404   6.296   5.717   4.763
 2169SOL     OW 7405   5.031   2.065   4.829
 2169SOL    HW1 7406   4.985   2.029   4.910
 2169SOL    HW2 7407   4.988   2.028   4.746
 2170SOL     OW 7408   5.147   4.789   4.286
 2170SOL    HW1 7409   5.068   4.749   4.332
 2170SOL    HW2 7410   5.126   4.882   4.259
 2171SOL     OW 7411   6.819   2.250   0.205
 2171SOL    HW1 7412   6.830   2.215   0.299
 2171SOL    HW2 7413   6.902   2.230   0.153
 2172SOL     OW 7414   3.166   1.058   0.689
 2172SOL    HW1 7415   3.087   1.004   0.719
 2172SOL    HW2 7416   3.186   1.037   0.594
 2173SOL     OW 7417   5.017   1.094   5.055
 2173SOL    HW1 7418   5.042   1.174   5.109
 2173SOL    HW2 7419   4.928   1.109   5.013
 2174SOL     OW 7420   1.278   5.138   4.752
 2174SOL    HW1 7421   1.205   5.109   4.689
 2174SOL    HW2 7422   1.320   5.222   4.718
 2175SOL     OW 7423   2.621   6.309   4.918
 2175SOL    HW1 7424   2.644   6.218   4.952
 2175SOL    HW2 7425   2.523   6.326   4.929
 2176SOL     OW 7426   1.917   2.140   2.135
 2176SOL    HW1 7427   1.979   2.062   2.142
 2176SOL    HW2 7428   1.951   2.204   2.067
 2177SOL     OW 7429   6.579   1.416   1.647
 2177SOL    HW1 7430   6.487   1.408   1.684
 2177SOL    HW2 7431   6.629   1.488   1.695
 2178SOL     OW 7432   0.508   5.102   0.485
 2178SOL    HW1 7433   0.465   5.181   0.440
 2178SOL    HW2 7434   0.586   5.072   0.430
 2179SOL     OW 7435   0.548   4.610   3.479
 2179SOL    HW1 7436   0.505   4.553   3.548
 2179SOL    HW2 7437   0.553   4.704   3.511
 2180SOL     OW 7438   4.039   3.233   2.160
 2180SOL    HW1 7439   4.094   3.236   2.243
 2180SOL    HW2 7440   4.003   3.141   2.147
 2181SOL     OW 7441   4.499   6.529   6.914
 2181SOL    HW1 7442   4.481   6.621   6.881
 2181SOL    HW2 7443   4.428   6.501   6.979
 2182SOL     OW 7444   5.942   2.050   0.555
 2182SOL    HW1 7445   5.977   1.962   0.523
 2182SOL    HW2 7446   5.975   2.068   0.647
 2183SOL     OW 7447   3.004   3.011   0.841
 2183SOL    HW1 7448   3.025   2.957   0.760
 2183SOL    HW2 7449   2.910   3.045   0.836
 2184SOL     OW 7450   4.288   3.101   6.236
 2184SOL    HW1 7451   4.385   3.096   6.260
 2184SOL    HW2 7452   4.251   3.008   6.228
 2185SOL     OW 7453   1.551   1.302   1.008
 2185SOL    HW1 7454   1.583   1.389   1.046
 2185SOL    HW2 7455   1.551   1.307   0.908
 2186SOL     OW 7456   6.973   5.453   2.417
 2186SOL    HW1 7457   0.009   5.532   2.400
 2186SOL    HW2 7458   6.877   5.483   2.420
 2187SOL     OW 7459   0.103   1.619   6.215
 2187SOL    HW1 7460   0.055   1.682   6.276
 2187SOL    HW2 7461   0.157   1.555   6.270
 2188SOL     OW 7462   5.354   0.737   2.715
 2188SOL    HW1 7463   5.274   0.782   2.675
 2188SOL    HW2 7464   5.369   0.773   2.808
 2189SOL     OW 7465   2.587   0.357   6.793
 2189SOL    HW1 7466   2.509   0.375   6.734
 2189SOL    HW2 7467   2.600   0.434   6.855
 2190SOL     OW 7468   5.086   1.602   1.452
 2190SOL    HW1 7469   5.130   1.520   1.488
 2190SOL    HW2 7470   5.156   1.667   1.423
 2191SOL     OW 7471   2.958   1.518   0.325
 2191SOL    HW1 7472   2.926   1.494   0.416
 2191SOL    HW2 7473   3.049   1.480   0.310
 2192SOL     OW 7474   4.023   5.375   4.061
 2192SOL    HW1 7475   4.040   5.406   4.154
 2192SOL    HW2 7476   3.988   5.281   4.063
 2193SOL     OW 7477   0.281   5.094   5.921
 2193SOL    HW1 7478   0.200   5.072   5.975
 2193SOL    HW2 7479   0.312   5.013   5.873
 2194SOL     OW 7480   3.110   0.297   1.163
 2194SOL    HW1 7481   3.089   0.222   1.226
 2194SOL    HW2 7482   3.047   0.373   1.179
 2195SOL     OW 7483   1.583   4.514   2.821
 2195SOL    HW1 7484   1.552   4.609   2.814
 2195SOL    HW2 7485   1.505   4.453   2.805
 2196SOL     OW 7486   4.100   3.540   0.186
 2196SOL    HW1 7487   4.045   3.607   0.137
 2196SOL    HW2 7488   4.132   3.579   0.272
 2197SOL     OW 7489   4.291   4.128   0.466
 2197SOL    HW1 7490   4.202   4.163   0.438
 2197SOL    HW2 7491   4.326   4.182   0.543
 2198SOL     OW 7492   5.990   4.597   0.276
 2198SOL    HW1 7493   5.937   4.514   0.295
 2198SOL    HW2 7494   5.951   4.644   0.197
 2199SOL     OW 7495   4.653   0.626   2.231
 2199SOL    HW1 7496   4.660   0.626   2.132
 2199SOL    HW2 7497   4.629   0.534   2.263
 2200SOL     OW 7498   2.654   0.075   4.244
 2200SOL    HW1 7499   2.693   0.165   4.265
 2200SOL    HW2 7500   2.662   0.056   4.146
 2201SOL     OW 7501   4.801   4.294   1.892
 2201SOL    HW1 7502   4.714   4.276   1.937
 2201SOL    HW2 7503   4.842   4.377   1.931
 2202SOL     OW 7504   5.078   6.043   3.627
 2202SOL    HW1 7505   5.007   5.973   3.642
 2202SOL    HW2 7506   5.129   6.022   3.544
 2203SOL     OW 7507   3.347   2.006   2.843
 2203SOL    HW1 7508   3.442   2.025   2.869
 2203SOL    HW2 7509   3.326   2.053   2.758
 2204SOL     OW 7510   2.933   2.654   0.791
 2204SOL    HW1 7511   2.987   2.583   0.836
 2204SOL    HW2 7512   2.986   2.695   0.717
 2205SOL     OW 7513   2.555   0.278   0.130
 2205SOL    HW1 7514   2.480   0.235   0.080
 2205SOL    HW2 7515   2.583   0.362   0.084
 2206SOL     OW 7516   2.031   3.235   6.947
 2206SOL    HW1 7517   2.050   3.191   0.012
 2206SOL    HW2 7518   1.978   3.173   6.889
 2207SOL     OW 7519   0.695   4.075   5.237
 2207SOL    HW1 7520   0.747   3.990   5.243
 2207SOL    HW2 7521   0.733   4.142   5.302
 2208SOL     OW 7522   0.263   4.153   1.537
 2208SOL    HW1 7523   0.165   4.142   1.517
 2208SOL    HW2 7524   0.292   4.244   1.508
 2209SOL     OW 7525   0.994   5.865   1.053
 2209SOL    HW1 7526   1.046   5.872   0.968
 2209SOL    HW2 7527   1.028   5.788   1.107
 2210SOL     OW 7528   1.222   5.604   4.104
 2210SOL    HW1 7529   1.230   5.665   4.183
 2210SOL    HW2 7530   1.217   5.509   4.136
 2211SOL     OW 7531   6.702   1.218   5.828
 2211SOL    HW1 7532   6.749   1.239   5.913
 2211SOL    HW2 7533   6.691   1.302   5.774
 2212SOL     OW 7534   1.748   6.942   6.360
 2212SOL    HW1 7535   1.651   6.957   6.338
 2212SOL    HW2 7536   1.773   6.997   6.440
 2213SOL     OW 7537   3.050   1.142   3.440
 2213SOL    HW1 7538   3.146   1.122   3.424
 2213SOL    HW2 7539   3.024   1.225   3.391
 2214SOL     OW 7540   4.638   0.141   5.155
 2214SOL    HW1 7541   4.641   0.063   5.092
 2214SOL    HW2 7542   4.552   0.139   5.206
 2215SOL     OW 7543   5.613   3.185   4.823
 2215SOL    HW1 7544   5.687   3.245   4.793
 2215SOL    HW2 7545   5.649   3.093   4.840
 2216SOL     OW 7546   2.304   0.375   1.561
 2216SOL    HW1 7547   2.274   0.399   1.653
 2216SOL    HW2 7548   2.257   0.291   1.531
 2217SOL     OW 7549   4.541   0.859   1.860
 2217SOL    HW1 7550   4.445   0.865   1.832
 2217SOL    HW2 7551   4.582   0.950   1.857
 2218SOL     OW 7552   0.974   6.606   2.055
 2218SOL    HW1 7553   0.952   6.696   2.093
 2218SOL    HW2 7554   1.042   6.561   2.113
 2219SOL     OW 7555   1.214   2.001   2.833
 2219SOL    HW1 7556   1.194   2.096   2.807
 2219SOL    HW2 7557   1.195   1.989   2.931
 2220SOL     OW 7558   0.579   0.438   0.935
 2220SOL    HW1 7559   0.611   0.351   0.973
 2220SOL    HW2 7560   0.656   0.485   0.891
 2221SOL     OW 7561   6.862   1.455   0.477
 2221SOL    HW1 7562   6.816   1.520   0.415
 2221SOL    HW2 7563   6.961   1.466   0.468
 2222SOL     OW 7564   5.610   6.083   3.046
 2222SOL    HW1 7565   5.576   5.995   3.016
 2222SOL    HW2 7566   5.633   6.080   3.144
 2223SOL     OW 7567   5.779   4.666   1.721
 2223SOL    HW1 7568   5.811   4.708   1.806
 2223SOL    HW2 7569   5.682   4.687   1.708
 2224SOL     OW 7570   0.758   4.920   2.067
 2224SOL    HW1 7571   0.706   4.948   2.147
 2224SOL    HW2 7572   0.853   4.948   2.078
 2225SOL     OW 7573   0.514   4.156   0.808
 2225SOL    HW1 7574   0.422   4.184   0.837
 2225SOL    HW2 7575   0.523   4.170   0.709
 2226SOL     OW 7576   4.071   3.963   1.393
 2226SOL    HW1 7577   4.132   4.025   1.344
 2226SOL    HW2 7578   4.123   3.908   1.458
 2227SOL     OW 7579   1.076   3.225   4.111
 2227SOL    HW1 7580   0.999   3.163   4.096
 2227SOL    HW2 7581   1.074   3.298   4.043
 2228SOL     OW 7582   2.749   4.996   4.808
 2228SOL    HW1 7583   2.816   5.043   4.751
 2228SOL    HW2 7584   2.659   5.003   4.765
 2229SOL     OW 7585   5.189   0.523   3.153
 2229SOL    HW1 7586   5.166   0.556   3.061
 2229SOL    HW2 7587   5.255   0.448   3.145
 2230SOL     OW 7588   2.362   5.478   0.735
 2230SOL    HW1 7589   2.450   5.524   0.739
 2230SOL    HW2 7590   2.376   5.379   0.739
 2231SOL     OW 7591   2.820   6.247   1.184
 2231SOL    HW1 7592   2.843   6.299   1.101
 2231SOL    HW2 7593   2.721   6.245   1.196
 2232SOL     OW 7594   6.295   2.825   3.557
 2232SOL    HW1 7595   6.250   2.911   3.580
 2232SOL    HW2 7596   6.230   2.749   3.570
 2233SOL     OW 7597   3.050   1.621   6.936
 2233SOL    HW1 7598   3.112   1.655   7.007
 2233SOL    HW2 7599   3.053   1.682   6.857
 2234SOL     OW 7600   2.659   2.197   0.825
 2234SOL    HW1 7601   2.717   2.169   0.902
 2234SOL    HW2 7602   2.684   2.289   0.797
 2235SOL     OW 7603   2.171   0.292   1.086
 2235SOL    HW1 7604   2.083   0.295   1.038
 2235SOL    HW2 7605   2.183   0.377   1.137
 2236SOL     OW 7606   6.899   4.136   7.010
 2236SOL    HW1 7607   6.938   4.165   0.075
 2236SOL    HW2 7608   6.843   4.210   6.972
 2237SOL     OW 7609   6.536   2.431   4.202
 2237SOL    HW1 7610   6.585   2.509   4.239
 2237SOL    HW2 7611   6.470   2.462   4.133
 2238SOL     OW 7612   0.203   5.912   1.924
 2238SOL    HW1 7613   0.117   5.956   1.897
 2238SOL    HW2 7614   0.183   5.828   1.974
 2239SOL     OW 7615   5.433   5.502   3.090
 2239SOL    HW1 7616   5.520   5.542   3.060
 2239SOL    HW2 7617   5.360   5.533   3.029
 2240SOL     OW 7618   5.712   4.007   1.988
 2240SOL    HW1 7619   5.772   3.971   1.916
 2240SOL    HW2 7620   5.616   3.994   1.962
 2241SOL     OW 7621   0.746   6.702   2.341
 2241SOL    HW1 7622   0.760   6.731   2.246
 2241SOL    HW2 7623   0.791   6.766   2.403
 2242SOL     OW 7624   4.783   2.459   2.469
 2242SOL    HW1 7625   4.736   2.391   2.413
 2242SOL    HW2 7626   4.717   2.529   2.498
 2243SOL     OW 7627   2.958   6.223   5.634
 2243SOL    HW1 7628   2.990   6.178   5.551
 2243SOL    HW2 7629   2.997   6.176   5.714
 2244SOL     OW 7630   2.477   0.996   4.986
 2244SOL    HW1 7631   2.517   1.040   4.906
 2244SOL    HW2 7632   2.516   1.037   5.069
 2245SOL     OW 7633   0.616   1.828   2.093
 2245SOL    HW1 7634   0.589   1.787   2.180
 2245SOL    HW2 7635   0.618   1.758   2.022
 2246SOL     OW 7636   1.091   4.314   4.772
 2246SOL    HW1 7637   1.106   4.359   4.860
 2246SOL    HW2 7638   1.040   4.229   4.786
 2247SOL     OW 7639   1.795   1.515   5.636
 2247SOL    HW1 7640   1.878   1.490   5.685
 2247SOL    HW2 7641   1.782   1.614   5.642
 2248SOL     OW 7642   4.712   4.268   5.168
 2248SOL    HW1 7643   4.755   4.181   5.143
 2248SOL    HW2 7644   4.778   4.342   5.158
 2249SOL     OW 7645   4.661   5.323   4.503
 2249SOL    HW1 7646   4.637   5.236   4.547
 2249SOL    HW2 7647   4.669   5.394   4.572
 2250SOL     OW 7648   5.359   5.432   0.581
 2250SOL    HW1 7649   5.303   5.485   0.518
 2250SOL    HW2 7650   5.445   5.407   0.536
 2251SOL     OW 7651   0.012   0.827   6.387
 2251SOL    HW1 7652   7.017   0.751   6.449
 2251SOL    HW2 7653   0.108   0.828   6.361
 2252SOL     OW 7654   3.418   1.652   5.591
 2252SOL    HW1 7655   3.504   1.697   5.564
 2252SOL    HW2 7656   3.439   1.571   5.646
 2253SOL     OW 7657   1.317   2.417   5.910
 2253SOL    HW1 7658   1.368   2.334   5.930
 2253SOL    HW2 7659   1.316   2.433   5.811
 2254SOL     OW 7660   1.697   3.982   5.863
 2254SOL    HW1 7661   1.788   3.944   5.881
 2254SOL    HW2 7662   1.628   3.927   5.909
 2255SOL     OW 7663   5.549   2.602   0.829
 2255SOL    HW1 7664   5.496   2.518   0.820
 2255SOL    HW2 7665   5.624   2.587   0.893
 2256SOL     OW 7666   3.291   4.988   1.999
 2256SOL    HW1 7667   3.202   4.993   2.045
 2256SOL    HW2 7668   3.361   4.959   2.065
 2257SOL     OW 7669   2.102   3.589   3.797
 2257SOL    HW1 7670   2.008   3.553   3.800
 2257SOL    HW2 7671   2.154   3.549   3.873
 2258SOL     OW 7672   2.496   5.558   4.967
 2258SOL    HW1 7673   2.435   5.481   4.989
 2258SOL    HW2 7674   2.546   5.538   4.883
 2259SOL     OW 7675   6.071   3.585   6.330
 2259SOL    HW1 7676   6.116   3.657   6.278
 2259SOL    HW2 7677   6.117   3.575   6.419
 2260SOL     OW 7678   4.582   4.139   0.760
 2260SOL    HW1 7679   4.650   4.153   0.832
 2260SOL    HW2 7680   4.612   4.066   0.699
 2261SOL     OW 7681   3.779   6.673   5.387
 2261SOL    HW1 7682   3.821   6.678   5.478
 2261SOL    HW2 7683   3.848   6.689   5.317
 2262SOL     OW 7684   3.556   1.846   3.852
 2262SOL    HW1 7685   3.555   1.861   3.951
 2262SOL    HW2 7686   3.504   1.919   3.807
 2263SOL     OW 7687   6.831   4.071   6.282
 2263SOL    HW1 7688   6.882   4.078   6.368
 2263SOL    HW2 7689   6.842   3.979   6.244
 2264SOL     OW 7690   4.156   3.527   3.911
 2264SOL    HW1 7691   4.170   3.441   3.861
 2264SOL    HW2 7692   4.179   3.604   3.852
 2265SOL     OW 7693   0.153   0.476   2.720
 2265SOL    HW1 7694   0.086   0.402   2.722
 2265SOL    HW2 7695   0.198   0.482   2.809
 2266SOL     OW 7696   6.267   0.174   6.885
 2266SOL    HW1 7697   6.239   0.159   6.980
 2266SOL    HW2 7698   6.293   0.086   6.844
 2267SOL     OW 7699   5.060   1.294   5.351
 2267SOL    HW1 7700   5.087   1.384   5.385
 2267SOL    HW2 7701   5.130   1.260   5.288
 2268SOL     OW 7702   6.185   5.068   0.273
 2268SOL    HW1 7703   6.215   5.162   0.286
 2268SOL    HW2 7704   6.106   5.049   0.331
 2269SOL     OW 7705   0.032   5.587   4.528
 2269SOL    HW1 7706   0.063   5.644   4.451
 2269SOL    HW2 7707   6.955   5.583   4.527
 2270SOL     OW 7708   3.922   3.476   2.112
 2270SOL    HW1 7709   4.000   3.538   2.112
 2270SOL    HW2 7710   3.951   3.385   2.142
 2271SOL     OW 7711   0.052   4.152   3.380
 2271SOL    HW1 7712   6.988   4.124   3.341
 2271SOL    HW2 7713   0.124   4.145   3.310
 2272SOL     OW 7714   4.673   2.239   6.130
 2272SOL    HW1 7715   4.762   2.283   6.141
 2272SOL    HW2 7716   4.651   2.234   6.033
 2273SOL     OW 7717   0.399   1.553   3.901
 2273SOL    HW1 7718   0.437   1.562   3.994
 2273SOL    HW2 7719   0.313   1.603   3.895
 2274SOL     OW 7720   1.485   3.517   3.097
 2274SOL    HW1 7721   1.562   3.495   3.037
 2274SOL    HW2 7722   1.403   3.471   3.065
 2275SOL     OW 7723   5.128   6.778   3.627
 2275SOL    HW1 7724   5.160   6.711   3.694
 2275SOL    HW2 7725   5.141   6.741   3.535
 2276SOL     OW 7726   3.956   5.615   1.718
 2276SOL    HW1 7727   3.935   5.548   1.646
 2276SOL    HW2 7728   3.993   5.698   1.676
 2277SOL     OW 7729   3.078   3.276   0.779
 2277SOL    HW1 7730   3.043   3.197   0.830
 2277SOL    HW2 7731   3.150   3.246   0.717
 2278SOL     OW 7732   5.466   6.426   0.819
 2278SOL    HW1 7733   5.488   6.331   0.845
 2278SOL    HW2 7734   5.409   6.426   0.737
 2279SOL     OW 7735   4.833   4.547   5.073
 2279SOL    HW1 7736   4.910   4.572   5.132
 2279SOL    HW2 7737   4.835   4.605   4.991
 2280SOL     OW 7738   5.320   6.651   6.317
 2280SOL    HW1 7739   5.230   6.676   6.281
 2280SOL    HW2 7740   5.334   6.552   6.307
 2281SOL     OW 7741   2.529   2.545   0.399
 2281SOL    HW1 7742   2.452   2.544   0.463
 2281SOL    HW2 7743   2.612   2.512   0.445
 2282SOL     OW 7744   4.014   5.723   2.262
 2282SOL    HW1 7745   4.054   5.636   2.290
 2282SOL    HW2 7746   3.944   5.707   2.193
 2283SOL     OW 7747   6.937   3.632   2.462
 2283SOL    HW1 7748   6.916   3.534   2.461
 2283SOL    HW2 7749   6.879   3.679   2.396
 2284SOL     OW 7750   2.707   2.301   2.207
 2284SOL    HW1 7751   2.618   2.292   2.161
 2284SOL    HW2 7752   2.779   2.298   2.138
 2285SOL     OW 7753   1.454   4.036   6.633
 2285SOL    HW1 7754   1.370   3.999   6.673
 2285SOL    HW2 7755   1.505   3.962   6.590
 2286SOL     OW 7756   5.572   6.784   4.527
 2286SOL    HW1 7757   5.490   6.764   4.581
 2286SOL    HW2 7758   5.587   6.711   4.460
 2287SOL     OW 7759   2.122   3.017   1.593
 2287SOL    HW1 7760   2.148   2.952   1.665
 2287SOL    HW2 7761   2.154   3.108   1.618
 2288SOL     OW 7762   1.952   6.350   3.822
 2288SOL    HW1 7763   1.950   6.431   3.880
 2288SOL    HW2 7764   1.975   6.270   3.877
 2289SOL     OW 7765   4.437   1.876   0.394
 2289SOL    HW1 7766   4.372   1.940   0.353
 2289SOL    HW2 7767   4.389   1.814   0.456
 2290SOL     OW 7768   3.593   3.418   3.019
 2290SOL    HW1 7769   3.679   3.395   2.974
 2290SOL    HW2 7770   3.565   3.510   2.993
 2291SOL     OW 7771   0.781   2.658   6.648
 2291SOL    HW1 7772   0.749   2.606   6.569
 2291SOL    HW2 7773   0.704   2.703   6.691
 2292SOL     OW 7774   5.367   1.968   2.705
 2292SOL    HW1 7775   5.367   1.871   2.729
 2292SOL    HW2 7776   5.431   2.018   2.764
 2293SOL     OW 7777   0.324   0.448   0.098
 2293SOL    HW1 7778   0.294   0.364   0.145
 2293SOL    HW2 7779   0.282   0.527   0.142
 2294SOL     OW 7780   6.537   0.885   5.372
 2294SOL    HW1 7781   6.459   0.937   5.338
 2294SOL    HW2 7782   6.618   0.945   5.376
 2295SOL     OW 7783   5.876   6.196   1.098
 2295SOL    HW1 7784   5.933   6.264   1.144
 2295SOL    HW2 7785   5.793   6.240   1.064
 2296SOL     OW 7786   3.540   4.908   3.699
 2296SOL    HW1 7787   3.597   4.885   3.620
 2296SOL    HW2 7788   3.595   4.902   3.782
 2297SOL     OW 7789   4.232   3.850   5.534
 2297SOL    HW1 7790   4.291   3.815   5.607
 2297SOL    HW2 7791   4.243   3.949   5.526
 2298SOL     OW 7792   3.560   3.870   4.638
 2298SOL    HW1 7793   3.489   3.823   4.586
 2298SOL    HW2 7794   3.531   3.964   4.657
 2299SOL     OW 7795   6.026   3.191   4.830
 2299SOL    HW1 7796   6.041   3.092   4.818
 2299SOL    HW2 7797   5.987   3.229   4.746
 2300SOL     OW 7798   4.909   6.242   2.523
 2300SOL    HW1 7799   4.902   6.341   2.520
 2300SOL    HW2 7800   5.003   6.214   2.507
 2301SOL     OW 7801   3.858   2.949   4.874
 2301SOL    HW1 7802   3.915   3.031   4.870
 2301SOL    HW2 7803   3.893   2.888   4.945
 2302SOL     OW 7804   5.956   3.346   6.580
 2302SOL    HW1 7805   6.051   3.375   6.571
 2302SOL    HW2 7806   5.902   3.386   6.506
 2303SOL     OW 7807   2.868   2.218   6.995
 2303SOL    HW1 7808   2.929   2.270   0.034
 2303SOL    HW2 7809   2.886   2.120   7.006
 2304SOL     OW 7810   6.084   6.161   2.617
 2304SOL    HW1 7811   6.034   6.103   2.552
 2304SOL    HW2 7812   6.181   6.164   2.593
 2305SOL     OW 7813   3.018   0.222   4.391
 2305SOL    HW1 7814   3.023   0.264   4.300
 2305SOL    HW2 7815   3.104   0.175   4.410
 2306SOL     OW 7816   0.828   4.673   4.608
 2306SOL    HW1 7817   0.811   4.578   4.583
 2306SOL    HW2 7818   0.768   4.699   4.684
 2307SOL     OW 7819   6.398   3.216   5.819
 2307SOL    HW1 7820   6.379   3.294   5.759
 2307SOL    HW2 7821   6.448   3.146   5.767
 2308SOL     OW 7822   1.882   4.799   1.955
 2308SOL    HW1 7823   1.963   4.790   1.897
 2308SOL    HW2 7824   1.800   4.803   1.897
 2309SOL     OW 7825   1.326   0.171   5.414
 2309SOL    HW1 7826   1.416   0.129   5.426
 2309SOL    HW2 7827   1.332   0.269   5.430
 2310SOL     OW 7828   4.473   0.204   1.156
 2310SOL    HW1 7829   4.420   0.289   1.157
 2310SOL    HW2 7830   4.428   0.137   1.098
 2311SOL     OW 7831   3.216   5.304   1.347
 2311SOL    HW1 7832   3.134   5.279   1.399
 2311SOL    HW2 7833   3.251   5.392   1.379
 2312SOL     OW 7834   3.401   5.342   2.051
 2312SOL    HW1 7835   3.348   5.307   1.974
 2312SOL    HW2 7836   3.351   5.415   2.096
 2313SOL     OW 7837   5.218   6.160   1.475
 2313SOL    HW1 7838   5.132   6.110   1.483
 2313SOL    HW2 7839   5.243   6.168   1.378
 2314SOL     OW 7840   1.441   4.857   4.518
 2314SOL    HW1 7841   1.380   4.851   4.597
 2314SOL    HW2 7842   1.460   4.766   4.484
 2315SOL     OW 7843   3.736   2.851   6.646
 2315SOL    HW1 7844   3.813   2.802   6.687
 2315SOL    HW2 7845   3.703   2.801   6.566
 2316SOL     OW 7846   5.498   4.495   2.033
 2316SOL    HW1 7847   5.533   4.506   2.126
 2316SOL    HW2 7848   5.565   4.449   1.976
 2317SOL     OW 7849   0.553   5.413   3.443
 2317SOL    HW1 7850   0.621   5.354   3.486
 2317SOL    HW2 7851   0.490   5.447   3.513
 2318SOL     OW 7852   6.645   0.928   4.047
 2318SOL    HW1 7853   6.591   0.995   3.995
 2318SOL    HW2 7854   6.643   0.840   3.999
 2319SOL     OW 7855   0.809   4.728   3.127
 2319SOL    HW1 7856   0.739   4.790   3.160
 2319SOL    HW2 7857   0.818   4.650   3.189
 2320SOL     OW 7858   6.645   5.135   5.155
 2320SOL    HW1 7859   6.608   5.149   5.063
 2320SOL    HW2 7860   6.578   5.166   5.222
 2321SOL     OW 7861   3.277   5.240   5.274
 2321SOL    HW1 7862   3.184   5.203   5.282
 2321SOL    HW2 7863   3.328   5.223   5.358
 2322SOL     OW 7864   3.484   1.203   5.649
 2322SOL    HW1 7865   3.526   1.227   5.561
 2322SOL    HW2 7866   3.431   1.119   5.638
 2323SOL     OW 7867   5.284   4.232   2.165
 2323SOL    HW1 7868   5.269   4.155   2.102
 2323SOL    HW2 7869   5.351   4.294   2.126
 2324SOL     OW 7870   6.724   4.782   3.652
 2324SOL    HW1 7871   6.638   4.829   3.634
 2324SOL    HW2 7872   6.728   4.756   3.749
 2325SOL     OW 7873   6.768   2.201   0.897
 2325SOL    HW1 7874   6.687   2.187   0.841
 2325SOL    HW2 7875   6.746   2.261   0.974
 2326SOL     OW 7876   1.772   4.498   6.721
 2326SOL    HW1 7877   1.678   4.490   6.687
 2326SOL    HW2 7878   1.771   4.536   6.813
 2327SOL     OW 7879   5.839   1.779   3.681
 2327SOL    HW1 7880   5.822   1.878   3.679
 2327SOL    HW2 7881   5.933   1.761   3.653
 2328SOL     OW 7882   6.147   6.820   3.716
 2328SOL    HW1 7883   6.119   6.734   3.672
 2328SOL    HW2 7884   6.166   6.803   3.812
 2329SOL     OW 7885   6.658   5.924   3.292
 2329SOL    HW1 7886   6.589   5.981   3.336
 2329SOL    HW2 7887   6.749   5.955   3.319
 2330SOL     OW 7888   0.204   3.579   2.169
 2330SOL    HW1 7889   0.132   3.633   2.127
 2330SOL    HW2 7890   0.179   3.557   2.263
 2331SOL     OW 7891   0.667   4.847   5.653
 2331SOL    HW1 7892   0.583   4.819   5.605
 2331SOL    HW2 7893   0.643   4.908   5.728
 2332SOL     OW 7894   5.680   2.450   4.640
 2332SOL    HW1 7895   5.648   2.471   4.732
 2332SOL    HW2 7896   5.742   2.521   4.608
 2333SOL     OW 7897   2.529   4.546   3.607
 2333SOL    HW1 7898   2.538   4.569   3.704
 2333SOL    HW2 7899   2.469   4.467   3.596
 2334SOL     OW 7900   3.306   0.373   0.627
 2334SOL    HW1 7901   3.285   0.346   0.720
 2334SOL    HW2 7902   3.342   0.294   0.577
 2335SOL     OW 7903   4.509   5.301   4.267
 2335SOL    HW1 7904   4.415   5.306   4.235
 2335SOL    HW2 7905   4.515   5.338   4.360
 2336SOL     OW 7906   4.436   2.790   6.006
 2336SOL    HW1 7907   4.462   2.731   6.083
 2336SOL    HW2 7908   4.370   2.742   5.948
 2337SOL     OW 7909   5.587   0.535   3.812
 2337SOL    HW1 7910   5.584   0.435   3.811
 2337SOL    HW2 7911   5.549   0.570   3.897
 2338SOL     OW 7912   1.398   6.875   6.141
 2338SOL    HW1 7913   1.378   6.777   6.148
 2338SOL    HW2 7914   1.495   6.888   6.120
 2339SOL     OW 7915   3.891   4.651   6.153
 2339SOL    HW1 7916   3.838   4.735   6.158
 2339SOL    HW2 7917   3.970   4.657   6.215
 2340SOL     OW 7918   3.607   5.264   4.060
 2340SOL    HW1 7919   3.523   5.318   4.059
 2340SOL    HW2 7920   3.657   5.284   4.145
 2341SOL     OW 7921   6.285   5.220   6.937
 2341SOL    HW1 7922   6.289   5.289   6.864
 2341SOL    HW2 7923   6.298   5.129   6.897
 2342SOL     OW 7924   6.375   0.366   5.249
 2342SOL    HW1 7925   6.465   0.365   5.292
 2342SOL    HW2 7926   6.376   0.307   5.168
 2343SOL     OW 7927   0.713   6.706   0.457
 2343SOL    HW1 7928   0.811   6.689   0.454
 2343SOL    HW2 7929   0.675   6.705   0.365
 2344SOL     OW 7930   2.402   1.974   3.322
 2344SOL    HW1 7931   2.435   1.890   3.365
 2344SOL    HW2 7932   2.402   1.963   3.223
 2345SOL     OW 7933   1.677   1.361   3.786
 2345SOL    HW1 7934   1.708   1.455   3.801
 2345SOL    HW2 7935   1.603   1.361   3.719
 2346SOL     OW 7936   5.039   3.661   5.771
 2346SOL    HW1 7937   5.067   3.732   5.835
 2346SOL    HW2 7938   5.034   3.573   5.818
 2347SOL     OW 7939   1.137   3.493   1.176
 2347SOL    HW1 7940   1.232   3.523   1.166
 2347SOL    HW2 7941   1.075   3.562   1.139
 2348SOL     OW 7942   2.910   5.762   1.422
 2348SOL    HW1 7943   2.832   5.825   1.430
 2348SOL    HW2 7944   2.876   5.668   1.424
 2349SOL     OW 7945   4.818   4.894   5.955
 2349SOL    HW1 7946   4.752   4.839   6.005
 2349SOL    HW2 7947   4.774   4.976   5.918
 2350SOL     OW 7948   2.334   5.762   5.174
 2350SOL    HW1 7949   2.288   5.816   5.104
 2350SOL    HW2 7950   2.431   5.755   5.153
 2351SOL     OW 7951   2.437   5.639   3.488
 2351SOL    HW1 7952   2.433   5.630   3.389
 2351SOL    HW2 7953   2.419   5.551   3.531
 2352SOL     OW 7954   5.834   3.876   2.464
 2352SOL    HW1 7955   5.816   3.923   2.551
 2352SOL    HW2 7956   5.897   3.931   2.409
 2353SOL     OW 7957   3.131   3.544   6.059
 2353SOL    HW1 7958   3.192   3.598   6.001
 2353SOL    HW2 7959   3.185   3.475   6.108
 2354SOL     OW 7960   3.825   2.742   1.607
 2354SOL    HW1 7961   3.753   2.683   1.644
 2354SOL    HW2 7962   3.914   2.703   1.629
 2355SOL     OW 7963   6.511   0.335   1.341
 2355SOL    HW1 7964   6.507   0.253   1.397
 2355SOL    HW2 7965   6.513   0.309   1.244
 2356SOL     OW 7966   2.596   4.906   3.994
 2356SOL    HW1 7967   2.587   4.983   3.930
 2356SOL    HW2 7968   2.580   4.938   4.087
 2357SOL     OW 7969   6.275   4.761   0.661
 2357SOL    HW1 7970   6.254   4.760   0.563
 2357SOL    HW2 7971   6.334   4.683   0.683
 2358SOL     OW 7972   3.500   1.953   5.382
 2358SOL    HW1 7973   3.582   2.001   5.349
 2358SOL    HW2 7974   3.452   1.912   5.304
 2359SOL     OW 7975   2.059   1.443   5.724
 2359SOL    HW1 7976   2.108   1.422   5.809
 2359SOL    HW2 7977   2.120   1.429   5.646
 2360SOL     OW 7978   3.585   4.343   6.830
 2360SOL    HW1 7979   3.559   4.250   6.803
 2360SOL    HW2 7980   3.508   4.388   6.875
 2361SOL     OW 7981   4.525   5.718   1.647
 2361SOL    HW1 7982   4.604   5.677   1.601
 2361SOL    HW2 7983   4.557   5.788   1.711
 2362SOL     OW 7984   4.427   4.968   3.752
 2362SOL    HW1 7985   4.522   4.947   3.729
 2362SOL    HW2 7986   4.369   4.947   3.673
 2363SOL     OW 7987   1.730   3.885   0.372
 2363SOL    HW1 7988   1.676   3.849   0.295
 2363SOL    HW2 7989   1.753   3.981   0.355
 2364SOL     OW 7990   3.560   1.422   2.729
 2364SOL    HW1 7991   3.540   1.520   2.717
 2364SOL    HW2 7992   3.643   1.412   2.783
 2365SOL     OW 7993   4.709   4.212   3.640
 2365SOL    HW1 7994   4.718   4.292   3.581
 2365SOL    HW2 7995   4.770   4.221   3.719
 2366SOL     OW 7996   2.941   4.880   5.009
 2366SOL    HW1 7997   2.863   4.931   4.973
 2366SOL    HW2 7998   2.922   4.782   5.005
 2367SOL     OW 7999   5.879   4.785   6.270
 2367SOL    HW1 8000   5.974   4.811   6.252
 2367SOL    HW2 8001   5.862   4.695   6.231
 2368SOL     OW 8002   5.548   6.993   4.868
 2368SOL    HW1 8003   5.619   7.001   4.938
 2368SOL    HW2 8004   5.591   6.984   4.778
 2369SOL     OW 8005   3.059   1.763   4.426
 2369SOL    HW1 8006   2.972   1.808   4.448
 2369SOL    HW2 8007   3.119   1.828   4.378
 2370SOL     OW 8008   5.969   2.631   1.519
 2370SOL    HW1 8009   5.958   2.551   1.578
 2370SOL    HW2 8010   5.913   2.706   1.556
 2371SOL     OW 8011   0.066   6.208   2.769
 2371SOL    HW1 8012   0.068   6.294   2.819
 2371SOL    HW2 8013   6.994   6.180   2.754
 2372SOL     OW 8014   5.864   6.595   6.651
 2372SOL    HW1 8015   5.952   6.564   6.686
 2372SOL    HW2 8016   5.792   6.534   6.683
 2373SOL     OW 8017   6.761   5.254   6.292
 2373SOL    HW1 8018   6.684   5.202   6.331
 2373SOL    HW2 8019   6.736   5.350   6.285
 2374SOL     OW 8020   6.395   6.134   2.574
 2374SOL    HW1 8021   6.465   6.074   2.534
 2374SOL    HW2 8022   6.369   6.098   2.664
 2375SOL     OW 8023   1.512   0.277   4.136
 2375SOL    HW1 8024   1.464   0.189   4.137
 2375SOL    HW2 8025   1.610   0.261   4.140
 2376SOL     OW 8026   5.142   2.017   3.590
 2376SOL    HW1 8027   5.157   2.076   3.511
 2376SOL    HW2 8028   5.058   2.043   3.636
 2377SOL     OW 8029   4.420   4.462   6.160
 2377SOL    HW1 8030   4.383   4.554   6.145
 2377SOL    HW2 8031   4.393   4.402   6.085
 2378SOL     OW 8032   0.030   1.042   0.612
 2378SOL    HW1 8033   0.116   1.033   0.662
 2378SOL    HW2 8034   6.977   1.013   0.671
 2379SOL     OW 8035   6.651   5.230   1.990
 2379SOL    HW1 8036   6.581   5.230   1.919
 2379SOL    HW2 8037   6.712   5.308   1.978
 2380SOL     OW 8038   4.905   5.537   5.775
 2380SOL    HW1 8039   4.918   5.556   5.872
 2380SOL    HW2 8040   4.994   5.531   5.730
 2381SOL     OW 8041   2.145   4.781   4.509
 2381SOL    HW1 8042   2.060   4.795   4.560
 2381SOL    HW2 8043   2.125   4.730   4.425
 2382SOL     OW 8044   6.996   5.879   2.737
 2382SOL    HW1 8045   7.014   5.818   2.814
 2382SOL    HW2 8046   6.960   5.826   2.660
 2383SOL     OW 8047   5.517   4.908   5.803
 2383SOL    HW1 8048   5.534   4.950   5.892
 2383SOL    HW2 8049   5.523   4.808   5.812
 2384SOL     OW 8050   0.653   1.993   2.729
 2384SOL    HW1 8051   0.636   1.902   2.693
 2384SOL    HW2 8052   0.610   2.002   2.819
 2385SOL     OW 8053   0.490   1.486   0.664
 2385SOL    HW1 8054   0.463   1.390   0.655
 2385SOL    HW2 8055   0.456   1.538   0.586
 2386SOL     OW 8056   6.136   5.804   3.882
 2386SOL    HW1 8057   6.045   5.767   3.899
 2386SOL    HW2 8058   6.176   5.838   3.967
 2387SOL     OW 8059   1.378   1.267   3.856
 2387SOL    HW1 8060   1.353   1.171   3.846
 2387SOL    HW2 8061   1.446   1.292   3.788
 2388SOL     OW 8062   6.495   2.516   5.387
 2388SOL    HW1 8063   6.440   2.508   5.304
 2388SOL    HW2 8064   6.461   2.454   5.457
 2389SOL     OW 8065   4.519   4.618   3.853
 2389SOL    HW1 8066   4.547   4.529   3.889
 2389SOL    HW2 8067   4.600   4.676   3.841
 2390SOL     OW 8068   4.742   3.285   5.757
 2390SOL    HW1 8069   4.682   3.205   5.748
 2390SOL    HW2 8070   4.740   3.317   5.851
 2391SOL     OW 8071   3.171   4.270   5.815
 2391SOL    HW1 8072   3.159   4.179   5.777
 2391SOL    HW2 8073   3.087   4.299   5.861
 2392SOL     OW 8074   4.579   4.461   5.457
 2392SOL    HW1 8075   4.601   4.410   5.540
 2392SOL    HW2 8076   4.480   4.461   5.444
 2393SOL     OW 8077   4.112   4.354   1.092
 2393SOL    HW1 8078   4.024   4.350   1.044
 2393SOL    HW2 8079   4.186   4.355   1.026
 2394SOL     OW 8080   0.269   2.742   4.039
 2394SOL    HW1 8081   0.323   2.816   4.077
 2394SOL    HW2 8082   0.316   2.655   4.053
 2395SOL     OW 8083   0.677   2.626   4.666
 2395SOL    HW1 8084   0.693   2.530   4.644
 2395SOL    HW2 8085   0.754   2.681   4.636
 2396SOL     OW 8086   0.525   0.550   5.275
 2396SOL    HW1 8087   0.441   0.523   5.322
 2396SOL    HW2 8088   0.598   0.486   5.299
 2397SOL     OW 8089   0.243   3.983   5.102
 2397SOL    HW1 8090   0.209   3.979   5.008
 2397SOL    HW2 8091   0.168   4.006   5.164
 2398SOL     OW 8092   3.826   6.255   4.226
 2398SOL    HW1 8093   3.883   6.314   4.169
 2398SOL    HW2 8094   3.873   6.236   4.312
 2399SOL     OW 8095   3.257   2.176   3.754
 2399SOL    HW1 8096   3.290   2.138   3.840
 2399SOL    HW2 8097   3.170   2.222   3.769
 2400SOL     OW 8098   1.383   3.787   0.794
 2400SOL    HW1 8099   1.404   3.695   0.762
 2400SOL    HW2 8100   1.428   3.803   0.882
 2401SOL     OW 8101   2.624   0.373   5.876
 2401SOL    HW1 8102   2.697   0.414   5.821
 2401SOL    HW2 8103   2.662   0.299   5.932
 2402SOL     OW 8104   1.544   4.260   1.831
 2402SOL    HW1 8105   1.629   4.208   1.839
 2402SOL    HW2 8106   1.551   4.325   1.755
 2403SOL     OW 8107   4.004   3.074   3.127
 2403SOL    HW1 8108   4.029   3.020   3.047
 2403SOL    HW2 8109   3.926   3.031   3.174
 2404SOL     OW 8110   5.761   0.843   0.988
 2404SOL    HW1 8111   5.857   0.826   1.012
 2404SOL    HW2 8112   5.754   0.929   0.938
 2405SOL     OW 8113   2.453   3.462   0.797
 2405SOL    HW1 8114   2.373   3.425   0.750
 2405SOL    HW2 8115   2.465   3.558   0.772
 2406SOL     OW 8116   3.003   6.500   4.810
 2406SOL    HW1 8117   3.069   6.525   4.880
 2406SOL    HW2 8118   3.003   6.401   4.798
 2407SOL     OW 8119   2.488   0.916   3.525
 2407SOL    HW1 8120   2.581   0.946   3.504
 2407SOL    HW2 8121   2.425   0.951   3.456
 2408SOL     OW 8122   3.892   6.084   4.994
 2408SOL    HW1 8123   3.959   6.016   4.962
 2408SOL    HW2 8124   3.836   6.043   5.066
 2409SOL     OW 8125   1.414   3.329   0.758
 2409SOL    HW1 8126   1.314   3.333   0.759
 2409SOL    HW2 8127   1.446   3.279   0.839
 2410SOL     OW 8128   0.855   2.911   4.736
 2410SOL    HW1 8129   0.890   2.828   4.693
 2410SOL    HW2 8130   0.930   2.959   4.782
 2411SOL     OW 8131   2.929   2.785   0.083
 2411SOL    HW1 8132   2.989   2.865   0.084
 2411SOL    HW2 8133   2.944   2.734   7.021
 2412SOL     OW 8134   3.810   1.937   6.607
 2412SOL    HW1 8135   3.738   1.981   6.660
 2412SOL    HW2 8136   3.897   1.983   6.625
 2413SOL     OW 8137   0.479   3.267   0.174
 2413SOL    HW1 8138   0.494   3.361   0.204
 2413SOL    HW2 8139   0.560   3.234   0.125
 2414SOL     OW 8140   6.097   2.220   4.857
 2414SOL    HW1 8141   6.048   2.250   4.940
 2414SOL    HW2 8142   6.033   2.217   4.780
 2415SOL     OW 8143   2.800   5.830   0.057
 2415SOL    HW1 8144   2.839   5.920   0.040
 2415SOL    HW2 8145   2.805   5.810   0.155
 2416SOL     OW 8146   0.400   3.442   2.503
 2416SOL    HW1 8147   0.341   3.466   2.426
 2416SOL    HW2 8148   0.491   3.480   2.489
 2417SOL     OW 8149   3.060   2.500   1.677
 2417SOL    HW1 8150   3.021   2.424   1.625
 2417SOL    HW2 8151   3.024   2.499   1.770
 2418SOL     OW 8152   4.936   4.212   6.925
 2418SOL    HW1 8153   4.880   4.141   6.882
 2418SOL    HW2 8154   4.977   4.176   7.009
 2419SOL     OW 8155   2.754   6.768   3.425
 2419SOL    HW1 8156   2.695   6.755   3.505
 2419SOL    HW2 8157   2.837   6.713   3.435
 2420SOL     OW 8158   1.159   4.063   2.933
 2420SOL    HW1 8159   1.092   4.136   2.923
 2420SOL    HW2 8160   1.145   4.017   3.021
 2421SOL     OW 8161   2.833   6.498   4.292
 2421SOL    HW1 8162   2.781   6.569   4.341
 2421SOL    HW2 8163   2.929   6.504   4.318
 2422SOL     OW 8164   4.702   5.762   1.116
 2422SOL    HW1 8165   4.676   5.666   1.101
 2422SOL    HW2 8166   4.771   5.766   1.189
 2423SOL     OW 8167   2.647   5.668   2.859
 2423SOL    HW1 8168   2.652   5.643   2.763
 2423SOL    HW2 8169   2.656   5.586   2.916
 2424SOL     OW 8170   5.703   0.047   6.079
 2424SOL    HW1 8171   5.673   6.979   6.049
 2424SOL    HW2 8172   5.644   0.078   6.154
 2425SOL     OW 8173   5.174   5.591   4.632
 2425SOL    HW1 8174   5.226   5.670   4.602
 2425SOL    HW2 8175   5.219   5.549   4.711
 2426SOL     OW 8176   2.192   3.207   5.632
 2426SOL    HW1 8177   2.245   3.176   5.710
 2426SOL    HW2 8178   2.230   3.167   5.548
 2427SOL     OW 8179   5.411   0.482   6.967
 2427SOL    HW1 8180   5.462   0.398   6.947
 2427SOL    HW2 8181   5.460   0.561   6.930
 2428SOL     OW 8182   1.287   0.728   3.026
 2428SOL    HW1 8183   1.293   0.683   3.115
 2428SOL    HW2 8184   1.354   0.803   3.022
 2429SOL     OW 8185   5.663   5.036   1.716
 2429SOL    HW1 8186   5.602   5.052   1.794
 2429SOL    HW2 8187   5.608   5.023   1.633
 2430SOL     OW 8188   5.880   1.031   6.529
 2430SOL    HW1 8189   5.864   1.128   6.545
 2430SOL    HW2 8190   5.856   0.979   6.610
 2431SOL     OW 8191   0.494   3.142   1.749
 2431SOL    HW1 8192   0.538   3.053   1.767
 2431SOL    HW2 8193   0.396   3.135   1.765
 2432SOL     OW 8194   2.729   5.307   2.027
 2432SOL    HW1 8195   2.705   5.247   1.952
 2432SOL    HW2 8196   2.816   5.279   2.067
 2433SOL     OW 8197   6.340   3.911   5.655
 2433SOL    HW1 8198   6.428   3.878   5.618
 2433SOL    HW2 8199   6.324   4.004   5.623
 2434SOL     OW 8200   4.621   0.509   2.746
 2434SOL    HW1 8201   4.536   0.554   2.773
 2434SOL    HW2 8202   4.693   0.577   2.737
 2435SOL     OW 8203   6.504   6.671   6.860
 2435SOL    HW1 8204   6.540   6.728   6.786
 2435SOL    HW2 8205   6.404   6.676   6.861
 2436SOL     OW 8206   1.899   2.363   1.746
 2436SOL    HW1 8207   1.834   2.430   1.708
 2436SOL    HW2 8208   1.963   2.336   1.675
 2437SOL     OW 8209   0.047   4.265   2.909
 2437SOL    HW1 8210   0.092   4.320   2.979
 2437SOL    HW2 8211   0.031   4.321   2.828
 2438SOL     OW 8212   3.309   1.146   4.675
 2438SOL    HW1 8213   3.363   1.222   4.711
 2438SOL    HW2 8214   3.226   1.181   4.632
 2439SOL     OW 8215   1.664   6.888   1.558
 2439SOL    HW1 8216   1.571   6.853   1.547
 2439SOL    HW2 8217   1.692   6.881   1.654
 2440SOL     OW 8218   5.282   1.190   5.202
 2440SOL    HW1 8219   5.332   1.132   5.266
 2440SOL    HW2 8220   5.346   1.236   5.141
 2441SOL     OW 8221   6.656   0.020   0.290
 2441SOL    HW1 8222   6.668   0.030   0.191
 2441SOL    HW2 8223   6.577   0.073   0.319
 2442SOL     OW 8224   4.827   3.385   1.881
 2442SOL    HW1 8225   4.770   3.343   1.810
 2442SOL    HW2 8226   4.891   3.317   1.917
 2443SOL     OW 8227   1.000   2.744   1.644
 2443SOL    HW1 8228   0.956   2.754   1.734
 2443SOL    HW2 8229   1.044   2.831   1.620
 2444SOL     OW 8230   3.921   5.604   1.981
 2444SOL    HW1 8231   3.830   5.645   1.979
 2444SOL    HW2 8232   3.959   5.602   1.889
 2445SOL     OW 8233   0.150   2.595   1.333
 2445SOL    HW1 8234   0.150   2.504   1.290
 2445SOL    HW2 8235   0.145   2.584   1.432
 2446SOL     OW 8236   1.353   5.065   1.363
 2446SOL    HW1 8237   1.413   5.102   1.291
 2446SOL    HW2 8238   1.408   5.040   1.442
 2447SOL     OW 8239   2.396   6.743   6.974
 2447SOL    HW1 8240   2.375   6.790   0.037
 2447SOL    HW2 8241   2.461   6.669   6.991
 2448SOL     OW 8242   6.506   1.665   4.253
 2448SOL    HW1 8243   6.590   1.704   4.290
 2448SOL    HW2 8244   6.527   1.608   4.174
 2449SOL     OW 8245   1.614   3.936   1.683
 2449SOL    HW1 8246   1.686   3.991   1.725
 2449SOL    HW2 8247   1.536   3.930   1.746
 2450SOL     OW 8248   1.494   7.006   5.867
 2450SOL    HW1 8249   1.396   7.009   5.848
 2450SOL    HW2 8250   1.538   0.066   5.830
 2451SOL     OW 8251   0.897   0.008   4.624
 2451SOL    HW1 8252   0.810   6.984   4.637
 2451SOL    HW2 8253   0.964   6.998   4.691
 2452SOL     OW 8254   2.414   1.970   3.698
 2452SOL    HW1 8255   2.506   1.961   3.734
 2452SOL    HW2 8256   2.387   2.066   3.698
 2453SOL     OW 8257   0.803   1.155   6.568
 2453SOL    HW1 8258   0.813   1.055   6.573
 2453SOL    HW2 8259   0.826   1.195   6.657
 2454SOL     OW 8260   3.228   5.955   1.313
 2454SOL    HW1 8261   3.253   5.996   1.401
 2454SOL    HW2 8262   3.132   5.925   1.317
 2455SOL     OW 8263   4.020   2.943   0.806
 2455SOL    HW1 8264   3.997   2.870   0.742
 2455SOL    HW2 8265   4.037   2.904   0.896
 2456SOL     OW 8266   0.754   4.203   6.335
 2456SOL    HW1 8267   0.677   4.143   6.359
 2456SOL    HW2 8268   0.776   4.191   6.238
 2457SOL     OW 8269   4.560   2.211   4.885
 2457SOL    HW1 8270   4.496   2.276   4.843
 2457SOL    HW2 8271   4.648   2.256   4.899
 2458SOL     OW 8272   1.242   0.860   1.769
 2458SOL    HW1 8273   1.270   0.792   1.836
 2458SOL    HW2 8274   1.298   0.943   1.779
 2459SOL     OW 8275   2.843   6.669   0.630
 2459SOL    HW1 8276   2.816   6.745   0.688
 2459SOL    HW2 8277   2.782   6.665   0.551
 2460SOL     OW 8278   1.693   0.805   4.994
 2460SOL    HW1 8279   1.595   0.828   4.997
 2460SOL    HW2 8280   1.747   0.885   5.020
 2461SOL     OW 8281   4.402   0.841   3.449
 2461SOL    HW1 8282   4.390   0.812   3.544
 2461SOL    HW2 8283   4.378   0.937   3.440
 2462SOL     OW 8284   0.265   3.861   0.934
 2462SOL    HW1 8285   0.266   3.764   0.911
 2462SOL    HW2 8286   0.175   3.886   0.969
 2463SOL     OW 8287   6.596   0.889   6.746
 2463SOL    HW1 8288   6.631   0.801   6.713
 2463SOL    HW2 8289   6.554   0.876   6.836
 2464SOL     OW 8290   0.704   2.397   3.300
 2464SOL    HW1 8291   0.621   2.449   3.278
 2464SOL    HW2 8292   0.784   2.452   3.278
 2465SOL     OW 8293   0.362   5.932   5.633
 2465SOL    HW1 8294   0.397   6.022   5.659
 2465SOL    HW2 8295   0.298   5.943   5.556
 2466SOL     OW 8296   0.857   2.384   2.043
 2466SOL    HW1 8297   0.841   2.470   1.993
 2466SOL    HW2 8298   0.780   2.322   2.027
 2467SOL     OW 8299   5.893   2.105   5.344
 2467SOL    HW1 8300   5.906   2.007   5.360
 2467SOL    HW2 8301   5.821   2.119   5.277
 2468SOL     OW 8302   3.363   6.808   5.580
 2468SOL    HW1 8303   3.440   6.745   5.577
 2468SOL    HW2 8304   3.356   6.848   5.671
 2469SOL     OW 8305   3.460   2.393   5.843
 2469SOL    HW1 8306   3.448   2.486   5.876
 2469SOL    HW2 8307   3.378   2.339   5.863
 2470SOL     OW 8308   3.046   4.670   6.088
 2470SOL    HW1 8309   3.025   4.662   5.991
 2470SOL    HW2 8310   3.001   4.596   6.138
 2471SOL     OW 8311   3.652   5.737   1.920
 2471SOL    HW1 8312   3.605   5.684   1.849
 2471SOL    HW2 8313   3.692   5.819   1.879
 2472SOL     OW 8314   4.751   1.915   4.516
 2472SOL    HW1 8315   4.720   1.821   4.499
 2472SOL    HW2 8316   4.835   1.932   4.465
 2473SOL     OW 8317   0.428   4.459   5.238
 2473SOL    HW1 8318   0.494   4.507   5.181
 2473SOL    HW2 8319   0.470   4.437   5.326
 2474SOL     OW 8320   1.622   5.465   1.648
 2474SOL    HW1 8321   1.581   5.542   1.696
 2474SOL    HW2 8322   1.721   5.471   1.653
 2475SOL     OW 8323   5.035   0.442   0.597
 2475SOL    HW1 8324   5.118   0.497   0.591
 2475SOL    HW2 8325   4.957   0.502   0.616
 2476SOL     OW 8326   5.747   0.525   0.038
 2476SOL    HW1 8327   5.777   0.608   0.086
 2476SOL    HW2 8328   5.651   0.507   0.057
 2477SOL     OW 8329   3.378   0.163   3.271
 2477SOL    HW1 8330   3.318   0.083   3.277
 2477SOL    HW2 8331   3.325   0.246   3.286
 2478SOL     OW 8332   4.500   0.619   3.261
 2478SOL    HW1 8333   4.457   0.698   3.305
 2478SOL    HW2 8334   4.564   0.576   3.325
 2479SOL     OW 8335   0.392   3.803   0.382
 2479SOL    HW1 8336   0.347   3.892   0.387
 2479SOL    HW2 8337   0.491   3.816   0.390
 2480SOL     OW 8338   3.347   2.524   1.374
 2480SOL    HW1 8339   3.414   2.469   1.324
 2480SOL    HW2 8340   3.374   2.531   1.470
 2481SOL     OW 8341   3.274   0.296   0.912
 2481SOL    HW1 8342   3.208   0.275   0.983
 2481SOL    HW2 8343   3.346   0.354   0.949
 2482SOL     OW 8344   5.482   3.307   0.122
 2482SOL    HW1 8345   5.516   3.353   0.204
 2482SOL    HW2 8346   5.523   3.217   0.114
 2483SOL     OW 8347   0.770   2.117   0.912
 2483SOL    HW1 8348   0.717   2.194   0.947
 2483SOL    HW2 8349   0.708   2.044   0.885
 2484SOL     OW 8350   5.467   1.501   1.733
 2484SOL    HW1 8351   5.460   1.595   1.769
 2484SOL    HW2 8352   5.563   1.481   1.713
 2485SOL     OW 8353   5.295   2.571   6.272
 2485SOL    HW1 8354   5.394   2.577   6.261
 2485SOL    HW2 8355   5.256   2.521   6.195
 2486SOL     OW 8356   0.817   3.666   5.359
 2486SOL    HW1 8357   0.737   3.617   5.326
 2486SOL    HW2 8358   0.846   3.733   5.291
 2487SOL     OW 8359   4.571   5.973   0.419
 2487SOL    HW1 8360   4.531   5.952   0.330
 2487SOL    HW2 8361   4.525   5.921   0.490
 2488SOL     OW 8362   6.791   3.917   1.543
 2488SOL    HW1 8363   6.846   3.939   1.462
 2488SOL    HW2 8364   6.782   3.999   1.600
 2489SOL     OW 8365   0.484   6.365   4.337
 2489SOL    HW1 8366   0.468   6.355   4.435
 2489SOL    HW2 8367   0.511   6.277   4.299
 2490SOL     OW 8368   3.160   6.308   2.092
 2490SOL    HW1 8369   3.099   6.353   2.027
 2490SOL    HW2 8370   3.212   6.237   2.044
 2491SOL     OW 8371   4.024   4.544   1.735
 2491SOL    HW1 8372   4.108   4.519   1.785
 2491SOL    HW2 8373   3.998   4.469   1.675
 2492SOL     OW 8374   6.303   4.095   0.999
 2492SOL    HW1 8375   6.336   4.120   1.090
 2492SOL    HW2 8376   6.364   4.026   0.959
 2493SOL     OW 8377   6.782   6.368   1.755
 2493SOL    HW1 8378   6.819   6.426   1.682
 2493SOL    HW2 8379   6.856   6.340   1.816
 2494SOL     OW 8380   5.927   2.920   1.533
 2494SOL    HW1 8381   5.866   2.879   1.601
 2494SOL    HW2 8382   5.883   2.922   1.444
 2495SOL     OW 8383   6.610   5.092   3.898
 2495SOL    HW1 8384   6.670   5.078   3.976
 2495SOL    HW2 8385   6.656   5.151   3.831
 2496SOL     OW 8386   6.563   5.114   6.397
 2496SOL    HW1 8387   6.595   5.092   6.489
 2496SOL    HW2 8388   6.543   5.030   6.347
 2497SOL     OW 8389   0.273   6.922   2.036
 2497SOL    HW1 8390   0.370   6.945   2.031
 2497SOL    HW2 8391   0.222   6.998   2.076
 2498SOL     OW 8392   2.215   2.539   5.653
 2498SOL    HW1 8393   2.254   2.629   5.632
 2498SOL    HW2 8394   2.115   2.544   5.648
 2499SOL     OW 8395   6.456   3.343   1.304
 2499SOL    HW1 8396   6.535   3.344   1.366
 2499SOL    HW2 8397   6.404   3.427   1.315
 2500SOL     OW 8398   2.977   4.072   6.778
 2500SOL    HW1 8399   2.901   4.090   6.715
 2500SOL    HW2 8400   3.039   4.150   6.779
 2501SOL     OW 8401   5.977   5.316   0.296
 2501SOL    HW1 8402   6.050   5.307   0.364
 2501SOL    HW2 8403   5.898   5.361   0.338
 2502SOL     OW 8404   3.038   5.578   4.217
 2502SOL    HW1 8405   3.038   5.591   4.118
 2502SOL    HW2 8406   2.967   5.512   4.242
 2503SOL     OW 8407   2.770   6.987   5.196
 2503SOL    HW1 8408   2.808   6.898   5.168
 2503SOL    HW2 8409   2.832   0.008   5.261
 2504SOL     OW 8410   3.117   5.378   2.359
 2504SOL    HW1 8411   3.069   5.425   2.285
 2504SOL    HW2 8412   3.205   5.422   2.375
 2505SOL     OW 8413   6.578   6.082   3.003
 2505SOL    HW1 8414   6.670   6.102   3.036
 2505SOL    HW2 8415   6.579   5.996   2.952
 2506SOL     OW 8416   5.799   4.880   5.481
 2506SOL    HW1 8417   5.739   4.859   5.404
 2506SOL    HW2 8418   5.893   4.891   5.448
 2507SOL     OW 8419   0.146   2.971   0.587
 2507SOL    HW1 8420   0.057   2.985   0.630
 2507SOL    HW2 8421   0.137   2.907   0.511
 2508SOL     OW 8422   3.623   1.683   4.676
 2508SOL    HW1 8423   3.631   1.591   4.715
 2508SOL    HW2 8424   3.655   1.682   4.581
 2509SOL     OW 8425   6.625   3.702   6.235
 2509SOL    HW1 8426   6.577   3.639   6.174
 2509SOL    HW2 8427   6.589   3.692   6.328
 2510SOL     OW 8428   3.068   4.076   1.968
 2510SOL    HW1 8429   3.048   4.161   1.920
 2510SOL    HW2 8430   3.013   4.002   1.929
 2511SOL     OW 8431   2.888   0.796   5.198
 2511SOL    HW1 8432   2.946   0.809   5.117
 2511SOL    HW2 8433   2.800   0.756   5.171
 2512SOL     OW 8434   3.778   4.964   4.965
 2512SOL    HW1 8435   3.870   4.947   4.929
 2512SOL    HW2 8436   3.712   4.966   4.890
 2513SOL     OW 8437   2.304   6.247   6.295
 2513SOL    HW1 8438   2.396   6.278   6.319
 2513SOL    HW2 8439   2.257   6.214   6.377
 2514SOL     OW 8440   1.162   2.895   3.186
 2514SOL    HW1 8441   1.204   2.816   3.231
 2514SOL    HW2 8442   1.203   2.908   3.096
 2515SOL     OW 8443   2.155   1.325   1.074
 2515SOL    HW1 8444   2.176   1.374   1.159
 2515SOL    HW2 8445   2.219   1.250   1.063
 2516SOL     OW 8446   5.470   1.674   3.289
 2516SOL    HW1 8447   5.552   1.708   3.334
 2516SOL    HW2 8448   5.492   1.594   3.234
 2517SOL     OW 8449   0.998   0.647   4.598
 2517SOL    HW1 8450   0.940   0.715   4.555
 2517SOL    HW2 8451   1.020   0.575   4.532
 2518SOL     OW 8452   2.719   4.666   1.281
 2518SOL    HW1 8453   2.715   4.603   1.358
 2518SOL    HW2 8454   2.729   4.760   1.314
 2519SOL     OW 8455   2.449   1.371   0.957
 2519SOL    HW1 8456   2.375   1.409   1.013
 2519SOL    HW2 8457   2.514   1.324   1.016
 2520SOL     OW 8458   3.254   2.625   1.126
 2520SOL    HW1 8459   3.194   2.705   1.119
 2520SOL    HW2 8460   3.272   2.605   1.223
 2521SOL     OW 8461   4.051   1.456   5.294
 2521SOL    HW1 8462   4.147   1.432   5.304
 2521SOL    HW2 8463   3.997   1.372   5.281
 2522SOL     OW 8464   1.009   1.352   5.546
 2522SOL    HW1 8465   1.040   1.298   5.625
 2522SOL    HW2 8466   0.930   1.407   5.573
 2523SOL     OW 8467   1.876   4.406   0.039
 2523SOL    HW1 8468   1.831   4.321   0.066
 2523SOL    HW2 8469   1.973   4.388   0.020
 2524SOL     OW 8470   1.565   6.718   4.315
 2524SOL    HW1 8471   1.547   6.620   4.306
 2524SOL    HW2 8472   1.498   6.770   4.262
 2525SOL     OW 8473   0.772   2.619   4.343
 2525SOL    HW1 8474   0.762   2.531   4.390
 2525SOL    HW2 8475   0.868   2.648   4.347
 2526SOL     OW 8476   1.189   5.333   6.678
 2526SOL    HW1 8477   1.176   5.377   6.766
 2526SOL    HW2 8478   1.285   5.341   6.650
 2527SOL     OW 8479   5.174   5.511   6.197
 2527SOL    HW1 8480   5.209   5.601   6.221
 2527SOL    HW2 8481   5.108   5.481   6.266
 2528SOL     OW 8482   5.176   5.252   6.062
 2528SOL    HW1 8483   5.196   5.307   6.143
 2528SOL    HW2 8484   5.105   5.185   6.083
 2529SOL     OW 8485   0.446   6.729   6.129
 2529SOL    HW1 8486   0.476   6.753   6.222
 2529SOL    HW2 8487   0.467   6.805   6.067
 2530SOL     OW 8488   2.839   5.606   5.252
 2530SOL    HW1 8489   2.926   5.558   5.245
 2530SOL    HW2 8490   2.819   5.625   5.348
 2531SOL     OW 8491   6.572   5.681   5.852
 2531SOL    HW1 8492   6.667   5.710   5.843
 2531SOL    HW2 8493   6.544   5.632   5.769
 2532SOL     OW 8494   0.886   6.372   1.085
 2532SOL    HW1 8495   0.895   6.286   1.135
 2532SOL    HW2 8496   0.977   6.412   1.071
 2533SOL     OW 8497   5.242   1.010   3.292
 2533SOL    HW1 8498   5.328   0.963   3.275
 2533SOL    HW2 8499   5.186   0.955   3.355
 2534SOL     OW 8500   4.519   1.837   1.966
 2534SOL    HW1 8501   4.493   1.918   2.018
 2534SOL    HW2 8502   4.550   1.865   1.875
 2535SOL     OW 8503   3.399   2.474   6.308
 2535SOL    HW1 8504   3.376   2.431   6.395
 2535SOL    HW2 8505   3.496   2.462   6.289
 2536SOL     OW 8506   1.878   0.568   6.580
 2536SOL    HW1 8507   1.909   0.645   6.525
 2536SOL    HW2 8508   1.787   0.540   6.551
 2537SOL     OW 8509   4.176   0.824   0.054
 2537SOL    HW1 8510   4.095   0.804   0.110
 2537SOL    HW2 8511   4.238   0.883   0.106
 2538SOL     OW 8512   6.943   3.563   3.818
 2538SOL    HW1 8513   6.846   3.580   3.799
 2538SOL    HW2 8514   6.998   3.593   3.740
 2539SOL     OW 8515   5.860   1.205   4.142
 2539SOL    HW1 8516   5.794   1.159   4.084
 2539SOL    HW2 8517   5.910   1.137   4.196
 2540SOL     OW 8518   3.776   1.717   3.155
 2540SOL    HW1 8519   3.786   1.812   3.125
 2540SOL    HW2 8520   3.775   1.713   3.254
 2541SOL     OW 8521   3.133   7.010   5.169
 2541SOL    HW1 8522   3.090   7.001   5.079
 2541SOL    HW2 8523   3.067   0.026   5.234
 2542SOL     OW 8524   1.531   4.445   6.540
 2542SOL    HW1 8525   1.448   4.403   6.576
 2542SOL    HW2 8526   1.516   4.472   6.445
 2543SOL     OW 8527   1.163   2.191   4.203
 2543SOL    HW1 8528   1.231   2.234   4.262
 2543SOL    HW2 8529   1.141   2.253   4.127
 2544SOL     OW 8530   1.018   4.916   0.780
 2544SOL    HW1 8531   1.081   4.852   0.737
 2544SOL    HW2 8532   0.937   4.867   0.813
 2545SOL     OW 8533   1.515   6.641   2.747
 2545SOL    HW1 8534   1.509   6.543   2.730
 2545SOL    HW2 8535   1.520   6.658   2.845
 2546SOL     OW 8536   5.782   1.035   0.787
 2546SOL    HW1 8537   5.882   1.034   0.778
 2546SOL    HW2 8538   5.750   1.129   0.795
 2547SOL     OW 8539   0.020   3.800   6.016
 2547SOL    HW1 8540   0.024   3.883   5.959
 2547SOL    HW2 8541   0.067   3.726   5.970
 2548SOL     OW 8542   0.436   6.551   4.132
 2548SOL    HW1 8543   0.436   6.514   4.040
 2548SOL    HW2 8544   0.491   6.492   4.192
 2549SOL     OW 8545   0.640   0.208   1.798
 2549SOL    HW1 8546   0.704   0.265   1.850
 2549SOL    HW2 8547   0.563   0.263   1.768
 2550SOL     OW 8548   5.716   6.475   0.705
 2550SOL    HW1 8549   5.629   6.435   0.736
 2550SOL    HW2 8550   5.742   6.434   0.618
 2551SOL     OW 8551   2.150   4.286   6.547
 2551SOL    HW1 8552   2.206   4.205   6.565
 2551SOL    HW2 8553   2.196   4.367   6.584
 2552SOL     OW 8554   2.988   4.806   3.692
 2552SOL    HW1 8555   2.955   4.731   3.748
 2552SOL    HW2 8556   2.979   4.782   3.595
 2553SOL     OW 8557   4.023   3.990   6.205
 2553SOL    HW1 8558   4.015   3.891   6.219
 2553SOL    HW2 8559   4.078   4.008   6.124
 2554SOL     OW 8560   1.570   1.731   0.768
 2554SOL    HW1 8561   1.613   1.812   0.726
 2554SOL    HW2 8562   1.486   1.709   0.719
 2555SOL     OW 8563   5.256   3.048   4.946
 2555SOL    HW1 8564   5.303   2.966   4.979
 2555SOL    HW2 8565   5.294   3.129   4.992
 2556SOL     OW 8566   3.992   5.996   0.691
 2556SOL    HW1 8567   3.971   5.906   0.655
 2556SOL    HW2 8568   3.964   6.001   0.787
 2557SOL     OW 8569   1.861   4.016   6.340
 2557SOL    HW1 8570   1.897   3.950   6.274
 2557SOL    HW2 8571   1.916   4.099   6.338
 2558SOL     OW 8572   4.982   1.292   5.719
 2558SOL    HW1 8573   5.038   1.292   5.802
 2558SOL    HW2 8574   4.885   1.290   5.744
 2559SOL     OW 8575   0.359   4.896   5.736
 2559SOL    HW1 8576   0.447   4.903   5.783
 2559SOL    HW2 8577   0.357   4.813   5.681
 2560SOL     OW 8578   5.872   2.084   5.952
 2560SOL    HW1 8579   5.782   2.044   5.936
 2560SOL    HW2 8580   5.930   2.017   5.997
 2561SOL     OW 8581   3.361   5.344   5.006
 2561SOL    HW1 8582   3.382   5.418   4.941
 2561SOL    HW2 8583   3.423   5.267   4.990
 2562SOL     OW 8584   2.012   3.848   0.422
 2562SOL    HW1 8585   1.921   3.850   0.462
 2562SOL    HW2 8586   2.046   3.942   0.412
 2563SOL     OW 8587   2.763   0.965   6.913
 2563SOL    HW1 8588   2.789   1.000   6.823
 2563SOL    HW2 8589   2.721   1.039   6.967
 2564SOL     OW 8590   2.286   5.347   1.096
 2564SOL    HW1 8591   2.251   5.323   1.186
 2564SOL    HW2 8592   2.215   5.332   1.027
 2565SOL     OW 8593   1.447   0.855   1.207
 2565SOL    HW1 8594   1.491   0.765   1.204
 2565SOL    HW2 8595   1.506   0.923   1.164
 2566SOL     OW 8596   2.128   6.676   0.138
 2566SOL    HW1 8597   2.113   6.690   0.040
 2566SOL    HW2 8598   2.039   6.671   0.184
 2567SOL     OW 8599   1.732   6.971   0.527
 2567SOL    HW1 8600   1.634   6.965   0.543
 2567SOL    HW2 8601   1.767   0.034   0.565
 2568SOL     OW 8602   4.429   1.943   7.012
 2568SOL    HW1 8603   4.360   1.974   6.946
 2568SOL    HW2 8604   4.520   1.950   6.970
 2569SOL     OW 8605   3.696   0.551   3.823
 2569SOL    HW1 8606   3.660   0.465   3.789
 2569SOL    HW2 8607   3.621   0.617   3.832
 2570SOL     OW 8608   5.611   1.684   5.524
 2570SOL    HW1 8609   5.528   1.721   5.481
 2570SOL    HW2 8610   5.674   1.651   5.453
 2571SOL     OW 8611   1.225   4.992   3.864
 2571SOL    HW1 8612   1.161   5.028   3.796
 2571SOL    HW2 8613   1.191   4.904   3.898
 2572SOL     OW 8614   3.292   5.147   2.794
 2572SOL    HW1 8615   3.333   5.135   2.885
 2572SOL    HW2 8616   3.193   5.134   2.801
 2573SOL     OW 8617   0.142   1.221   1.399
 2573SOL    HW1 8618   0.151   1.177   1.310
 2573SOL    HW2 8619   0.077   1.169   1.455
 2574SOL     OW 8620   6.048   3.406   0.545
 2574SOL    HW1 8621   6.129   3.367   0.589
 2574SOL    HW2 8622   5.979   3.426   0.614
 2575SOL     OW 8623   6.896   5.896   6.885
 2575SOL    HW1 8624   6.907   5.985   6.842
 2575SOL    HW2 8625   6.933   5.899   6.978
 2576SOL     OW 8626   5.112   6.301   3.722
 2576SOL    HW1 8627   5.102   6.220   3.664
 2576SOL    HW2 8628   5.112   6.274   3.818
 2577SOL     OW 8629   2.948   4.874   2.526
 2577SOL    HW1 8630   2.914   4.791   2.568
 2577SOL    HW2 8631   2.873   4.940   2.515
 2578SOL     OW 8632   3.743   1.650   4.421
 2578SOL    HW1 8633   3.670   1.597   4.378
 2578SOL    HW2 8634   3.818   1.589   4.446
 2579SOL     OW 8635   0.951   6.823   3.604
 2579SOL    HW1 8636   0.934   6.760   3.680
 2579SOL    HW2 8637   0.904   6.789   3.522
 2580SOL     OW 8638   2.412   3.248   0.389
 2580SOL    HW1 8639   2.403   3.186   0.311
 2580SOL    HW2 8640   2.482   3.212   0.451
 2581SOL     OW 8641   2.737   6.957   5.696
 2581SOL    HW1 8642   2.807   6.902   5.743
 2581SOL    HW2 8643   2.652   6.953   5.748
 2582SOL     OW 8644   7.003   3.553   1.468
 2582SOL    HW1 8645   6.998   3.565   1.567
 2582SOL    HW2 8646   0.005   3.458   1.447
 2583SOL     OW 8647   6.250   6.644   0.768
 2583SOL    HW1 8648   6.317   6.592   0.820
 2583SOL    HW2 8649   6.158   6.611   0.791
 2584SOL     OW 8650   4.619   4.829   5.699
 2584SOL    HW1 8651   4.620   4.846   5.797
 2584SOL    HW2 8652   4.679   4.751   5.677
 2585SOL     OW 8653   3.483   5.481   6.664
 2585SOL    HW1 8654   3.396   5.524   6.639
 2585SOL    HW2 8655   3.504   5.503   6.759
 2586SOL     OW 8656   2.020   0.331   5.329
 2586SOL    HW1 8657   1.997   0.390   5.406
 2586SOL    HW2 8658   1.938   0.314   5.274
 2587SOL     OW 8659   0.157   1.656   2.781
 2587SOL    HW1 8660   0.093   1.674   2.856
 2587SOL    HW2 8661   0.200   1.742   2.753
 2588SOL     OW 8662   4.150   1.825   5.046
 2588SOL    HW1 8663   4.210   1.902   5.020
 2588SOL    HW2 8664   4.110   1.786   4.963
 2589SOL     OW 8665   1.192   6.777   6.918
 2589SOL    HW1 8666   1.284   6.737   6.911
 2589SOL    HW2 8667   1.188   6.861   6.864
 2590SOL     OW 8668   2.641   5.078   6.813
 2590SOL    HW1 8669   2.699   5.106   6.737
 2590SOL    HW2 8670   2.556   5.130   6.812
 2591SOL     OW 8671   6.263   5.413   4.570
 2591SOL    HW1 8672   6.354   5.376   4.551
 2591SOL    HW2 8673   6.267   5.472   4.651
 2592SOL     OW 8674   2.756   4.558   6.540
 2592SOL    HW1 8675   2.689   4.546   6.614
 2592SOL    HW2 8676   2.767   4.656   6.521
 2593SOL     OW 8677   2.638   5.387   0.583
 2593SOL    HW1 8678   2.644   5.481   0.549
 2593SOL    HW2 8679   2.684   5.381   0.671
 2594SOL     OW 8680   1.522   4.557   4.542
 2594SOL    HW1 8681   1.538   4.516   4.632
 2594SOL    HW2 8682   1.600   4.538   4.483
 2595SOL     OW 8683   1.964   0.757   4.002
 2595SOL    HW1 8684   2.040   0.695   4.022
 2595SOL    HW2 8685   1.974   0.840   4.056
 2596SOL     OW 8686   0.984   2.242   0.599
 2596SOL    HW1 8687   0.992   2.339   0.577
 2596SOL    HW2 8688   1.012   2.227   0.694
 2597SOL     OW 8689   0.540   6.254   6.463
 2597SOL    HW1 8690   0.619   6.194   6.476
 2597SOL    HW2 8691   0.483   6.219   6.389
 2598SOL     OW 8692   5.129   2.466   2.365
 2598SOL    HW1 8693   5.161   2.517   2.445
 2598SOL    HW2 8694   5.081   2.384   2.396
 2599SOL     OW 8695   2.672   0.189   2.506
 2599SOL    HW1 8696   2.703   0.101   2.472
 2599SOL    HW2 8697   2.642   0.246   2.429
 2600SOL     OW 8698   6.268   4.378   4.580
 2600SOL    HW1 8699   6.184   4.358   4.530
 2600SOL    HW2 8700   6.246   4.422   4.667
 2601SOL     OW 8701   1.297   1.777   2.727
 2601SOL    HW1 8702   1.339   1.778   2.636
 2601SOL    HW2 8703   1.270   1.870   2.753
 2602SOL     OW 8704   1.737   5.008   4.263
 2602SOL    HW1 8705   1.806   5.073   4.230
 2602SOL    HW2 8706   1.729   5.016   4.362
 2603SOL     OW 8707   2.985   0.875   2.702
 2603SOL    HW1 8708   2.939   0.963   2.693
 2603SOL    HW2 8709   3.078   0.888   2.736
 2604SOL     OW 8710   5.601   2.128   2.760
 2604SOL    HW1 8711   5.621   2.124   2.858
 2604SOL    HW2 8712   5.643   2.211   2.722
 2605SOL     OW 8713   1.294   3.726   1.821
 2605SOL    HW1 8714   1.357   3.677   1.881
 2605SOL    HW2 8715   1.317   3.823   1.820
 2606SOL     OW 8716   4.062   4.168   0.778
 2606SOL    HW1 8717   3.996   4.210   0.841
 2606SOL    HW2 8718   4.027   4.080   0.748
 2607SOL     OW 8719   2.538   1.896   0.607
 2607SOL    HW1 8720   2.594   1.834   0.661
 2607SOL    HW2 8721   2.509   1.973   0.663
 2608SOL     OW 8722   3.255   5.616   6.617
 2608SOL    HW1 8723   3.206   5.648   6.536
 2608SOL    HW2 8724   3.189   5.592   6.689
 2609SOL     OW 8725   0.646   0.025   1.241
 2609SOL    HW1 8726   0.611   0.072   1.322
 2609SOL    HW2 8727   0.708   6.974   1.269
 2610SOL     OW 8728   1.221   4.775   4.237
 2610SOL    HW1 8729   1.269   4.688   4.229
 2610SOL    HW2 8730   1.262   4.829   4.312
 2611SOL     OW 8731   5.225   6.442   6.556
 2611SOL    HW1 8732   5.319   6.473   6.551
 2611SOL    HW2 8733   5.163   6.520   6.549
 2612SOL     OW 8734   5.721   0.308   5.355
 2612SOL    HW1 8735   5.698   0.386   5.413
 2612SOL    HW2 8736   5.793   0.255   5.399
 2613SOL     OW 8737   0.793   6.020   6.795
 2613SOL    HW1 8738   0.745   6.103   6.768
 2613SOL    HW2 8739   0.728   5.945   6.804
 2614SOL     OW 8740   6.630   0.898   6.260
 2614SOL    HW1 8741   6.646   0.941   6.349
 2614SOL    HW2 8742   6.601   0.968   6.195
 2615SOL     OW 8743   0.996   3.024   0.401
 2615SOL    HW1 8744   1.015   3.088   0.326
 2615SOL    HW2 8745   1.037   3.060   0.485
 2616SOL     OW 8746   1.602   0.224   5.666
 2616SOL    HW1 8747   1.546   0.214   5.584
 2616SOL    HW2 8748   1.682   0.165   5.659
 2617SOL     OW 8749   5.421   6.931   1.157
 2617SOL    HW1 8750   5.404   7.018   1.203
 2617SOL    HW2 8751   5.346   6.911   1.094
 2618SOL     OW 8752   1.827   6.511   6.090
 2618SOL    HW1 8753   1.762   6.533   6.162
 2618SOL    HW2 8754   1.895   6.585   6.083
 2619SOL     OW 8755   5.105   1.417   2.302
 2619SOL    HW1 8756   5.018   1.382   2.337
 2619SOL    HW2 8757   5.116   1.390   2.206
 2620SOL     OW 8758   6.878   6.538   1.537
 2620SOL    HW1 8759   6.933   6.500   1.463
 2620SOL    HW2 8760   6.787   6.561   1.502
 2621SOL     OW 8761   1.704   5.636   2.767
 2621SOL    HW1 8762   1.663   5.551   2.801
 2621SOL    HW2 8763   1.751   5.619   2.681
 2622SOL     OW 8764   3.390   3.426   6.146
 2622SOL    HW1 8765   3.381   3.510   6.199
 2622SOL    HW2 8766   3.421   3.352   6.206
 2623SOL     OW 8767   1.098   6.547   4.117
 2623SOL    HW1 8768   1.163   6.541   4.041
 2623SOL    HW2 8769   1.147   6.528   4.203
 2624SOL     OW 8770   0.174   2.476   4.471
 2624SOL    HW1 8771   0.145   2.572   4.474
 2624SOL    HW2 8772   0.268   2.470   4.438
 2625SOL     OW 8773   1.715   5.090   5.066
 2625SOL    HW1 8774   1.761   5.037   4.994
 2625SOL    HW2 8775   1.616   5.092   5.047
 2626SOL     OW 8776   6.905   5.015   6.284
 2626SOL    HW1 8777   6.857   5.103   6.289
 2626SOL    HW2 8778   6.935   4.988   6.375
 2627SOL     OW 8779   1.837   6.817   5.526
 2627SOL    HW1 8780   1.773   6.894   5.525
 2627SOL    HW2 8781   1.930   6.851   5.511
 2628SOL     OW 8782   1.871   4.317   2.181
 2628SOL    HW1 8783   1.861   4.416   2.167
 2628SOL    HW2 8784   1.843   4.294   2.274
 2629SOL     OW 8785   3.098   4.027   3.527
 2629SOL    HW1 8786   3.052   4.020   3.439
 2629SOL    HW2 8787   3.078   3.945   3.582
 2630SOL     OW 8788   4.126   0.417   4.279
 2630SOL    HW1 8789   4.090   0.497   4.328
 2630SOL    HW2 8790   4.185   0.364   4.340
 2631SOL     OW 8791   5.827   1.031   0.425
 2631SOL    HW1 8792   5.750   1.095   0.427
 2631SOL    HW2 8793   5.794   0.938   0.440
 2632SOL     OW 8794   5.608   4.800   2.135
 2632SOL    HW1 8795   5.624   4.701   2.138
 2632SOL    HW2 8796   5.574   4.831   2.223
 2633SOL     OW 8797   0.215   3.024   6.182
 2633SOL    HW1 8798   0.264   3.039   6.267
 2633SOL    HW2 8799   0.159   2.941   6.189
 2634SOL     OW 8800   6.243   0.274   5.469
 2634SOL    HW1 8801   6.178   0.347   5.489
 2634SOL    HW2 8802   6.297   0.298   5.388
 2635SOL     OW 8803   5.690   5.124   3.838
 2635SOL    HW1 8804   5.772   5.139   3.784
 2635SOL    HW2 8805   5.663   5.210   3.883
 2636SOL     OW 8806   4.426   6.934   5.513
 2636SOL    HW1 8807   4.517   6.939   5.553
 2636SOL    HW2 8808   4.372   6.864   5.560
 2637SOL     OW 8809   1.504   1.727   3.352
 2637SOL    HW1 8810   1.550   1.815   3.365
 2637SOL    HW2 8811   1.414   1.742   3.311
 2638SOL     OW 8812   1.230   6.475   4.343
 2638SOL    HW1 8813   1.233   6.464   4.443
 2638SOL    HW2 8814   1.323   6.467   4.306
 2639SOL     OW 8815   4.132   4.694   5.277
 2639SOL    HW1 8816   4.071   4.615   5.276
 2639SOL    HW2 8817   4.109   4.755   5.201
 2640SOL     OW 8818   1.492   6.247   4.700
 2640SOL    HW1 8819   1.415   6.294   4.657
 2640SOL    HW2 8820   1.495   6.152   4.669
 2641SOL     OW 8821   5.562   2.650   6.828
 2641SOL    HW1 8822   5.641   2.627   6.771
 2641SOL    HW2 8823   5.501   2.709   6.776
 2642SOL     OW 8824   6.791   1.684   3.622
 2642SOL    HW1 8825   6.757   1.633   3.543
 2642SOL    HW2 8826   6.846   1.762   3.590
 2643SOL     OW 8827   1.660   4.931   3.640
 2643SOL    HW1 8828   1.736   4.866   3.651
 2643SOL    HW2 8829   1.605   4.931   3.723
 2644SOL     OW 8830   5.387   4.828   4.402
 2644SOL    HW1 8831   5.438   4.779   4.332
 2644SOL    HW2 8832   5.289   4.825   4.381
 2645SOL     OW 8833   5.201   5.482   2.954
 2645SOL    HW1 8834   5.140   5.506   2.878
 2645SOL    HW2 8835   5.195   5.553   3.025
 2646SOL     OW 8836   0.157   3.186   5.970
 2646SOL    HW1 8837   0.177   3.131   6.052
 2646SOL    HW2 8838   0.227   3.168   5.901
 2647SOL     OW 8839   5.154   0.791   1.428
 2647SOL    HW1 8840   5.207   0.849   1.490
 2647SOL    HW2 8841   5.066   0.836   1.408
 2648SOL     OW 8842   0.984   6.793   6.020
 2648SOL    HW1 8843   1.065   6.852   6.028
 2648SOL    HW2 8844   0.902   6.847   6.037
 2649SOL     OW 8845   5.396   2.838   1.766
 2649SOL    HW1 8846   5.433   2.910   1.825
 2649SOL    HW2 8847   5.298   2.827   1.785
 2650SOL     OW 8848   3.424   6.468   4.359
 2650SOL    HW1 8849   3.409   6.562   4.389
 2650SOL    HW2 8850   3.366   6.406   4.412
 2651SOL     OW 8851   3.850   2.137   5.064
 2651SOL    HW1 8852   3.937   2.150   5.017
 2651SOL    HW2 8853   3.777   2.176   5.008
 2652SOL     OW 8854   5.084   4.874   5.906
 2652SOL    HW1 8855   5.118   4.937   5.835
 2652SOL    HW2 8856   4.985   4.886   5.917
 2653SOL     OW 8857   2.760   5.866   0.347
 2653SOL    HW1 8858   2.810   5.879   0.433
 2653SOL    HW2 8859   2.742   5.955   0.305
 2654SOL     OW 8860   6.062   0.501   0.913
 2654SOL    HW1 8861   6.023   0.541   0.830
 2654SOL    HW2 8862   6.087   0.573   0.977
 2655SOL     OW 8863   4.543   5.995   2.646
 2655SOL    HW1 8864   4.514   6.032   2.734
 2655SOL    HW2 8865   4.539   6.067   2.577
 2656SOL     OW 8866   3.902   6.027   3.314
 2656SOL    HW1 8867   3.866   6.118   3.294
 2656SOL    HW2 8868   3.951   6.029   3.402
 2657SOL     OW 8869   1.288   3.722   6.823
 2657SOL    HW1 8870   1.381   3.728   6.788
 2657SOL    HW2 8871   1.272   3.630   6.859
 2658SOL     OW 8872   4.141   5.400   6.667
 2658SOL    HW1 8873   4.234   5.371   6.643
 2658SOL    HW2 8874   4.081   5.320   6.667
 2659SOL     OW 8875   0.091   2.011   4.617
 2659SOL    HW1 8876   0.153   2.087   4.638
 2659SOL    HW2 8877   0.091   1.946   4.693
 2660SOL     OW 8878   1.213   1.603   1.938
 2660SOL    HW1 8879   1.268   1.604   2.021
 2660SOL    HW2 8880   1.273   1.597   1.858
 2661SOL     OW 8881   1.626   1.098   0.525
 2661SOL    HW1 8882   1.701   1.073   0.463
 2661SOL    HW2 8883   1.640   1.053   0.613
 2662SOL     OW 8884   2.723   0.831   2.235
 2662SOL    HW1 8885   2.781   0.768   2.288
 2662SOL    HW2 8886   2.750   0.827   2.138
 2663SOL     OW 8887   4.540   6.711   0.518
 2663SOL    HW1 8888   4.582   6.771   0.450
 2663SOL    HW2 8889   4.553   6.616   0.490
 2664SOL     OW 8890   4.367   3.303   5.862
 2664SOL    HW1 8891   4.321   3.296   5.773
 2664SOL    HW2 8892   4.404   3.214   5.888
 2665SOL     OW 8893   2.037   3.746   4.399
 2665SOL    HW1 8894   2.087   3.794   4.471
 2665SOL    HW2 8895   2.000   3.661   4.436
 2666SOL     OW 8896   1.728   3.687   1.956
 2666SOL    HW1 8897   1.797   3.712   2.025
 2666SOL    HW2 8898   1.731   3.588   1.941
 2667SOL     OW 8899   6.515   3.726   4.653
 2667SOL    HW1 8900   6.465   3.639   4.647
 2667SOL    HW2 8901   6.566   3.741   4.569
 2668SOL     OW 8902   6.439   1.103   3.985
 2668SOL    HW1 8903   6.347   1.142   3.987
 2668SOL    HW2 8904   6.490   1.141   3.908
 2669SOL     OW 8905   2.439   0.691   0.419
 2669SOL    HW1 8906   2.439   0.771   0.358
 2669SOL    HW2 8907   2.474   0.611   0.370
 2670SOL     OW 8908   0.124   0.013   6.626
 2670SOL    HW1 8909   0.204   6.983   6.653
 2670SOL    HW2 8910   0.056   6.976   6.584
 2671SOL     OW 8911   4.465   4.758   6.572
 2671SOL    HW1 8912   4.486   4.685   6.507
 2671SOL    HW2 8913   4.470   4.722   6.665
 2672SOL     OW 8914   3.574   0.885   1.789
 2672SOL    HW1 8915   3.536   0.876   1.881
 2672SOL    HW2 8916   3.659   0.936   1.792
 2673SOL     OW 8917   4.411   0.644   2.832
 2673SOL    HW1 8918   4.378   0.593   2.911
 2673SOL    HW2 8919   4.349   0.720   2.813
 2674SOL     OW 8920   0.047   4.858   2.346
 2674SOL    HW1 8921   0.041   4.767   2.386
 2674SOL    HW2 8922   0.021   4.854   2.249
 2675SOL     OW 8923   5.807   6.984   4.027
 2675SOL    HW1 8924   5.839   0.011   3.947
 2675SOL    HW2 8925   5.797   0.024   4.105
 2676SOL     OW 8926   3.805   3.978   2.834
 2676SOL    HW1 8927   3.762   3.898   2.793
 2676SOL    HW2 8928   3.888   4.001   2.783
 2677SOL     OW 8929   2.233   4.949   1.214
 2677SOL    HW1 8930   2.257   4.882   1.284
 2677SOL    HW2 8931   2.207   5.035   1.258
 2678SOL     OW 8932   5.295   2.276   2.969
 2678SOL    HW1 8933   5.243   2.192   2.954
 2678SOL    HW2 8934   5.260   2.348   2.909
 2679SOL     OW 8935   2.255   4.487   3.242
 2679SOL    HW1 8936   2.274   4.438   3.156
 2679SOL    HW2 8937   2.206   4.571   3.221
 2680SOL     OW 8938   6.673   1.258   0.406
 2680SOL    HW1 8939   6.700   1.200   0.329
 2680SOL    HW2 8940   6.737   1.335   0.415
 2681SOL     OW 8941   1.796   2.023   5.350
 2681SOL    HW1 8942   1.742   1.990   5.273
 2681SOL    HW2 8943   1.868   1.956   5.372
 2682SOL     OW 8944   3.882   3.971   1.851
 2682SOL    HW1 8945   3.837   3.943   1.936
 2682SOL    HW2 8946   3.816   3.969   1.776
 2683SOL     OW 8947   2.467   4.532   2.315
 2683SOL    HW1 8948   2.550   4.527   2.370
 2683SOL    HW2 8949   2.491   4.547   2.219
 2684SOL     OW 8950   6.129   0.018   3.040
 2684SOL    HW1 8951   6.062   6.979   3.080
 2684SOL    HW2 8952   6.086   0.070   2.966
 2685SOL     OW 8953   1.810   5.863   5.563
 2685SOL    HW1 8954   1.788   5.838   5.657
 2685SOL    HW2 8955   1.859   5.950   5.562
 2686SOL     OW 8956   0.765   1.321   4.706
 2686SOL    HW1 8957   0.839   1.366   4.757
 2686SOL    HW2 8958   0.725   1.249   4.762
 2687SOL     OW 8959   3.779   1.561   1.537
 2687SOL    HW1 8960   3.862   1.557   1.592
 2687SOL    HW2 8961   3.700   1.543   1.595
 2688SOL     OW 8962   3.518   2.990   6.401
 2688SOL    HW1 8963   3.539   2.900   6.439
 2688SOL    HW2 8964   3.598   3.026   6.353
 2689SOL     OW 8965   1.255   3.404   2.991
 2689SOL    HW1 8966   1.185   3.333   2.998
 2689SOL    HW2 8967   1.247   3.452   2.904
 2690SOL     OW 8968   4.264   1.958   5.675
 2690SOL    HW1 8969   4.191   1.891   5.662
 2690SOL    HW2 8970   4.309   1.975   5.588
 2691SOL     OW 8971   6.785   4.222   4.008
 2691SOL    HW1 8972   6.809   4.312   4.043
 2691SOL    HW2 8973   6.686   4.209   4.017
 2692SOL     OW 8974   2.704   5.520   2.595
 2692SOL    HW1 8975   2.656   5.443   2.552
 2692SOL    HW2 8976   2.802   5.508   2.584
 2693SOL     OW 8977   2.082   5.583   3.203
 2693SOL    HW1 8978   2.089   5.679   3.175
 2693SOL    HW2 8979   2.101   5.523   3.125
 2694SOL     OW 8980   3.136   6.878   3.664
 2694SOL    HW1 8981   3.193   6.953   3.629
 2694SOL    HW2 8982   3.056   6.867   3.605
 2695SOL     OW 8983   0.122   5.595   3.405
 2695SOL    HW1 8984   0.093   5.686   3.377
 2695SOL    HW2 8985   0.119   5.533   3.326
 2696SOL     OW 8986   5.394   4.284   6.721
 2696SOL    HW1 8987   5.378   4.375   6.761
 2696SOL    HW2 8988   5.412   4.294   6.623
 2697SOL     OW 8989   3.902   2.217   6.948
 2697SOL    HW1 8990   3.839   2.211   6.871
 2697SOL    HW2 8991   3.853   2.249   0.007
 2698SOL     OW 8992   1.936   4.787   6.199
 2698SOL    HW1 8993   1.842   4.794   6.165
 2698SOL    HW2 8994   1.994   4.850   6.148
 2699SOL     OW 8995   3.284   6.776   1.944
 2699SOL    HW1 8996   3.373   6.738   1.971
 2699SOL    HW2 8997   3.222   6.774   2.022
 2700SOL     OW 8998   3.889   1.842   1.823
 2700SOL    HW1 8999   3.914   1.919   1.882
 2700SOL    HW2 9000   3.971   1.789   1.801
 2701SOL     OW 9001   5.363   2.878   5.322
 2701SOL    HW1 9002   5.403   2.903   5.410
 2701SOL    HW2 9003   5.274   2.835   5.337
 2702SOL     OW 9004   2.512   1.413   4.862
 2702SOL    HW1 9005   2.512   1.448   4.768
 2702SOL    HW2 9006   2.443   1.342   4.871
 2703SOL     OW 9007   1.580   6.745   2.337
 2703SOL    HW1 9008   1.533   6.756   2.250
 2703SOL    HW2 9009   1.594   6.834   2.380
 2704SOL     OW 9010   4.949   0.085   4.136
 2704SOL    HW1 9011   5.010   0.037   4.074
 2704SOL    HW2 9012   5.003   0.138   4.202
 2705SOL     OW 9013   6.992   0.185   5.290
 2705SOL    HW1 9014   0.031   0.161   5.216
 2705SOL    HW2 9015   6.997   0.115   5.361
 2706SOL     OW 9016   6.992   3.856   3.304
 2706SOL    HW1 9017   6.984   3.849   3.404
 2706SOL    HW2 9018   0.063   3.882   3.280
 2707SOL     OW 9019   3.262   0.631   3.198
 2707SOL    HW1 9020   3.345   0.656   3.148
 2707SOL    HW2 9021   3.183   0.641   3.138
 2708SOL     OW 9022   6.121   3.236   6.853
 2708SOL    HW1 9023   6.041   3.239   6.793
 2708SOL    HW2 9024   6.115   3.309   6.920
 2709SOL     OW 9025   4.411   1.177   4.469
 2709SOL    HW1 9026   4.371   1.119   4.398
 2709SOL    HW2 9027   4.497   1.215   4.436
 2710SOL     OW 9028   1.411   3.080   3.978
 2710SOL    HW1 9029   1.334   3.025   4.009
 2710SOL    HW2 9030   1.497   3.034   4.003
 2711SOL     OW 9031   3.531   1.748   2.099
 2711SOL    HW1 9032   3.547   1.847   2.098
 2711SOL    HW2 9033   3.599   1.703   2.041
 2712SOL     OW 9034   3.962   5.961   1.998
 2712SOL    HW1 9035   3.958   6.016   2.081
 2712SOL    HW2 9036   4.057   5.952   1.968
 2713SOL     OW 9037   3.516   4.800   6.545
 2713SOL    HW1 9038   3.469   4.776   6.460
 2713SOL    HW2 9039   3.548   4.716   6.590
 2714SOL     OW 9040   2.487   4.806   6.517
 2714SOL    HW1 9041   2.418   4.784   6.448
 2714SOL    HW2 9042   2.575   4.822   6.472
 2715SOL     OW 9043   4.392   0.948   0.647
 2715SOL    HW1 9044   4.355   1.039   0.629
 2715SOL    HW2 9045   4.323   0.879   0.625
 2716SOL     OW 9046   4.119   1.624   3.336
 2716SOL    HW1 9047   4.070   1.694   3.388
 2716SOL    HW2 9048   4.112   1.536   3.384
 2717SOL     OW 9049   1.059   0.865   2.907
 2717SOL    HW1 9050   1.132   0.817   2.956
 2717SOL    HW2 9051   1.070   0.849   2.809
 2718SOL     OW 9052   0.231   0.893   6.076
 2718SOL    HW1 9053   0.257   0.953   6.000
 2718SOL    HW2 9054   0.151   0.839   6.050
 2719SOL     OW 9055   2.073   3.631   2.267
 2719SOL    HW1 9056   2.098   3.534   2.273
 2719SOL    HW2 9057   2.058   3.656   2.172
 2720SOL     OW 9058   2.221   6.495   6.177
 2720SOL    HW1 9059   2.308   6.530   6.142
 2720SOL    HW2 9060   2.232   6.401   6.207
 2721SOL     OW 9061   3.337   6.146   1.924
 2721SOL    HW1 9062   3.300   6.069   1.873
 2721SOL    HW2 9063   3.415   6.115   1.980
 2722SOL     OW 9064   4.683   6.360   0.167
 2722SOL    HW1 9065   4.771   6.313   0.161
 2722SOL    HW2 9066   4.609   6.293   0.170
 2723SOL     OW 9067   3.360   6.471   6.795
 2723SOL    HW1 9068   3.291   6.440   6.730
 2723SOL    HW2 9069   3.446   6.487   6.747
 2724SOL     OW 9070   0.798   6.075   0.765
 2724SOL    HW1 9071   0.722   6.135   0.739
 2724SOL    HW2 9072   0.790   5.988   0.715
 2725SOL     OW 9073   5.818   4.126   5.195
 2725SOL    HW1 9074   5.755   4.049   5.204
 2725SOL    HW2 9075   5.911   4.091   5.180
 2726SOL     OW 9076   6.703   1.609   1.795
 2726SOL    HW1 9077   6.738   1.690   1.748
 2726SOL    HW2 9078   6.659   1.636   1.881
 2727SOL     OW 9079   1.911   4.520   4.345
 2727SOL    HW1 9080   1.877   4.611   4.367
 2727SOL    HW2 9081   1.956   4.521   4.255
 2728SOL     OW 9082   5.077   6.093   5.922
 2728SOL    HW1 9083   5.035   6.003   5.910
 2728SOL    HW2 9084   5.070   6.120   6.018
 2729SOL     OW 9085   5.104   6.250   6.331
 2729SOL    HW1 9086   5.174   6.229   6.263
 2729SOL    HW2 9087   5.148   6.290   6.412
 2730SOL     OW 9088   0.992   5.993   2.451
 2730SOL    HW1 9089   0.998   6.032   2.359
 2730SOL    HW2 9090   1.018   5.896   2.448
 2731SOL     OW 9091   3.515   3.410   4.177
 2731SOL    HW1 9092   3.434   3.438   4.125
 2731SOL    HW2 9093   3.597   3.421   4.121
 2732SOL     OW 9094   5.466   1.090   1.980
 2732SOL    HW1 9095   5.562   1.065   1.990
 2732SOL    HW2 9096   5.415   1.057   2.059
 2733SOL     OW 9097   0.976   6.861   6.695
 2733SOL    HW1 9098   0.939   6.805   6.621
 2733SOL    HW2 9099   1.074   6.877   6.679
 2734SOL     OW 9100   3.593   6.462   1.322
 2734SOL    HW1 9101   3.560   6.389   1.262
 2734SOL    HW2 9102   3.531   6.472   1.400
 2735SOL     OW 9103   0.745   1.326   1.828
 2735SOL    HW1 9104   0.824   1.387   1.833
 2735SOL    HW2 9105   0.743   1.282   1.738
 2736SOL     OW 9106   5.357   4.623   2.882
 2736SOL    HW1 9107   5.257   4.618   2.883
 2736SOL    HW2 9108   5.386   4.703   2.829
 2737SOL     OW 9109   2.542   1.723   6.143
 2737SOL    HW1 9110   2.610   1.782   6.100
 2737SOL    HW2 9111   2.532   1.749   6.240
 2738SOL     OW 9112   5.969   6.644   1.858
 2738SOL    HW1 9113   5.972   6.744   1.855
 2738SOL    HW2 9114   6.062   6.608   1.868
 2739SOL     OW 9115   0.449   5.809   1.722
 2739SOL    HW1 9116   0.382   5.747   1.682
 2739SOL    HW2 9117   0.487   5.767   1.805
 2740SOL     OW 9118   6.660   5.509   3.564
 2740SOL    HW1 9119   6.671   5.519   3.465
 2740SOL    HW2 9120   6.713   5.581   3.611
 2741SOL     OW 9121   1.242   1.415   5.131
 2741SOL    HW1 9122   1.221   1.511   5.112
 2741SOL    HW2 9123   1.225   1.396   5.228
 2742SOL     OW 9124   3.114   5.507   1.664
 2742SOL    HW1 9125   3.175   5.440   1.707
 2742SOL    HW2 9126   3.038   5.459   1.620
 2743SOL     OW 9127   5.302   3.942   2.866
 2743SOL    HW1 9128   5.296   3.921   2.964
 2743SOL    HW2 9129   5.283   3.859   2.813
 2744SOL     OW 9130   3.193   3.722   3.405
 2744SOL    HW1 9131   3.264   3.793   3.408
 2744SOL    HW2 9132   3.209   3.656   3.478
 2745SOL     OW 9133   0.600   6.947   6.671
 2745SOL    HW1 9134   0.636   6.891   6.746
 2745SOL    HW2 9135   0.500   6.941   6.671
 2746SOL     OW 9136   2.059   1.170   3.749
 2746SOL    HW1 9137   2.107   1.085   3.727
 2746SOL    HW2 9138   1.972   1.173   3.699
 2747SOL     OW 9139   3.700   5.807   0.897
 2747SOL    HW1 9140   3.740   5.715   0.900
 2747SOL    HW2 9141   3.604   5.803   0.923
 2748SOL     OW 9142   4.592   6.758   1.698
 2748SOL    HW1 9143   4.526   6.813   1.648
 2748SOL    HW2 9144   4.642   6.699   1.634
 2749SOL     OW 9145   2.714   3.272   0.107
 2749SOL    HW1 9146   2.795   3.213   0.108
 2749SOL    HW2 9147   2.632   3.216   0.117
 2750SOL     OW 9148   2.179   5.760   2.072
 2750SOL    HW1 9149   2.201   5.697   2.147
 2750SOL    HW2 9150   2.129   5.838   2.107
 2751SOL     OW 9151   6.254   3.269   0.660
 2751SOL    HW1 9152   6.329   3.296   0.721
 2751SOL    HW2 9153   6.291   3.211   0.587
 2752SOL     OW 9154   3.762   4.886   6.714
 2752SOL    HW1 9155   3.831   4.831   6.667
 2752SOL    HW2 9156   3.720   4.949   6.649
 2753SOL     OW 9157   6.402   5.781   5.447
 2753SOL    HW1 9158   6.355   5.756   5.362
 2753SOL    HW2 9159   6.387   5.878   5.466
 2754SOL     OW 9160   1.081   6.949   6.388
 2754SOL    HW1 9161   1.099   6.959   6.290
 2754SOL    HW2 9162   1.058   6.854   6.409
 2755SOL     OW 9163   2.464   0.203   2.035
 2755SOL    HW1 9164   2.475   0.259   1.953
 2755SOL    HW2 9165   2.520   0.121   2.027
 2756SOL     OW 9166   4.836   6.413   0.459
 2756SOL    HW1 9167   4.865   6.474   0.533
 2756SOL    HW2 9168   4.876   6.322   0.473
 2757SOL     OW 9169   0.784   5.126   1.405
 2757SOL    HW1 9170   0.750   5.203   1.458
 2757SOL    HW2 9171   0.884   5.122   1.413
 2758SOL     OW 9172   5.223   0.598   5.267
 2758SOL    HW1 9173   5.202   0.680   5.213
 2758SOL    HW2 9174   5.315   0.566   5.246
 2759SOL     OW 9175   5.924   5.711   5.090
 2759SOL    HW1 9176   5.969   5.633   5.133
 2759SOL    HW2 9177   5.853   5.746   5.151
 2760SOL     OW 9178   2.911   5.417   2.835
 2760SOL    HW1 9179   2.813   5.398   2.840
 2760SOL    HW2 9180   2.933   5.455   2.745
 2761SOL     OW 9181   2.526   6.000   3.212
 2761SOL    HW1 9182   2.512   6.099   3.216
 2761SOL    HW2 9183   2.533   5.963   3.304
 2762SOL     OW 9184   0.854   6.889   5.330
 2762SOL    HW1 9185   0.908   6.966   5.367
 2762SOL    HW2 9186   0.792   6.923   5.259
 2763SOL     OW 9187   5.486   1.720   2.861
 2763SOL    HW1 9188   5.491   1.774   2.945
 2763SOL    HW2 9189   5.576   1.680   2.843
 2764SOL     OW 9190   6.109   0.918   2.088
 2764SOL    HW1 9191   6.145   1.007   2.117
 2764SOL    HW2 9192   6.060   0.875   2.164
 2765SOL     OW 9193   6.222   1.168   2.151
 2765SOL    HW1 9194   6.157   1.243   2.152
 2765SOL    HW2 9195   6.252   1.152   2.056
 2766SOL     OW 9196   5.984   1.114   2.691
 2766SOL    HW1 9197   5.896   1.157   2.709
 2766SOL    HW2 9198   5.993   1.094   2.594
 2767SOL     OW 9199   5.681   4.305   6.484
 2767SOL    HW1 9200   5.760   4.354   6.448
 2767SOL    HW2 9201   5.611   4.371   6.513
 2768SOL     OW 9202   5.370   1.315   0.012
 2768SOL    HW1 9203   5.337   1.406   0.035
 2768SOL    HW2 9204   5.378   1.306   6.935
 2769SOL     OW 9205   0.058   4.090   2.059
 2769SOL    HW1 9206   6.991   4.132   2.074
 2769SOL    HW2 9207   0.059   4.046   1.970
 2770SOL     OW 9208   0.623   5.623   1.867
 2770SOL    HW1 9209   0.648   5.540   1.817
 2770SOL    HW2 9210   0.603   5.599   1.962
 2771SOL     OW 9211   4.978   1.194   1.519
 2771SOL    HW1 9212   5.006   1.129   1.448
 2771SOL    HW2 9213   5.036   1.182   1.600
 2772SOL     OW 9214   2.978   2.676   6.851
 2772SOL    HW1 9215   2.967   2.611   6.775
 2772SOL    HW2 9216   3.073   2.705   6.857
 2773SOL     OW 9217   3.723   3.726   6.318
 2773SOL    HW1 9218   3.628   3.702   6.300
 2773SOL    HW2 9219   3.726   3.802   6.384
 2774SOL     OW 9220   5.625   3.421   1.659
 2774SOL    HW1 9221   5.563   3.492   1.625
 2774SOL    HW2 9222   5.583   3.375   1.737
 2775SOL     OW 9223   6.955   5.414   1.553
 2775SOL    HW1 9224   0.006   5.426   1.620
 2775SOL    HW2 9225   6.965   5.481   1.480
 2776SOL     OW 9226   3.114   6.125   6.470
 2776SOL    HW1 9227   3.055   6.195   6.430
 2776SOL    HW2 9228   3.198   6.168   6.503
 2777SOL     OW 9229   3.322   1.305   2.709
 2777SOL    HW1 9230   3.266   1.346   2.782
 2777SOL    HW2 9231   3.413   1.347   2.709
 2778SOL     OW 9232   2.336   2.386   5.855
 2778SOL    HW1 9233   2.362   2.465   5.910
 2778SOL    HW2 9234   2.280   2.416   5.778
 2779SOL     OW 9235   5.553   0.225   0.273
 2779SOL    HW1 9236   5.593   0.314   0.294
 2779SOL    HW2 9237   5.623   0.154   0.281
 2780SOL     OW 9238   4.911   5.387   6.591
 2780SOL    HW1 9239   4.828   5.332   6.595
 2780SOL    HW2 9240   4.987   5.335   6.629
 2781SOL     OW 9241   5.646   4.340   1.042
 2781SOL    HW1 9242   5.617   4.417   0.985
 2781SOL    HW2 9243   5.696   4.274   0.985
 2782SOL     OW 9244   2.695   2.559   6.452
 2782SOL    HW1 9245   2.607   2.600   6.474
 2782SOL    HW2 9246   2.722   2.585   6.359
 2783SOL     OW 9247   7.018   5.234   5.666
 2783SOL    HW1 9248   7.009   5.259   5.762
 2783SOL    HW2 9249   0.028   5.139   5.659
 2784SOL     OW 9250   2.524   1.890   1.512
 2784SOL    HW1 9251   2.489   1.977   1.476
 2784SOL    HW2 9252   2.580   1.908   1.593
 2785SOL     OW 9253   6.504   0.406   0.675
 2785SOL    HW1 9254   6.553   0.436   0.594
 2785SOL    HW2 9255   6.559   0.424   0.756
 2786SOL     OW 9256   3.950   6.673   1.191
 2786SOL    HW1 9257   3.999   6.740   1.134
 2786SOL    HW2 9258   3.924   6.716   1.277
 2787SOL     OW 9259   2.593   2.949   5.894
 2787SOL    HW1 9260   2.586   2.895   5.810
 2787SOL    HW2 9261   2.683   2.936   5.935
 2788SOL     OW 9262   1.361   4.051   0.727
 2788SOL    HW1 9263   1.327   4.061   0.633
 2788SOL    HW2 9264   1.364   3.954   0.751
 2789SOL     OW 9265   0.653   2.257   4.241
 2789SOL    HW1 9266   0.562   2.224   4.267
 2789SOL    HW2 9267   0.675   2.224   4.149
 2790SOL     OW 9268   4.001   5.534   2.828
 2790SOL    HW1 9269   4.086   5.543   2.879
 2790SOL    HW2 9270   3.924   5.532   2.891
 2791SOL     OW 9271   1.766   3.187   5.006
 2791SOL    HW1 9272   1.835   3.249   4.969
 2791SOL    HW2 9273   1.796   3.093   4.993
 2792SOL     OW 9274   0.507   1.973   5.154
 2792SOL    HW1 9275   0.453   2.004   5.232
 2792SOL    HW2 9276   0.552   1.887   5.178
 2793SOL     OW 9277   4.323   1.394   3.179
 2793SOL    HW1 9278   4.397   1.381   3.244
 2793SOL    HW2 9279   4.353   1.458   3.107
 2794SOL     OW 9280   0.915   0.390   0.934
 2794SOL    HW1 9281   0.881   0.483   0.918
 2794SOL    HW2 9282   0.863   0.348   1.008
 2795SOL     OW 9283   2.605   3.956   1.123
 2795SOL    HW1 9284   2.561   3.867   1.106
 2795SOL    HW2 9285   2.682   3.968   1.060
 2796SOL     OW 9286   5.101   4.070   2.738
 2796SOL    HW1 9287   5.086   4.164   2.769
 2796SOL    HW2 9288   5.186   4.035   2.778
 2797SOL     OW 9289   4.748   4.939   5.055
 2797SOL    HW1 9290   4.746   4.897   5.146
 2797SOL    HW2 9291   4.748   4.868   4.985
 2798SOL     OW 9292   0.871   3.089   4.015
 2798SOL    HW1 9293   0.811   3.162   3.983
 2798SOL    HW2 9294   0.838   3.001   3.981
 2799SOL     OW 9295   6.217   4.807   5.928
 2799SOL    HW1 9296   6.160   4.729   5.902
 2799SOL    HW2 9297   6.301   4.773   5.971
 2800SOL     OW 9298   2.775   4.824   6.539
 2800SOL    HW1 9299   2.777   4.860   6.632
 2800SOL    HW2 9300   2.798   4.897   6.474
 2801SOL     OW 9301   5.827   5.531   1.791
 2801SOL    HW1 9302   5.810   5.515   1.888
 2801SOL    HW2 9303   5.757   5.485   1.737
 2802SOL     OW 9304   4.320   1.301   6.068
 2802SOL    HW1 9305   4.373   1.223   6.102
 2802SOL    HW2 9306   4.266   1.273   5.988
 2803SOL     OW 9307   2.802   6.944   6.428
 2803SOL    HW1 9308   2.881   6.886   6.448
 2803SOL    HW2 9309   2.719   6.901   6.465
 2804SOL     OW 9310   6.846   4.158   3.736
 2804SOL    HW1 9311   6.835   4.169   3.834
 2804SOL    HW2 9312   6.918   4.219   3.703
 2805SOL     OW 9313   4.990   3.255   0.599
 2805SOL    HW1 9314   4.941   3.343   0.603
 2805SOL    HW2 9315   4.941   3.193   0.538
 2806SOL     OW 9316   6.546   5.331   3.294
 2806SOL    HW1 9317   6.558   5.251   3.353
 2806SOL    HW2 9318   6.548   5.302   3.199
 2807SOL     OW 9319   4.376   4.872   3.259
 2807SOL    HW1 9320   4.339   4.944   3.317
 2807SOL    HW2 9321   4.472   4.854   3.284
 2808SOL     OW 9322   5.455   1.196   3.951
 2808SOL    HW1 9323   5.403   1.229   4.030
 2808SOL    HW2 9324   5.392   1.178   3.875
 2809SOL     OW 9325   4.809   2.109   0.598
 2809SOL    HW1 9326   4.876   2.053   0.646
 2809SOL    HW2 9327   4.737   2.051   0.561
 2810SOL     OW 9328   2.479   6.725   5.147
 2810SOL    HW1 9329   2.388   6.690   5.165
 2810SOL    HW2 9330   2.473   6.811   5.096
 2811SOL     OW 9331   0.196   1.870   3.602
 2811SOL    HW1 9332   0.222   1.966   3.612
 2811SOL    HW2 9333   0.278   1.815   3.586
 2812SOL     OW 9334   4.730   3.958   1.865
 2812SOL    HW1 9335   4.699   4.053   1.872
 2812SOL    HW2 9336   4.717   3.925   1.772
 2813SOL     OW 9337   6.073   0.649   6.459
 2813SOL    HW1 9338   5.976   0.659   6.438
 2813SOL    HW2 9339   6.104   0.558   6.431
 2814SOL     OW 9340   4.611   3.900   5.606
 2814SOL    HW1 9341   4.688   3.840   5.627
 2814SOL    HW2 9342   4.640   3.972   5.543
 2815SOL     OW 9343   0.488   1.115   4.690
 2815SOL    HW1 9344   0.574   1.099   4.641
 2815SOL    HW2 9345   0.464   1.212   4.685
 2816SOL     OW 9346   5.534   6.824   4.226
 2816SOL    HW1 9347   5.546   6.726   4.209
 2816SOL    HW2 9348   5.618   6.861   4.267
 2817SOL     OW 9349   1.364   1.261   1.591
 2817SOL    HW1 9350   1.419   1.215   1.521
 2817SOL    HW2 9351   1.337   1.351   1.557
 2818SOL     OW 9352   6.963   4.819   5.889
 2818SOL    HW1 9353   7.002   4.753   5.954
 2818SOL    HW2 9354   6.955   4.776   5.799
 2819SOL     OW 9355   0.011   2.716   0.972
 2819SOL    HW1 9356   6.962   2.725   0.903
 2819SOL    HW2 9357   0.058   2.804   0.983
 2820SOL     OW 9358   6.847   3.077   3.462
 2820SOL    HW1 9359   6.762   3.130   3.459
 2820SOL    HW2 9360   6.925   3.139   3.459
 2821SOL     OW 9361   0.946   4.194   5.273
 2821SOL    HW1 9362   1.036   4.176   5.233
 2821SOL    HW2 9363   0.921   4.120   5.335
 2822SOL     OW 9364   4.829   2.276   6.919
 2822SOL    HW1 9365   4.786   2.240   6.835
 2822SOL    HW2 9366   4.833   2.204   6.988
 2823SOL     OW 9367   1.895   6.422   2.759
 2823SOL    HW1 9368   1.897   6.469   2.671
 2823SOL    HW2 9369   1.959   6.346   2.757
 2824SOL     OW 9370   3.144   1.471   5.705
 2824SOL    HW1 9371   3.134   1.568   5.684
 2824SOL    HW2 9372   3.090   1.417   5.640
 2825SOL     OW 9373   6.472   6.138   1.042
 2825SOL    HW1 9374   6.435   6.047   1.057
 2825SOL    HW2 9375   6.520   6.141   0.954
 2826SOL     OW 9376   4.847   1.095   4.779
 2826SOL    HW1 9377   4.838   1.164   4.852
 2826SOL    HW2 9378   4.851   1.141   4.690
 2827SOL     OW 9379   6.022   1.321   5.158
 2827SOL    HW1 9380   5.945   1.284   5.106
 2827SOL    HW2 9381   6.107   1.311   5.105
 2828SOL     OW 9382   4.169   1.215   5.801
 2828SOL    HW1 9383   4.170   1.234   5.703
 2828SOL    HW2 9384   4.081   1.176   5.827
 2829SOL     OW 9385   2.969   6.910   5.821
 2829SOL    HW1 9386   2.986   6.958   5.907
 2829SOL    HW2 9387   3.005   6.817   5.828
 2830SOL     OW 9388   4.242   3.544   6.980
 2830SOL    HW1 9389   4.179   3.505   6.914
 2830SOL    HW2 9390   4.210   3.524   0.050
 2831SOL     OW 9391   5.891   5.989   4.347
 2831SOL    HW1 9392   5.929   6.062   4.290
 2831SOL    HW2 9393   5.825   5.936   4.294
 2832SOL     OW 9394   0.538   0.974   2.267
 2832SOL    HW1 9395   0.493   0.983   2.177
 2832SOL    HW2 9396   0.622   1.027   2.267
 2833SOL     OW 9397   5.719   2.787   2.007
 2833SOL    HW1 9398   5.723   2.740   1.919
 2833SOL    HW2 9399   5.625   2.819   2.023
 2834SOL     OW 9400   3.514   1.633   5.148
 2834SOL    HW1 9401   3.469   1.574   5.215
 2834SOL    HW2 9402   3.611   1.643   5.172
 2835SOL     OW 9403   0.428   7.006   2.595
 2835SOL    HW1 9404   0.432   6.960   2.683
 2835SOL    HW2 9405   0.409   0.081   2.608
 2836SOL     OW 9406   6.685   0.566   1.336
 2836SOL    HW1 9407   6.610   0.620   1.376
 2836SOL    HW2 9408   6.660   0.469   1.337
 2837SOL     OW 9409   5.456   4.006   3.786
 2837SOL    HW1 9410   5.481   4.082   3.726
 2837SOL    HW2 9411   5.368   3.968   3.758
 2838SOL     OW 9412   3.010   5.146   2.841
 2838SOL    HW1 9413   3.003   5.237   2.881
 2838SOL    HW2 9414   2.919   5.115   2.813
 2839SOL     OW 9415   5.240   1.829   1.308
 2839SOL    HW1 9416   5.235   1.829   1.209
 2839SOL    HW2 9417   5.166   1.886   1.345
 2840SOL     OW 9418   6.271   1.128   5.609
 2840SOL    HW1 9419   6.257   1.135   5.511
 2840SOL    HW2 9420   6.365   1.099   5.627
 2841SOL     OW 9421   0.718   5.853   0.964
 2841SOL    HW1 9422   0.721   5.920   0.889
 2841SOL    HW2 9423   0.808   5.846   1.006
 2842SOL     OW 9424   6.606   3.321   3.304
 2842SOL    HW1 9425   6.623   3.296   3.400
 2842SOL    HW2 9426   6.513   3.356   3.295
 2843SOL     OW 9427   3.914   0.864   4.432
 2843SOL    HW1 9428   3.937   0.912   4.517
 2843SOL    HW2 9429   3.821   0.889   4.404
 2844SOL     OW 9430   0.310   4.123   6.684
 2844SOL    HW1 9431   0.257   4.040   6.704
 2844SOL    HW2 9432   0.248   4.198   6.663
 2845SOL     OW 9433   0.136   4.549   6.318
 2845SOL    HW1 9434   0.211   4.578   6.377
 2845SOL    HW2 9435   0.173   4.498   6.240
 2846SOL     OW 9436   4.926   1.725   6.304
 2846SOL    HW1 9437   4.843   1.761   6.260
 2846SOL    HW2 9438   4.911   1.630   6.331
 2847SOL     OW 9439   6.043   4.380   4.224
 2847SOL    HW1 9440   6.019   4.363   4.319
 2847SOL    HW2 9441   6.013   4.471   4.197
 2848SOL     OW 9442   0.637   4.737   4.792
 2848SOL    HW1 9443   0.648   4.834   4.769
 2848SOL    HW2 9444   0.593   4.729   4.882
 2849SOL     OW 9445   2.909   1.962   1.054
 2849SOL    HW1 9446   2.824   1.912   1.070
 2849SOL    HW2 9447   2.889   2.060   1.047
 2850SOL     OW 9448   3.685   0.176   0.392
 2850SOL    HW1 9449   3.771   0.152   0.348
 2850SOL    HW2 9450   3.688   0.271   0.423
 2851SOL     OW 9451   1.007   4.455   5.761
 2851SOL    HW1 9452   1.003   4.393   5.682
 2851SOL    HW2 9453   1.102   4.463   5.792
 2852SOL     OW 9454   6.758   3.357   6.490
 2852SOL    HW1 9455   6.735   3.261   6.506
 2852SOL    HW2 9456   6.812   3.365   6.406
 2853SOL     OW 9457   3.367   3.378   1.062
 2853SOL    HW1 9458   3.440   3.349   1.000
 2853SOL    HW2 9459   3.321   3.297   1.099
 2854SOL     OW 9460   2.812   0.838   3.776
 2854SOL    HW1 9461   2.811   0.738   3.770
 2854SOL    HW2 9462   2.876   0.875   3.709
 2855SOL     OW 9463   2.053   0.719   5.249
 2855SOL    HW1 9464   1.965   0.752   5.284
 2855SOL    HW2 9465   2.104   0.795   5.210
 2856SOL     OW 9466   2.470   2.823   5.393
 2856SOL    HW1 9467   2.390   2.827   5.454
 2856SOL    HW2 9468   2.459   2.890   5.320
 2857SOL     OW 9469   3.064   2.475   1.321
 2857SOL    HW1 9470   3.020   2.559   1.351
 2857SOL    HW2 9471   3.161   2.477   1.346
 2858SOL     OW 9472   6.541   3.177   2.810
 2858SOL    HW1 9473   6.511   3.251   2.749
 2858SOL    HW2 9474   6.575   3.101   2.754
 2859SOL     OW 9475   5.404   0.695   0.766
 2859SOL    HW1 9476   5.316   0.742   0.772
 2859SOL    HW2 9477   5.436   0.673   0.858
 2860SOL     OW 9478   4.050   1.666   2.030
 2860SOL    HW1 9479   3.962   1.697   2.067
 2860SOL    HW2 9480   4.120   1.734   2.050
 2861SOL     OW 9481   3.400   5.815   5.479
 2861SOL    HW1 9482   3.420   5.905   5.517
 2861SOL    HW2 9483   3.442   5.808   5.388
 2862SOL     OW 9484   5.685   1.027   4.010
 2862SOL    HW1 9485   5.661   0.936   4.042
 2862SOL    HW2 9486   5.603   1.072   3.973
 2863SOL     OW 9487   6.553   1.703   6.904
 2863SOL    HW1 9488   6.527   1.607   6.915
 2863SOL    HW2 9489   6.497   1.745   6.833
 2864SOL     OW 9490   3.959   1.027   0.731
 2864SOL    HW1 9491   3.877   0.986   0.771
 2864SOL    HW2 9492   4.027   1.043   0.804
 2865SOL     OW 9493   4.600   4.581   5.207
 2865SOL    HW1 9494   4.684   4.568   5.154
 2865SOL    HW2 9495   4.591   4.505   5.273
 2866SOL     OW 9496   0.262   6.058   6.478
 2866SOL    HW1 9497   0.314   6.052   6.563
 2866SOL    HW2 9498   0.291   5.987   6.414
 2867SOL     OW 9499   6.119   4.569   3.429
 2867SOL    HW1 9500   6.150   4.477   3.407
 2867SOL    HW2 9501   6.193   4.618   3.476
 2868SOL     OW 9502   1.183   3.855   5.154
 2868SOL    HW1 9503   1.207   3.759   5.166
 2868SOL    HW2 9504   1.235   3.892   5.077
 2869SOL     OW 9505   5.719   0.815   1.924
 2869SOL    HW1 9506   5.782   0.749   1.964
 2869SOL    HW2 9507   5.710   0.894   1.985
 2870SOL     OW 9508   6.104   2.380   2.861
 2870SOL    HW1 9509   6.153   2.371   2.774
 2870SOL    HW2 9510   6.006   2.369   2.845
 2871SOL     OW 9511   2.021   2.204   6.065
 2871SOL    HW1 9512   1.988   2.225   6.157
 2871SOL    HW2 9513   1.988   2.274   6.002
 2872SOL     OW 9514   2.508   0.693   3.253
 2872SOL    HW1 9515   2.579   0.727   3.314
 2872SOL    HW2 9516   2.418   0.712   3.294
 2873SOL     OW 9517   0.402   5.161   2.313
 2873SOL    HW1 9518   0.333   5.165   2.386
 2873SOL    HW2 9519   0.359   5.134   2.227
 2874SOL     OW 9520   5.842   3.266   1.973
 2874SOL    HW1 9521   5.775   3.205   1.931
 2874SOL    HW2 9522   5.795   3.340   2.020
 2875SOL     OW 9523   3.893   5.876   6.277
 2875SOL    HW1 9524   3.951   5.904   6.353
 2875SOL    HW2 9525   3.948   5.827   6.209
 2876SOL     OW 9526   0.462   0.723   1.658
 2876SOL    HW1 9527   0.539   0.669   1.693
 2876SOL    HW2 9528   0.497   0.805   1.612
 2877SOL     OW 9529   2.913   2.642   5.362
 2877SOL    HW1 9530   2.882   2.669   5.453
 2877SOL    HW2 9531   3.003   2.681   5.344
 2878SOL     OW 9532   2.502   4.747   5.448
 2878SOL    HW1 9533   2.576   4.743   5.515
 2878SOL    HW2 9534   2.448   4.664   5.453
 2879SOL     OW 9535   5.088   4.613   0.356
 2879SOL    HW1 9536   5.179   4.632   0.392
 2879SOL    HW2 9537   5.072   4.667   0.273
 2880SOL     OW 9538   0.937   6.194   1.784
 2880SOL    HW1 9539   0.859   6.256   1.776
 2880SOL    HW2 9540   0.928   6.119   1.718
 2881SOL     OW 9541   6.806   6.059   0.761
 2881SOL    HW1 9542   6.898   6.055   0.722
 2881SOL    HW2 9543   6.747   6.113   0.700
 2882SOL     OW 9544   0.400   3.106   2.741
 2882SOL    HW1 9545   0.412   3.187   2.798
 2882SOL    HW2 9546   0.334   3.126   2.668
 2883SOL     OW 9547   3.749   0.123   2.263
 2883SOL    HW1 9548   3.835   0.144   2.310
 2883SOL    HW2 9549   3.674   0.168   2.309
 2884SOL     OW 9550   0.964   5.898   3.240
 2884SOL    HW1 9551   0.922   5.981   3.202
 2884SOL    HW2 9552   0.896   5.849   3.295
 2885SOL     OW 9553   0.806   2.217   2.824
 2885SOL    HW1 9554   0.776   2.234   2.918
 2885SOL    HW2 9555   0.761   2.135   2.789
 2886SOL     OW 9556   2.233   1.899   6.569
 2886SOL    HW1 9557   2.245   1.956   6.488
 2886SOL    HW2 9558   2.243   1.955   6.651
 2887SOL     OW 9559   1.144   0.370   5.107
 2887SOL    HW1 9560   1.135   0.467   5.130
 2887SOL    HW2 9561   1.240   0.349   5.087
 2888SOL     OW 9562   5.773   5.041   6.989
 2888SOL    HW1 9563   5.766   5.140   6.982
 2888SOL    HW2 9564   5.861   5.017   0.008
 2889SOL     OW 9565   0.342   0.252   1.313
 2889SOL    HW1 9566   0.333   0.352   1.312
 2889SOL    HW2 9567   0.361   0.219   1.221
 2890SOL     OW 9568   4.688   0.645   1.961
 2890SOL    HW1 9569   4.760   0.617   1.897
 2890SOL    HW2 9570   4.630   0.714   1.917
 2891SOL     OW 9571   2.554   4.576   3.893
 2891SOL    HW1 9572   2.538   4.490   3.943
 2891SOL    HW2 9573   2.526   4.653   3.951
 2892SOL     OW 9574   4.496   3.873   6.823
 2892SOL    HW1 9575   4.427   3.858   6.894
 2892SOL    HW2 9576   4.484   3.806   6.750
 2893SOL     OW 9577   2.334   0.064   5.090
 2893SOL    HW1 9578   2.252   0.051   5.033
 2893SOL    HW2 9579   2.313   0.124   5.166
 2894SOL     OW 9580   3.404   2.835   0.257
 2894SOL    HW1 9581   3.348   2.916   0.271
 2894SOL    HW2 9582   3.464   2.849   0.178
 2895SOL     OW 9583   3.745   3.356   6.374
 2895SOL    HW1 9584   3.783   3.423   6.437
 2895SOL    HW2 9585   3.645   3.354   6.383
 2896SOL     OW 9586   2.145   5.174   0.410
 2896SOL    HW1 9587   2.238   5.170   0.447
 2896SOL    HW2 9588   2.127   5.093   0.355
 2897SOL     OW 9589   2.869   6.084   3.795
 2897SOL    HW1 9590   2.860   6.046   3.887
 2897SOL    HW2 9591   2.965   6.096   3.773
 2898SOL     OW 9592   3.664   5.344   1.749
 2898SOL    HW1 9593   3.729   5.347   1.673
 2898SOL    HW2 9594   3.696   5.280   1.819
 2899SOL     OW 9595   6.847   0.019   6.774
 2899SOL    HW1 9596   6.747   0.011   6.774
 2899SOL    HW2 9597   6.878   0.061   6.859
 2900SOL     OW 9598   1.504   5.180   5.669
 2900SOL    HW1 9599   1.492   5.273   5.636
 2900SOL    HW2 9600   1.417   5.130   5.663
 2901SOL     OW 9601   2.822   0.452   2.111
 2901SOL    HW1 9602   2.812   0.465   2.013
 2901SOL    HW2 9603   2.882   0.523   2.148
 2902SOL     OW 9604   5.633   6.301   1.045
 2902SOL    HW1 9605   5.570   6.224   1.032
 2902SOL    HW2 9606   5.580   6.383   1.064
 2903SOL     OW 9607   2.608   1.372   2.003
 2903SOL    HW1 9608   2.567   1.437   2.068
 2903SOL    HW2 9609   2.546   1.358   1.926
 2904SOL     OW 9610   2.037   2.860   5.510
 2904SOL    HW1 9611   2.029   2.915   5.427
 2904SOL    HW2 9612   2.073   2.769   5.486
 2905SOL     OW 9613   1.778   1.987   1.751
 2905SOL    HW1 9614   1.689   1.944   1.768
 2905SOL    HW2 9615   1.844   1.956   1.819
 2906SOL     OW 9616   5.626   5.507   2.277
 2906SOL    HW1 9617   5.705   5.458   2.315
 2906SOL    HW2 9618   5.562   5.441   2.239
 2907SOL     OW 9619   0.071   1.491   4.738
 2907SOL    HW1 9620   0.106   1.404   4.704
 2907SOL    HW2 9621   6.996   1.498   4.716
 2908SOL     OW 9622   3.572   5.853   4.011
 2908SOL    HW1 9623   3.657   5.869   4.061
 2908SOL    HW2 9624   3.512   5.793   4.064
 2909SOL     OW 9625   1.389   5.360   4.647
 2909SOL    HW1 9626   1.466   5.411   4.687
 2909SOL    HW2 9627   1.404   5.348   4.549
 2910SOL     OW 9628   4.117   6.446   5.811
 2910SOL    HW1 9629   4.155   6.394   5.734
 2910SOL    HW2 9630   4.018   6.435   5.812
 2911SOL     OW 9631   1.921   4.626   3.274
 2911SOL    HW1 9632   1.851   4.682   3.318
 2911SOL    HW2 9633   2.008   4.676   3.273
 2912SOL     OW 9634   2.681   6.109   0.247
 2912SOL    HW1 9635   2.712   6.122   0.153
 2912SOL    HW2 9636   2.708   6.188   0.302
 2913SOL     OW 9637   1.793   3.498   2.696
 2913SOL    HW1 9638   1.739   3.570   2.653
 2913SOL    HW2 9639   1.762   3.409   2.663
 2914SOL     OW 9640   5.790   5.297   5.997
 2914SOL    HW1 9641   5.716   5.329   5.937
 2914SOL    HW2 9642   5.752   5.262   6.082
 2915SOL     OW 9643   4.442   1.583   4.082
 2915SOL    HW1 9644   4.512   1.633   4.133
 2915SOL    HW2 9645   4.427   1.493   4.124
 2916SOL     OW 9646   6.114   5.061   5.287
 2916SOL    HW1 9647   6.114   5.126   5.362
 2916SOL    HW2 9648   6.050   4.986   5.307
 2917SOL     OW 9649   4.672   0.647   1.647
 2917SOL    HW1 9650   4.737   0.718   1.674
 2917SOL    HW2 9651   4.610   0.684   1.578
 2918SOL     OW 9652   0.665   3.895   3.668
 2918SOL    HW1 9653   0.665   3.807   3.716
 2918SOL    HW2 9654   0.585   3.949   3.695
 2919SOL     OW 9655   5.922   6.228   0.449
 2919SOL    HW1 9656   5.930   6.165   0.372
 2919SOL    HW2 9657   5.902   6.176   0.532
 2920SOL     OW 9658   3.968   1.903   2.688
 2920SOL    HW1 9659   4.045   1.876   2.629
 2920SOL    HW2 9660   3.886   1.855   2.660
 2921SOL     OW 9661   0.472   1.052   2.743
 2921SOL    HW1 9662   0.467   1.095   2.653
 2921SOL    HW2 9663   0.432   1.114   2.811
 2922SOL     OW 9664   5.034   0.183   5.344
 2922SOL    HW1 9665   5.125   0.213   5.313
 2922SOL    HW2 9666   5.032   0.182   5.444
 2923SOL     OW 9667   6.459   4.869   2.550
 2923SOL    HW1 9668   6.406   4.894   2.631
 2923SOL    HW2 9669   6.537   4.931   2.542
 2924SOL     OW 9670   0.414   1.228   5.169
 2924SOL    HW1 9671   0.504   1.187   5.151
 2924SOL    HW2 9672   0.426   1.322   5.201
 2925SOL     OW 9673   5.699   3.247   1.467
 2925SOL    HW1 9674   5.799   3.253   1.469
 2925SOL    HW2 9675   5.660   3.314   1.530
 2926SOL     OW 9676   6.837   2.115   4.718
 2926SOL    HW1 9677   6.905   2.162   4.775
 2926SOL    HW2 9678   6.882   2.078   4.637
 2927SOL     OW 9679   1.366   2.802   2.222
 2927SOL    HW1 9680   1.429   2.761   2.288
 2927SOL    HW2 9681   1.296   2.853   2.272
 2928SOL     OW 9682   6.473   0.198   0.357
 2928SOL    HW1 9683   6.440   0.234   0.444
 2928SOL    HW2 9684   6.400   0.207   0.289
 2929SOL     OW 9685   0.299   0.040   6.314
 2929SOL    HW1 9686   0.239   7.018   6.381
 2929SOL    HW2 9687   0.392   0.044   6.349
 2930SOL     OW 9688   4.793   0.104   4.739
 2930SOL    HW1 9689   4.873   0.064   4.695
 2930SOL    HW2 9690   4.791   0.076   4.835
 2931SOL     OW 9691   4.693   6.680   6.780
 2931SOL    HW1 9692   4.640   6.756   6.816
 2931SOL    HW2 9693   4.638   6.596   6.784
 2932SOL     OW 9694   1.116   3.742   1.386
 2932SOL    HW1 9695   1.107   3.662   1.445
 2932SOL    HW2 9696   1.205   3.738   1.339
 2933SOL     OW 9697   5.120   2.514   3.868
 2933SOL    HW1 9698   5.185   2.567   3.815
 2933SOL    HW2 9699   5.027   2.535   3.837
 2934SOL     OW 9700   2.749   0.777   0.062
 2934SOL    HW1 9701   2.777   0.848   7.020
 2934SOL    HW2 9702   2.724   0.820   0.149
 2935SOL     OW 9703   5.852   2.535   0.657
 2935SOL    HW1 9704   5.774   2.522   0.719
 2935SOL    HW2 9705   5.851   2.463   0.587
 2936SOL     OW 9706   4.756   5.868   0.093
 2936SOL    HW1 9707   4.832   5.830   0.041
 2936SOL    HW2 9708   4.698   5.923   0.032
 2937SOL     OW 9709   3.606   5.850   0.159
 2937SOL    HW1 9710   3.651   5.839   0.070
 2937SOL    HW2 9711   3.675   5.859   0.230
 2938SOL     OW 9712   5.136   5.640   5.427
 2938SOL    HW1 9713   5.064   5.572   5.411
 2938SOL    HW2 9714   5.095   5.723   5.465
 2939SOL     OW 9715   6.694   6.362   5.558
 2939SOL    HW1 9716   6.711   6.305   5.638
 2939SOL    HW2 9717   6.775   6.416   5.537
 2940SOL     OW 9718   5.270   0.042   5.422
 2940SOL    HW1 9719   5.249   0.085   5.510
 2940SOL    HW2 9720   5.312   0.109   5.361
 2941SOL     OW 9721   0.960   2.194   5.474
 2941SOL    HW1 9722   1.013   2.160   5.397
 2941SOL    HW2 9723   0.919   2.282   5.451
 2942SOL     OW 9724   3.506   7.019   2.482
 2942SOL    HW1 9725   3.420   6.973   2.500
 2942SOL    HW2 9726   3.488   0.084   2.437
 2943SOL     OW 9727   6.080   3.409   3.570
 2943SOL    HW1 9728   6.034   3.427   3.657
 2943SOL    HW2 9729   6.170   3.453   3.570
 2944SOL     OW 9730   4.098   5.551   5.239
 2944SOL    HW1 9731   4.006   5.547   5.279
 2944SOL    HW2 9732   4.138   5.460   5.238
 2945SOL     OW 9733   3.039   3.339   3.292
 2945SOL    HW1 9734   2.973   3.409   3.320
 2945SOL    HW2 9735   3.129   3.361   3.327
 2946SOL     OW 9736   6.658   5.910   6.068
 2946SOL    HW1 9737   6.753   5.898   6.099
 2946SOL    HW2 9738   6.603   5.832   6.097
 2947SOL     OW 9739   6.543   4.344   0.298
 2947SOL    HW1 9740   6.546   4.256   0.251
 2947SOL    HW2 9741   6.456   4.389   0.279
 2948SOL     OW 9742   5.966   4.365   4.538
 2948SOL    HW1 9743   5.981   4.396   4.632
 2948SOL    HW2 9744   5.941   4.268   4.538
 2949SOL     OW 9745   1.339   6.760   0.321
 2949SOL    HW1 9746   1.261   6.772   0.261
 2949SOL    HW2 9747   1.380   6.670   0.306
 2950SOL     OW 9748   5.338   3.305   4.477
 2950SOL    HW1 9749   5.356   3.281   4.572
 2950SOL    HW2 9750   5.409   3.369   4.445
 2951SOL     OW 9751   0.536   1.298   1.176
 2951SOL    HW1 9752   0.576   1.210   1.201
 2951SOL    HW2 9753   0.609   1.362   1.150
 2952SOL     OW 9754   1.520   3.972   2.488
 2952SOL    HW1 9755   1.447   3.972   2.420
 2952SOL    HW2 9756   1.481   3.971   2.580
 2953SOL     OW 9757   4.390   2.733   1.670
 2953SOL    HW1 9758   4.474   2.756   1.718
 2953SOL    HW2 9759   4.363   2.810   1.612
 2954SOL     OW 9760   6.624   6.566   3.071
 2954SOL    HW1 9761   6.643   6.598   2.978
 2954SOL    HW2 9762   6.551   6.497   3.068
 2955SOL     OW 9763   1.138   3.082   0.638
 2955SOL    HW1 9764   1.158   3.180   0.647
 2955SOL    HW2 9765   1.058   3.059   0.693
 2956SOL     OW 9766   0.109   4.849   3.071
 2956SOL    HW1 9767   0.020   4.809   3.050
 2956SOL    HW2 9768   0.140   4.816   3.161
 2957SOL     OW 9769   0.494   3.711   1.891
 2957SOL    HW1 9770   0.593   3.719   1.878
 2957SOL    HW2 9771   0.475   3.633   1.951
 2958SOL     OW 9772   1.627   4.366   5.759
 2958SOL    HW1 9773   1.569   4.333   5.834
 2958SOL    HW2 9774   1.569   4.411   5.690
 2959SOL     OW 9775   4.483   5.952   6.458
 2959SOL    HW1 9776   4.494   6.043   6.419
 2959SOL    HW2 9777   4.471   5.886   6.384
 2960SOL     OW 9778   1.785   1.625   6.678
 2960SOL    HW1 9779   1.750   1.717   6.664
 2960SOL    HW2 9780   1.883   1.623   6.654
 2961SOL     OW 9781   5.374   3.502   4.006
 2961SOL    HW1 9782   5.370   3.402   3.995
 2961SOL    HW2 9783   5.311   3.544   3.941
 2962SOL     OW 9784   4.736   0.864   3.164
 2962SOL    HW1 9785   4.648   0.856   3.210
 2962SOL    HW2 9786   4.724   0.853   3.065
 2963SOL     OW 9787   2.388   1.847   5.053
 2963SOL    HW1 9788   2.473   1.853   5.001
 2963SOL    HW2 9789   2.409   1.826   5.149
 2964SOL     OW 9790   2.593   6.555   1.335
 2964SOL    HW1 9791   2.689   6.549   1.363
 2964SOL    HW2 9792   2.563   6.467   1.299
 2965SOL     OW 9793   0.546   1.326   5.629
 2965SOL    HW1 9794   0.557   1.360   5.723
 2965SOL    HW2 9795   0.572   1.397   5.564
 2966SOL     OW 9796   5.095   5.052   4.262
 2966SOL    HW1 9797   5.005   5.090   4.285
 2966SOL    HW2 9798   5.161   5.126   4.253
 2967SOL     OW 9799   6.015   3.040   2.950
 2967SOL    HW1 9800   6.019   3.037   2.850
 2967SOL    HW2 9801   5.923   3.066   2.979
 2968SOL     OW 9802   0.517   3.903   3.970
 2968SOL    HW1 9803   0.500   3.819   4.021
 2968SOL    HW2 9804   0.614   3.925   3.973
 2969SOL     OW 9805   5.299   2.099   4.594
 2969SOL    HW1 9806   5.279   2.189   4.555
 2969SOL    HW2 9807   5.219   2.064   4.641
 2970SOL     OW 9808   0.628   4.464   5.977
 2970SOL    HW1 9809   0.723   4.434   5.978
 2970SOL    HW2 9810   0.567   4.385   5.979
 2971SOL     OW 9811   5.856   2.394   2.814
 2971SOL    HW1 9812   5.835   2.393   2.717
 2971SOL    HW2 9813   5.805   2.321   2.860
 2972SOL     OW 9814   6.693   3.485   6.018
 2972SOL    HW1 9815   6.739   3.416   5.962
 2972SOL    HW2 9816   6.716   3.576   5.985
 2973SOL     OW 9817   4.792   6.597   3.896
 2973SOL    HW1 9818   4.813   6.563   3.805
 2973SOL    HW2 9819   4.820   6.693   3.904
 2974SOL     OW 9820   6.802   4.406   3.305
 2974SOL    HW1 9821   6.737   4.411   3.229
 2974SOL    HW2 9822   6.836   4.313   3.314
 2975SOL     OW 9823   0.584   0.843   5.211
 2975SOL    HW1 9824   0.529   0.909   5.262
 2975SOL    HW2 9825   0.554   0.750   5.232
 2976SOL     OW 9826   4.220   1.201   2.768
 2976SOL    HW1 9827   4.143   1.216   2.707
 2976SOL    HW2 9828   4.189   1.155   2.851
 2977SOL     OW 9829   2.927   6.825   4.126
 2977SOL    HW1 9830   2.955   6.886   4.051
 2977SOL    HW2 9831   2.946   6.869   4.213
 2978SOL     OW 9832   5.215   5.295   0.163
 2978SOL    HW1 9833   5.312   5.282   0.144
 2978SOL    HW2 9834   5.167   5.313   0.077
 2979SOL     OW 9835   3.484   0.670   3.056
 2979SOL    HW1 9836   3.484   0.680   2.956
 2979SOL    HW2 9837   3.527   0.584   3.081
 2980SOL     OW 9838   0.503   6.086   4.318
 2980SOL    HW1 9839   0.512   6.059   4.414
 2980SOL    HW2 9840   0.499   6.004   4.260
 2981SOL     OW 9841   1.790   0.995   5.530
 2981SOL    HW1 9842   1.877   1.012   5.576
 2981SOL    HW2 9843   1.785   1.051   5.447
 2982SOL     OW 9844   4.723   5.955   2.193
 2982SOL    HW1 9845   4.738   5.905   2.108
 2982SOL    HW2 9846   4.725   5.891   2.270
 2983SOL     OW 9847   6.877   1.081   4.125
 2983SOL    HW1 9848   6.806   1.022   4.086
 2983SOL    HW2 9849   6.960   1.075   4.070
 2984SOL     OW 9850   6.067   5.331   1.732
 2984SOL    HW1 9851   6.126   5.375   1.664
 2984SOL    HW2 9852   5.994   5.281   1.686
 2985SOL     OW 9853   6.842   2.481   3.534
 2985SOL    HW1 9854   6.940   2.495   3.522
 2985SOL    HW2 9855   6.816   2.502   3.628
 2986SOL     OW 9856   1.398   3.678   4.996
 2986SOL    HW1 9857   1.411   3.644   4.903
 2986SOL    HW2 9858   1.471   3.743   5.018
 2987SOL     OW 9859   4.393   2.061   4.341
 2987SOL    HW1 9860   4.385   1.963   4.321
 2987SOL    HW2 9861   4.303   2.099   4.360
 2988SOL     OW 9862   1.085   0.218   1.606
 2988SOL    HW1 9863   0.999   0.266   1.616
 2988SOL    HW2 9864   1.098   0.192   1.510
 2989SOL     OW 9865   0.145   4.891   0.958
 2989SOL    HW1 9866   0.138   4.974   0.903
 2989SOL    HW2 9867   0.125   4.912   1.054
 2990SOL     OW 9868   3.623   1.562   1.310
 2990SOL    HW1 9869   3.676   1.531   1.390
 2990SOL    HW2 9870   3.656   1.651   1.281
 2991SOL     OW 9871   0.127   3.702   0.450
 2991SOL    HW1 9872   0.092   3.757   0.525
 2991SOL    HW2 9873   0.227   3.712   0.445
 2992SOL     OW 9874   3.503   5.055   6.230
 2992SOL    HW1 9875   3.459   5.089   6.312
 2992SOL    HW2 9876   3.501   4.955   6.230
 2993SOL     OW 9877   1.285   5.484   1.249
 2993SOL    HW1 9878   1.238   5.400   1.222
 2993SOL    HW2 9879   1.379   5.481   1.215
 2994SOL     OW 9880   5.201   0.022   0.086
 2994SOL    HW1 9881   5.261   0.059   0.014
 2994SOL    HW2 9882   5.226   6.950   0.105
 2995SOL     OW 9883   1.363   1.833   6.623
 2995SOL    HW1 9884   1.349   1.835   6.722
 2995SOL    HW2 9885   1.434   1.899   6.598
 2996SOL     OW 9886   3.962   5.243   5.907
 2996SOL    HW1 9887   3.969   5.302   5.827
 2996SOL    HW2 9888   3.901   5.285   5.975
 2997SOL     OW 9889   5.533   6.548   1.081
 2997SOL    HW1 9890   5.479   6.559   0.998
 2997SOL    HW2 9891   5.596   6.625   1.090
 2998SOL     OW 9892   6.248   5.353   4.027
 2998SOL    HW1 9893   6.167   5.359   4.086
 2998SOL    HW2 9894   6.237   5.415   3.950
 2999SOL     OW 9895   3.116   6.949   2.867
 2999SOL    HW1 9896   3.139   0.003   2.927
 2999SOL    HW2 9897   3.052   6.981   2.796
 3000SOL     OW 9898   1.422   3.388   5.839
 3000SOL    HW1 9899   1.368   3.324   5.894
 3000SOL    HW2 9900   1.517   3.356   5.835
 3001SOL     OW 9901   5.001   0.914   5.836
 3001SOL    HW1 9902   4.995   0.823   5.794
 3001SOL    HW2 9903   4.909   0.949   5.851
 3002SOL     OW 9904   4.424   0.119   5.326
 3002SOL    HW1 9905   4.348   0.103   5.263
 3002SOL    HW2 9906   4.427   0.046   5.395
 3003SOL     OW 9907   3.060   6.786   6.211
 3003SOL    HW1 9908   3.072   6.729   6.293
 3003SOL    HW2 9909   2.971   6.767   6.170
 3004SOL     OW 9910   6.100   3.165   4.044
 3004SOL    HW1 9911   6.119   3.220   4.125
 3004SOL    HW2 9912   6.130   3.071   4.060
 3005SOL     OW 9913   3.717   3.129   1.097
 3005SOL    HW1 9914   3.802   3.099   1.140
 3005SOL    HW2 9915   3.676   3.053   1.047
 3006SOL     OW 9916   5.019   0.874   1.034
 3006SOL    HW1 9917   5.059   0.954   1.079
 3006SOL    HW2 9918   4.919   0.887   1.028
 3007SOL     OW 9919   6.136   4.686   2.965
 3007SOL    HW1 9920   6.036   4.684   2.976
 3007SOL    HW2 9921   6.167   4.780   2.961
 3008SOL     OW 9922   3.567   6.630   5.594
 3008SOL    HW1 9923   3.610   6.600   5.509
 3008SOL    HW2 9924   3.528   6.551   5.641
 3009SOL     OW 9925   1.077   6.719   3.018
 3009SOL    HW1 9926   1.160   6.755   2.974
 3009SOL    HW2 9927   1.072   6.751   3.112
 3010SOL     OW 9928   3.640   6.046   2.611
 3010SOL    HW1 9929   3.563   6.102   2.581
 3010SOL    HW2 9930   3.673   6.079   2.700
 3011SOL     OW 9931   5.910   6.931   0.091
 3011SOL    HW1 9932   5.827   6.901   0.138
 3011SOL    HW2 9933   5.974   6.854   0.084
 3012SOL     OW 9934   0.264   3.731   3.813
 3012SOL    HW1 9935   0.191   3.700   3.752
 3012SOL    HW2 9936   0.326   3.791   3.762
 3013SOL     OW 9937   5.852   5.537   2.096
 3013SOL    HW1 9938   5.932   5.556   2.154
 3013SOL    HW2 9939   5.771   5.580   2.136
 3014SOL     OW 9940   4.725   1.051   3.926
 3014SOL    HW1 9941   4.789   1.128   3.927
 3014SOL    HW2 9942   4.702   1.027   3.832
 3015SOL     OW 9943   2.784   2.406   0.491
 3015SOL    HW1 9944   2.752   2.351   0.414
 3015SOL    HW2 9945   2.883   2.419   0.483
 3016SOL     OW 9946   3.700   6.600   3.481
 3016SOL    HW1 9947   3.696   6.501   3.489
 3016SOL    HW2 9948   3.635   6.641   3.545
 3017SOL     OW 9949   0.816   5.920   1.380
 3017SOL    HW1 9950   0.721   5.941   1.403
 3017SOL    HW2 9951   0.846   5.983   1.308
 3018SOL     OW 9952   4.092   6.728   6.755
 3018SOL    HW1 9953   4.151   6.808   6.768
 3018SOL    HW2 9954   4.088   6.675   6.840
 3019SOL     OW 9955   3.693   0.258   1.026
 3019SOL    HW1 9956   3.750   0.217   1.097
 3019SOL    HW2 9957   3.599   0.266   1.059
 3020SOL     OW 9958   2.755   3.320   1.471
 3020SOL    HW1 9959   2.781   3.250   1.405
 3020SOL    HW2 9960   2.797   3.407   1.444
 3021SOL     OW 9961   1.819   2.301   6.766
 3021SOL    HW1 9962   1.863   2.385   6.798
 3021SOL    HW2 9963   1.887   2.244   6.719
 3022SOL     OW 9964   5.102   6.734   2.923
 3022SOL    HW1 9965   5.156   6.724   3.006
 3022SOL    HW2 9966   5.103   6.830   2.895
 3023SOL     OW 9967   4.671   5.927   3.114
 3023SOL    HW1 9968   4.751   5.971   3.072
 3023SOL    HW2 9969   4.674   5.829   3.098
 3024SOL     OW 9970   3.098   1.161   0.150
 3024SOL    HW1 9971   3.065   1.071   0.119
 3024SOL    HW2 9972   3.027   1.229   0.133
 3025SOL     OW 9973   2.439   2.954   1.173
 3025SOL    HW1 9974   2.397   2.878   1.124
 3025SOL    HW2 9975   2.408   3.041   1.133
 3026SOL     OW 9976   1.869   3.020   0.720
 3026SOL    HW1 9977   1.842   3.065   0.805
 3026SOL    HW2 9978   1.966   2.994   0.725
 3027SOL     OW 9979   1.659   1.574   3.483
 3027SOL    HW1 9980   1.695   1.612   3.568
 3027SOL    HW2 9981   1.591   1.636   3.445
 3028SOL     OW 9982   1.739   5.641   6.065
 3028SOL    HW1 9983   1.798   5.618   6.141
 3028SOL    HW2 9984   1.741   5.568   5.997
 3029SOL     OW 9985   6.286   5.705   5.211
 3029SOL    HW1 9986   6.322   5.630   5.156
 3029SOL    HW2 9987   6.195   5.682   5.244
 3030SOL     OW 9988   1.442   1.574   5.302
 3030SOL    HW1 9989   1.433   1.619   5.214
 3030SOL    HW2 9990   1.371   1.504   5.311
 3031SOL     OW 9991   0.080   3.727   6.334
 3031SOL    HW1 9992   0.071   3.650   6.397
 3031SOL    HW2 9993   7.014   3.750   6.295
 3032SOL     OW 9994   5.301   0.866   5.842
 3032SOL    HW1 9995   5.384   0.891   5.892
 3032SOL    HW2 9996   5.263   0.782   5.880
 3033SOL     OW 9997   0.223   3.851   6.747
 3033SOL    HW1 9998   0.286   3.802   6.685
 3033SOL    HW2 9999   0.211   3.798   6.830
 3034SOL     OW10000   3.305   6.132   4.225
 3034SOL    HW110001   3.240   6.080   4.170
 3034SOL    HW210002   3.398   6.114   4.191
 3035SOL     OW10003   5.512   1.648   0.282
 3035SOL    HW110004   5.583   1.588   0.244
 3035SOL    HW210005   5.551   1.700   0.358
 3036SOL     OW10006   1.040   4.162   6.745
 3036SOL    HW110007   1.036   4.237   6.812
 3036SOL    HW210008   0.966   4.174   6.678
 3037SOL     OW10009   6.809   6.432   5.262
 3037SOL    HW110010   6.881   6.439   5.331
 3037SOL    HW210011   6.721   6.451   5.305
 3038SOL     OW10012   5.435   6.856   6.172
 3038SOL    HW110013   5.411   6.769   6.215
 3038SOL    HW210014   5.353   6.903   6.142
 3039SOL     OW10015   0.469   3.952   2.005
 3039SOL    HW110016   0.485   3.856   1.984
 3039SOL    HW210017   0.442   4.000   1.921
 3040SOL     OW10018   2.817   3.794   6.650
 3040SOL    HW110019   2.859   3.876   6.689
 3040SOL    HW210020   2.787   3.813   6.557
 3041SOL     OW10021   1.935   2.326   5.841
 3041SOL    HW110022   1.855   2.277   5.806
 3041SOL    HW210023   2.016   2.299   5.788
 3042SOL     OW10024   4.765   0.186   1.916
 3042SOL    HW110025   4.732   0.186   2.010
 3042SOL    HW210026   4.794   0.093   1.891
 3043SOL     OW10027   1.209   5.550   0.322
 3043SOL    HW110028   1.223   5.466   0.270
 3043SOL    HW210029   1.112   5.576   0.318
 3044SOL     OW10030   3.498   4.480   6.026
 3044SOL    HW110031   3.443   4.559   6.055
 3044SOL    HW210032   3.459   4.441   5.943
 3045SOL     OW10033   5.369   1.963   2.435
 3045SOL    HW110034   5.430   2.035   2.403
 3045SOL    HW210035   5.363   1.966   2.535
 3046SOL     OW10036   1.707   2.670   5.505
 3046SOL    HW110037   1.807   2.670   5.493
 3046SOL    HW210038   1.684   2.714   5.592
 3047SOL     OW10039   6.132   5.424   2.267
 3047SOL    HW110040   6.231   5.439   2.264
 3047SOL    HW210041   6.103   5.414   2.363
 3048SOL     OW10042   3.191   3.191   1.169
 3048SOL    HW110043   3.234   3.199   1.259
 3048SOL    HW210044   3.098   3.228   1.173
 3049SOL     OW10045   0.994   0.519   1.653
 3049SOL    HW110046   0.962   0.613   1.643
 3049SOL    HW210047   1.050   0.511   1.735
 3050SOL     OW10048   4.294   5.856   3.817
 3050SOL    HW110049   4.367   5.906   3.771
 3050SOL    HW210050   4.238   5.809   3.749
 3051SOL     OW10051   2.905   5.250   6.904
 3051SOL    HW110052   2.983   5.209   6.952
 3051SOL    HW210053   2.845   5.294   6.971
 3052SOL     OW10054   3.561   0.066   2.974
 3052SOL    HW110055   3.553   7.018   3.044
 3052SOL    HW210056   3.600   0.026   2.891
 3053SOL     OW10057   5.777   6.447   0.433
 3053SOL    HW110058   5.698   6.413   0.381
 3053SOL    HW210059   5.842   6.372   0.446
 3054SOL     OW10060   0.478   3.557   0.193
 3054SOL    HW110061   0.428   3.643   0.204
 3054SOL    HW210062   0.510   3.549   0.099
 3055SOL     OW10063   5.884   6.232   3.752
 3055SOL    HW110064   5.980   6.204   3.759
 3055SOL    HW210065   5.825   6.151   3.750
 3056SOL     OW10066   6.604   0.480   0.438
 3056SOL    HW110067   6.593   0.564   0.386
 3056SOL    HW210068   6.575   0.402   0.382
 3057SOL     OW10069   5.865   4.677   3.014
 3057SOL    HW110070   5.818   4.764   3.001
 3057SOL    HW210071   5.810   4.618   3.073
 3058SOL     OW10072   6.239   5.461   0.816
 3058SOL    HW110073   6.177   5.390   0.785
 3058SOL    HW210074   6.306   5.422   0.879
 3059SOL     OW10075   0.863   3.075   5.147
 3059SOL    HW110076   0.924   3.094   5.070
 3059SOL    HW210077   0.862   3.154   5.209
 3060SOL     OW10078   0.245   6.128   1.597
 3060SOL    HW110079   0.303   6.048   1.609
 3060SOL    HW210080   0.149   6.101   1.608
 3061SOL     OW10081   0.243   0.504   5.311
 3061SOL    HW110082   0.159   0.474   5.266
 3061SOL    HW210083   0.235   0.600   5.337
 3062SOL     OW10084   2.616   6.312   0.756
 3062SOL    HW110085   2.631   6.236   0.692
 3062SOL    HW210086   2.670   6.391   0.728
 3063SOL     OW10087   1.538   5.019   1.569
 3063SOL    HW110088   1.540   5.099   1.629
 3063SOL    HW210089   1.598   4.948   1.606
 3064SOL     OW10090   6.518   3.863   3.196
 3064SOL    HW110091   6.617   3.869   3.180
 3064SOL    HW210092   6.469   3.879   3.110
 3065SOL     OW10093   1.698   0.472   6.961
 3065SOL    HW110094   1.652   0.489   0.026
 3065SOL    HW210095   1.639   0.502   6.886
 3066SOL     OW10096   6.129   4.833   1.359
 3066SOL    HW110097   6.153   4.796   1.269
 3066SOL    HW210098   6.057   4.776   1.400
 3067SOL     OW10099   4.790   6.915   4.392
 3067SOL    HW110100   4.800   6.824   4.350
 3067SOL    HW210101   4.858   6.977   4.353
 3068SOL     OW10102   5.636   5.114   1.281
 3068SOL    HW110103   5.686   5.029   1.291
 3068SOL    HW210104   5.683   5.173   1.215
 3069SOL     OW10105   0.593   5.556   2.170
 3069SOL    HW110106   0.678   5.598   2.201
 3069SOL    HW210107   0.550   5.507   2.246
 3070SOL     OW10108   2.842   1.507   3.594
 3070SOL    HW110109   2.877   1.449   3.668
 3070SOL    HW210110   2.780   1.453   3.537
 3071SOL     OW10111   6.046   0.074   3.828
 3071SOL    HW110112   6.127   0.072   3.887
 3071SOL    HW210113   6.066   0.022   3.744
 3072SOL     OW10114   0.282   6.808   2.423
 3072SOL    HW110115   0.330   6.883   2.468
 3072SOL    HW210116   0.344   6.730   2.412
 3073SOL     OW10117   1.159   3.574   5.173
 3073SOL    HW110118   1.241   3.518   5.158
 3073SOL    HW210119   1.107   3.536   5.249
 3074SOL     OW10120   4.083   3.051   6.680
 3074SOL    HW110121   4.123   3.068   6.590
 3074SOL    HW210122   4.150   3.073   6.751
 3075SOL     OW10123   1.561   5.935   1.204
 3075SOL    HW110124   1.505   5.860   1.169
 3075SOL    HW210125   1.502   6.006   1.242
 3076SOL     OW10126   6.305   0.632   5.099
 3076SOL    HW110127   6.349   0.587   5.176
 3076SOL    HW210128   6.206   0.634   5.114
 3077SOL     OW10129   5.888   4.582   4.339
 3077SOL    HW110130   5.895   4.595   4.438
 3077SOL    HW210131   5.932   4.659   4.292
 3078SOL     OW10132   1.465   3.588   1.978
 3078SOL    HW110133   1.555   3.630   1.964
 3078SOL    HW210134   1.463   3.499   1.932
 3079SOL     OW10135   6.794   2.037   5.133
 3079SOL    HW110136   6.714   2.088   5.103
 3079SOL    HW210137   6.843   2.090   5.202
 3080SOL     OW10138   6.264   4.839   0.975
 3080SOL    HW110139   6.257   4.821   0.876
 3080SOL    HW210140   6.347   4.892   0.993
 3081SOL     OW10141   0.659   4.327   5.657
 3081SOL    HW110142   0.661   4.294   5.751
 3081SOL    HW210143   0.698   4.420   5.654
 3082SOL     OW10144   3.268   0.290   2.414
 3082SOL    HW110145   3.255   0.233   2.495
 3082SOL    HW210146   3.182   0.297   2.364
 3083SOL     OW10147   3.405   0.647   1.742
 3083SOL    HW110148   3.471   0.718   1.717
 3083SOL    HW210149   3.448   0.581   1.803
 3084SOL     OW10150   5.479   5.265   4.594
 3084SOL    HW110151   5.404   5.231   4.651
 3084SOL    HW210152   5.490   5.205   4.514
 3085SOL     OW10153   6.901   5.787   2.500
 3085SOL    HW110154   6.977   5.753   2.444
 3085SOL    HW210155   6.855   5.861   2.451
 3086SOL     OW10156   4.864   2.027   3.192
 3086SOL    HW110157   4.821   2.095   3.251
 3086SOL    HW210158   4.810   2.018   3.108
 3087SOL     OW10159   6.139   4.002   3.030
 3087SOL    HW110160   6.120   3.904   3.026
 3087SOL    HW210161   6.056   4.053   3.011
 3088SOL     OW10162   2.419   4.306   5.376
 3088SOL    HW110163   2.420   4.210   5.406
 3088SOL    HW210164   2.384   4.311   5.283
 3089SOL     OW10165   1.400   2.474   6.977
 3089SOL    HW110166   1.356   2.563   6.995
 3089SOL    HW210167   1.380   2.445   6.884
 3090SOL     OW10168   1.619   1.707   1.266
 3090SOL    HW110169   1.639   1.798   1.231
 3090SOL    HW210170   1.593   1.713   1.362
 3091SOL     OW10171   2.118   6.588   0.982
 3091SOL    HW110172   2.214   6.562   0.985
 3091SOL    HW210173   2.098   6.633   0.894
 3092SOL     OW10174   6.115   6.827   1.071
 3092SOL    HW110175   6.200   6.818   1.021
 3092SOL    HW210176   6.048   6.875   1.014
 3093SOL     OW10177   6.320   5.341   5.570
 3093SOL    HW110178   6.294   5.279   5.645
 3093SOL    HW210179   6.279   5.309   5.485
 3094SOL     OW10180   3.176   5.886   5.320
 3094SOL    HW110181   3.088   5.879   5.367
 3094SOL    HW210182   3.249   5.855   5.381
 3095SOL     OW10183   2.798   4.818   4.521
 3095SOL    HW110184   2.884   4.863   4.500
 3095SOL    HW210185   2.802   4.778   4.613
 3096SOL     OW10186   0.459   0.377   4.878
 3096SOL    HW110187   0.445   0.466   4.919
 3096SOL    HW210188   0.416   0.307   4.934
 3097SOL     OW10189   0.772   2.887   0.480
 3097SOL    HW110190   0.856   2.930   0.447
 3097SOL    HW210191   0.725   2.949   0.543
 3098SOL     OW10192   2.252   3.353   0.639
 3098SOL    HW110193   2.161   3.394   0.628
 3098SOL    HW210194   2.263   3.278   0.574
 3099SOL     OW10195   0.535   5.637   6.108
 3099SOL    HW110196   0.622   5.600   6.074
 3099SOL    HW210197   0.497   5.575   6.177
 3100SOL     OW10198   6.938   6.646   6.655
 3100SOL    HW110199   6.884   6.593   6.721
 3100SOL    HW210200   6.889   6.730   6.632
 3101SOL     OW10201   5.020   6.656   6.577
 3101SOL    HW110202   5.015   6.738   6.519
 3101SOL    HW210203   4.966   6.583   6.536
 3102SOL     OW10204   1.611   4.044   0.836
 3102SOL    HW110205   1.633   4.142   0.842
 3102SOL    HW210206   1.529   4.031   0.780
 3103SOL     OW10207   4.071   2.612   1.566
 3103SOL    HW110208   4.126   2.571   1.638
 3103SOL    HW210209   4.044   2.541   1.501
 3104SOL     OW10210   5.690   5.780   4.266
 3104SOL    HW110211   5.706   5.737   4.355
 3104SOL    HW210212   5.610   5.840   4.273
 3105SOL     OW10213   5.930   6.531   4.184
 3105SOL    HW110214   5.961   6.604   4.124
 3105SOL    HW210215   5.902   6.452   4.129
 3106SOL     OW10216   6.691   2.955   2.702
 3106SOL    HW110217   6.695   2.868   2.653
 3106SOL    HW210218   6.712   2.940   2.799
 3107SOL     OW10219   2.888   0.200   3.841
 3107SOL    HW110220   2.796   0.223   3.873
 3107SOL    HW210221   2.887   0.191   3.742
 3108SOL     OW10222   2.519   0.763   3.989
 3108SOL    HW110223   2.453   0.749   4.063
 3108SOL    HW210224   2.597   0.815   4.024
 3109SOL     OW10225   5.229   6.001   3.317
 3109SOL    HW110226   5.281   5.924   3.355
 3109SOL    HW210227   5.134   5.974   3.304
 3110SOL     OW10228   1.239   2.954   2.631
 3110SOL    HW110229   1.171   3.008   2.682
 3110SOL    HW210230   1.320   3.010   2.615
 3111SOL     OW10231   6.875   4.956   3.250
 3111SOL    HW110232   6.957   5.009   3.227
 3111SOL    HW210233   6.888   4.913   3.340
 3112SOL     OW10234   4.827   3.941   6.586
 3112SOL    HW110235   4.879   3.979   6.509
 3112SOL    HW210236   4.729   3.959   6.572
 3113SOL     OW10237   2.313   0.037   3.366
 3113SOL    HW110238   2.360   0.041   3.278
 3113SOL    HW210239   2.378   0.015   3.438
 3114SOL     OW10240   6.064   4.726   1.129
 3114SOL    HW110241   6.130   4.771   1.070
 3114SOL    HW210242   5.977   4.717   1.082
 3115SOL     OW10243   3.593   4.198   0.268
 3115SOL    HW110244   3.588   4.144   0.351
 3115SOL    HW210245   3.503   4.237   0.247
 3116SOL     OW10246   6.529   2.301   0.319
 3116SOL    HW110247   6.487   2.374   0.266
 3116SOL    HW210248   6.616   2.275   0.277
 3117SOL     OW10249   4.120   3.272   5.048
 3117SOL    HW110250   4.101   3.288   5.145
 3117SOL    HW210251   4.197   3.209   5.038
 3118SOL     OW10252   6.245   4.155   0.613
 3118SOL    HW110253   6.341   4.148   0.585
 3118SOL    HW210254   6.236   4.224   0.685
 3119SOL     OW10255   1.518   4.727   4.905
 3119SOL    HW110256   1.438   4.750   4.850
 3119SOL    HW210257   1.492   4.721   5.001
 3120SOL     OW10258   3.068   5.416   4.796
 3120SOL    HW110259   3.147   5.384   4.848
 3120SOL    HW210260   3.011   5.475   4.853
 3121SOL     OW10261   6.892   1.158   2.477
 3121SOL    HW110262   6.895   1.077   2.536
 3121SOL    HW210263   6.800   1.197   2.479
 3122SOL     OW10264   2.816   5.833   6.568
 3122SOL    HW110265   2.731   5.794   6.532
 3122SOL    HW210266   2.891   5.811   6.506
 3123SOL     OW10267   3.796   6.513   3.777
 3123SOL    HW110268   3.700   6.489   3.768
 3123SOL    HW210269   3.806   6.613   3.780
 3124SOL     OW10270   4.523   1.337   5.438
 3124SOL    HW110271   4.516   1.370   5.532
 3124SOL    HW210272   4.582   1.256   5.436
 3125SOL     OW10273   6.447   1.970   6.278
 3125SOL    HW110274   6.510   2.045   6.296
 3125SOL    HW210275   6.465   1.933   6.186
 3126SOL     OW10276   4.306   5.983   0.234
 3126SOL    HW110277   4.298   5.895   0.187
 3126SOL    HW210278   4.222   6.001   0.286
 3127SOL     OW10279   0.802   1.899   4.118
 3127SOL    HW110280   0.831   1.809   4.086
 3127SOL    HW210281   0.856   1.925   4.198
 3128SOL     OW10282   2.125   1.174   0.786
 3128SOL    HW110283   2.202   1.175   0.851
 3128SOL    HW210284   2.046   1.130   0.829
 3129SOL     OW10285   6.587   3.727   5.527
 3129SOL    HW110286   6.657   3.798   5.525
 3129SOL    HW210287   6.528   3.736   5.447
 3130SOL     OW10288   2.161   4.541   1.943
 3130SOL    HW110289   2.144   4.638   1.956
 3130SOL    HW210290   2.148   4.518   1.846
 3131SOL     OW10291   0.094   3.371   2.887
 3131SOL    HW110292   0.065   3.276   2.882
 3131SOL    HW210293   0.038   3.420   2.954
 3132SOL     OW10294   5.611   6.092   5.375
 3132SOL    HW110295   5.640   6.099   5.470
 3132SOL    HW210296   5.690   6.071   5.317
 3133SOL     OW10297   3.188   2.032   3.066
 3133SOL    HW110298   3.225   2.020   2.974
 3133SOL    HW210299   3.155   1.944   3.101
 3134SOL     OW10300   4.876   3.602   1.608
 3134SOL    HW110301   4.816   3.607   1.527
 3134SOL    HW210302   4.920   3.512   1.610
 3135SOL     OW10303   3.547   2.088   3.693
 3135SOL    HW110304   3.489   2.161   3.729
 3135SOL    HW210305   3.621   2.069   3.757
 3136SOL     OW10306   6.165   6.107   5.752
 3136SOL    HW110307   6.254   6.062   5.753
 3136SOL    HW210308   6.137   6.124   5.657
 3137SOL     OW10309   5.674   1.941   4.088
 3137SOL    HW110310   5.675   1.846   4.117
 3137SOL    HW210311   5.656   2.000   4.167
 3138SOL     OW10312   6.308   1.546   4.686
 3138SOL    HW110313   6.293   1.572   4.591
 3138SOL    HW210314   6.221   1.517   4.727
 3139SOL     OW10315   5.173   6.283   5.110
 3139SOL    HW110316   5.110   6.244   5.176
 3139SOL    HW210317   5.245   6.334   5.158
 3140SOL     OW10318   6.636   6.270   6.691
 3140SOL    HW110319   6.726   6.231   6.709
 3140SOL    HW210320   6.585   6.278   6.777
 3141SOL     OW10321   1.570   5.559   0.557
 3141SOL    HW110322   1.563   5.608   0.470
 3141SOL    HW210323   1.497   5.491   0.563
 3142SOL     OW10324   4.415   6.412   6.291
 3142SOL    HW110325   4.390   6.353   6.369
 3142SOL    HW210326   4.344   6.406   6.221
 3143SOL     OW10327   6.697   1.598   0.290
 3143SOL    HW110328   6.642   1.593   0.373
 3143SOL    HW210329   6.650   1.656   0.223
 3144SOL     OW10330   2.307   3.520   6.576
 3144SOL    HW110331   2.216   3.562   6.575
 3144SOL    HW210332   2.298   3.420   6.574
 3145SOL     OW10333   3.114   5.695   2.655
 3145SOL    HW110334   3.208   5.703   2.687
 3145SOL    HW210335   3.068   5.784   2.665
 3146SOL     OW10336   1.417   0.348   3.291
 3146SOL    HW110337   1.454   0.369   3.381
 3146SOL    HW210338   1.364   0.264   3.295
 3147SOL     OW10339   5.191   3.715   0.426
 3147SOL    HW110340   5.249   3.689   0.349
 3147SOL    HW210341   5.095   3.716   0.397
 3148SOL     OW10342   3.883   5.268   4.767
 3148SOL    HW110343   3.823   5.234   4.839
 3148SOL    HW210344   3.835   5.263   4.679
 3149SOL     OW10345   3.480   0.665   5.608
 3149SOL    HW110346   3.454   0.750   5.654
 3149SOL    HW210347   3.458   0.587   5.666
 3150SOL     OW10348   5.978   6.293   4.647
 3150SOL    HW110349   5.883   6.262   4.644
 3150SOL    HW210350   6.004   6.334   4.559
 3151SOL     OW10351   4.187   1.708   6.259
 3151SOL    HW110352   4.161   1.768   6.184
 3151SOL    HW210353   4.270   1.657   6.234
 3152SOL     OW10354   0.844   5.644   1.236
 3152SOL    HW110355   0.866   5.738   1.262
 3152SOL    HW210356   0.917   5.607   1.180
 3153SOL     OW10357   6.586   4.122   2.235
 3153SOL    HW110358   6.609   4.027   2.256
 3153SOL    HW210359   6.557   4.128   2.139
 3154SOL     OW10360   5.593   2.522   6.174
 3154SOL    HW110361   5.619   2.579   6.096
 3154SOL    HW210362   5.623   2.428   6.159
 3155SOL     OW10363   5.869   5.477   0.862
 3155SOL    HW110364   5.779   5.496   0.825
 3155SOL    HW210365   5.919   5.416   0.800
 3156SOL     OW10366   3.775   3.989   3.572
 3156SOL    HW110367   3.771   3.889   3.573
 3156SOL    HW210368   3.775   4.024   3.666
 3157SOL     OW10369   2.209   4.088   3.762
 3157SOL    HW110370   2.237   4.009   3.818
 3157SOL    HW210371   2.209   4.062   3.666
 3158SOL     OW10372   4.819   6.886   1.217
 3158SOL    HW110373   4.895   6.947   1.241
 3158SOL    HW210374   4.853   6.810   1.162
 3159SOL     OW10375   5.180   5.645   6.936
 3159SOL    HW110376   5.269   5.680   6.966
 3159SOL    HW210377   5.108   5.708   6.965
 3160SOL     OW10378   4.905   4.370   0.213
 3160SOL    HW110379   4.939   4.458   0.245
 3160SOL    HW210380   4.836   4.335   0.277
 3161SOL     OW10381   1.271   1.270   3.281
 3161SOL    HW110382   1.368   1.291   3.264
 3161SOL    HW210383   1.215   1.344   3.245
 3162SOL     OW10384   0.481   5.130   6.476
 3162SOL    HW110385   0.448   5.161   6.387
 3162SOL    HW210386   0.567   5.176   6.497
 3163SOL     OW10387   2.971   4.162   6.383
 3163SOL    HW110388   2.940   4.174   6.288
 3163SOL    HW210389   3.050   4.099   6.383
 3164SOL     OW10390   5.080   4.657   0.055
 3164SOL    HW110391   5.087   4.557   0.055
 3164SOL    HW210392   4.983   4.683   0.047
 3165SOL     OW10393   0.207   0.938   1.770
 3165SOL    HW110394   0.162   0.885   1.841
 3165SOL    HW210395   0.225   0.879   1.691
 3166SOL     OW10396   5.534   3.400   6.507
 3166SOL    HW110397   5.625   3.401   6.548
 3166SOL    HW210398   5.535   3.344   6.425
 3167SOL     OW10399   0.276   5.244   1.882
 3167SOL    HW110400   0.229   5.315   1.829
 3167SOL    HW210401   0.370   5.235   1.849
 3168SOL     OW10402   5.302   3.690   1.225
 3168SOL    HW110403   5.338   3.715   1.315
 3168SOL    HW210404   5.348   3.608   1.192
 3169SOL     OW10405   0.999   2.739   5.208
 3169SOL    HW110406   0.975   2.652   5.165
 3169SOL    HW210407   1.009   2.809   5.138
 3170SOL     OW10408   4.438   0.562   0.240
 3170SOL    HW110409   4.350   0.551   0.193
 3170SOL    HW210410   4.445   0.495   0.313
 3171SOL     OW10411   5.650   6.526   3.218
 3171SOL    HW110412   5.610   6.589   3.285
 3171SOL    HW210413   5.655   6.434   3.257
 3172SOL     OW10414   6.346   0.588   4.804
 3172SOL    HW110415   6.445   0.579   4.794
 3172SOL    HW210416   6.324   0.612   4.899
 3173SOL     OW10417   2.666   0.299   1.134
 3173SOL    HW110418   2.696   0.255   1.049
 3173SOL    HW210419   2.582   0.350   1.118
 3174SOL     OW10420   2.282   2.884   6.380
 3174SOL    HW110421   2.261   2.800   6.430
 3174SOL    HW210422   2.217   2.895   6.305
 3175SOL     OW10423   0.687   6.401   0.890
 3175SOL    HW110424   0.747   6.393   0.969
 3175SOL    HW210425   0.732   6.361   0.810
 3176SOL     OW10426   0.638   4.533   6.564
 3176SOL    HW110427   0.605   4.446   6.602
 3176SOL    HW210428   0.736   4.526   6.544
 3177SOL     OW10429   5.798   6.315   5.872
 3177SOL    HW110430   5.859   6.364   5.933
 3177SOL    HW210431   5.717   6.285   5.923
 3178SOL     OW10432   0.741   3.499   1.330
 3178SOL    HW110433   0.726   3.471   1.425
 3178SOL    HW210434   0.768   3.596   1.328
 3179SOL     OW10435   1.773   1.449   2.696
 3179SOL    HW110436   1.687   1.413   2.734
 3179SOL    HW210437   1.756   1.487   2.605
 3180SOL     OW10438   5.608   0.748   5.864
 3180SOL    HW110439   5.581   0.823   5.925
 3180SOL    HW210440   5.690   0.704   5.900
 3181SOL     OW10441   0.907   1.084   2.972
 3181SOL    HW110442   0.955   0.998   2.955
 3181SOL    HW210443   0.943   1.126   3.055
 3182SOL     OW10444   2.155   5.554   5.283
 3182SOL    HW110445   2.075   5.564   5.224
 3182SOL    HW210446   2.231   5.609   5.247
 3183SOL     OW10447   3.336   3.107   1.530
 3183SOL    HW110448   3.388   3.096   1.615
 3183SOL    HW210449   3.297   3.019   1.503
 3184SOL     OW10450   2.452   1.999   1.916
 3184SOL    HW110451   2.378   2.066   1.916
 3184SOL    HW210452   2.502   2.005   1.830
 3185SOL     OW10453   6.714   6.970   5.624
 3185SOL    HW110454   6.755   0.022   5.676
 3185SOL    HW210455   6.682   6.899   5.687
 3186SOL     OW10456   3.010   1.096   2.326
 3186SOL    HW110457   2.935   1.032   2.314
 3186SOL    HW210458   3.072   1.089   2.247
 3187SOL     OW10459   3.614   4.628   0.123
 3187SOL    HW110460   3.649   4.546   0.078
 3187SOL    HW210461   3.626   4.619   0.222
 3188SOL     OW10462   4.271   6.224   3.409
 3188SOL    HW110463   4.361   6.254   3.443
 3188SOL    HW210464   4.251   6.133   3.445
 3189SOL     OW10465   0.931   6.370   2.710
 3189SOL    HW110466   0.918   6.380   2.611
 3189SOL    HW210467   0.842   6.370   2.756
 3190SOL     OW10468   1.200   5.792   2.439
 3190SOL    HW110469   1.220   5.753   2.350
 3190SOL    HW210470   1.273   5.855   2.465
 3191SOL     OW10471   3.991   0.940   1.086
 3191SOL    HW110472   3.990   1.038   1.103
 3191SOL    HW210473   3.954   0.921   0.996
 3192SOL     OW10474   0.784   3.078   2.660
 3192SOL    HW110475   0.713   3.146   2.674
 3192SOL    HW210476   0.779   3.008   2.730
 3193SOL     OW10477   4.566   3.086   6.419
 3193SOL    HW110478   4.542   3.144   6.497
 3193SOL    HW210479   4.533   2.993   6.435
 3194SOL     OW10480   0.060   3.442   6.093
 3194SOL    HW110481   0.091   3.349   6.071
 3194SOL    HW210482   0.108   3.507   6.034
 3195SOL     OW10483   1.144   3.336   3.541
 3195SOL    HW110484   1.171   3.301   3.451
 3195SOL    HW210485   1.107   3.261   3.596
 3196SOL     OW10486   6.639   0.053   5.380
 3196SOL    HW110487   6.682   0.018   5.463
 3196SOL    HW210488   6.690   0.132   5.347
 3197SOL     OW10489   0.880   4.502   3.682
 3197SOL    HW110490   0.956   4.461   3.732
 3197SOL    HW210491   0.837   4.433   3.624
 3198SOL     OW10492   6.779   1.409   6.917
 3198SOL    HW110493   6.798   1.311   6.911
 3198SOL    HW210494   6.861   1.458   6.946
 3199SOL     OW10495   4.641   2.214   2.037
 3199SOL    HW110496   4.612   2.307   2.014
 3199SOL    HW210497   4.731   2.197   1.998
 3200SOL     OW10498   0.036   1.732   1.422
 3200SOL    HW110499   0.033   1.694   1.514
 3200SOL    HW210500   0.100   1.679   1.365
 3201SOL     OW10501   4.515   4.564   2.912
 3201SOL    HW110502   4.436   4.617   2.881
 3201SOL    HW210503   4.530   4.486   2.850
 3202SOL     OW10504   1.964   5.689   1.854
 3202SOL    HW110505   2.038   5.727   1.910
 3202SOL    HW210506   1.965   5.731   1.764
 3203SOL     OW10507   6.503   6.915   1.924
 3203SOL    HW110508   6.532   6.827   1.886
 3203SOL    HW210509   6.450   6.899   2.007
 3204SOL     OW10510   6.401   5.193   1.853
 3204SOL    HW110511   6.418   5.238   1.766
 3204SOL    HW210512   6.339   5.250   1.908
 3205SOL     OW10513   0.672   3.659   3.799
 3205SOL    HW110514   0.637   3.566   3.810
 3205SOL    HW210515   0.767   3.663   3.831
 3206SOL     OW10516   1.076   0.143   6.546
 3206SOL    HW110517   1.047   0.215   6.484
 3206SOL    HW210518   1.103   0.062   6.494
 3207SOL     OW10519   0.240   1.227   4.124
 3207SOL    HW110520   0.285   1.142   4.151
 3207SOL    HW210521   0.246   1.293   4.199
 3208SOL     OW10522   5.378   6.827   5.515
 3208SOL    HW110523   5.341   6.878   5.437
 3208SOL    HW210524   5.324   6.846   5.596
 3209SOL     OW10525   2.476   0.697   3.706
 3209SOL    HW110526   2.510   0.725   3.796
 3209SOL    HW210527   2.481   0.775   3.643
 3210SOL     OW10528   0.126   4.475   3.113
 3210SOL    HW110529   0.075   4.507   3.193
 3210SOL    HW210530   0.222   4.500   3.122
 3211SOL     OW10531   1.897   4.574   2.158
 3211SOL    HW110532   1.860   4.607   2.245
 3211SOL    HW210533   1.894   4.647   2.091
 3212SOL     OW10534   4.708   2.244   5.805
 3212SOL    HW110535   4.803   2.252   5.776
 3212SOL    HW210536   4.656   2.191   5.737
 3213SOL     OW10537   6.357   6.301   1.783
 3213SOL    HW110538   6.418   6.285   1.861
 3213SOL    HW210539   6.380   6.388   1.740
 3214SOL     OW10540   4.526   5.636   6.087
 3214SOL    HW110541   4.594   5.690   6.036
 3214SOL    HW210542   4.475   5.696   6.148
 3215SOL     OW10543   5.886   1.505   6.819
 3215SOL    HW110544   5.878   1.580   6.885
 3215SOL    HW210545   5.981   1.474   6.814
 3216SOL     OW10546   5.514   6.556   4.172
 3216SOL    HW110547   5.574   6.502   4.113
 3216SOL    HW210548   5.430   6.579   4.122
 3217SOL     OW10549   6.795   3.855   1.882
 3217SOL    HW110550   6.860   3.880   1.810
 3217SOL    HW210551   6.742   3.937   1.908
 3218SOL     OW10552   2.746   0.463   2.781
 3218SOL    HW110553   2.707   0.412   2.858
 3218SOL    HW210554   2.812   0.405   2.733
 3219SOL     OW10555   6.692   0.584   3.735
 3219SOL    HW110556   6.702   0.486   3.754
 3219SOL    HW210557   6.608   0.600   3.684
 3220SOL     OW10558   6.349   3.370   5.598
 3220SOL    HW110559   6.312   3.459   5.622
 3220SOL    HW210560   6.356   3.362   5.499
 3221SOL     OW10561   2.607   0.102   3.438
 3221SOL    HW110562   2.591   0.195   3.407
 3221SOL    HW210563   2.652   0.050   3.365
 3222SOL     OW10564   5.632   2.763   2.894
 3222SOL    HW110565   5.729   2.738   2.890
 3222SOL    HW210566   5.576   2.684   2.870
 3223SOL     OW10567   2.437   5.006   5.046
 3223SOL    HW110568   2.372   4.940   5.008
 3223SOL    HW210569   2.520   4.958   5.074
 3224SOL     OW10570   4.034   5.361   0.292
 3224SOL    HW110571   4.056   5.441   0.236
 3224SOL    HW210572   4.116   5.333   0.343
 3225SOL     OW10573   2.455   3.552   0.110
 3225SOL    HW110574   2.466   3.461   0.068
 3225SOL    HW210575   2.545   3.592   0.127
 3226SOL     OW10576   1.157   0.361   4.136
 3226SOL    HW110577   1.191   0.317   4.219
 3226SOL    HW210578   1.134   0.456   4.155
 3227SOL     OW10579   2.455   1.261   6.251
 3227SOL    HW110580   2.516   1.203   6.199
 3227SOL    HW210581   2.360   1.242   6.225
 3228SOL     OW10582   5.464   3.615   5.161
 3228SOL    HW110583   5.466   3.576   5.253
 3228SOL    HW210584   5.369   3.621   5.130
 3229SOL     OW10585   3.918   2.453   5.319
 3229SOL    HW110586   4.001   2.497   5.287
 3229SOL    HW210587   3.890   2.382   5.254
 3230SOL     OW10588   1.229   0.382   3.594
 3230SOL    HW110589   1.296   0.442   3.636
 3230SOL    HW210590   1.270   0.293   3.576
 3231SOL     OW10591   6.060   5.491   1.065
 3231SOL    HW110592   6.106   5.563   1.013
 3231SOL    HW210593   6.008   5.433   1.003
 3232SOL     OW10594   2.063   4.553   3.553
 3232SOL    HW110595   2.057   4.459   3.587
 3232SOL    HW210596   2.056   4.553   3.454
 3233SOL     OW10597   0.863   4.099   1.477
 3233SOL    HW110598   0.871   4.074   1.380
 3233SOL    HW210599   0.803   4.034   1.523
 3234SOL     OW10600   0.108   1.765   5.314
 3234SOL    HW110601   0.013   1.735   5.316
 3234SOL    HW210602   0.127   1.812   5.228
 3235SOL     OW10603   5.445   0.250   2.188
 3235SOL    HW110604   5.496   0.164   2.192
 3235SOL    HW210605   5.354   0.232   2.150
 3236SOL     OW10606   0.888   2.852   1.867
 3236SOL    HW110607   0.851   2.930   1.817
 3236SOL    HW210608   0.975   2.878   1.910
 3237SOL     OW10609   3.244   0.069   4.452
 3237SOL    HW110610   3.334   0.102   4.424
 3237SOL    HW210611   3.253   0.015   4.536
 3238SOL     OW10612   0.205   6.534   6.930
 3238SOL    HW110613   0.118   6.529   6.979
 3238SOL    HW210614   0.194   6.590   6.848
 3239SOL     OW10615   6.956   6.452   5.515
 3239SOL    HW110616   6.965   6.443   5.614
 3239SOL    HW210617   7.017   6.525   5.482
 3240SOL     OW10618   1.196   1.466   4.259
 3240SOL    HW110619   1.227   1.492   4.167
 3240SOL    HW210620   1.145   1.542   4.299
 3241SOL     OW10621   5.635   0.833   4.229
 3241SOL    HW110622   5.542   0.867   4.239
 3241SOL    HW210623   5.687   0.852   4.311
 3242SOL     OW10624   3.670   6.572   6.931
 3242SOL    HW110625   3.703   6.582   0.002
 3242SOL    HW210626   3.688   6.479   6.899
 3243SOL     OW10627   3.379   5.512   0.460
 3243SOL    HW110628   3.396   5.419   0.429
 3243SOL    HW210629   3.452   5.540   0.523
 3244SOL     OW10630   2.965   6.298   6.318
 3244SOL    HW110631   2.950   6.395   6.340
 3244SOL    HW210632   2.913   6.275   6.235
 3245SOL     OW10633   3.947   2.396   6.352
 3245SOL    HW110634   4.007   2.345   6.413
 3245SOL    HW210635   3.960   2.364   6.258
 3246SOL     OW10636   5.287   6.455   3.294
 3246SOL    HW110637   5.187   6.451   3.301
 3246SOL    HW210638   5.328   6.432   3.382
 3247SOL     OW10639   0.385   2.595   4.851
 3247SOL    HW110640   0.443   2.515   4.836
 3247SOL    HW210641   0.378   2.648   4.767
 3248SOL     OW10642   5.569   3.916   2.283
 3248SOL    HW110643   5.660   3.933   2.244
 3248SOL    HW210644   5.566   3.949   2.377
 3249SOL     OW10645   2.367   4.356   5.121
 3249SOL    HW110646   2.432   4.428   5.143
 3249SOL    HW210647   2.391   4.315   5.033
 3250SOL     OW10648   4.219   6.729   1.726
 3250SOL    HW110649   4.284   6.750   1.654
 3250SOL    HW210650   4.250   6.648   1.776
 3251SOL     OW10651   2.747   0.831   3.314
 3251SOL    HW110652   2.831   0.806   3.362
 3251SOL    HW210653   2.761   0.818   3.215
 3252SOL     OW10654   3.445   2.127   3.141
 3252SOL    HW110655   3.353   2.087   3.142
 3252SOL    HW210656   3.438   2.227   3.137
 3253SOL     OW10657   4.694   3.348   1.178
 3253SOL    HW110658   4.678   3.419   1.110
 3253SOL    HW210659   4.778   3.298   1.156
 3254SOL     OW10660   5.803   5.109   2.781
 3254SOL    HW110661   5.898   5.130   2.758
 3254SOL    HW210662   5.742   5.152   2.714
 3255SOL     OW10663   3.879   4.391   0.268
 3255SOL    HW110664   3.837   4.363   0.182
 3255SOL    HW210665   3.811   4.441   0.322
 3256SOL     OW10666   6.415   6.026   5.544
 3256SOL    HW110667   6.486   6.087   5.579
 3256SOL    HW210668   6.352   6.077   5.486
 3257SOL     OW10669   2.163   2.319   0.542
 3257SOL    HW110670   2.086   2.381   0.530
 3257SOL    HW210671   2.129   2.228   0.564
 3258SOL     OW10672   5.959   6.892   1.712
 3258SOL    HW110673   5.895   6.853   1.647
 3258SOL    HW210674   6.045   6.841   1.709
 3259SOL     OW10675   5.750   6.310   3.385
 3259SOL    HW110676   5.709   6.364   3.459
 3259SOL    HW210677   5.787   6.225   3.422
 3260SOL     OW10678   1.182   2.714   6.854
 3260SOL    HW110679   1.243   2.745   6.781
 3260SOL    HW210680   1.092   2.754   6.842
 3261SOL     OW10681   4.180   0.794   3.098
 3261SOL    HW110682   4.187   0.706   3.050
 3261SOL    HW210683   4.084   0.810   3.124
 3262SOL     OW10684   3.648   1.651   3.663
 3262SOL    HW110685   3.611   1.719   3.726
 3262SOL    HW210686   3.614   1.560   3.688
 3263SOL     OW10687   3.290   5.573   2.163
 3263SOL    HW110688   3.380   5.590   2.204
 3263SOL    HW210689   3.224   5.638   2.199
 3264SOL     OW10690   5.317   5.066   6.286
 3264SOL    HW110691   5.332   4.987   6.226
 3264SOL    HW210692   5.220   5.074   6.308
 3265SOL     OW10693   4.438   0.495   6.874
 3265SOL    HW110694   4.382   0.500   6.957
 3265SOL    HW210695   4.416   0.572   6.814
 3266SOL     OW10696   0.724   1.489   5.820
 3266SOL    HW110697   0.664   1.569   5.821
 3266SOL    HW210698   0.758   1.473   5.913
 3267SOL     OW10699   3.717   2.220   1.311
 3267SOL    HW110700   3.648   2.167   1.360
 3267SOL    HW210701   3.807   2.203   1.350
 3268SOL     OW10702   0.401   4.645   6.414
 3268SOL    HW110703   0.479   4.621   6.472
 3268SOL    HW210704   0.410   4.600   6.326
 3269SOL     OW10705   4.294   3.483   0.709
 3269SOL    HW110706   4.363   3.554   0.721
 3269SOL    HW210707   4.205   3.526   0.691
 3270SOL     OW10708   1.221   5.955   4.851
 3270SOL    HW110709   1.242   5.869   4.898
 3270SOL    HW210710   1.295   6.020   4.868
 3271SOL     OW10711   5.630   1.986   1.210
 3271SOL    HW110712   5.616   1.928   1.290
 3271SOL    HW210713   5.716   2.036   1.219
 3272SOL     OW10714   6.061   6.830   0.449
 3272SOL    HW110715   6.004   6.908   0.422
 3272SOL    HW210716   6.084   6.838   0.546
 3273SOL     OW10717   6.828   0.244   2.308
 3273SOL    HW110718   6.847   0.206   2.217
 3273SOL    HW210719   6.755   0.193   2.351
 3274SOL     OW10720   3.780   1.550   6.218
 3274SOL    HW110721   3.729   1.478   6.265
 3274SOL    HW210722   3.847   1.590   6.281
 3275SOL     OW10723   3.100   0.900   6.795
 3275SOL    HW110724   3.031   0.896   6.722
 3275SOL    HW210725   3.189   0.872   6.758
 3276SOL     OW10726   3.184   6.464   7.019
 3276SOL    HW110727   3.115   6.536   0.006
 3276SOL    HW210728   3.248   6.488   6.947
 3277SOL     OW10729   0.119   6.607   5.358
 3277SOL    HW110730   0.117   6.596   5.258
 3277SOL    HW210731   0.204   6.567   5.394
 3278SOL     OW10732   1.053   0.981   0.093
 3278SOL    HW110733   1.135   1.034   0.072
 3278SOL    HW210734   0.972   1.028   0.057
 3279SOL     OW10735   2.104   0.107   0.784
 3279SOL    HW110736   2.152   0.039   0.841
 3279SOL    HW210737   2.044   0.161   0.842
 3280SOL     OW10738   1.629   5.296   5.977
 3280SOL    HW110739   1.706   5.355   5.952
 3280SOL    HW210740   1.614   5.228   5.905
 3281SOL     OW10741   3.085   6.042   0.093
 3281SOL    HW110742   3.129   6.098   0.023
 3281SOL    HW210743   2.987   6.064   0.097
 3282SOL     OW10744   2.023   5.489   2.845
 3282SOL    HW110745   2.031   5.522   2.751
 3282SOL    HW210746   2.109   5.506   2.893
 3283SOL     OW10747   2.136   0.300   3.712
 3283SOL    HW110748   2.052   0.278   3.762
 3283SOL    HW210749   2.185   0.216   3.689
 3284SOL     OW10750   0.191   3.693   6.974
 3284SOL    HW110751   0.120   3.730   0.011
 3284SOL    HW210752   0.267   3.659   0.008
 3285SOL     OW10753   6.552   2.147   4.220
 3285SOL    HW110754   6.652   2.141   4.224
 3285SOL    HW210755   6.525   2.243   4.219
 3286SOL     OW10756   3.710   4.590   5.316
 3286SOL    HW110757   3.718   4.638   5.403
 3286SOL    HW210758   3.663   4.503   5.330
 3287SOL     OW10759   0.858   5.313   1.032
 3287SOL    HW110760   0.918   5.275   0.961
 3287SOL    HW210761   0.807   5.239   1.076
 3288SOL     OW10762   0.974   6.480   0.254
 3288SOL    HW110763   0.925   6.401   0.217
 3288SOL    HW210764   0.947   6.562   0.203
 3289SOL     OW10765   1.331   5.766   4.322
 3289SOL    HW110766   1.428   5.743   4.313
 3289SOL    HW210767   1.316   5.812   4.409
 3290SOL     OW10768   6.826   5.125   1.645
 3290SOL    HW110769   6.869   5.182   1.715
 3290SOL    HW210770   6.759   5.179   1.594
 3291SOL     OW10771   2.370   0.007   1.108
 3291SOL    HW110772   2.464   0.020   1.139
 3291SOL    HW210773   2.348   0.075   1.038
 3292SOL     OW10774   0.768   6.041   5.981
 3292SOL    HW110775   0.786   6.137   5.958
 3292SOL    HW210776   0.773   5.986   5.897
 3293SOL     OW10777   6.809   0.689   2.912
 3293SOL    HW110778   6.778   0.596   2.931
 3293SOL    HW210779   6.838   0.696   2.817
 3294SOL     OW10780   0.285   0.149   0.106
 3294SOL    HW110781   0.232   0.130   0.024
 3294SOL    HW210782   0.242   0.104   0.185
 3295SOL     OW10783   1.139   2.571   6.517
 3295SOL    HW110784   1.057   2.567   6.572
 3295SOL    HW210785   1.208   2.509   6.554
 3296SOL     OW10786   0.507   6.433   2.167
 3296SOL    HW110787   0.452   6.359   2.128
 3296SOL    HW210788   0.594   6.438   2.119
 3297SOL     OW10789   3.002   2.563   5.943
 3297SOL    HW110790   2.931   2.497   5.917
 3297SOL    HW210791   3.063   2.579   5.865
 3298SOL     OW10792   6.009   3.034   3.390
 3298SOL    HW110793   6.089   3.059   3.336
 3298SOL    HW210794   5.986   2.938   3.371
 3299SOL     OW10795   1.537   0.292   4.961
 3299SOL    HW110796   1.467   0.348   4.916
 3299SOL    HW210797   1.505   0.198   4.966
 3300SOL     OW10798   6.269   0.065   4.641
 3300SOL    HW110799   6.305   7.006   4.687
 3300SOL    HW210800   6.326   0.144   4.663
 3301SOL     OW10801   0.635   3.600   2.988
 3301SOL    HW110802   0.603   3.507   3.001
 3301SOL    HW210803   0.572   3.650   2.928
 3302SOL     OW10804   0.887   4.918   3.857
 3302SOL    HW110805   0.850   4.839   3.906
 3302SOL    HW210806   0.924   4.888   3.769
 3303SOL     OW10807   3.732   4.054   3.277
 3303SOL    HW110808   3.741   4.011   3.367
 3303SOL    HW210809   3.812   4.032   3.221
 3304SOL     OW10810   0.897   6.511   4.453
 3304SOL    HW110811   0.816   6.555   4.492
 3304SOL    HW210812   0.943   6.576   4.392
 3305SOL     OW10813   1.644   1.111   1.923
 3305SOL    HW110814   1.717   1.075   1.866
 3305SOL    HW210815   1.678   1.188   1.977
 3306SOL     OW10816   1.209   3.560   2.762
 3306SOL    HW110817   1.109   3.561   2.766
 3306SOL    HW210818   1.242   3.651   2.740
 3307SOL     OW10819   0.308   5.718   0.543
 3307SOL    HW110820   0.339   5.624   0.558
 3307SOL    HW210821   0.214   5.728   0.577
 3308SOL     OW10822   4.389   5.843   0.633
 3308SOL    HW110823   4.340   5.931   0.630
 3308SOL    HW210824   4.432   5.832   0.723
 3309SOL     OW10825   0.555   5.329   2.682
 3309SOL    HW110826   0.536   5.231   2.682
 3309SOL    HW210827   0.606   5.353   2.765
 3310SOL     OW10828   1.667   6.332   1.430
 3310SOL    HW110829   1.742   6.376   1.479
 3310SOL    HW210830   1.703   6.270   1.361
 3311SOL     OW10831   3.637   6.389   0.651
 3311SOL    HW110832   3.735   6.374   0.652
 3311SOL    HW210833   3.592   6.317   0.600
 3312SOL     OW10834   2.301   3.788   0.023
 3312SOL    HW110835   2.329   3.692   0.028
 3312SOL    HW210836   2.355   3.835   6.976
 3313SOL     OW10837   6.683   5.412   4.289
 3313SOL    HW110838   6.777   5.391   4.261
 3313SOL    HW210839   6.619   5.354   4.238
 3314SOL     OW10840   0.582   3.289   6.090
 3314SOL    HW110841   0.542   3.201   6.064
 3314SOL    HW210842   0.672   3.274   6.131
 3315SOL     OW10843   0.228   2.874   2.785
 3315SOL    HW110844   0.135   2.837   2.788
 3315SOL    HW210845   0.294   2.800   2.793
 3316SOL     OW10846   4.359   0.497   0.651
 3316SOL    HW110847   4.310   0.459   0.729
 3316SOL    HW210848   4.324   0.588   0.630
 3317SOL     OW10849   4.368   2.420   1.441
 3317SOL    HW110850   4.463   2.452   1.429
 3317SOL    HW210851   4.351   2.401   1.537
 3318SOL     OW10852   2.741   5.783   4.877
 3318SOL    HW110853   2.732   5.844   4.798
 3318SOL    HW210854   2.783   5.697   4.849
 3319SOL     OW10855   0.335   5.243   5.368
 3319SOL    HW110856   0.307   5.298   5.447
 3319SOL    HW210857   0.376   5.303   5.299
 3320SOL     OW10858   6.760   1.441   6.305
 3320SOL    HW110859   6.669   1.402   6.317
 3320SOL    HW210860   6.817   1.419   6.384
 3321SOL     OW10861   3.248   4.058   3.774
 3321SOL    HW110862   3.193   4.081   3.694
 3321SOL    HW210863   3.204   3.985   3.826
 3322SOL     OW10864   4.418   1.981   1.493
 3322SOL    HW110865   4.335   2.035   1.511
 3322SOL    HW210866   4.392   1.893   1.455
 3323SOL     OW10867   2.590   5.349   0.312
 3323SOL    HW110868   2.610   5.356   0.410
 3323SOL    HW210869   2.522   5.419   0.287
 3324SOL     OW10870   0.699   2.620   0.526
 3324SOL    HW110871   0.734   2.702   0.480
 3324SOL    HW210872   0.671   2.644   0.619
 3325SOL     OW10873   1.998   3.430   0.605
 3325SOL    HW110874   1.946   3.478   0.534
 3325SOL    HW210875   1.935   3.374   0.660
 3326SOL     OW10876   6.221   0.706   1.983
 3326SOL    HW110877   6.141   0.672   1.934
 3326SOL    HW210878   6.200   0.794   2.026
 3327SOL     OW10879   2.961   6.681   1.673
 3327SOL    HW110880   2.915   6.754   1.723
 3327SOL    HW210881   3.050   6.712   1.641
 3328SOL     OW10882   4.665   0.806   2.918
 3328SOL    HW110883   4.582   0.750   2.930
 3328SOL    HW210884   4.654   0.865   2.837
 3329SOL     OW10885   4.957   0.869   4.862
 3329SOL    HW110886   4.905   0.944   4.822
 3329SOL    HW210887   4.996   0.898   4.949
 3330SOL     OW10888   6.796   5.548   2.944
 3330SOL    HW110889   6.739   5.539   2.862
 3330SOL    HW210890   6.767   5.628   2.996
 3331SOL     OW10891   2.079   3.509   2.692
 3331SOL    HW110892   2.118   3.439   2.633
 3331SOL    HW210893   1.980   3.508   2.685
 3332SOL     OW10894   3.421   4.965   1.249
 3332SOL    HW110895   3.402   4.970   1.151
 3332SOL    HW210896   3.430   5.057   1.286
 3333SOL     OW10897   2.449   3.078   1.643
 3333SOL    HW110898   2.457   3.021   1.561
 3333SOL    HW210899   2.534   3.074   1.695
 3334SOL     OW10900   2.247   2.172   1.943
 3334SOL    HW110901   2.223   2.099   2.007
 3334SOL    HW210902   2.173   2.238   1.938
 3335SOL     OW10903   3.688   4.374   5.514
 3335SOL    HW110904   3.642   4.304   5.568
 3335SOL    HW210905   3.712   4.451   5.573
 3336SOL     OW10906   5.111   5.439   4.430
 3336SOL    HW110907   5.064   5.495   4.361
 3336SOL    HW210908   5.112   5.488   4.517
 3337SOL     OW10909   3.237   3.365   3.035
 3337SOL    HW110910   3.146   3.349   3.072
 3337SOL    HW210911   3.296   3.406   3.105
 3338SOL     OW10912   2.633   2.653   1.532
 3338SOL    HW110913   2.535   2.637   1.542
 3338SOL    HW210914   2.682   2.606   1.606
 3339SOL     OW10915   1.748   0.149   6.061
 3339SOL    HW110916   1.831   0.176   6.109
 3339SOL    HW210917   1.687   0.228   6.053
 3340SOL     OW10918   3.904   0.595   3.990
 3340SOL    HW110919   3.835   0.579   3.919
 3340SOL    HW210920   3.860   0.627   4.074
 3341SOL     OW10921   1.451   3.786   2.981
 3341SOL    HW110922   1.421   3.696   3.013
 3341SOL    HW210923   1.421   3.856   3.046
 3342SOL     OW10924   0.180   1.010   2.580
 3342SOL    HW110925   0.227   0.937   2.629
 3342SOL    HW210926   0.245   1.063   2.527
 3343SOL     OW10927   4.555   5.113   6.839
 3343SOL    HW110928   4.575   5.203   6.876
 3343SOL    HW210929   4.631   5.082   6.782
 3344SOL     OW10930   0.614   3.148   2.317
 3344SOL    HW110931   0.542   3.141   2.248
 3344SOL    HW210932   0.637   3.244   2.332
 3345SOL     OW10933   6.320   5.395   6.735
 3345SOL    HW110934   6.420   5.394   6.729
 3345SOL    HW210935   6.282   5.432   6.650
 3346SOL     OW10936   1.434   0.917   0.123
 3346SOL    HW110937   1.468   0.943   0.213
 3346SOL    HW210938   1.359   0.977   0.097
 3347SOL     OW10939   0.300   3.896   5.966
 3347SOL    HW110940   0.225   3.937   5.913
 3347SOL    HW210941   0.341   3.822   5.914
 3348SOL     OW10942   3.083   3.971   6.184
 3348SOL    HW110943   2.999   3.942   6.138
 3348SOL    HW210944   3.150   4.003   6.117
 3349SOL     OW10945   1.809   5.184   3.623
 3349SOL    HW110946   1.730   5.122   3.619
 3349SOL    HW210947   1.854   5.188   3.535
 3350SOL     OW10948   1.673   4.390   4.375
 3350SOL    HW110949   1.676   4.341   4.288
 3350SOL    HW210950   1.761   4.437   4.389
 3351SOL     OW10951   5.260   0.926   1.647
 3351SOL    HW110952   5.228   1.004   1.701
 3351SOL    HW210953   5.360   0.923   1.650
 3352SOL     OW10954   6.164   0.536   6.934
 3352SOL    HW110955   6.254   0.571   6.908
 3352SOL    HW210956   6.094   0.575   6.874
 3353SOL     OW10957   4.047   0.556   1.452
 3353SOL    HW110958   4.008   0.587   1.366
 3353SOL    HW210959   3.983   0.576   1.527
 3354SOL     OW10960   2.800   4.179   6.169
 3354SOL    HW110961   2.737   4.187   6.091
 3354SOL    HW210962   2.769   4.104   6.228
 3355SOL     OW10963   1.826   0.575   4.998
 3355SOL    HW110964   1.787   0.666   4.987
 3355SOL    HW210965   1.803   0.539   5.089
 3356SOL     OW10966   1.528   0.820   6.421
 3356SOL    HW110967   1.532   0.777   6.512
 3356SOL    HW210968   1.585   0.902   6.420
 3357SOL     OW10969   3.047   3.027   1.818
 3357SOL    HW110970   2.984   2.989   1.885
 3357SOL    HW210971   3.079   2.954   1.757
 3358SOL     OW10972   6.932   0.654   1.642
 3358SOL    HW110973   6.924   0.753   1.657
 3358SOL    HW210974   0.006   0.629   1.643
 3359SOL     OW10975   0.522   6.976   4.887
 3359SOL    HW110976   0.478   6.951   4.973
 3359SOL    HW210977   0.485   0.040   4.854
 3360SOL     OW10978   1.330   3.668   4.437
 3360SOL    HW110979   1.395   3.744   4.431
 3360SOL    HW210980   1.244   3.695   4.395
 3361SOL     OW10981   6.341   6.758   4.868
 3361SOL    HW110982   6.353   6.719   4.777
 3361SOL    HW210983   6.348   6.686   4.937
 3362SOL     OW10984   3.791   0.307   3.593
 3362SOL    HW110985   3.699   0.299   3.555
 3362SOL    HW210986   3.841   0.222   3.577
 3363SOL     OW10987   5.827   3.997   0.091
 3363SOL    HW110988   5.733   4.032   0.093
 3363SOL    HW210989   5.834   3.919   0.154
 3364SOL     OW10990   1.833   3.258   3.638
 3364SOL    HW110991   1.791   3.234   3.551
 3364SOL    HW210992   1.927   3.289   3.623
 3365SOL     OW10993   1.778   4.171   3.341
 3365SOL    HW110994   1.739   4.186   3.432
 3365SOL    HW210995   1.833   4.250   3.314
 3366SOL     OW10996   6.142   3.930   4.455
 3366SOL    HW110997   6.179   3.914   4.547
 3366SOL    HW210998   6.091   4.016   4.454
 3367SOL     OW10999   4.106   3.768   3.730
 3367SOL    HW111000   4.041   3.729   3.664
 3367SOL    HW211001   4.188   3.799   3.681
 3368SOL     OW11002   2.001   1.007   2.059
 3368SOL    HW111003   2.050   0.924   2.031
 3368SOL    HW211004   2.067   1.077   2.086
 3369SOL     OW11005   4.740   1.868   1.247
 3369SOL    HW111006   4.675   1.943   1.259
 3369SOL    HW211007   4.788   1.879   1.159
 3370SOL     OW11008   0.385   5.530   2.621
 3370SOL    HW111009   0.405   5.593   2.546
 3370SOL    HW211010   0.468   5.480   2.647
 3371SOL     OW11011   2.233   2.864   2.277
 3371SOL    HW111012   2.303   2.802   2.313
 3371SOL    HW211013   2.220   2.846   2.179
 3372SOL     OW11014   6.236   3.703   2.840
 3372SOL    HW111015   6.173   3.739   2.771
 3372SOL    HW211016   6.194   3.711   2.930
 3373SOL     OW11017   6.735   3.070   1.816
 3373SOL    HW111018   6.642   3.105   1.810
 3373SOL    HW211019   6.732   2.970   1.824
 3374SOL     OW11020   0.786   6.329   4.249
 3374SOL    HW111021   0.807   6.405   4.311
 3374SOL    HW211022   0.805   6.242   4.296
 3375SOL     OW11023   0.236   5.689   6.085
 3375SOL    HW111024   0.244   5.620   6.157
 3375SOL    HW211025   0.314   5.679   6.022
 3376SOL     OW11026   3.267   3.203   3.999
 3376SOL    HW111027   3.294   3.182   4.093
 3376SOL    HW211028   3.338   3.171   3.936
 3377SOL     OW11029   6.546   4.980   3.610
 3377SOL    HW111030   6.577   5.024   3.526
 3377SOL    HW211031   6.564   5.040   3.688
 3378SOL     OW11032   1.231   6.327   0.155
 3378SOL    HW111033   1.143   6.351   0.115
 3378SOL    HW211034   1.226   6.235   0.195
 3379SOL     OW11035   6.616   3.843   3.441
 3379SOL    HW111036   6.539   3.875   3.497
 3379SOL    HW211037   6.584   3.825   3.348
 3380SOL     OW11038   2.534   4.763   0.203
 3380SOL    HW111039   2.486   4.676   0.218
 3380SOL    HW211040   2.488   4.836   0.254
 3381SOL     OW11041   1.796   3.488   6.290
 3381SOL    HW111042   1.801   3.402   6.239
 3381SOL    HW211043   1.889   3.521   6.308
 3382SOL     OW11044   6.537   3.540   1.043
 3382SOL    HW111045   6.507   3.522   1.137
 3382SOL    HW211046   6.576   3.632   1.037
 3383SOL     OW11047   4.463   5.151   0.220
 3383SOL    HW111048   4.495   5.246   0.225
 3383SOL    HW211049   4.396   5.142   0.146
 3384SOL     OW11050   3.300   4.171   6.391
 3384SOL    HW111051   3.387   4.219   6.376
 3384SOL    HW211052   3.265   4.139   6.303
 3385SOL     OW11053   6.839   2.116   4.250
 3385SOL    HW111054   6.898   2.038   4.231
 3385SOL    HW211055   6.884   2.176   4.317
 3386SOL     OW11056   0.200   4.782   4.814
 3386SOL    HW111057   0.238   4.788   4.907
 3386SOL    HW211058   0.160   4.870   4.788
 3387SOL     OW11059   6.788   1.232   3.067
 3387SOL    HW111060   6.862   1.165   3.073
 3387SOL    HW211061   6.716   1.197   3.007
 3388SOL     OW11062   6.735   3.655   1.401
 3388SOL    HW111063   6.689   3.682   1.485
 3388SOL    HW211064   6.824   3.613   1.424
 3389SOL     OW11065   5.420   6.137   0.042
 3389SOL    HW111066   5.497   6.073   0.045
 3389SOL    HW211067   5.451   6.223   0.000
 3390SOL     OW11068   3.101   5.882   6.348
 3390SOL    HW111069   3.102   5.967   6.401
 3390SOL    HW211070   3.024   5.884   6.284
 3391SOL     OW11071   5.560   3.694   3.839
 3391SOL    HW111072   5.506   3.651   3.912
 3391SOL    HW211073   5.614   3.768   3.877
 3392SOL     OW11074   5.042   0.465   5.909
 3392SOL    HW111075   4.973   0.517   5.858
 3392SOL    HW211076   5.030   0.367   5.892
 3393SOL     OW11077   4.491   6.166   0.610
 3393SOL    HW111078   4.515   6.131   0.519
 3393SOL    HW211079   4.394   6.150   0.626
 3394SOL     OW11080   2.559   5.446   1.099
 3394SOL    HW111081   2.544   5.437   1.197
 3394SOL    HW211082   2.471   5.457   1.053
 3395SOL     OW11083   2.105   6.959   3.550
 3395SOL    HW111084   2.170   6.926   3.481
 3395SOL    HW211085   2.023   6.994   3.503
 3396SOL     OW11086   4.535   0.700   4.142
 3396SOL    HW111087   4.533   0.667   4.237
 3396SOL    HW211088   4.630   0.713   4.114
 3397SOL     OW11089   2.495   5.660   6.777
 3397SOL    HW111090   2.446   5.676   6.863
 3397SOL    HW211091   2.451   5.713   6.705
 3398SOL     OW11092   6.149   2.480   4.828
 3398SOL    HW111093   6.134   2.383   4.847
 3398SOL    HW211094   6.237   2.491   4.782
 3399SOL     OW11095   6.771   6.124   1.575
 3399SOL    HW111096   6.795   6.177   1.494
 3399SOL    HW211097   6.756   6.186   1.652
 3400SOL     OW11098   4.438   3.060   5.963
 3400SOL    HW111099   4.499   3.095   6.034
 3400SOL    HW211100   4.415   2.965   5.982
 3401SOL     OW11101   5.898   4.098   5.856
 3401SOL    HW111102   5.975   4.044   5.891
 3401SOL    HW211103   5.931   4.164   5.789
 3402SOL     OW11104   6.520   3.135   0.980
 3402SOL    HW111105   6.497   3.099   1.070
 3402SOL    HW211106   6.470   3.220   0.964
 3403SOL     OW11107   5.593   6.663   6.813
 3403SOL    HW111108   5.538   6.738   6.852
 3403SOL    HW211109   5.545   6.626   6.733
 3404SOL     OW11110   5.221   4.309   4.853
 3404SOL    HW111111   5.162   4.228   4.844
 3404SOL    HW211112   5.164   4.391   4.854
 3405SOL     OW11113   4.947   6.266   0.187
 3405SOL    HW111114   5.005   6.337   0.148
 3405SOL    HW211115   4.968   6.256   0.285
 3406SOL     OW11116   2.510   5.516   1.564
 3406SOL    HW111117   2.465   5.591   1.514
 3406SOL    HW211118   2.452   5.486   1.639
 3407SOL     OW11119   0.816   3.863   6.848
 3407SOL    HW111120   0.840   3.816   6.763
 3407SOL    HW211121   0.842   3.806   6.926
 3408SOL     OW11122   4.921   0.617   3.491
 3408SOL    HW111123   4.944   0.521   3.509
 3408SOL    HW211124   4.927   0.670   3.575
 3409SOL     OW11125   4.260   0.771   0.851
 3409SOL    HW111126   4.281   0.865   0.879
 3409SOL    HW211127   4.320   0.708   0.900
 3410SOL     OW11128   6.261   0.357   3.293
 3410SOL    HW111129   6.185   0.421   3.307
 3410SOL    HW211130   6.322   0.393   3.222
 3411SOL     OW11131   6.112   3.326   6.248
 3411SOL    HW111132   6.079   3.418   6.267
 3411SOL    HW211133   6.205   3.315   6.283
 3412SOL     OW11134   5.378   3.423   1.413
 3412SOL    HW111135   5.303   3.397   1.351
 3412SOL    HW211136   5.343   3.427   1.507
 3413SOL     OW11137   6.956   1.183   0.254
 3413SOL    HW111138   6.973   1.087   0.230
 3413SOL    HW211139   6.913   1.188   0.344
 3414SOL     OW11140   2.927   4.315   1.147
 3414SOL    HW111141   2.882   4.380   1.086
 3414SOL    HW211142   2.986   4.254   1.093
 3415SOL     OW11143   2.264   1.287   5.890
 3415SOL    HW111144   2.355   1.325   5.876
 3415SOL    HW211145   2.237   1.300   5.986
 3416SOL     OW11146   6.304   6.946   6.751
 3416SOL    HW111147   6.282   6.855   6.786
 3416SOL    HW211148   6.253   6.963   6.667
 3417SOL     OW11149   5.980   6.332   3.202
 3417SOL    HW111150   5.914   6.298   3.269
 3417SOL    HW211151   6.073   6.322   3.238
 3418SOL     OW11152   3.797   5.541   0.882
 3418SOL    HW111153   3.806   5.474   0.956
 3418SOL    HW211154   3.876   5.537   0.822
 3419SOL     OW11155   2.712   5.511   5.606
 3419SOL    HW111156   2.638   5.552   5.659
 3419SOL    HW211157   2.686   5.420   5.576
 3420SOL     OW11158   4.677   1.797   2.524
 3420SOL    HW111159   4.714   1.844   2.604
 3420SOL    HW211160   4.738   1.722   2.499
 3421SOL     OW11161   0.525   2.340   4.833
 3421SOL    HW111162   0.500   2.257   4.883
 3421SOL    HW211163   0.523   2.322   4.735
 3422SOL     OW11164   2.224   6.288   1.178
 3422SOL    HW111165   2.236   6.387   1.182
 3422SOL    HW211166   2.311   6.245   1.153
 3423SOL     OW11167   1.351   4.635   5.392
 3423SOL    HW111168   1.341   4.718   5.448
 3423SOL    HW211169   1.261   4.603   5.363
 3424SOL     OW11170   4.953   1.510   2.028
 3424SOL    HW111171   4.910   1.516   1.937
 3424SOL    HW211172   4.910   1.576   2.089
 3425SOL     OW11173   6.411   3.409   6.387
 3425SOL    HW111174   6.468   3.349   6.332
 3425SOL    HW211175   6.469   3.472   6.438
 3426SOL     OW11176   6.186   3.004   6.174
 3426SOL    HW111177   6.171   3.041   6.266
 3426SOL    HW211178   6.274   3.037   6.139
 3427SOL     OW11179   0.654   2.282   0.403
 3427SOL    HW111180   0.666   2.273   0.502
 3427SOL    HW211181   0.614   2.372   0.382
 3428SOL     OW11182   4.411   6.150   5.073
 3428SOL    HW111183   4.494   6.104   5.039
 3428SOL    HW211184   4.437   6.235   5.119
 3429SOL     OW11185   5.449   0.039   1.506
 3429SOL    HW111186   5.403   6.980   1.539
 3429SOL    HW211187   5.526   0.013   1.448
 3430SOL     OW11188   2.337   4.541   5.486
 3430SOL    HW111189   2.360   4.447   5.459
 3430SOL    HW211190   2.251   4.541   5.536
 3431SOL     OW11191   0.604   4.793   2.609
 3431SOL    HW111192   0.653   4.766   2.692
 3431SOL    HW211193   0.602   4.715   2.546
 3432SOL     OW11194   0.980   4.467   7.012
 3432SOL    HW111195   1.066   4.470   6.960
 3432SOL    HW211196   0.914   4.530   6.972
 3433SOL     OW11197   2.920   1.299   6.851
 3433SOL    HW111198   2.903   1.229   6.781
 3433SOL    HW211199   3.010   1.340   6.836
 3434SOL     OW11200   3.610   2.567   1.752
 3434SOL    HW111201   3.527   2.551   1.697
 3434SOL    HW211202   3.628   2.486   1.808
 3435SOL     OW11203   2.148   1.553   0.914
 3435SOL    HW111204   2.055   1.540   0.881
 3435SOL    HW211205   2.177   1.470   0.962
 3436SOL     OW11206   3.397   6.778   5.988
 3436SOL    HW111207   3.380   6.694   5.935
 3436SOL    HW211208   3.492   6.778   6.019
 3437SOL     OW11209   1.491   0.133   6.303
 3437SOL    HW111210   1.467   0.077   6.224
 3437SOL    HW211211   1.419   0.201   6.319
 3438SOL     OW11212   1.837   3.865   1.010
 3438SOL    HW111213   1.858   3.934   0.941
 3438SOL    HW211214   1.827   3.775   0.967
 3439SOL     OW11215   2.351   5.711   1.387
 3439SOL    HW111216   2.308   5.627   1.356
 3439SOL    HW211217   2.347   5.780   1.314
 3440SOL     OW11218   3.796   4.231   5.126
 3440SOL    HW111219   3.765   4.138   5.141
 3440SOL    HW211220   3.859   4.258   5.199
 3441SOL     OW11221   5.596   4.783   6.105
 3441SOL    HW111222   5.510   4.828   6.081
 3441SOL    HW211223   5.591   4.748   6.198
 3442SOL     OW11224   2.764   3.693   1.099
 3442SOL    HW111225   2.682   3.649   1.136
 3442SOL    HW211226   2.789   3.770   1.157
 3443SOL     OW11227   0.421   5.920   2.216
 3443SOL    HW111228   0.365   5.969   2.283
 3443SOL    HW211229   0.502   5.882   2.261
 3444SOL     OW11230   6.148   4.022   6.137
 3444SOL    HW111231   6.067   4.077   6.156
 3444SOL    HW211232   6.228   4.081   6.129
 3445SOL     OW11233   6.398   4.935   3.974
 3445SOL    HW111234   6.479   4.986   3.943
 3445SOL    HW211235   6.356   4.984   4.051
 3446SOL     OW11236   4.384   1.020   1.495
 3446SOL    HW111237   4.316   0.950   1.477
 3446SOL    HW211238   4.371   1.097   1.433
 3447SOL     OW11239   5.120   0.841   6.112
 3447SOL    HW111240   5.170   0.927   6.120
 3447SOL    HW211241   5.090   0.829   6.017
 3448SOL     OW11242   1.776   4.715   5.125
 3448SOL    HW111243   1.813   4.648   5.190
 3448SOL    HW211244   1.731   4.789   5.176
 3449SOL     OW11245   6.962   4.719   5.622
 3449SOL    HW111246   6.983   4.738   5.526
 3449SOL    HW211247   0.022   4.687   5.669
 3450SOL     OW11248   2.252   6.333   1.662
 3450SOL    HW111249   2.224   6.249   1.616
 3450SOL    HW211250   2.179   6.363   1.724
 3451SOL     OW11251   2.287   1.738   1.552
 3451SOL    HW111252   2.313   1.764   1.459
 3451SOL    HW211253   2.368   1.737   1.610
 3452SOL     OW11254   4.552   1.017   4.789
 3452SOL    HW111255   4.576   0.920   4.788
 3452SOL    HW211256   4.636   1.072   4.794
 3453SOL     OW11257   4.186   6.588   6.563
 3453SOL    HW111258   4.132   6.637   6.631
 3453SOL    HW211259   4.178   6.635   6.475
 3454SOL     OW11260   6.864   2.886   1.152
 3454SOL    HW111261   6.936   2.851   1.213
 3454SOL    HW211262   6.776   2.849   1.181
 3455SOL     OW11263   0.349   3.132   5.815
 3455SOL    HW111264   0.399   3.051   5.785
 3455SOL    HW211265   0.391   3.214   5.778
 3456SOL     OW11266   5.275   5.467   3.643
 3456SOL    HW111267   5.345   5.533   3.671
 3456SOL    HW211268   5.290   5.381   3.692
 3457SOL     OW11269   2.976   4.438   6.201
 3457SOL    HW111270   2.914   4.390   6.263
 3457SOL    HW211271   2.983   4.387   6.116
 3458SOL     OW11272   4.406   1.081   2.286
 3458SOL    HW111273   4.471   1.005   2.274
 3458SOL    HW211274   4.360   1.072   2.374
 3459SOL     OW11275   5.214   6.200   2.431
 3459SOL    HW111276   5.212   6.299   2.445
 3459SOL    HW211277   5.287   6.160   2.487
 3460SOL     OW11278   3.918   1.841   5.198
 3460SOL    HW111279   3.999   1.853   5.141
 3460SOL    HW211280   3.875   1.929   5.216
 3461SOL     OW11281   5.525   4.834   4.814
 3461SOL    HW111282   5.562   4.770   4.881
 3461SOL    HW211283   5.449   4.790   4.764
 3462SOL     OW11284   1.315   3.306   6.241
 3462SOL    HW111285   1.256   3.236   6.280
 3462SOL    HW211286   1.285   3.396   6.272
 3463SOL     OW11287   5.264   4.062   0.336
 3463SOL    HW111288   5.338   4.122   0.366
 3463SOL    HW211289   5.303   3.975   0.304
 3464SOL     OW11290   0.559   4.422   4.817
 3464SOL    HW111291   0.620   4.468   4.752
 3464SOL    HW211292   0.501   4.357   4.768
 3465SOL     OW11293   0.957   1.380   2.173
 3465SOL    HW111294   0.867   1.337   2.164
 3465SOL    HW211295   1.019   1.343   2.103
 3466SOL     OW11296   6.563   3.555   5.737
 3466SOL    HW111297   6.569   3.616   5.658
 3466SOL    HW211298   6.567   3.460   5.706
 3467SOL     OW11299   2.094   2.983   6.568
 3467SOL    HW111300   2.188   2.975   6.535
 3467SOL    HW211301   2.071   3.080   6.577
 3468SOL     OW11302   4.275   6.718   3.027
 3468SOL    HW111303   4.285   6.721   3.127
 3468SOL    HW211304   4.277   6.811   2.991
 3469SOL     OW11305   4.912   3.597   2.016
 3469SOL    HW111306   4.874   3.547   1.939
 3469SOL    HW211307   4.984   3.542   2.059
 3470SOL     OW11308   6.677   5.358   1.095
 3470SOL    HW111309   6.747   5.289   1.113
 3470SOL    HW211310   6.596   5.338   1.149
 3471SOL     OW11311   4.292   0.304   4.493
 3471SOL    HW111312   4.274   0.213   4.453
 3471SOL    HW211313   4.390   0.315   4.508
 3472SOL     OW11314   4.075   1.184   4.944
 3472SOL    HW111315   3.997   1.134   4.908
 3472SOL    HW211316   4.160   1.138   4.916
 3473SOL     OW11317   4.669   0.218   4.361
 3473SOL    HW111318   4.605   0.152   4.400
 3473SOL    HW211319   4.708   0.181   4.277
 3474SOL     OW11320   5.006   4.296   0.713
 3474SOL    HW111321   5.088   4.335   0.755
 3474SOL    HW211322   4.982   4.347   0.631
 3475SOL     OW11323   1.765   6.245   4.676
 3475SOL    HW111324   1.795   6.340   4.664
 3475SOL    HW211325   1.666   6.242   4.683
 3476SOL     OW11326   4.626   1.265   4.345
 3476SOL    HW111327   4.666   1.179   4.316
 3476SOL    HW211328   4.699   1.330   4.367
 3477SOL     OW11329   4.317   5.183   2.265
 3477SOL    HW111330   4.325   5.249   2.191
 3477SOL    HW211331   4.225   5.142   2.264
 3478SOL     OW11332   4.240   4.980   6.658
 3478SOL    HW111333   4.322   4.965   6.603
 3478SOL    HW211334   4.250   4.933   6.746
 3479SOL     OW11335   1.163   0.063   1.811
 3479SOL    HW111336   1.141   0.113   1.727
 3479SOL    HW211337   1.182   6.990   1.789
 3480SOL     OW11338   1.431   0.919   4.177
 3480SOL    HW111339   1.498   0.983   4.139
 3480SOL    HW211340   1.478   0.841   4.218
 3481SOL     OW11341   2.385   0.100   6.615
 3481SOL    HW111342   2.419   0.021   6.564
 3481SOL    HW211343   2.462   0.144   6.663
 3482SOL     OW11344   1.044   1.739   1.162
 3482SOL    HW111345   1.033   1.774   1.255
 3482SOL    HW211346   1.084   1.647   1.166
 3483SOL     OW11347   4.018   1.810   0.613
 3483SOL    HW111348   3.986   1.724   0.572
 3483SOL    HW211349   3.954   1.839   0.684
 3484SOL     OW11350   2.926   3.550   3.641
 3484SOL    HW111351   2.899   3.501   3.558
 3484SOL    HW211352   2.904   3.493   3.721
 3485SOL     OW11353   6.852   1.514   4.648
 3485SOL    HW111354   6.884   1.431   4.603
 3485SOL    HW211355   6.753   1.509   4.660
 3486SOL     OW11356   4.984   1.595   2.877
 3486SOL    HW111357   5.072   1.641   2.878
 3486SOL    HW211358   4.934   1.617   2.961
 3487SOL     OW11359   0.377   0.330   6.861
 3487SOL    HW111360   0.354   0.369   6.950
 3487SOL    HW211361   0.475   0.344   6.844
 3488SOL     OW11362   6.065   3.066   3.661
 3488SOL    HW111363   6.037   3.083   3.567
 3488SOL    HW211364   6.009   3.119   3.724
 3489SOL     OW11365   2.080   6.715   0.740
 3489SOL    HW111366   2.140   6.714   0.660
 3489SOL    HW211367   1.984   6.721   0.710
 3490SOL     OW11368   4.020   2.416   1.340
 3490SOL    HW111369   4.050   2.398   1.246
 3490SOL    HW211370   4.060   2.348   1.401
 3491SOL     OW11371   6.673   2.803   5.053
 3491SOL    HW111372   6.644   2.791   5.148
 3491SOL    HW211373   6.727   2.887   5.045
 3492SOL     OW11374   5.977   5.111   6.062
 3492SOL    HW111375   5.974   5.024   6.014
 3492SOL    HW211376   5.906   5.172   6.027
 3493SOL     OW11377   0.173   4.545   1.057
 3493SOL    HW111378   0.241   4.617   1.071
 3493SOL    HW211379   0.158   4.496   1.144
 3494SOL     OW11380   2.913   6.350   0.943
 3494SOL    HW111381   2.831   6.408   0.939
 3494SOL    HW211382   2.994   6.408   0.951
 3495SOL     OW11383   5.164   4.679   0.790
 3495SOL    HW111384   5.136   4.738   0.715
 3495SOL    HW211385   5.086   4.625   0.821
 3496SOL     OW11386   1.472   4.539   0.301
 3496SOL    HW111387   1.521   4.473   0.359
 3496SOL    HW211388   1.533   4.615   0.278
 3497SOL     OW11389   4.406   6.594   3.732
 3497SOL    HW111390   4.420   6.630   3.824
 3497SOL    HW211391   4.323   6.537   3.731
 3498SOL     OW11392   2.021   1.866   1.366
 3498SOL    HW111393   2.118   1.844   1.360
 3498SOL    HW211394   1.975   1.834   1.283
 3499SOL     OW11395   6.284   3.917   4.104
 3499SOL    HW111396   6.203   3.975   4.114
 3499SOL    HW211397   6.256   3.824   4.083
 3500SOL     OW11398   6.636   2.713   0.910
 3500SOL    HW111399   6.619   2.757   0.998
 3500SOL    HW211400   6.606   2.617   0.914
 3501SOL     OW11401   0.619   4.371   4.209
 3501SOL    HW111402   0.650   4.464   4.231
 3501SOL    HW211403   0.623   4.314   4.291
 3502SOL     OW11404   1.328   4.003   1.790
 3502SOL    HW111405   1.252   4.013   1.727
 3502SOL    HW211406   1.374   4.091   1.802
 3503SOL     OW11407   4.318   6.133   3.682
 3503SOL    HW111408   4.304   6.210   3.745
 3503SOL    HW211409   4.414   6.106   3.683
 3504SOL     OW11410   2.174   3.016   2.537
 3504SOL    HW111411   2.175   2.994   2.440
 3504SOL    HW211412   2.152   3.113   2.549
 3505SOL     OW11413   4.547   5.770   5.162
 3505SOL    HW111414   4.607   5.701   5.202
 3505SOL    HW211415   4.579   5.791   5.069
 3506SOL     OW11416   5.809   4.911   2.391
 3506SOL    HW111417   5.849   4.836   2.339
 3506SOL    HW211418   5.773   4.980   2.328
 3507SOL     OW11419   0.267   0.675   6.351
 3507SOL    HW111420   0.336   0.635   6.290
 3507SOL    HW211421   0.239   0.607   6.418
 3508SOL     OW11422   6.708   3.440   0.446
 3508SOL    HW111423   6.703   3.354   0.395
 3508SOL    HW211424   6.670   3.426   0.538
 3509SOL     OW11425   6.814   0.111   0.974
 3509SOL    HW111426   6.784   0.097   1.068
 3509SOL    HW211427   6.913   0.098   0.967
 3510SOL     OW11428   1.503   2.587   1.521
 3510SOL    HW111429   1.536   2.619   1.432
 3510SOL    HW211430   1.429   2.522   1.507
 3511SOL     OW11431   0.837   0.751   5.365
 3511SOL    HW111432   0.799   0.823   5.423
 3511SOL    HW211433   0.834   0.664   5.414
 3512SOL     OW11434   2.950   3.517   0.947
 3512SOL    HW111435   2.903   3.429   0.950
 3512SOL    HW211436   2.906   3.581   1.009
 3513SOL     OW11437   6.068   4.151   1.468
 3513SOL    HW111438   6.127   4.221   1.509
 3513SOL    HW211439   5.972   4.174   1.489
 3514SOL     OW11440   1.743   6.757   1.780
 3514SOL    HW111441   1.816   6.711   1.831
 3514SOL    HW211442   1.670   6.692   1.761
 3515SOL     OW11443   3.239   6.076   2.929
 3515SOL    HW111444   3.159   6.034   2.887
 3515SOL    HW211445   3.307   6.005   2.949
 3516SOL     OW11446   3.615   1.011   0.513
 3516SOL    HW111447   3.672   0.935   0.545
 3516SOL    HW211448   3.609   1.008   0.413
 3517SOL     OW11449   1.148   0.560   6.652
 3517SOL    HW111450   1.189   0.577   6.742
 3517SOL    HW211451   1.120   0.647   6.612
 3518SOL     OW11452   4.553   3.399   5.611
 3518SOL    HW111453   4.634   3.369   5.660
 3518SOL    HW211454   4.480   3.419   5.676
 3519SOL     OW11455   2.969   6.419   0.633
 3519SOL    HW111456   2.899   6.482   0.664
 3519SOL    HW211457   3.052   6.469   0.611
 3520SOL     OW11458   3.512   5.570   1.732
 3520SOL    HW111459   3.548   5.481   1.760
 3520SOL    HW211460   3.521   5.580   1.633
 3521SOL     OW11461   5.284   2.108   6.671
 3521SOL    HW111462   5.369   2.095   6.722
 3521SOL    HW211463   5.239   2.192   6.701
 3522SOL     OW11464   3.311   5.527   1.462
 3522SOL    HW111465   3.389   5.588   1.450
 3522SOL    HW211466   3.264   5.550   1.548
 3523SOL     OW11467   2.238   5.182   5.457
 3523SOL    HW111468   2.284   5.271   5.455
 3523SOL    HW211469   2.299   5.111   5.422
 3524SOL     OW11470   2.588   7.001   1.251
 3524SOL    HW111471   2.541   6.926   1.299
 3524SOL    HW211472   2.653   0.022   1.313
 3525SOL     OW11473   1.766   3.261   2.520
 3525SOL    HW111474   1.706   3.305   2.453
 3525SOL    HW211475   1.712   3.201   2.579
 3526SOL     OW11476   2.635   0.059   3.125
 3526SOL    HW111477   2.710   7.017   3.141
 3526SOL    HW211478   2.577   0.025   3.051
 3527SOL     OW11479   5.194   3.318   5.624
 3527SOL    HW111480   5.241   3.286   5.706
 3527SOL    HW211481   5.114   3.259   5.607
 3528SOL     OW11482   1.157   6.774   4.479
 3528SOL    HW111483   1.177   6.682   4.447
 3528SOL    HW211484   1.061   6.796   4.460
 3529SOL     OW11485   3.694   6.068   6.877
 3529SOL    HW111486   3.619   6.092   6.816
 3529SOL    HW211487   3.694   5.969   6.892
 3530SOL     OW11488   1.368   5.431   2.876
 3530SOL    HW111489   1.453   5.401   2.833
 3530SOL    HW211490   1.343   5.521   2.841
 3531SOL     OW11491   4.925   3.780   6.863
 3531SOL    HW111492   4.896   3.851   6.799
 3531SOL    HW211493   4.981   3.821   6.936
 3532SOL     OW11494   1.713   6.672   0.522
 3532SOL    HW111495   1.719   6.614   0.603
 3532SOL    HW211496   1.705   6.768   0.550
 3533SOL     OW11497   1.234   1.089   4.258
 3533SOL    HW111498   1.287   1.158   4.308
 3533SOL    HW211499   1.297   1.026   4.211
 3534SOL     OW11500   5.120   0.409   4.629
 3534SOL    HW111501   5.183   0.384   4.555
 3534SOL    HW211502   5.127   0.342   4.703
 3535SOL     OW11503   4.098   6.405   6.769
 3535SOL    HW111504   4.145   6.463   6.702
 3535SOL    HW211505   4.075   6.458   6.850
 3536SOL     OW11506   1.087   3.939   3.164
 3536SOL    HW111507   1.130   3.919   3.253
 3536SOL    HW211508   1.012   4.004   3.177
 3537SOL     OW11509   2.458   5.199   0.785
 3537SOL    HW111510   2.423   5.149   0.864
 3537SOL    HW211511   2.554   5.222   0.800
 3538SOL     OW11512   2.985   0.911   3.601
 3538SOL    HW111513   3.042   0.853   3.542
 3538SOL    HW211514   2.981   1.003   3.563
 3539SOL     OW11515   5.079   6.219   6.763
 3539SOL    HW111516   5.155   6.171   6.807
 3539SOL    HW211517   5.022   6.153   6.715
 3540SOL     OW11518   2.906   4.373   5.904
 3540SOL    HW111519   2.851   4.316   5.842
 3540SOL    HW211520   2.924   4.461   5.860
 3541SOL     OW11521   2.104   2.930   1.321
 3541SOL    HW111522   2.131   2.845   1.275
 3541SOL    HW211523   2.124   2.923   1.418
 3542SOL     OW11524   5.528   1.492   6.760
 3542SOL    HW111525   5.614   1.465   6.802
 3542SOL    HW211526   5.464   1.415   6.760
 3543SOL     OW11527   0.702   2.102   3.939
 3543SOL    HW111528   0.605   2.084   3.918
 3543SOL    HW211529   0.737   2.029   3.997
 3544SOL     OW11530   3.059   3.955   0.008
 3544SOL    HW111531   3.021   3.981   6.942
 3544SOL    HW211532   3.152   3.989   0.015
 3545SOL     OW11533   4.017   0.240   1.038
 3545SOL    HW111534   3.949   0.178   1.076
 3545SOL    HW211535   4.068   0.284   1.112
 3546SOL     OW11536   6.279   4.146   2.522
 3546SOL    HW111537   6.374   4.174   2.514
 3546SOL    HW211538   6.274   4.046   2.526
 3547SOL     OW11539   1.022   3.739   4.570
 3547SOL    HW111540   1.089   3.802   4.607
 3547SOL    HW211541   1.036   3.728   4.472
 3548SOL     OW11542   5.966   0.322   5.162
 3548SOL    HW111543   5.911   0.325   5.246
 3548SOL    HW211544   5.991   0.227   5.142
 3549SOL     OW11545   2.709   6.773   0.067
 3549SOL    HW111546   2.666   6.844   0.011
 3549SOL    HW211547   2.660   6.687   0.055
 3550SOL     OW11548   5.344   1.056   4.957
 3550SOL    HW111549   5.311   1.119   4.887
 3550SOL    HW211550   5.323   1.093   5.048
 3551SOL     OW11551   4.728   2.211   4.368
 3551SOL    HW111552   4.724   2.130   4.426
 3551SOL    HW211553   4.672   2.197   4.287
 3552SOL     OW11554   6.504   6.909   3.523
 3552SOL    HW111555   6.426   6.888   3.464
 3552SOL    HW211556   6.474   6.963   3.601
 3553SOL     OW11557   6.063   5.773   6.877
 3553SOL    HW111558   6.064   5.673   6.880
 3553SOL    HW211559   6.146   5.806   6.832
 3554SOL     OW11560   5.935   4.287   0.051
 3554SOL    HW111561   5.946   4.284   0.150
 3554SOL    HW211562   5.919   4.195   0.016
 3555SOL     OW11563   3.090   1.663   4.829
 3555SOL    HW111564   3.008   1.715   4.853
 3555SOL    HW211565   3.169   1.725   4.826
 3556SOL     OW11566   5.488   0.953   6.699
 3556SOL    HW111567   5.451   0.886   6.635
 3556SOL    HW211568   5.587   0.941   6.706
 3557SOL     OW11569   5.978   0.397   1.189
 3557SOL    HW111570   5.948   0.429   1.279
 3557SOL    HW211571   6.050   0.457   1.154
 3558SOL     OW11572   3.662   5.736   2.207
 3558SOL    HW111573   3.668   5.766   2.112
 3558SOL    HW211574   3.703   5.806   2.266
 3559SOL     OW11575   4.792   6.998   6.136
 3559SOL    HW111576   4.850   0.032   6.195
 3559SOL    HW211577   4.741   6.933   6.192
 3560SOL     OW11578   2.029   5.457   3.996
 3560SOL    HW111579   2.109   5.474   4.053
 3560SOL    HW211580   2.054   5.471   3.900
 3561SOL     OW11581   4.510   3.566   5.396
 3561SOL    HW111582   4.509   3.514   5.481
 3561SOL    HW211583   4.600   3.557   5.352
 3562SOL     OW11584   2.091   1.449   6.372
 3562SOL    HW111585   2.060   1.383   6.440
 3562SOL    HW211586   2.189   1.468   6.385
 3563SOL     OW11587   6.178   2.720   5.881
 3563SOL    HW111588   6.203   2.794   5.819
 3563SOL    HW211589   6.188   2.751   5.976
 3564SOL     OW11590   5.941   3.696   2.070
 3564SOL    HW111591   5.874   3.632   2.107
 3564SOL    HW211592   5.901   3.787   2.064
 3565SOL     OW11593   3.860   6.021   4.590
 3565SOL    HW111594   3.883   5.929   4.622
 3565SOL    HW211595   3.761   6.029   4.576
 3566SOL     OW11596   0.989   6.679   5.032
 3566SOL    HW111597   1.046   6.749   5.074
 3566SOL    HW211598   0.897   6.714   5.019
 3567SOL     OW11599   0.021   2.942   6.375
 3567SOL    HW111600   0.096   2.915   6.435
 3567SOL    HW211601   6.969   2.876   6.384
 3568SOL     OW11602   5.174   4.095   6.195
 3568SOL    HW111603   5.269   4.099   6.162
 3568SOL    HW211604   5.141   4.187   6.215
 3569SOL     OW11605   1.508   0.604   4.676
 3569SOL    HW111606   1.426   0.655   4.703
 3569SOL    HW211607   1.495   0.564   4.586
 3570SOL     OW11608   5.165   1.734   3.678
 3570SOL    HW111609   5.196   1.676   3.603
 3570SOL    HW211610   5.167   1.830   3.648
 3571SOL     OW11611   6.275   6.476   5.553
 3571SOL    HW111612   6.296   6.446   5.646
 3571SOL    HW211613   6.221   6.406   5.506
 3572SOL     OW11614   6.671   6.076   4.485
 3572SOL    HW111615   6.621   6.163   4.490
 3572SOL    HW211616   6.622   6.007   4.539
 3573SOL     OW11617   1.543   1.918   1.848
 3573SOL    HW111618   1.465   1.914   1.785
 3573SOL    HW211619   1.520   1.974   1.927
 3574SOL     OW11620   6.621   3.611   0.073
 3574SOL    HW111621   6.601   3.601   0.170
 3574SOL    HW211622   6.689   3.543   0.046
 3575SOL     OW11623   6.294   5.818   1.742
 3575SOL    HW111624   6.276   5.885   1.670
 3575SOL    HW211625   6.212   5.764   1.760
 3576SOL     OW11626   0.567   2.007   6.327
 3576SOL    HW111627   0.574   1.987   6.230
 3576SOL    HW211628   0.626   2.084   6.350
 3577SOL     OW11629   1.701   2.812   0.047
 3577SOL    HW111630   1.637   2.845   7.000
 3577SOL    HW211631   1.756   2.738   0.008
 3578SOL     OW11632   3.600   5.222   1.018
 3578SOL    HW111633   3.588   5.312   1.061
 3578SOL    HW211634   3.582   5.230   0.920
 3579SOL     OW11635   0.490   4.096   5.046
 3579SOL    HW111636   0.565   4.073   5.109
 3579SOL    HW211637   0.405   4.057   5.081
 3580SOL     OW11638   6.907   1.905   1.981
 3580SOL    HW111639   6.949   1.995   1.973
 3580SOL    HW211640   6.920   1.870   2.074
 3581SOL     OW11641   6.378   0.496   3.108
 3581SOL    HW111642   6.364   0.470   3.012
 3581SOL    HW211643   6.379   0.595   3.117
 3582SOL     OW11644   0.218   0.566   6.003
 3582SOL    HW111645   0.268   0.607   5.927
 3582SOL    HW211646   0.261   0.594   6.089
 3583SOL     OW11647   2.394   5.569   0.125
 3583SOL    HW111648   2.366   5.536   0.035
 3583SOL    HW211649   2.434   5.660   0.117
 3584SOL     OW11650   5.187   6.917   5.678
 3584SOL    HW111651   5.155   6.975   5.603
 3584SOL    HW211652   5.123   6.922   5.755
 3585SOL     OW11653   2.790   4.699   3.840
 3585SOL    HW111654   2.721   4.631   3.863
 3585SOL    HW211655   2.786   4.775   3.906
 3586SOL     OW11656   6.693   1.945   6.546
 3586SOL    HW111657   6.749   2.023   6.519
 3586SOL    HW211658   6.728   1.862   6.503
 3587SOL     OW11659   4.022   0.092   6.163
 3587SOL    HW111660   4.037   0.128   6.255
 3587SOL    HW211661   4.052   0.160   6.095
 3588SOL     OW11662   2.259   1.651   5.491
 3588SOL    HW111663   2.268   1.718   5.565
 3588SOL    HW211664   2.314   1.680   5.412
 3589SOL     OW11665   3.035   0.375   5.361
 3589SOL    HW111666   2.948   0.425   5.366
 3589SOL    HW211667   3.110   0.438   5.382
 3590SOL     OW11668   1.890   5.201   6.471
 3590SOL    HW111669   1.884   5.211   6.571
 3590SOL    HW211670   1.913   5.106   6.448
 3591SOL     OW11671   4.996   2.344   5.826
 3591SOL    HW111672   5.089   2.364   5.858
 3591SOL    HW211673   4.944   2.430   5.823
 3592SOL     OW11674   4.905   2.956   1.803
 3592SOL    HW111675   4.849   2.960   1.721
 3592SOL    HW211676   4.855   2.997   1.880
 3593SOL     OW11677   1.514   5.083   3.037
 3593SOL    HW111678   1.602   5.056   2.997
 3593SOL    HW211679   1.440   5.042   2.985
 3594SOL     OW11680   3.280   0.965   4.285
 3594SOL    HW111681   3.250   0.869   4.280
 3594SOL    HW211682   3.199   1.024   4.292
 3595SOL     OW11683   2.766   6.161   5.304
 3595SOL    HW111684   2.762   6.157   5.204
 3595SOL    HW211685   2.751   6.256   5.334
 3596SOL     OW11686   6.697   2.896   2.977
 3596SOL    HW111687   6.688   2.979   3.032
 3596SOL    HW211688   6.635   2.826   3.013
 3597SOL     OW11689   4.186   5.726   3.587
 3597SOL    HW111690   4.202   5.725   3.488
 3597SOL    HW211691   4.098   5.684   3.607
 3598SOL     OW11692   0.967   0.016   0.221
 3598SOL    HW111693   0.945   0.014   0.319
 3598SOL    HW211694   1.059   7.004   0.207
 3599SOL     OW11695   0.027   1.824   4.426
 3599SOL    HW111696   0.105   1.762   4.439
 3599SOL    HW211697   0.037   1.902   4.487
 3600SOL     OW11698   5.881   0.566   0.695
 3600SOL    HW111699   5.949   0.571   0.621
 3600SOL    HW211700   5.809   0.633   0.679
 3601SOL     OW11701   6.223   3.655   5.698
 3601SOL    HW111702   6.274   3.736   5.726
 3601SOL    HW211703   6.204   3.598   5.778
 3602SOL     OW11704   2.025   1.816   0.214
 3602SOL    HW111705   2.061   1.724   0.226
 3602SOL    HW211706   2.012   1.835   0.117
 3603SOL     OW11707   4.037   4.963   4.883
 3603SOL    HW111708   4.046   5.002   4.974
 3603SOL    HW211709   4.091   4.879   4.877
 3604SOL     OW11710   0.618   3.260   3.013
 3604SOL    HW111711   0.541   3.310   2.974
 3604SOL    HW211712   0.585   3.181   3.065
 3605SOL     OW11713   6.201   3.469   6.550
 3605SOL    HW111714   6.222   3.501   6.643
 3605SOL    HW211715   6.285   3.447   6.503
 3606SOL     OW11716   0.622   4.621   5.128
 3606SOL    HW111717   0.647   4.652   5.220
 3606SOL    HW211718   0.703   4.622   5.069
 3607SOL     OW11719   4.922   0.057   0.071
 3607SOL    HW111720   5.021   0.060   0.088
 3607SOL    HW211721   4.884   0.149   0.080
 3608SOL     OW11722   1.094   2.250   2.757
 3608SOL    HW111723   1.000   2.233   2.728
 3608SOL    HW211724   1.154   2.251   2.677
 3609SOL     OW11725   6.665   0.658   4.590
 3609SOL    HW111726   6.626   0.646   4.499
 3609SOL    HW211727   6.734   0.587   4.605
 3610SOL     OW11728   1.311   6.071   5.230
 3610SOL    HW111729   1.334   6.125   5.310
 3610SOL    HW211730   1.350   6.114   5.148
 3611SOL     OW11731   3.810   5.579   5.334
 3611SOL    HW111732   3.804   5.560   5.432
 3611SOL    HW211733   3.747   5.519   5.284
 3612SOL     OW11734   1.486   0.290   1.390
 3612SOL    HW111735   1.494   0.357   1.316
 3612SOL    HW211736   1.389   0.276   1.411
 3613SOL     OW11737   4.930   5.832   6.908
 3613SOL    HW111738   4.965   5.909   6.962
 3613SOL    HW211739   4.916   5.861   6.814
 3614SOL     OW11740   3.398   2.963   3.223
 3614SOL    HW111741   3.422   2.953   3.126
 3614SOL    HW211742   3.313   3.014   3.231
 3615SOL     OW11743   6.936   6.519   6.393
 3615SOL    HW111744   6.941   6.581   6.471
 3615SOL    HW211745   6.934   6.573   6.308
 3616SOL     OW11746   6.869   1.014   4.887
 3616SOL    HW111747   6.917   1.001   4.800
 3616SOL    HW211748   6.900   0.945   4.952
 3617SOL     OW11749   6.652   0.670   6.603
 3617SOL    HW111750   6.635   0.740   6.534
 3617SOL    HW211751   6.724   0.609   6.572
 3618SOL     OW11752   2.512   1.469   6.082
 3618SOL    HW111753   2.514   1.567   6.105
 3618SOL    HW211754   2.500   1.416   6.166
 3619SOL     OW11755   5.954   2.372   4.028
 3619SOL    HW111756   6.019   2.447   4.039
 3619SOL    HW211757   5.865   2.400   4.064
 3620SOL     OW11758   6.272   0.603   4.222
 3620SOL    HW111759   6.233   0.605   4.314
 3620SOL    HW211760   6.227   0.532   4.168
 3621SOL     OW11761   1.961   3.889   5.868
 3621SOL    HW111762   2.044   3.945   5.862
 3621SOL    HW211763   1.975   3.803   5.819
 3622SOL     OW11764   0.664   2.671   1.176
 3622SOL    HW111765   0.693   2.579   1.202
 3622SOL    HW211766   0.695   2.737   1.245
 3623SOL     OW11767   6.788   4.991   4.152
 3623SOL    HW111768   6.824   4.898   4.162
 3623SOL    HW211769   6.726   5.012   4.228
 3624SOL     OW11770   2.803   0.182   1.903
 3624SOL    HW111771   2.821   0.280   1.899
 3624SOL    HW211772   2.804   0.144   1.810
 3625SOL     OW11773   0.086   3.176   4.899
 3625SOL    HW111774   0.104   3.110   4.826
 3625SOL    HW211775   0.038   3.131   4.974
 3626SOL     OW11776   2.616   3.810   5.299
 3626SOL    HW111777   2.549   3.870   5.257
 3626SOL    HW211778   2.593   3.715   5.280
 3627SOL     OW11779   2.909   3.675   4.053
 3627SOL    HW111780   2.811   3.695   4.061
 3627SOL    HW211781   2.929   3.587   4.098
 3628SOL     OW11782   3.221   5.003   2.537
 3628SOL    HW111783   3.145   4.938   2.546
 3628SOL    HW211784   3.266   5.013   2.625
 3629SOL     OW11785   6.313   2.553   5.087
 3629SOL    HW111786   6.233   2.563   5.146
 3629SOL    HW211787   6.303   2.615   5.008
 3630SOL     OW11788   6.086   1.868   4.244
 3630SOL    HW111789   6.051   1.957   4.217
 3630SOL    HW211790   6.184   1.864   4.226
 3631SOL     OW11791   2.382   1.064   4.637
 3631SOL    HW111792   2.376   1.003   4.558
 3631SOL    HW211793   2.474   1.057   4.677
 3632SOL     OW11794   4.652   0.352   6.734
 3632SOL    HW111795   4.626   0.275   6.676
 3632SOL    HW211796   4.573   0.381   6.788
 3633SOL     OW11797   1.976   3.101   5.921
 3633SOL    HW111798   1.902   3.067   5.979
 3633SOL    HW211799   1.940   3.173   5.861
 3634SOL     OW11800   1.644   5.899   5.240
 3634SOL    HW111801   1.594   5.921   5.324
 3634SOL    HW211802   1.637   5.801   5.222
 3635SOL     OW11803   2.675   1.453   5.426
 3635SOL    HW111804   2.727   1.509   5.361
 3635SOL    HW211805   2.640   1.510   5.500
 3636SOL     OW11806   1.001   5.650   6.115
 3636SOL    HW111807   1.030   5.556   6.130
 3636SOL    HW211808   1.080   5.711   6.122
 3637SOL     OW11809   5.490   1.508   2.159
 3637SOL    HW111810   5.443   1.578   2.214
 3637SOL    HW211811   5.426   1.472   2.091
 3638SOL     OW11812   0.066   4.842   4.326
 3638SOL    HW111813   0.037   4.899   4.403
 3638SOL    HW211814   0.000   4.768   4.313
 3639SOL     OW11815   1.880   4.806   6.941
 3639SOL    HW111816   1.835   4.860   6.870
 3639SOL    HW211817   1.958   4.856   6.977
 3640SOL     OW11818   3.428   5.830   0.933
 3640SOL    HW111819   3.404   5.738   0.965
 3640SOL    HW211820   3.395   5.843   0.840
 3641SOL     OW11821   2.186   0.915   5.109
 3641SOL    HW111822   2.154   0.925   5.015
 3641SOL    HW211823   2.286   0.923   5.111
 3642SOL     OW11824   5.669   7.021   4.615
 3642SOL    HW111825   5.645   0.071   4.551
 3642SOL    HW211826   5.633   6.934   4.581
 3643SOL     OW11827   2.775   4.716   4.787
 3643SOL    HW111828   2.796   4.642   4.851
 3643SOL    HW211829   2.740   4.795   4.837
 3644SOL     OW11830   6.820   0.721   0.657
 3644SOL    HW111831   6.831   0.626   0.685
 3644SOL    HW211832   6.724   0.748   0.669
 3645SOL     OW11833   3.643   0.732   3.447
 3645SOL    HW111834   3.603   0.824   3.440
 3645SOL    HW211835   3.709   0.730   3.522
 3646SOL     OW11836   0.129   4.651   5.379
 3646SOL    HW111837   0.059   4.708   5.336
 3646SOL    HW211838   0.130   4.561   5.334
 3647SOL     OW11839   2.406   3.153   0.954
 3647SOL    HW111840   2.414   3.243   0.998
 3647SOL    HW211841   2.444   3.157   0.862
 3648SOL     OW11842   2.900   6.596   2.352
 3648SOL    HW111843   2.884   6.542   2.435
 3648SOL    HW211844   2.995   6.628   2.351
 3649SOL     OW11845   3.528   3.731   1.225
 3649SOL    HW111846   3.470   3.737   1.144
 3649SOL    HW211847   3.578   3.644   1.225
 3650SOL     OW11848   0.365   6.575   1.466
 3650SOL    HW111849   0.444   6.517   1.447
 3650SOL    HW211850   0.380   6.624   1.552
 3651SOL     OW11851   1.989   5.854   2.567
 3651SOL    HW111852   2.083   5.860   2.536
 3651SOL    HW211853   1.987   5.842   2.667
 3652SOL     OW11854   4.765   5.544   3.288
 3652SOL    HW111855   4.692   5.543   3.356
 3652SOL    HW211856   4.727   5.564   3.198
 3653SOL     OW11857   0.209   2.176   3.508
 3653SOL    HW111858   0.295   2.129   3.486
 3653SOL    HW211859   0.139   2.149   3.442
 3654SOL     OW11860   1.424   6.472   1.435
 3654SOL    HW111861   1.511   6.425   1.421
 3654SOL    HW211862   1.372   6.425   1.506
 3655SOL     OW11863   1.774   0.367   4.830
 3655SOL    HW111864   1.794   0.454   4.875
 3655SOL    HW211865   1.684   0.334   4.858
 3656SOL     OW11866   1.839   2.919   1.816
 3656SOL    HW111867   1.776   2.858   1.864
 3656SOL    HW211868   1.908   2.864   1.768
 3657SOL     OW11869   3.793   5.673   1.219
 3657SOL    HW111870   3.887   5.650   1.243
 3657SOL    HW211871   3.744   5.703   1.301
 3658SOL     OW11872   1.820   6.042   6.262
 3658SOL    HW111873   1.785   6.125   6.306
 3658SOL    HW211874   1.747   5.973   6.258
 3659SOL     OW11875   2.448   4.235   0.303
 3659SOL    HW111876   2.540   4.255   0.267
 3659SOL    HW211877   2.417   4.148   0.266
 3660SOL     OW11878   4.665   5.920   1.775
 3660SOL    HW111879   4.639   6.006   1.731
 3660SOL    HW211880   4.763   5.920   1.795
 3661SOL     OW11881   4.892   0.828   0.338
 3661SOL    HW111882   4.839   0.751   0.373
 3661SOL    HW211883   4.941   0.800   0.255
 3662SOL     OW11884   3.390   7.003   5.227
 3662SOL    HW111885   3.425   6.911   5.209
 3662SOL    HW211886   3.290   7.000   5.227
 3663SOL     OW11887   1.050   3.074   6.742
 3663SOL    HW111888   1.019   2.986   6.778
 3663SOL    HW211889   0.971   3.126   6.709
 3664SOL     OW11890   4.834   1.246   0.944
 3664SOL    HW111891   4.892   1.222   1.021
 3664SOL    HW211892   4.791   1.164   0.907
 3665SOL     OW11893   0.768   0.107   5.720
 3665SOL    HW111894   0.688   0.165   5.733
 3665SOL    HW211895   0.740   0.021   5.676
 3666SOL     OW11896   1.370   4.536   4.197
 3666SOL    HW111897   1.409   4.480   4.270
 3666SOL    HW211898   1.427   4.526   4.115
 3667SOL     OW11899   6.281   1.429   6.176
 3667SOL    HW111900   6.295   1.525   6.154
 3667SOL    HW211901   6.364   1.377   6.153
 3668SOL     OW11902   1.439   5.960   2.314
 3668SOL    HW111903   1.457   6.058   2.325
 3668SOL    HW211904   1.474   5.930   2.225
 3669SOL     OW11905   6.804   2.664   3.177
 3669SOL    HW111906   6.794   2.697   3.270
 3669SOL    HW211907   6.722   2.684   3.124
 3670SOL     OW11908   2.150   5.864   5.990
 3670SOL    HW111909   2.115   5.956   6.008
 3670SOL    HW211910   2.193   5.862   5.899
 3671SOL     OW11911   1.036   0.266   2.929
 3671SOL    HW111912   1.045   0.220   2.840
 3671SOL    HW211913   1.111   0.330   2.941
 3672SOL     OW11914   6.573   0.740   0.325
 3672SOL    HW111915   6.515   0.698   0.255
 3672SOL    HW211916   6.518   0.801   0.382
 3673SOL     OW11917   5.344   0.301   6.400
 3673SOL    HW111918   5.275   0.244   6.445
 3673SOL    HW211919   5.309   0.330   6.311
 3674SOL     OW11920   1.038   6.172   0.648
 3674SOL    HW111921   0.962   6.136   0.703
 3674SOL    HW211922   1.033   6.272   0.647
 3675SOL     OW11923   1.968   2.300   5.254
 3675SOL    HW111924   1.912   2.277   5.334
 3675SOL    HW211925   1.989   2.217   5.202
 3676SOL     OW11926   3.122   5.658   3.407
 3676SOL    HW111927   3.067   5.575   3.415
 3676SOL    HW211928   3.077   5.722   3.344
 3677SOL     OW11929   6.589   6.838   4.487
 3677SOL    HW111930   6.673   6.786   4.469
 3677SOL    HW211931   6.573   6.903   4.412
 3678SOL     OW11932   1.260   1.186   3.556
 3678SOL    HW111933   1.332   1.251   3.579
 3678SOL    HW211934   1.248   1.183   3.456
 3679SOL     OW11935   0.546   0.935   1.951
 3679SOL    HW111936   0.472   0.870   1.969
 3679SOL    HW211937   0.621   0.888   1.905
 3680SOL     OW11938   6.795   2.988   4.639
 3680SOL    HW111939   6.702   3.010   4.611
 3680SOL    HW211940   6.805   2.888   4.644
 3681SOL     OW11941   7.013   6.676   5.794
 3681SOL    HW111942   0.044   6.760   5.805
 3681SOL    HW211943   6.959   6.683   5.710
 3682SOL     OW11944   6.501   1.668   6.591
 3682SOL    HW111945   6.586   1.646   6.639
 3682SOL    HW211946   6.509   1.642   6.495
 3683SOL     OW11947   5.688   6.533   4.394
 3683SOL    HW111948   5.623   6.518   4.319
 3683SOL    HW211949   5.776   6.561   4.357
 3684SOL     OW11950   1.407   3.511   1.343
 3684SOL    HW111951   1.417   3.541   1.438
 3684SOL    HW211952   1.406   3.411   1.340
 3685SOL     OW11953   6.268   6.473   6.551
 3685SOL    HW111954   6.364   6.451   6.567
 3685SOL    HW211955   6.262   6.557   6.496
 3686SOL     OW11956   6.094   4.510   1.732
 3686SOL    HW111957   6.155   4.589   1.740
 3686SOL    HW211958   6.006   4.531   1.775
 3687SOL     OW11959   3.927   0.824   0.207
 3687SOL    HW111960   3.907   0.901   0.147
 3687SOL    HW211961   3.897   0.845   0.300
 3688SOL     OW11962   1.278   3.341   0.255
 3688SOL    HW111963   1.358   3.288   0.282
 3688SOL    HW211964   1.252   3.403   0.330
 3689SOL     OW11965   2.085   0.481   4.042
 3689SOL    HW111966   2.015   0.420   4.006
 3689SOL    HW211967   2.169   0.471   3.988
 3690SOL     OW11968   5.950   0.042   5.852
 3690SOL    HW111969   6.023   6.999   5.833
 3690SOL    HW211970   5.920   0.032   5.947
 3691SOL     OW11971   2.950   3.216   6.786
 3691SOL    HW111972   2.868   3.268   6.810
 3691SOL    HW211973   2.926   3.120   6.771
 3692SOL     OW11974   1.531   6.963   5.236
 3692SOL    HW111975   1.577   0.010   5.292
 3692SOL    HW211976   1.597   6.920   5.175
 3693SOL     OW11977   2.979   2.231   3.074
 3693SOL    HW111978   3.037   2.312   3.060
 3693SOL    HW211979   3.035   2.149   3.070
 3694SOL     OW11980   2.006   6.122   3.338
 3694SOL    HW111981   2.061   6.048   3.377
 3694SOL    HW211982   2.065   6.187   3.292
 3695SOL     OW11983   2.032   1.682   2.111
 3695SOL    HW111984   2.038   1.744   2.189
 3695SOL    HW211985   2.120   1.637   2.097
 3696SOL     OW11986   4.239   6.932   6.176
 3696SOL    HW111987   4.166   6.998   6.157
 3696SOL    HW211988   4.264   6.885   6.092
 3697SOL     OW11989   6.543   0.392   4.071
 3697SOL    HW111990   6.629   0.345   4.047
 3697SOL    HW211991   6.477   0.379   3.997
 3698SOL     OW11992   2.895   0.766   6.071
 3698SOL    HW111993   2.846   0.753   6.158
 3698SOL    HW211994   2.898   0.864   6.050
 3699SOL     OW11995   0.301   3.781   2.955
 3699SOL    HW111996   0.231   3.851   2.941
 3699SOL    HW211997   0.289   3.708   2.888
 3700SOL     OW11998   0.239   6.974   4.045
 3700SOL    HW111999   0.213   6.971   3.948
 3700SOL    HW212000   0.339   6.980   4.052
 3701SOL     OW12001   6.485   1.343   4.548
 3701SOL    HW112002   6.388   1.363   4.563
 3701SOL    HW212003   6.502   1.334   4.450
 3702SOL     OW12004   3.607   1.094   0.171
 3702SOL    HW112005   3.704   1.085   0.146
 3702SOL    HW212006   3.595   1.177   0.225
 3703SOL     OW12007   4.023   4.851   6.550
 3703SOL    HW112008   4.017   4.774   6.614
 3703SOL    HW212009   4.097   4.912   6.577
 3704SOL     OW12010   2.225   0.122   2.626
 3704SOL    HW112011   2.144   0.179   2.638
 3704SOL    HW212012   2.292   0.143   2.698
 3705SOL     OW12013   4.913   0.781   3.712
 3705SOL    HW112014   5.004   0.820   3.694
 3705SOL    HW212015   4.843   0.848   3.690
 3706SOL     OW12016   1.947   2.664   3.783
 3706SOL    HW112017   2.017   2.619   3.839
 3706SOL    HW212018   1.930   2.609   3.701
 3707SOL     OW12019   4.777   2.743   5.224
 3707SOL    HW112020   4.741   2.695   5.144
 3707SOL    HW212021   4.743   2.699   5.307
 3708SOL     OW12022   5.760   0.506   6.761
 3708SOL    HW112023   5.724   0.493   6.853
 3708SOL    HW212024   5.710   0.579   6.715
 3709SOL     OW12025   3.537   0.766   6.412
 3709SOL    HW112026   3.520   0.668   6.426
 3709SOL    HW212027   3.473   0.801   6.344
 3710SOL     OW12028   6.915   4.801   0.641
 3710SOL    HW112029   6.898   4.852   0.557
 3710SOL    HW212030   7.012   4.808   0.665
 3711SOL     OW12031   6.673   5.051   2.538
 3711SOL    HW112032   6.755   5.043   2.481
 3711SOL    HW212033   6.698   5.085   2.628
 3712SOL     OW12034   1.431   7.018   0.259
 3712SOL    HW112035   1.409   6.942   0.320
 3712SOL    HW212036   1.527   0.019   0.269
 3713SOL     OW12037   3.696   5.815   5.630
 3713SOL    HW112038   3.615   5.834   5.686
 3713SOL    HW212039   3.686   5.726   5.587
 3714SOL     OW12040   3.821   0.607   4.653
 3714SOL    HW112041   3.806   0.701   4.622
 3714SOL    HW212042   3.743   0.550   4.629
 3715SOL     OW12043   5.628   4.414   4.911
 3715SOL    HW112044   5.616   4.423   4.813
 3715SOL    HW212045   5.549   4.368   4.951
 3716SOL     OW12046   0.180   0.325   4.242
 3716SOL    HW112047   0.099   0.383   4.234
 3716SOL    HW212048   0.228   0.323   4.154
 3717SOL     OW12049   6.455   6.546   0.904
 3717SOL    HW112050   6.518   6.583   0.973
 3717SOL    HW212051   6.503   6.480   0.847
 3718SOL     OW12052   1.451   5.703   0.338
 3718SOL    HW112053   1.481   5.760   0.261
 3718SOL    HW212054   1.355   5.677   0.324
 3719SOL     OW12055   4.219   4.656   5.699
 3719SOL    HW112056   4.217   4.710   5.783
 3719SOL    HW212057   4.135   4.672   5.647
 3720SOL     OW12058   5.575   1.670   5.816
 3720SOL    HW112059   5.593   1.658   5.718
 3720SOL    HW212060   5.514   1.598   5.848
 3721SOL     OW12061   5.094   4.331   0.460
 3721SOL    HW112062   5.165   4.273   0.502
 3721SOL    HW212063   5.125   4.426   0.458
 3722SOL     OW12064   6.517   5.942   2.403
 3722SOL    HW112065   6.511   5.950   2.304
 3722SOL    HW212066   6.467   5.861   2.434
 3723SOL     OW12067   5.203   0.632   1.028
 3723SOL    HW112068   5.213   0.582   0.942
 3723SOL    HW212069   5.154   0.718   1.011
 3724SOL     OW12070   1.411   5.415   6.557
 3724SOL    HW112071   1.434   5.370   6.471
 3724SOL    HW212072   1.495   5.443   6.604
 3725SOL     OW12073   7.010   6.000   6.483
 3725SOL    HW112074   0.081   6.035   6.475
 3725SOL    HW212075   6.962   6.012   6.397
 3726SOL     OW12076   5.144   3.942   1.357
 3726SOL    HW112077   5.059   3.899   1.326
 3726SOL    HW212078   5.157   4.028   1.308
 3727SOL     OW12079   2.126   3.178   5.072
 3727SOL    HW112080   2.205   3.128   5.036
 3727SOL    HW212081   2.158   3.250   5.134
 3728SOL     OW12082   1.658   3.419   6.725
 3728SOL    HW112083   1.593   3.399   6.800
 3728SOL    HW212084   1.745   3.373   6.744
 3729SOL     OW12085   0.787   1.908   3.612
 3729SOL    HW112086   0.744   1.868   3.693
 3729SOL    HW212087   0.732   1.887   3.531
 3730SOL     OW12088   3.525   0.835   0.217
 3730SOL    HW112089   3.462   0.808   0.144
 3730SOL    HW212090   3.562   0.926   0.197
 3731SOL     OW12091   4.396   0.087   0.251
 3731SOL    HW112092   4.460   0.159   0.278
 3731SOL    HW212093   4.444   0.019   0.195
 3732SOL     OW12094   2.255   3.761   5.248
 3732SOL    HW112095   2.329   3.824   5.226
 3732SOL    HW212096   2.187   3.808   5.304
 3733SOL     OW12097   2.958   3.870   1.556
 3733SOL    HW112098   3.050   3.833   1.559
 3733SOL    HW212099   2.911   3.850   1.642
 3734SOL     OW12100   5.180   1.040   2.736
 3734SOL    HW112101   5.106   1.077   2.679
 3734SOL    HW212102   5.228   1.114   2.781
 3735SOL     OW12103   3.165   2.113   2.277
 3735SOL    HW112104   3.159   2.168   2.360
 3735SOL    HW212105   3.095   2.142   2.212
 3736SOL     OW12106   6.004   2.138   0.831
 3736SOL    HW112107   6.022   2.044   0.859
 3736SOL    HW212108   5.940   2.181   0.894
 3737SOL     OW12109   4.962   6.984   3.642
 3737SOL    HW112110   5.034   6.916   3.631
 3737SOL    HW212111   4.927   7.010   3.552
 3738SOL     OW12112   7.010   6.931   3.405
 3738SOL    HW112113   0.085   6.922   3.424
 3738SOL    HW212114   6.965   6.843   3.419
 3739SOL     OW12115   0.394   4.047   2.692
 3739SOL    HW112116   0.373   3.991   2.612
 3739SOL    HW212117   0.493   4.055   2.703
 3740SOL     OW12118   5.615   1.146   0.045
 3740SOL    HW112119   5.549   1.221   0.041
 3740SOL    HW212120   5.569   1.062   0.070
 3741SOL     OW12121   3.920   2.502   0.005
 3741SOL    HW112122   4.009   2.528   0.042
 3741SOL    HW212123   3.883   2.425   0.057
 3742SOL     OW12124   3.403   3.009   5.590
 3742SOL    HW112125   3.412   2.913   5.567
 3742SOL    HW212126   3.452   3.028   5.675
 3743SOL     OW12127   6.940   5.019   6.811
 3743SOL    HW112128   7.022   5.044   6.760
 3743SOL    HW212129   6.947   4.923   6.840
 3744SOL     OW12130   0.487   5.549   3.688
 3744SOL    HW112131   0.558   5.507   3.744
 3744SOL    HW212132   0.509   5.645   3.671
 3745SOL     OW12133   4.140   5.895   2.485
 3745SOL    HW112134   4.107   5.814   2.437
 3745SOL    HW212135   4.095   5.903   2.573
 3746SOL     OW12136   4.258   1.494   2.025
 3746SOL    HW112137   4.188   1.565   2.032
 3746SOL    HW212138   4.223   1.416   1.974
 3747SOL     OW12139   3.318   0.756   0.057
 3747SOL    HW112140   3.225   0.754   0.092
 3747SOL    HW212141   3.346   0.664   0.030
 3748SOL     OW12142   6.053   1.264   2.975
 3748SOL    HW112143   6.026   1.344   2.922
 3748SOL    HW212144   6.013   1.182   2.934
 3749SOL     OW12145   1.172   6.858   5.401
 3749SOL    HW112146   1.270   6.841   5.398
 3749SOL    HW212147   1.154   6.956   5.400
 3750SOL     OW12148   0.237   4.095   0.518
 3750SOL    HW112149   0.332   4.124   0.530
 3750SOL    HW212150   0.176   4.162   0.561
 3751SOL     OW12151   0.513   4.177   3.011
 3751SOL    HW112152   0.432   4.189   3.069
 3751SOL    HW212153   0.590   4.227   3.050
 3752SOL     OW12154   6.026   0.553   5.930
 3752SOL    HW112155   6.117   0.576   5.963
 3752SOL    HW212156   6.015   0.454   5.930
 3753SOL     OW12157   6.936   0.114   4.464
 3753SOL    HW112158   6.902   0.041   4.524
 3753SOL    HW212159   7.014   0.080   4.411
 3754SOL     OW12160   2.224   1.677   0.657
 3754SOL    HW112161   2.231   1.776   0.671
 3754SOL    HW212162   2.191   1.634   0.742
 3755SOL     OW12163   2.922   5.060   3.507
 3755SOL    HW112164   2.972   5.056   3.420
 3755SOL    HW212165   2.910   4.968   3.543
 3756SOL     OW12166   2.295   6.373   0.487
 3756SOL    HW112167   2.224   6.313   0.450
 3756SOL    HW212168   2.289   6.375   0.586
 3757SOL     OW12169   6.505   4.787   1.319
 3757SOL    HW112170   6.578   4.791   1.388
 3757SOL    HW212171   6.448   4.869   1.326
 3758SOL     OW12172   1.965   6.911   3.801
 3758SOL    HW112173   1.873   6.923   3.836
 3758SOL    HW212174   1.967   6.931   3.703
 3759SOL     OW12175   4.921   0.483   4.199
 3759SOL    HW112176   4.946   0.415   4.268
 3759SOL    HW212177   4.953   0.573   4.228
 3760SOL     OW12178   0.579   1.210   3.320
 3760SOL    HW112179   0.493   1.247   3.284
 3760SOL    HW212180   0.592   1.117   3.287
 3761SOL     OW12181   5.691   1.110   3.667
 3761SOL    HW112182   5.681   1.190   3.726
 3761SOL    HW212183   5.692   1.139   3.572
 3762SOL     OW12184   0.358   2.426   2.628
 3762SOL    HW112185   0.442   2.424   2.573
 3762SOL    HW212186   0.370   2.489   2.704
 3763SOL     OW12187   0.648   4.470   0.716
 3763SOL    HW112188   0.626   4.387   0.767
 3763SOL    HW212189   0.642   4.451   0.618
 3764SOL     OW12190   2.301   0.635   2.929
 3764SOL    HW112191   2.313   0.679   2.840
 3764SOL    HW212192   2.386   0.643   2.981
 3765SOL     OW12193   5.784   2.514   1.818
 3765SOL    HW112194   5.708   2.452   1.799
 3765SOL    HW212195   5.838   2.479   1.895
 3766SOL     OW12196   1.169   3.667   3.457
 3766SOL    HW112197   1.148   3.764   3.462
 3766SOL    HW212198   1.197   3.633   3.547
 3767SOL     OW12199   1.178   5.291   5.876
 3767SOL    HW112200   1.243   5.327   5.810
 3767SOL    HW212201   1.185   5.342   5.961
 3768SOL     OW12202   1.122   0.031   4.038
 3768SOL    HW112203   1.084   6.962   4.030
 3768SOL    HW212204   1.108   0.066   4.131
 3769SOL     OW12205   5.592   5.093   4.838
 3769SOL    HW112206   5.575   4.995   4.824
 3769SOL    HW212207   5.552   5.145   4.762
 3770SOL     OW12208   1.910   1.006   0.901
 3770SOL    HW112209   1.886   1.082   0.962
 3770SOL    HW212210   1.827   0.974   0.854
 3771SOL     OW12211   6.503   5.224   0.121
 3771SOL    HW112212   6.451   5.293   0.170
 3771SOL    HW212213   6.460   5.207   0.032
 3772SOL     OW12214   1.616   6.042   0.770
 3772SOL    HW112215   1.625   6.138   0.745
 3772SOL    HW212216   1.703   5.994   0.753
 3773SOL     OW12217   5.236   4.351   6.322
 3773SOL    HW112218   5.321   4.302   6.339
 3773SOL    HW212219   5.254   4.449   6.319
 3774SOL     OW12220   6.693   4.815   1.526
 3774SOL    HW112221   6.744   4.768   1.598
 3774SOL    HW212222   6.755   4.875   1.475
 3775SOL     OW12223   4.353   4.842   4.417
 3775SOL    HW112224   4.400   4.907   4.477
 3775SOL    HW212225   4.297   4.780   4.473
 3776SOL     OW12226   3.579   2.829   5.900
 3776SOL    HW112227   3.606   2.800   5.808
 3776SOL    HW212228   3.594   2.928   5.910
 3777SOL     OW12229   3.038   6.017   4.208
 3777SOL    HW112230   3.012   5.957   4.283
 3777SOL    HW212231   3.019   6.112   4.233
 3778SOL     OW12232   3.286   5.376   5.898
 3778SOL    HW112233   3.279   5.468   5.937
 3778SOL    HW212234   3.195   5.333   5.898
 3779SOL     OW12235   6.940   4.745   6.925
 3779SOL    HW112236   6.885   4.790   6.995
 3779SOL    HW212237   6.932   4.646   6.934
 3780SOL     OW12238   5.823   4.161   1.559
 3780SOL    HW112239   5.764   4.089   1.523
 3780SOL    HW212240   5.777   4.250   1.549
 3781SOL     OW12241   2.956   6.191   5.019
 3781SOL    HW112242   3.047   6.167   5.054
 3781SOL    HW212243   2.964   6.217   4.923
 3782SOL     OW12244   4.937   5.982   1.772
 3782SOL    HW112245   4.991   5.901   1.793
 3782SOL    HW212246   4.985   6.064   1.804
 3783SOL     OW12247   4.965   5.099   4.800
 3783SOL    HW112248   4.960   5.199   4.805
 3783SOL    HW212249   4.943   5.069   4.707
 3784SOL     OW12250   6.548   2.051   3.952
 3784SOL    HW112251   6.544   2.116   4.028
 3784SOL    HW212252   6.618   1.982   3.970
 3785SOL     OW12253   1.846   3.580   4.108
 3785SOL    HW112254   1.753   3.599   4.139
 3785SOL    HW212255   1.899   3.665   4.109
 3786SOL     OW12256   2.275   2.698   4.520
 3786SOL    HW112257   2.257   2.717   4.617
 3786SOL    HW212258   2.206   2.634   4.485
 3787SOL     OW12259   4.272   0.043   3.270
 3787SOL    HW112260   4.206   0.115   3.246
 3787SOL    HW212261   4.318   0.067   3.356
 3788SOL     OW12262   6.532   3.568   5.092
 3788SOL    HW112263   6.436   3.543   5.075
 3788SOL    HW212264   6.561   3.532   5.180
 3789SOL     OW12265   1.545   2.539   2.702
 3789SOL    HW112266   1.505   2.450   2.680
 3789SOL    HW212267   1.561   2.545   2.801
 3790SOL     OW12268   0.827   6.820   1.586
 3790SOL    HW112269   0.751   6.759   1.564
 3790SOL    HW212270   0.800   6.881   1.660
 3791SOL     OW12271   4.807   0.988   5.309
 3791SOL    HW112272   4.879   0.976   5.377
 3791SOL    HW212273   4.817   1.077   5.265
 3792SOL     OW12274   0.269   0.753   4.283
 3792SOL    HW112275   0.310   0.682   4.341
 3792SOL    HW212276   0.207   0.710   4.217
 3793SOL     OW12277   4.651   5.336   0.696
 3793SOL    HW112278   4.646   5.290   0.784
 3793SOL    HW212279   4.606   5.280   0.626
 3794SOL     OW12280   0.790   4.025   6.531
 3794SOL    HW112281   0.710   3.970   6.506
 3794SOL    HW212282   0.787   4.112   6.481
 3795SOL     OW12283   1.676   6.172   1.757
 3795SOL    HW112284   1.658   6.076   1.734
 3795SOL    HW212285   1.637   6.231   1.687
 3796SOL     OW12286   4.686   1.445   6.721
 3796SOL    HW112287   4.654   1.440   6.815
 3796SOL    HW212288   4.635   1.516   6.672
 3797SOL     OW12289   1.111   4.432   2.498
 3797SOL    HW112290   1.062   4.363   2.445
 3797SOL    HW212291   1.053   4.464   2.573
 3798SOL     OW12292   1.790   6.122   3.068
 3798SOL    HW112293   1.745   6.209   3.047
 3798SOL    HW212294   1.771   6.096   3.162
 3799SOL     OW12295   0.137   1.567   3.321
 3799SOL    HW112296   0.068   1.523   3.264
 3799SOL    HW212297   0.109   1.565   3.416
 3800SOL     OW12298   5.513   2.489   2.824
 3800SOL    HW112299   5.494   2.450   2.914
 3800SOL    HW212300   5.530   2.415   2.759
 3801SOL     OW12301   5.918   1.168   2.265
 3801SOL    HW112302   5.966   1.256   2.267
 3801SOL    HW212303   5.828   1.179   2.306
 3802SOL     OW12304   6.186   2.588   1.915
 3802SOL    HW112305   6.272   2.556   1.875
 3802SOL    HW212306   6.201   2.677   1.959
 3803SOL     OW12307   3.251   3.483   4.080
 3803SOL    HW112308   3.249   3.385   4.062
 3803SOL    HW212309   3.169   3.510   4.129
 3804SOL     OW12310   3.999   6.072   2.956
 3804SOL    HW112311   3.971   6.102   3.048
 3804SOL    HW212312   4.070   6.132   2.922
 3805SOL     OW12313   2.636   2.780   7.004
 3805SOL    HW112314   2.588   2.731   0.054
 3805SOL    HW212315   2.730   2.799   0.011
 3806SOL     OW12316   3.673   4.418   1.669
 3806SOL    HW112317   3.767   4.406   1.638
 3806SOL    HW212318   3.647   4.342   1.728
 3807SOL     OW12319   2.051   4.082   4.591
 3807SOL    HW112320   1.951   4.079   4.593
 3807SOL    HW212321   2.085   4.114   4.680
 3808SOL     OW12322   3.475   6.908   6.665
 3808SOL    HW112323   3.575   6.914   6.666
 3808SOL    HW212324   3.436   6.999   6.653
 3809SOL     OW12325   4.923   2.215   1.290
 3809SOL    HW112326   4.987   2.292   1.291
 3809SOL    HW212327   4.921   2.174   1.199
 3810SOL     OW12328   5.919   2.194   1.904
 3810SOL    HW112329   5.943   2.258   1.977
 3810SOL    HW212330   5.985   2.120   1.902
 3811SOL     OW12331   0.509   5.445   5.247
 3811SOL    HW112332   0.513   5.536   5.286
 3811SOL    HW212333   0.591   5.394   5.271
 3812SOL     OW12334   4.838   6.462   1.293
 3812SOL    HW112335   4.849   6.363   1.299
 3812SOL    HW212336   4.794   6.486   1.206
 3813SOL     OW12337   6.175   4.232   0.367
 3813SOL    HW112338   6.213   4.157   0.314
 3813SOL    HW212339   6.191   4.215   0.465
 3814SOL     OW12340   6.642   0.438   4.902
 3814SOL    HW112341   6.681   0.404   4.988
 3814SOL    HW212342   6.699   0.409   4.825
 3815SOL     OW12343   6.165   3.573   5.957
 3815SOL    HW112344   6.241   3.579   6.023
 3815SOL    HW212345   6.084   3.618   5.996
 3816SOL     OW12346   0.506   5.588   6.946
 3816SOL    HW112347   0.467   5.606   0.014
 3816SOL    HW212348   0.523   5.490   6.936
 3817SOL     OW12349   5.023   4.144   1.839
 3817SOL    HW112350   5.022   4.046   1.861
 3817SOL    HW212351   4.940   4.187   1.876
 3818SOL     OW12352   6.040   0.370   2.901
 3818SOL    HW112353   6.027   0.446   2.965
 3818SOL    HW212354   6.137   0.351   2.891
 3819SOL     OW12355   6.989   3.974   3.970
 3819SOL    HW112356   6.905   3.956   3.918
 3819SOL    HW212357   7.010   4.072   3.966
 3820SOL     OW12358   4.536   7.021   4.416
 3820SOL    HW112359   4.611   6.968   4.376
 3820SOL    HW212360   4.476   6.960   4.468
 3821SOL     OW12361   1.342   0.422   0.409
 3821SOL    HW112362   1.365   0.499   0.349
 3821SOL    HW212363   1.300   0.349   0.355
 3822SOL     OW12364   4.630   1.086   1.632
 3822SOL    HW112365   4.622   1.185   1.641
 3822SOL    HW212366   4.548   1.050   1.588
 3823SOL     OW12367   4.645   6.067   6.735
 3823SOL    HW112368   4.617   6.031   6.824
 3823SOL    HW212369   4.577   6.044   6.666
 3824SOL     OW12370   2.029   3.074   0.167
 3824SOL    HW112371   1.965   3.003   0.195
 3824SOL    HW212372   2.067   3.119   0.248
 3825SOL     OW12373   1.350   3.918   5.594
 3825SOL    HW112374   1.313   3.877   5.676
 3825SOL    HW212375   1.447   3.896   5.585
 3826SOL     OW12376   5.982   3.957   3.297
 3826SOL    HW112377   5.961   3.988   3.205
 3826SOL    HW212378   6.079   3.973   3.317
 3827SOL     OW12379   1.399   1.068   1.780
 3827SOL    HW112380   1.485   1.098   1.822
 3827SOL    HW212381   1.362   1.141   1.723
 3828SOL     OW12382   3.983   3.898   3.989
 3828SOL    HW112383   4.046   3.837   3.942
 3828SOL    HW212384   3.912   3.928   3.926
 3829SOL     OW12385   0.892   3.637   2.781
 3829SOL    HW112386   0.825   3.646   2.855
 3829SOL    HW212387   0.897   3.722   2.730
 3830SOL     OW12388   6.500   1.275   4.265
 3830SOL    HW112389   6.427   1.206   4.261
 3830SOL    HW212390   6.520   1.307   4.172
 3831SOL     OW12391   4.341   1.893   3.477
 3831SOL    HW112392   4.416   1.839   3.439
 3831SOL    HW212393   4.282   1.925   3.402
 3832SOL     OW12394   6.706   1.015   3.368
 3832SOL    HW112395   6.722   0.924   3.406
 3832SOL    HW212396   6.714   1.012   3.268
 3833SOL     OW12397   0.364   1.733   5.527
 3833SOL    HW112398   0.297   1.756   5.456
 3833SOL    HW212399   0.437   1.802   5.526
 3834SOL     OW12400   4.798   4.019   0.238
 3834SOL    HW112401   4.877   4.054   0.189
 3834SOL    HW212402   4.714   4.054   0.195
 3835SOL     OW12403   4.322   5.241   4.581
 3835SOL    HW112404   4.337   5.340   4.582
 3835SOL    HW212405   4.265   5.215   4.659
 3836SOL     OW12406   0.401   6.240   5.757
 3836SOL    HW112407   0.441   6.236   5.665
 3836SOL    HW212408   0.304   6.218   5.752
 3837SOL     OW12409   4.364   4.891   5.165
 3837SOL    HW112410   4.301   4.868   5.090
 3837SOL    HW212411   4.376   4.990   5.169
 3838SOL     OW12412   1.077   1.325   3.898
 3838SOL    HW112413   1.060   1.382   3.818
 3838SOL    HW212414   1.159   1.270   3.883
 3839SOL     OW12415   3.891   0.840   3.133
 3839SOL    HW112416   3.836   0.758   3.120
 3839SOL    HW212417   3.915   0.849   3.230
 3840SOL     OW12418   2.460   0.927   6.819
 3840SOL    HW112419   2.403   0.847   6.838
 3840SOL    HW212420   2.538   0.927   6.881
 3841SOL     OW12421   6.565   4.228   3.673
 3841SOL    HW112422   6.557   4.286   3.592
 3841SOL    HW212423   6.660   4.229   3.705
 3842SOL     OW12424   2.131   2.875   5.115
 3842SOL    HW112425   2.171   2.800   5.168
 3842SOL    HW212426   2.200   2.910   5.051
 3843SOL     OW12427   5.172   2.471   0.050
 3843SOL    HW112428   5.266   2.494   0.026
 3843SOL    HW212429   5.138   2.399   7.012
 3844SOL     OW12430   1.306   5.938   0.440
 3844SOL    HW112431   1.286   5.919   0.536
 3844SOL    HW212432   1.357   5.861   0.402
 3845SOL     OW12433   1.950   6.066   0.880
 3845SOL    HW112434   1.889   5.995   0.913
 3845SOL    HW212435   1.958   6.061   0.780
 3846SOL     OW12436   1.042   2.563   3.491
 3846SOL    HW112437   1.055   2.529   3.398
 3846SOL    HW212438   1.098   2.645   3.505
 3847SOL     OW12439   6.541   1.104   6.064
 3847SOL    HW112440   6.473   1.049   6.016
 3847SOL    HW212441   6.597   1.153   5.997
 3848SOL     OW12442   5.245   3.594   2.123
 3848SOL    HW112443   5.323   3.655   2.111
 3848SOL    HW212444   5.175   3.639   2.179
 3849SOL     OW12445   7.017   5.761   6.622
 3849SOL    HW112446   7.012   5.860   6.608
 3849SOL    HW212447   6.942   5.732   6.682
 3850SOL     OW12448   2.832   2.597   1.073
 3850SOL    HW112449   2.902   2.542   1.026
 3850SOL    HW212450   2.876   2.670   1.124
 3851SOL     OW12451   0.418   5.775   2.737
 3851SOL    HW112452   0.411   5.684   2.696
 3851SOL    HW212453   0.349   5.835   2.699
 3852SOL     OW12454   3.367   6.082   5.639
 3852SOL    HW112455   3.343   6.113   5.731
 3852SOL    HW212456   3.392   6.161   5.583
 3853SOL     OW12457   2.481   1.057   3.767
 3853SOL    HW112458   2.572   1.030   3.798
 3853SOL    HW212459   2.466   1.024   3.674
 3854SOL     OW12460   1.875   2.585   2.707
 3854SOL    HW112461   1.887   2.675   2.665
 3854SOL    HW212462   1.777   2.568   2.722
 3855SOL     OW12463   3.996   6.748   0.542
 3855SOL    HW112464   3.981   6.734   0.639
 3855SOL    HW212465   3.968   6.842   0.517
 3856SOL     OW12466   0.644   1.804   6.581
 3856SOL    HW112467   0.553   1.826   6.616
 3856SOL    HW212468   0.641   1.798   6.481
 3857SOL     OW12469   2.162   1.256   5.290
 3857SOL    HW112470   2.184   1.308   5.207
 3857SOL    HW212471   2.207   1.297   5.369
 3858SOL     OW12472   4.285   1.034   4.847
 3858SOL    HW112473   4.377   1.017   4.812
 3858SOL    HW212474   4.230   0.951   4.839
 3859SOL     OW12475   5.332   0.396   1.552
 3859SOL    HW112476   5.334   0.296   1.557
 3859SOL    HW212477   5.296   0.433   1.637
 3860SOL     OW12478   1.477   0.457   4.388
 3860SOL    HW112479   1.488   0.421   4.295
 3860SOL    HW212480   1.485   0.382   4.454
 3861SOL     OW12481   4.251   5.722   1.691
 3861SOL    HW112482   4.230   5.625   1.700
 3861SOL    HW212483   4.351   5.735   1.693
 3862SOL     OW12484   1.172   6.533   3.710
 3862SOL    HW112485   1.216   6.573   3.630
 3862SOL    HW212486   1.073   6.537   3.700
 3863SOL     OW12487   4.686   0.578   0.930
 3863SOL    HW112488   4.735   0.503   0.975
 3863SOL    HW212489   4.687   0.563   0.831
 3864SOL     OW12490   2.739   0.340   4.297
 3864SOL    HW112491   2.780   0.361   4.386
 3864SOL    HW212492   2.705   0.424   4.256
 3865SOL     OW12493   3.927   0.570   0.087
 3865SOL    HW112494   3.924   0.520   0.174
 3865SOL    HW212495   3.883   0.659   0.098
 3866SOL     OW12496   2.303   2.807   6.835
 3866SOL    HW112497   2.386   2.856   6.810
 3866SOL    HW212498   2.326   2.712   6.859
 3867SOL     OW12499   0.670   4.041   2.799
 3867SOL    HW112500   0.672   3.974   2.874
 3867SOL    HW212501   0.624   4.124   2.830
 3868SOL     OW12502   3.596   1.037   6.629
 3868SOL    HW112503   3.593   1.005   6.723
 3868SOL    HW212504   3.519   0.998   6.578
 3869SOL     OW12505   6.257   3.110   3.272
 3869SOL    HW112506   6.309   3.026   3.285
 3869SOL    HW212507   6.257   3.135   3.175
 3870SOL     OW12508   6.429   0.520   3.566
 3870SOL    HW112509   6.419   0.602   3.510
 3870SOL    HW212510   6.392   0.537   3.658
 3871SOL     OW12511   3.267   5.587   3.869
 3871SOL    HW112512   3.226   5.679   3.869
 3871SOL    HW212513   3.207   5.525   3.818
 3872SOL     OW12514   3.481   3.576   4.475
 3872SOL    HW112515   3.500   3.594   4.378
 3872SOL    HW212516   3.559   3.529   4.516
 3873SOL     OW12517   4.550   2.387   0.475
 3873SOL    HW112518   4.551   2.443   0.557
 3873SOL    HW212519   4.622   2.418   0.412
 3874SOL     OW12520   4.077   0.075   0.786
 3874SOL    HW112521   4.008   0.029   0.729
 3874SOL    HW212522   4.031   0.141   0.845
 3875SOL     OW12523   1.395   2.087   5.218
 3875SOL    HW112524   1.423   2.011   5.160
 3875SOL    HW212525   1.463   2.160   5.214
 3876SOL     OW12526   4.143   6.463   1.222
 3876SOL    HW112527   4.088   6.543   1.198
 3876SOL    HW212528   4.240   6.486   1.213
 3877SOL     OW12529   0.134   2.130   0.611
 3877SOL    HW112530   0.054   2.071   0.627
 3877SOL    HW212531   0.131   2.165   0.518
 3878SOL     OW12532   4.350   6.974   3.899
 3878SOL    HW112533   4.300   6.922   3.967
 3878SOL    HW212534   4.287   7.005   3.828
 3879SOL     OW12535   4.834   5.254   6.960
 3879SOL    HW112536   4.842   5.203   6.875
 3879SOL    HW212537   4.786   5.199   0.006
 3880SOL     OW12538   5.264   4.391   4.335
 3880SOL    HW112539   5.355   4.392   4.295
 3880SOL    HW212540   5.197   4.419   4.267
 3881SOL     OW12541   1.229   4.241   0.197
 3881SOL    HW112542   1.282   4.231   0.281
 3881SOL    HW212543   1.240   4.159   0.141
 3882SOL     OW12544   1.086   1.485   0.635
 3882SOL    HW112545   1.026   1.552   0.676
 3882SOL    HW212546   1.078   1.490   0.535
 3883SOL     OW12547   4.402   6.600   3.441
 3883SOL    HW112548   4.390   6.586   3.539
 3883SOL    HW212549   4.499   6.588   3.417
 3884SOL     OW12550   1.035   5.866   3.625
 3884SOL    HW112551   0.994   5.790   3.575
 3884SOL    HW212552   1.134   5.853   3.628
 3885SOL     OW12553   5.709   0.120   3.117
 3885SOL    HW112554   5.751   0.167   3.040
 3885SOL    HW212555   5.708   0.180   3.197
 3886SOL     OW12556   4.374   6.655   5.594
 3886SOL    HW112557   4.436   6.577   5.603
 3886SOL    HW212558   4.299   6.646   5.659
 3887SOL     OW12559   0.373   6.306   1.201
 3887SOL    HW112560   0.450   6.337   1.256
 3887SOL    HW212561   0.343   6.216   1.233
 3888SOL     OW12562   6.305   6.126   4.400
 3888SOL    HW112563   6.286   6.168   4.311
 3888SOL    HW212564   6.333   6.031   4.387
 3889SOL     OW12565   6.286   2.931   6.978
 3889SOL    HW112566   6.310   3.007   0.016
 3889SOL    HW212567   6.370   2.888   6.945
 3890SOL     OW12568   5.750   4.083   4.302
 3890SOL    HW112569   5.728   4.177   4.332
 3890SOL    HW212570   5.680   4.021   4.336
 3891SOL     OW12571   5.549   4.596   3.786
 3891SOL    HW112572   5.584   4.688   3.801
 3891SOL    HW212573   5.483   4.597   3.711
 3892SOL     OW12574   0.135   2.323   1.185
 3892SOL    HW112575   0.054   2.361   1.141
 3892SOL    HW212576   0.182   2.261   1.121
 3893SOL     OW12577   4.437   3.383   1.656
 3893SOL    HW112578   4.490   3.397   1.572
 3893SOL    HW212579   4.409   3.288   1.662
 3894SOL     OW12580   5.170   0.144   6.519
 3894SOL    HW112581   5.170   0.173   6.615
 3894SOL    HW212582   5.174   0.044   6.515
 3895SOL     OW12583   1.430   6.752   5.376
 3895SOL    HW112584   1.476   6.819   5.319
 3895SOL    HW212585   1.410   6.670   5.322
 3896SOL     OW12586   0.704   0.947   0.011
 3896SOL    HW112587   0.748   1.027   0.051
 3896SOL    HW212588   0.624   0.922   0.065
 3897SOL     OW12589   4.481   5.799   1.957
 3897SOL    HW112590   4.553   5.844   1.904
 3897SOL    HW212591   4.513   5.710   1.988
 3898SOL     OW12592   3.782   2.389   6.638
 3898SOL    HW112593   3.694   2.372   6.683
 3898SOL    HW212594   3.791   2.328   6.559
 3899SOL     OW12595   4.838   0.418   6.088
 3899SOL    HW112596   4.934   0.429   6.064
 3899SOL    HW212597   4.783   0.412   6.004
 3900SOL     OW12598   5.271   3.593   3.546
 3900SOL    HW112599   5.200   3.534   3.507
 3900SOL    HW212600   5.359   3.572   3.505
 3901SOL     OW12601   3.088   0.504   6.341
 3901SOL    HW112602   3.000   0.537   6.374
 3901SOL    HW212603   3.132   0.450   6.413
 3902SOL     OW12604   5.775   3.076   2.356
 3902SOL    HW112605   5.802   3.005   2.291
 3902SOL    HW212606   5.690   3.118   2.326
 3903SOL     OW12607   3.876   6.268   6.971
 3903SOL    HW112608   3.845   6.184   6.927
 3903SOL    HW212609   3.838   6.274   0.040
 3904SOL     OW12610   0.630   0.634   6.629
 3904SOL    HW112611   0.603   0.711   6.687
 3904SOL    HW212612   0.727   0.614   6.643
 3905SOL     OW12613   0.119   6.334   6.477
 3905SOL    HW112614   0.056   6.391   6.424
 3905SOL    HW212615   0.160   6.265   6.417
 3906SOL     OW12616   5.926   6.428   5.576
 3906SOL    HW112617   5.854   6.413   5.508
 3906SOL    HW212618   5.899   6.387   5.663
 3907SOL     OW12619   6.100   1.904   3.327
 3907SOL    HW112620   6.135   1.950   3.408
 3907SOL    HW212621   6.071   1.811   3.352
 3908SOL     OW12622   0.648   2.475   6.493
 3908SOL    HW112623   0.576   2.452   6.428
 3908SOL    HW212624   0.616   2.461   6.586
 3909SOL     OW12625   4.953   5.755   4.688
 3909SOL    HW112626   5.008   5.836   4.669
 3909SOL    HW212627   5.012   5.680   4.715
 3910SOL     OW12628   3.329   3.750   2.558
 3910SOL    HW112629   3.312   3.839   2.599
 3910SOL    HW212630   3.296   3.749   2.464
 3911SOL     OW12631   5.946   1.923   4.772
 3911SOL    HW112632   6.037   1.896   4.804
 3911SOL    HW212633   5.950   2.017   4.738
 3912SOL     OW12634   5.683   2.125   5.149
 3912SOL    HW112635   5.663   2.214   5.109
 3912SOL    HW212636   5.691   2.057   5.076
 3913SOL     OW12637   1.337   0.372   6.298
 3913SOL    HW112638   1.366   0.459   6.259
 3913SOL    HW212639   1.247   0.384   6.341
 3914SOL     OW12640   3.015   0.099   0.032
 3914SOL    HW112641   2.927   0.061   0.059
 3914SOL    HW212642   3.089   0.046   0.074
 3915SOL     OW12643   4.906   5.226   0.944
 3915SOL    HW112644   4.924   5.316   0.905
 3915SOL    HW212645   4.874   5.237   1.038
 3916SOL     OW12646   0.786   6.983   2.735
 3916SOL    HW112647   0.708   7.002   2.794
 3916SOL    HW212648   0.818   6.890   2.751
 3917SOL     OW12649   1.129   6.817   0.170
 3917SOL    HW112650   1.035   6.802   0.199
 3917SOL    HW212651   1.136   6.808   0.071
 3918SOL     OW12652   5.230   4.554   1.462
 3918SOL    HW112653   5.288   4.477   1.436
 3918SOL    HW212654   5.151   4.521   1.514
 3919SOL     OW12655   4.333   0.105   0.595
 3919SOL    HW112656   4.294   0.070   0.510
 3919SOL    HW212657   4.260   0.131   0.658
 3920SOL     OW12658   2.220   3.687   0.533
 3920SOL    HW112659   2.244   3.618   0.465
 3920SOL    HW212660   2.126   3.718   0.518
 3921SOL     OW12661   0.616   3.843   1.530
 3921SOL    HW112662   0.526   3.855   1.488
 3921SOL    HW212663   0.619   3.892   1.617
 3922SOL     OW12664   7.014   3.689   2.031
 3922SOL    HW112665   6.972   3.606   2.068
 3922SOL    HW212666   6.943   3.747   1.990
 3923SOL     OW12667   0.680   0.973   0.350
 3923SOL    HW112668   0.646   0.918   0.274
 3923SOL    HW212669   0.780   0.967   0.354
 3924SOL     OW12670   6.302   4.546   4.186
 3924SOL    HW112671   6.276   4.596   4.104
 3924SOL    HW212672   6.265   4.453   4.181
 3925SOL     OW12673   1.168   4.635   1.543
 3925SOL    HW112674   1.177   4.718   1.597
 3925SOL    HW212675   1.189   4.654   1.447
 3926SOL     OW12676   4.332   4.670   2.631
 3926SOL    HW112677   4.289   4.660   2.721
 3926SOL    HW212678   4.272   4.723   2.571
 3927SOL     OW12679   6.615   2.947   5.756
 3927SOL    HW112680   6.638   2.919   5.850
 3927SOL    HW212681   6.544   2.887   5.720
 3928SOL     OW12682   4.564   6.000   6.988
 3928SOL    HW112683   4.491   5.934   6.968
 3928SOL    HW212684   4.532   6.066   0.032
 3929SOL     OW12685   0.968   0.158   5.116
 3929SOL    HW112686   0.901   0.164   5.042
 3929SOL    HW212687   1.026   0.239   5.115
 3930SOL     OW12688   2.498   2.117   4.055
 3930SOL    HW112689   2.566   2.135   3.984
 3930SOL    HW212690   2.455   2.028   4.037
 3931SOL     OW12691   0.438   1.527   1.712
 3931SOL    HW112692   0.520   1.510   1.656
 3931SOL    HW212693   0.357   1.502   1.660
 3932SOL     OW12694   0.360   3.108   4.373
 3932SOL    HW112695   0.384   3.062   4.287
 3932SOL    HW212696   0.309   3.192   4.353
 3933SOL     OW12697   1.813   0.046   5.810
 3933SOL    HW112698   1.822   6.969   5.806
 3933SOL    HW212699   1.762   0.072   5.891
 3934SOL     OW12700   5.962   0.290   5.965
 3934SOL    HW112701   5.991   0.211   5.911
 3934SOL    HW212702   5.864   0.284   5.982
 3935SOL     OW12703   3.694   0.150   0.783
 3935SOL    HW112704   3.596   0.157   0.766
 3935SOL    HW212705   3.716   0.193   0.871
 3936SOL     OW12706   6.801   5.675   4.809
 3936SOL    HW112707   6.846   5.729   4.738
 3936SOL    HW212708   6.751   5.600   4.767
 3937SOL     OW12709   0.486   1.833   2.461
 3937SOL    HW112710   0.483   1.932   2.475
 3937SOL    HW212711   0.580   1.801   2.468
 3938SOL     OW12712   0.508   1.635   3.098
 3938SOL    HW112713   0.548   1.546   3.119
 3938SOL    HW212714   0.409   1.626   3.089
 3939SOL     OW12715   2.751   1.743   2.662
 3939SOL    HW112716   2.745   1.747   2.562
 3939SOL    HW212717   2.679   1.800   2.702
 3940SOL     OW12718   3.941   3.163   1.755
 3940SOL    HW112719   3.867   3.230   1.759
 3940SOL    HW212720   4.017   3.192   1.813
 3941SOL     OW12721   4.709   5.169   5.917
 3941SOL    HW112722   4.687   5.265   5.933
 3941SOL    HW212723   4.789   5.162   5.857
 3942SOL     OW12724   6.706   6.439   0.037
 3942SOL    HW112725   6.709   6.452   0.136
 3942SOL    HW212726   6.610   6.434   0.008
 3943SOL     OW12727   0.557   3.219   4.525
 3943SOL    HW112728   0.599   3.303   4.489
 3943SOL    HW212729   0.515   3.169   4.449
 3944SOL     OW12730   4.716   2.527   4.957
 3944SOL    HW112731   4.768   2.447   4.986
 3944SOL    HW212732   4.777   2.595   4.917
 3945SOL     OW12733   6.816   1.747   0.562
 3945SOL    HW112734   6.870   1.708   0.487
 3945SOL    HW212735   6.734   1.791   0.524
 3946SOL     OW12736   5.106   4.158   4.065
 3946SOL    HW112737   5.204   4.138   4.064
 3946SOL    HW212738   5.074   4.161   4.160
 3947SOL     OW12739   4.577   6.421   0.488
 3947SOL    HW112740   4.563   6.380   0.578
 3947SOL    HW212741   4.671   6.407   0.459
 3948SOL     OW12742   6.784   4.149   1.675
 3948SOL    HW112743   6.822   4.191   1.758
 3948SOL    HW212744   6.715   4.210   1.636
 3949SOL     OW12745   5.196   5.707   3.089
 3949SOL    HW112746   5.110   5.738   3.128
 3949SOL    HW212747   5.255   5.786   3.069
 3950SOL     OW12748   1.541   5.532   1.158
 3950SOL    HW112749   1.568   5.466   1.088
 3950SOL    HW212750   1.601   5.522   1.238
 3951SOL     OW12751   4.739   0.591   1.244
 3951SOL    HW112752   4.800   0.665   1.213
 3951SOL    HW212753   4.791   0.524   1.297
 3952SOL     OW12754   0.232   2.202   0.927
 3952SOL    HW112755   0.304   2.222   0.861
 3952SOL    HW212756   0.197   2.110   0.911
 3953SOL     OW12757   3.861   3.468   1.824
 3953SOL    HW112758   3.892   3.489   1.916
 3953SOL    HW212759   3.907   3.527   1.758
 3954SOL     OW12760   4.337   5.770   5.784
 3954SOL    HW112761   4.372   5.840   5.722
 3954SOL    HW212762   4.335   5.682   5.737
 3955SOL     OW12763   3.363   1.978   5.630
 3955SOL    HW112764   3.399   1.989   5.538
 3955SOL    HW212765   3.330   1.884   5.643
 3956SOL     OW12766   1.502   0.919   2.265
 3956SOL    HW112767   1.486   0.900   2.362
 3956SOL    HW212768   1.594   0.955   2.253
 3957SOL     OW12769   3.986   0.033   4.469
 3957SOL    HW112770   3.964   0.028   4.567
 3957SOL    HW212771   4.073   0.081   4.457
 3958SOL     OW12772   6.251   2.377   4.015
 3958SOL    HW112773   6.250   2.473   4.043
 3958SOL    HW212774   6.235   2.319   4.095
 3959SOL     OW12775   4.838   5.120   0.481
 3959SOL    HW112776   4.927   5.164   0.471
 3959SOL    HW212777   4.833   5.074   0.570
 3960SOL     OW12778   5.396   1.450   4.966
 3960SOL    HW112779   5.475   1.394   4.989
 3960SOL    HW212780   5.424   1.524   4.905
 3961SOL     OW12781   5.103   0.751   3.304
 3961SOL    HW112782   5.099   0.675   3.238
 3961SOL    HW212783   5.036   0.734   3.377
 3962SOL     OW12784   1.012   5.035   5.709
 3962SOL    HW112785   0.991   5.071   5.800
 3962SOL    HW212786   1.008   4.935   5.712
 3963SOL     OW12787   5.147   6.203   2.130
 3963SOL    HW112788   5.072   6.230   2.069
 3963SOL    HW212789   5.175   6.281   2.185
 3964SOL     OW12790   4.747   4.302   3.282
 3964SOL    HW112791   4.680   4.309   3.208
 3964SOL    HW212792   4.791   4.212   3.278
 3965SOL     OW12793   4.904   3.450   4.319
 3965SOL    HW112794   4.867   3.422   4.231
 3965SOL    HW212795   4.887   3.547   4.334
 3966SOL     OW12796   3.745   5.806   6.949
 3966SOL    HW112797   3.773   5.732   6.887
 3966SOL    HW212798   3.826   5.851   6.986
 3967SOL     OW12799   2.518   4.354   1.350
 3967SOL    HW112800   2.506   4.256   1.365
 3967SOL    HW212801   2.601   4.385   1.397
 3968SOL     OW12802   4.622   0.462   0.676
 3968SOL    HW112803   4.526   0.468   0.647
 3968SOL    HW212804   4.640   0.370   0.711
 3969SOL     OW12805   1.287   5.269   1.670
 3969SOL    HW112806   1.386   5.260   1.679
 3969SOL    HW212807   1.266   5.336   1.599
 3970SOL     OW12808   5.668   5.797   2.242
 3970SOL    HW112809   5.620   5.872   2.198
 3970SOL    HW212810   5.604   5.723   2.263
 3971SOL     OW12811   2.785   5.990   4.394
 3971SOL    HW112812   2.723   5.993   4.315
 3971SOL    HW212813   2.829   5.900   4.399
 3972SOL     OW12814   1.232   3.976   6.757
 3972SOL    HW112815   1.224   3.884   6.797
 3972SOL    HW212816   1.141   4.019   6.756
 3973SOL     OW12817   1.049   5.529   0.865
 3973SOL    HW112818   1.060   5.595   0.791
 3973SOL    HW212819   0.971   5.469   0.846
 3974SOL     OW12820   2.023   0.549   6.001
 3974SOL    HW112821   1.979   0.478   5.945
 3974SOL    HW212822   1.992   0.542   6.095
 3975SOL     OW12823   5.128   2.035   6.184
 3975SOL    HW112824   5.119   1.971   6.260
 3975SOL    HW212825   5.224   2.064   6.176
 3976SOL     OW12826   1.904   6.131   2.472
 3976SOL    HW112827   1.997   6.162   2.453
 3976SOL    HW212828   1.908   6.046   2.526
 3977SOL     OW12829   1.403   3.599   6.521
 3977SOL    HW112830   1.454   3.515   6.500
 3977SOL    HW212831   1.306   3.577   6.533
 3978SOL     OW12832   6.547   4.733   3.138
 3978SOL    HW112833   6.615   4.739   3.064
 3978SOL    HW212834   6.594   4.741   3.226
 3979SOL     OW12835   3.600   1.044   6.168
 3979SOL    HW112836   3.546   1.107   6.225
 3979SOL    HW212837   3.674   1.004   6.223
 3980SOL     OW12838   6.079   6.466   6.759
 3980SOL    HW112839   6.085   6.397   6.831
 3980SOL    HW212840   6.146   6.446   6.688
 3981SOL     OW12841   4.828   6.002   1.068
 3981SOL    HW112842   4.779   5.915   1.063
 3981SOL    HW212843   4.926   5.984   1.076
 3982SOL     OW12844   2.254   6.909   2.190
 3982SOL    HW112845   2.350   6.905   2.219
 3982SOL    HW212846   2.228   7.004   2.173
 3983SOL     OW12847   4.679   5.081   3.880
 3983SOL    HW112848   4.715   5.140   3.952
 3983SOL    HW212849   4.601   5.125   3.837
 3984SOL     OW12850   6.109   1.481   2.819
 3984SOL    HW112851   6.052   1.552   2.778
 3984SOL    HW212852   6.202   1.516   2.830
 3985SOL     OW12853   3.715   5.385   6.521
 3985SOL    HW112854   3.620   5.418   6.524
 3985SOL    HW212855   3.736   5.336   6.606
 3986SOL     OW12856   4.779   1.763   3.155
 3986SOL    HW112857   4.813   1.857   3.167
 3986SOL    HW212858   4.688   1.755   3.195
 3987SOL     OW12859   3.386   4.968   4.565
 3987SOL    HW112860   3.302   4.916   4.547
 3987SOL    HW212861   3.407   5.025   4.486
 3988SOL     OW12862   3.857   5.627   0.332
 3988SOL    HW112863   3.945   5.602   0.293
 3988SOL    HW212864   3.816   5.548   0.378
 3989SOL     OW12865   6.165   2.133   0.295
 3989SOL    HW112866   6.095   2.124   0.366
 3989SOL    HW212867   6.160   2.055   0.232
 3990SOL     OW12868   5.159   2.263   1.698
 3990SOL    HW112869   5.250   2.300   1.716
 3990SOL    HW212870   5.160   2.164   1.712
 3991SOL     OW12871   0.604   1.321   2.519
 3991SOL    HW112872   0.601   1.342   2.421
 3991SOL    HW212873   0.668   1.246   2.535
 3992SOL     OW12874   3.402   1.938   0.591
 3992SOL    HW112875   3.469   1.982   0.651
 3992SOL    HW212876   3.321   1.914   0.643
 3993SOL     OW12877   1.136   2.914   1.966
 3993SOL    HW112878   1.108   3.008   1.984
 3993SOL    HW212879   1.194   2.882   2.041
 3994SOL     OW12880   2.643   6.940   4.736
 3994SOL    HW112881   2.566   6.975   4.682
 3994SOL    HW212882   2.619   6.941   4.833
 3995SOL     OW12883   1.856   3.470   5.466
 3995SOL    HW112884   1.810   3.529   5.532
 3995SOL    HW212885   1.787   3.424   5.409
 3996SOL     OW12886   6.941   6.774   5.361
 3996SOL    HW112887   6.895   6.774   5.272
 3996SOL    HW212888   0.007   6.730   5.353
 3997SOL     OW12889   5.434   1.251   4.543
 3997SOL    HW112890   5.450   1.347   4.566
 3997SOL    HW212891   5.519   1.211   4.506
 3998SOL     OW12892   3.543   1.838   4.125
 3998SOL    HW112893   3.488   1.771   4.175
 3998SOL    HW212894   3.566   1.914   4.185
 3999SOL     OW12895   6.107   2.589   4.392
 3999SOL    HW112896   6.175   2.655   4.360
 3999SOL    HW212897   6.029   2.639   4.431
 4000SOL     OW12898   3.209   6.772   4.141
 4000SOL    HW112899   3.241   6.843   4.079
 4000SOL    HW212900   3.116   6.793   4.172
 4001SOL     OW12901   1.959   1.955   4.021
 4001SOL    HW112902   1.982   2.051   4.041
 4001SOL    HW212903   1.950   1.943   3.923
 4002SOL     OW12904   2.580   3.586   1.719
 4002SOL    HW112905   2.578   3.528   1.638
 4002SOL    HW212906   2.548   3.535   1.798
 4003SOL     OW12907   3.291   6.976   4.765
 4003SOL    HW112908   3.289   6.911   4.689
 4003SOL    HW212909   3.346   0.033   4.740
 4004SOL     OW12910   6.825   2.383   5.042
 4004SOL    HW112911   6.772   2.438   4.976
 4004SOL    HW212912   6.847   2.295   5.000
 4005SOL     OW12913   4.707   6.332   6.834
 4005SOL    HW112914   4.660   6.254   6.793
 4005SOL    HW212915   4.658   6.361   6.916
 4006SOL     OW12916   4.000   5.395   2.162
 4006SOL    HW112917   3.992   5.461   2.087
 4006SOL    HW212918   3.909   5.376   2.199
 4007SOL     OW12919   0.343   2.609   6.870
 4007SOL    HW112920   0.422   2.657   6.909
 4007SOL    HW212921   0.277   2.675   6.836
 4008SOL     OW12922   2.606   2.482   4.799
 4008SOL    HW112923   2.652   2.569   4.813
 4008SOL    HW212924   2.659   2.426   4.735
 4009SOL     OW12925   4.138   3.611   2.367
 4009SOL    HW112926   4.096   3.688   2.319
 4009SOL    HW212927   4.191   3.557   2.302
 4010SOL     OW12928   2.627   3.425   1.000
 4010SOL    HW112929   2.695   3.357   0.973
 4010SOL    HW212930   2.574   3.453   0.920
 4011SOL     OW12931   0.989   2.059   1.559
 4011SOL    HW112932   0.947   2.149   1.571
 4011SOL    HW212933   1.043   2.036   1.640
 4012SOL     OW12934   6.595   4.164   2.654
 4012SOL    HW112935   6.570   4.147   2.749
 4012SOL    HW212936   6.684   4.121   2.635
 4013SOL     OW12937   4.526   2.234   4.170
 4013SOL    HW112938   4.474   2.156   4.206
 4013SOL    HW212939   4.490   2.319   4.210
 4014SOL     OW12940   5.676   6.358   2.985
 4014SOL    HW112941   5.667   6.264   3.015
 4014SOL    HW212942   5.662   6.420   3.062
 4015SOL     OW12943   4.773   4.103   5.462
 4015SOL    HW112944   4.682   4.132   5.434
 4015SOL    HW212945   4.812   4.172   5.525
 4016SOL     OW12946   3.285   5.788   5.959
 4016SOL    HW112947   3.320   5.711   6.013
 4016SOL    HW212948   3.200   5.761   5.914
 4017SOL     OW12949   6.734   5.838   6.669
 4017SOL    HW112950   6.780   5.846   6.757
 4017SOL    HW212951   6.683   5.922   6.651
 4018SOL     OW12952   4.041   5.814   1.539
 4018SOL    HW112953   4.121   5.790   1.595
 4018SOL    HW212954   4.039   5.913   1.524
 4019SOL     OW12955   5.213   4.881   3.420
 4019SOL    HW112956   5.192   4.968   3.464
 4019SOL    HW212957   5.311   4.877   3.398
 4020SOL     OW12958   5.406   2.207   5.820
 4020SOL    HW112959   5.394   2.120   5.773
 4020SOL    HW212960   5.432   2.191   5.915
 4021SOL     OW12961   3.351   4.657   5.736
 4021SOL    HW112962   3.284   4.673   5.664
 4021SOL    HW212963   3.375   4.560   5.739
 4022SOL     OW12964   5.266   0.571   0.554
 4022SOL    HW112965   5.249   0.630   0.475
 4022SOL    HW212966   5.341   0.609   0.609
 4023SOL     OW12967   5.923   1.290   5.415
 4023SOL    HW112968   5.952   1.318   5.323
 4023SOL    HW212969   5.840   1.234   5.408
 4024SOL     OW12970   4.272   4.694   4.157
 4024SOL    HW112971   4.301   4.767   4.095
 4024SOL    HW212972   4.188   4.721   4.204
 4025SOL     OW12973   0.443   4.209   3.403
 4025SOL    HW112974   0.417   4.236   3.496
 4025SOL    HW212975   0.481   4.117   3.405
 4026SOL     OW12976   5.272   6.070   4.205
 4026SOL    HW112977   5.371   6.056   4.197
 4026SOL    HW212978   5.225   5.985   4.181
 4027SOL     OW12979   4.051   5.230   1.936
 4027SOL    HW112980   3.961   5.202   1.968
 4027SOL    HW212981   4.077   5.316   1.980
 4028SOL     OW12982   2.449   1.550   4.264
 4028SOL    HW112983   2.423   1.521   4.173
 4028SOL    HW212984   2.367   1.578   4.315
 4029SOL     OW12985   1.791   4.610   4.841
 4029SOL    HW112986   1.693   4.628   4.836
 4029SOL    HW212987   1.823   4.621   4.935
 4030SOL     OW12988   0.354   2.065   5.422
 4030SOL    HW112989   0.391   2.155   5.447
 4030SOL    HW212990   0.396   1.994   5.478
 4031SOL     OW12991   4.229   5.395   3.884
 4031SOL    HW112992   4.309   5.448   3.914
 4031SOL    HW212993   4.153   5.410   3.947
 4032SOL     OW12994   5.089   0.099   4.558
 4032SOL    HW112995   5.111   0.005   4.535
 4032SOL    HW212996   5.130   0.123   4.646
 4033SOL     OW12997   2.897   3.785   5.736
 4033SOL    HW112998   2.984   3.746   5.704
 4033SOL    HW212999   2.850   3.718   5.793
 4034SOL     OW13000   0.134   2.170   3.802
 4034SOL    HW113001   0.148   2.190   3.705
 4034SOL    HW213002   0.078   2.243   3.843
 4035SOL     OW13003   6.674   4.545   0.427
 4035SOL    HW113004   6.642   4.462   0.381
 4035SOL    HW213005   6.601   4.614   0.424
 4036SOL     OW13006   0.045   0.041   2.525
 4036SOL    HW113007   0.037   7.014   2.611
 4036SOL    HW213008   0.036   0.139   2.542
 4037SOL     OW13009   0.392   4.031   6.924
 4037SOL    HW113010   0.357   4.078   6.843
 4037SOL    HW213011   0.322   4.034   6.996
 4038SOL     OW13012   6.014   4.452   3.889
 4038SOL    HW113013   5.984   4.524   3.826
 4038SOL    HW213014   6.109   4.429   3.869
 4039SOL     OW13015   4.843   6.308   0.954
 4039SOL    HW113016   4.919   6.354   0.907
 4039SOL    HW213017   4.872   6.217   0.983
 4040SOL     OW13018   3.771   6.359   1.628
 4040SOL    HW113019   3.831   6.372   1.707
 4040SOL    HW213020   3.818   6.388   1.545
 4041SOL     OW13021   1.542   6.406   3.878
 4041SOL    HW113022   1.632   6.410   3.922
 4041SOL    HW213023   1.554   6.391   3.779
 4042SOL     OW13024   6.163   5.248   2.023
 4042SOL    HW113025   6.156   5.295   1.935
 4042SOL    HW213026   6.156   5.315   2.097
 4043SOL     OW13027   6.333   2.425   1.198
 4043SOL    HW113028   6.393   2.345   1.195
 4043SOL    HW213029   6.239   2.397   1.180
 4044SOL     OW13030   6.695   5.893   3.587
 4044SOL    HW113031   6.748   5.954   3.528
 4044SOL    HW213032   6.754   5.819   3.621
 4045SOL     OW13033   2.872   6.279   6.069
 4045SOL    HW113034   2.806   6.204   6.064
 4045SOL    HW213035   2.842   6.353   6.008
 4046SOL     OW13036   1.282   3.063   1.366
 4046SOL    HW113037   1.363   3.010   1.392
 4046SOL    HW213038   1.229   3.011   1.299
 4047SOL     OW13039   2.843   4.050   0.977
 4047SOL    HW113040   2.788   4.132   0.992
 4047SOL    HW213041   2.934   4.077   0.946
 4048SOL     OW13042   5.525   0.874   1.149
 4048SOL    HW113043   5.595   0.865   1.078
 4048SOL    HW213044   5.462   0.796   1.143
 4049SOL     OW13045   5.791   0.460   4.447
 4049SOL    HW113046   5.698   0.473   4.481
 4049SOL    HW213047   5.793   0.479   4.349
 4050SOL     OW13048   2.925   0.310   0.630
 4050SOL    HW113049   2.838   0.263   0.646
 4050SOL    HW213050   2.921   0.401   0.672
 4051SOL     OW13051   3.268   3.977   0.746
 4051SOL    HW113052   3.345   3.946   0.691
 4051SOL    HW213053   3.184   3.934   0.711
 4052SOL     OW13054   1.122   6.530   1.574
 4052SOL    HW113055   1.080   6.581   1.649
 4052SOL    HW213056   1.131   6.589   1.494
 4053SOL     OW13057   3.567   4.994   3.410
 4053SOL    HW113058   3.658   4.954   3.407
 4053SOL    HW213059   3.565   5.069   3.476
 4054SOL     OW13060   4.983   1.930   0.745
 4054SOL    HW113061   4.957   1.841   0.708
 4054SOL    HW213062   5.082   1.934   0.757
 4055SOL     OW13063   3.004   2.213   0.248
 4055SOL    HW113064   3.063   2.211   0.328
 4055SOL    HW213065   2.998   2.306   0.212
 4056SOL     OW13066   4.199   3.598   0.436
 4056SOL    HW113067   4.256   3.516   0.431
 4056SOL    HW213068   4.124   3.583   0.500
 4057SOL     OW13069   5.361   2.819   6.714
 4057SOL    HW113070   5.351   2.917   6.731
 4057SOL    HW213071   5.273   2.780   6.689
 4058SOL     OW13072   0.816   0.384   4.727
 4058SOL    HW113073   0.727   0.359   4.688
 4058SOL    HW213074   0.806   0.469   4.779
 4059SOL     OW13075   0.210   2.260   4.648
 4059SOL    HW113076   0.309   2.255   4.637
 4059SOL    HW213077   0.174   2.338   4.598
 4060SOL     OW13078   4.613   5.668   3.574
 4060SOL    HW113079   4.605   5.706   3.482
 4060SOL    HW213080   4.522   5.660   3.615
 4061SOL     OW13081   2.801   3.054   1.362
 4061SOL    HW113082   2.780   2.997   1.283
 4061SOL    HW213083   2.745   3.025   1.440
 4062SOL     OW13084   2.319   0.136   3.078
 4062SOL    HW113085   2.389   0.115   3.009
 4062SOL    HW213086   2.332   0.229   3.112
 4063SOL     OW13087   3.006   5.411   6.132
 4063SOL    HW113088   2.946   5.439   6.207
 4063SOL    HW213089   3.001   5.311   6.121
 4064SOL     OW13090   6.810   6.789   3.788
 4064SOL    HW113091   6.902   6.752   3.779
 4064SOL    HW213092   6.814   6.889   3.789
 4065SOL     OW13093   5.982   4.878   0.133
 4065SOL    HW113094   5.982   4.815   0.056
 4065SOL    HW213095   6.062   4.938   0.126
 4066SOL     OW13096   5.923   5.069   1.971
 4066SOL    HW113097   5.849   5.136   1.986
 4066SOL    HW213098   6.011   5.116   1.972
 4067SOL     OW13099   6.078   0.985   2.440
 4067SOL    HW113100   6.017   1.047   2.392
 4067SOL    HW213101   6.039   0.892   2.437
 4068SOL     OW13102   6.345   0.980   3.604
 4068SOL    HW113103   6.412   1.049   3.631
 4068SOL    HW213104   6.262   0.992   3.658
 4069SOL     OW13105   6.485   5.653   1.304
 4069SOL    HW113106   6.453   5.559   1.295
 4069SOL    HW213107   6.486   5.679   1.401
 4070SOL     OW13108   1.013   3.275   3.133
 4070SOL    HW113109   0.971   3.191   3.167
 4070SOL    HW213110   1.038   3.333   3.211
 4071SOL     OW13111   1.739   6.383   4.095
 4071SOL    HW113112   1.761   6.286   4.098
 4071SOL    HW213113   1.824   6.436   4.092
 4072SOL     OW13114   0.798   0.459   4.242
 4072SOL    HW113115   0.782   0.451   4.144
 4072SOL    HW213116   0.872   0.525   4.258
 4073SOL     OW13117   2.393   5.157   0.523
 4073SOL    HW113118   2.394   5.251   0.488
 4073SOL    HW213119   2.419   5.157   0.619
 4074SOL     OW13120   1.584   2.709   0.484
 4074SOL    HW113121   1.488   2.687   0.498
 4074SOL    HW213122   1.593   2.806   0.461
 4075SOL     OW13123   5.262   1.154   3.773
 4075SOL    HW113124   5.251   1.057   3.750
 4075SOL    HW213125   5.175   1.201   3.759
 4076SOL     OW13126   1.860   2.469   3.602
 4076SOL    HW113127   1.919   2.389   3.598
 4076SOL    HW213128   1.769   2.443   3.635
 4077SOL     OW13129   2.679   1.748   0.775
 4077SOL    HW113130   2.776   1.730   0.764
 4077SOL    HW213131   2.628   1.662   0.775
 4078SOL     OW13132   5.470   3.945   1.876
 4078SOL    HW113133   5.412   3.954   1.796
 4078SOL    HW213134   5.416   3.962   1.959
 4079SOL     OW13135   0.485   1.305   4.018
 4079SOL    HW113136   0.410   1.369   4.002
 4079SOL    HW213137   0.449   1.220   4.058
 4080SOL     OW13138   3.889   2.987   2.406
 4080SOL    HW113139   3.950   3.037   2.468
 4080SOL    HW213140   3.941   2.956   2.326
 4081SOL     OW13141   2.227   2.638   6.542
 4081SOL    HW113142   2.150   2.626   6.606
 4081SOL    HW213143   2.266   2.549   6.519
 4082SOL     OW13144   1.319   2.770   5.593
 4082SOL    HW113145   1.334   2.861   5.556
 4082SOL    HW213146   1.353   2.766   5.687
 4083SOL     OW13147   5.816   4.523   3.333
 4083SOL    HW113148   5.727   4.568   3.317
 4083SOL    HW213149   5.885   4.593   3.349
 4084SOL     OW13150   4.654   0.081   3.392
 4084SOL    HW113151   4.617   7.011   3.395
 4084SOL    HW213152   4.754   0.078   3.396
 4085SOL     OW13153   3.943   4.937   2.473
 4085SOL    HW113154   3.851   4.903   2.494
 4085SOL    HW213155   4.005   4.860   2.458
 4086SOL     OW13156   6.140   4.872   6.254
 4086SOL    HW113157   6.122   4.942   6.323
 4086SOL    HW213158   6.213   4.903   6.193
 4087SOL     OW13159   2.503   0.387   1.831
 4087SOL    HW113160   2.404   0.392   1.835
 4087SOL    HW213161   2.543   0.474   1.861
 4088SOL     OW13162   0.154   1.969   5.117
 4088SOL    HW113163   0.055   1.983   5.116
 4088SOL    HW213164   0.200   2.055   5.099
 4089SOL     OW13165   1.344   0.626   3.279
 4089SOL    HW113166   1.263   0.614   3.335
 4089SOL    HW213167   1.407   0.550   3.294
 4090SOL     OW13168   2.892   1.689   5.846
 4090SOL    HW113169   2.930   1.750   5.915
 4090SOL    HW213170   2.958   1.676   5.772
 4091SOL     OW13171   3.232   6.195   1.195
 4091SOL    HW113172   3.193   6.267   1.253
 4091SOL    HW213173   3.223   6.107   1.241
 4092SOL     OW13174   5.612   3.168   3.891
 4092SOL    HW113175   5.513   3.179   3.880
 4092SOL    HW213176   5.658   3.254   3.870
 4093SOL     OW13177   5.302   4.605   4.112
 4093SOL    HW113178   5.392   4.614   4.154
 4093SOL    HW213179   5.232   4.639   4.175
 4094SOL     OW13180   6.678   5.852   0.171
 4094SOL    HW113181   6.617   5.788   0.124
 4094SOL    HW213182   6.644   5.946   0.158
 4095SOL     OW13183   0.798   5.422   0.606
 4095SOL    HW113184   0.728   5.418   0.677
 4095SOL    HW213185   0.756   5.432   0.517
 4096SOL     OW13186   0.302   1.004   6.774
 4096SOL    HW113187   0.246   1.047   6.845
 4096SOL    HW213188   0.243   0.954   6.711
 4097SOL     OW13189   6.587   4.671   5.019
 4097SOL    HW113190   6.646   4.747   5.050
 4097SOL    HW213191   6.631   4.584   5.040
 4098SOL     OW13192   2.117   4.281   2.840
 4098SOL    HW113193   2.038   4.232   2.804
 4098SOL    HW213194   2.092   4.330   2.923
 4099SOL     OW13195   4.582   4.233   6.257
 4099SOL    HW113196   4.568   4.152   6.200
 4099SOL    HW213197   4.504   4.295   6.246
 4100SOL     OW13198   1.669   0.722   4.294
 4100SOL    HW113199   1.734   0.696   4.223
 4100SOL    HW213200   1.615   0.642   4.321
 4101SOL     OW13201   6.459   5.640   0.115
 4101SOL    HW113202   6.511   5.572   0.064
 4101SOL    HW213203   6.362   5.616   0.116
 4102SOL     OW13204   1.664   0.193   0.014
 4102SOL    HW113205   1.602   0.269   7.018
 4102SOL    HW213206   1.654   0.165   0.109
 4103SOL     OW13207   2.228   6.165   3.677
 4103SOL    HW113208   2.148   6.223   3.693
 4103SOL    HW213209   2.219   6.119   3.589
 4104SOL     OW13210   1.937   5.753   4.601
 4104SOL    HW113211   1.954   5.841   4.557
 4104SOL    HW213212   2.021   5.699   4.601
 4105SOL     OW13213   4.544   0.744   1.411
 4105SOL    HW113214   4.563   0.842   1.403
 4105SOL    HW213215   4.609   0.693   1.355
 4106SOL     OW13216   1.186   0.834   3.542
 4106SOL    HW113217   1.194   0.882   3.455
 4106SOL    HW213218   1.246   0.753   3.541
 4107SOL     OW13219   1.013   0.306   0.290
 4107SOL    HW113220   0.957   0.229   0.322
 4107SOL    HW213221   1.102   0.272   0.260
 4108SOL     OW13222   6.489   5.571   5.615
 4108SOL    HW113223   6.428   5.498   5.584
 4108SOL    HW213224   6.458   5.658   5.579
 4109SOL     OW13225   5.704   6.017   3.698
 4109SOL    HW113226   5.626   6.063   3.657
 4109SOL    HW213227   5.689   5.918   3.696
 4110SOL     OW13228   5.008   2.850   0.427
 4110SOL    HW113229   5.036   2.829   0.521
 4110SOL    HW213230   5.068   2.801   0.364
 4111SOL     OW13231   6.656   3.759   4.124
 4111SOL    HW113232   6.726   3.830   4.119
 4111SOL    HW213233   6.588   3.773   4.053
 4112SOL     OW13234   4.637   6.039   4.967
 4112SOL    HW113235   4.724   6.028   5.014
 4112SOL    HW213236   4.652   6.048   4.869
 4113SOL     OW13237   4.034   5.224   4.474
 4113SOL    HW113238   4.128   5.258   4.462
 4113SOL    HW213239   4.034   5.147   4.537
 4114SOL     OW13240   0.410   1.123   1.488
 4114SOL    HW113241   0.360   1.156   1.407
 4114SOL    HW213242   0.362   1.150   1.571
 4115SOL     OW13243   4.235   5.833   4.096
 4115SOL    HW113244   4.224   5.734   4.102
 4115SOL    HW213245   4.281   5.856   4.010
 4116SOL     OW13246   4.866   4.050   2.273
 4116SOL    HW113247   4.877   3.991   2.193
 4116SOL    HW213248   4.903   4.141   2.253
 4117SOL     OW13249   1.409   1.687   3.991
 4117SOL    HW113250   1.493   1.734   4.016
 4117SOL    HW213251   1.413   1.593   4.024
 4118SOL     OW13252   0.301   6.347   0.347
 4118SOL    HW113253   0.297   6.255   0.384
 4118SOL    HW213254   0.224   6.400   0.380
 4119SOL     OW13255   0.442   0.383   4.126
 4119SOL    HW113256   0.441   0.456   4.059
 4119SOL    HW213257   0.382   0.406   4.203
 4120SOL     OW13258   1.873   0.797   6.364
 4120SOL    HW113259   1.942   0.834   6.427
 4120SOL    HW213260   1.803   0.866   6.347
 4121SOL     OW13261   6.628   6.617   2.516
 4121SOL    HW113262   6.641   6.612   2.615
 4121SOL    HW213263   6.603   6.526   2.481
 4122SOL     OW13264   0.189   4.017   2.884
 4122SOL    HW113265   0.253   4.032   2.809
 4122SOL    HW213266   0.126   4.094   2.890
 4123SOL     OW13267   4.882   4.760   1.450
 4123SOL    HW113268   4.934   4.681   1.483
 4123SOL    HW213269   4.928   4.844   1.479
 4124SOL     OW13270   5.776   5.602   0.138
 4124SOL    HW113271   5.715   5.641   0.208
 4124SOL    HW213272   5.792   5.671   0.067
 4125SOL     OW13273   6.042   1.787   1.169
 4125SOL    HW113274   5.966   1.725   1.185
 4125SOL    HW213275   6.124   1.751   1.214
 4126SOL     OW13276   1.554   3.014   2.152
 4126SOL    HW113277   1.527   3.055   2.239
 4126SOL    HW213278   1.498   2.933   2.134
 4127SOL     OW13279   4.397   1.934   4.587
 4127SOL    HW113280   4.481   1.959   4.635
 4127SOL    HW213281   4.402   1.965   4.492
 4128SOL     OW13282   1.087   3.170   0.156
 4128SOL    HW113283   1.134   3.258   0.166
 4128SOL    HW213284   0.990   3.186   0.138
 4129SOL     OW13285   2.458   2.650   0.138
 4129SOL    HW113286   2.491   2.622   0.228
 4129SOL    HW213287   2.403   2.734   0.147
 4130SOL     OW13288   6.141   2.994   0.742
 4130SOL    HW113289   6.185   3.083   0.728
 4130SOL    HW213290   6.149   2.940   0.658
 4131SOL     OW13291   4.771   6.793   3.166
 4131SOL    HW113292   4.738   6.832   3.081
 4131SOL    HW213293   4.703   6.808   3.238
 4132SOL     OW13294   0.365   5.296   4.107
 4132SOL    HW113295   0.403   5.271   4.018
 4132SOL    HW213296   0.377   5.221   4.171
 4133SOL     OW13297   5.723   0.196   2.651
 4133SOL    HW113298   5.728   0.289   2.613
 4133SOL    HW213299   5.774   0.133   2.592
 4134SOL     OW13300   1.516   3.726   1.508
 4134SOL    HW113301   1.558   3.804   1.553
 4134SOL    HW213302   1.535   3.731   1.409
 4135SOL     OW13303   6.675   0.685   2.047
 4135SOL    HW113304   6.685   0.770   2.098
 4135SOL    HW213305   6.589   0.641   2.072
 4136SOL     OW13306   1.261   4.804   1.291
 4136SOL    HW113307   1.183   4.802   1.228
 4136SOL    HW213308   1.285   4.899   1.311
 4137SOL     OW13309   1.309   2.634   0.529
 4137SOL    HW113310   1.265   2.702   0.472
 4137SOL    HW213311   1.279   2.542   0.500
 4138SOL     OW13312   4.976   0.114   6.822
 4138SOL    HW113313   5.015   0.205   6.811
 4138SOL    HW213314   4.941   0.104   6.915
 4139SOL     OW13315   2.143   3.842   2.973
 4139SOL    HW113316   2.124   3.820   2.877
 4139SOL    HW213317   2.123   3.938   2.990
 4140SOL     OW13318   1.956   0.872   6.089
 4140SOL    HW113319   2.048   0.902   6.065
 4140SOL    HW213320   1.951   0.856   6.188
 4141SOL     OW13321   5.258   0.405   6.178
 4141SOL    HW113322   5.204   0.488   6.192
 4141SOL    HW213323   5.342   0.428   6.129
 4142SOL     OW13324   0.970   5.115   2.223
 4142SOL    HW113325   1.069   5.107   2.235
 4142SOL    HW213326   0.933   5.182   2.288
 4143SOL     OW13327   5.717   3.181   6.621
 4143SOL    HW113328   5.798   3.239   6.614
 4143SOL    HW213329   5.679   3.189   6.713
 4144SOL     OW13330   6.429   0.857   0.534
 4144SOL    HW113331   6.362   0.929   0.554
 4144SOL    HW213332   6.478   0.833   0.618
 4145SOL     OW13333   7.018   7.000   1.562
 4145SOL    HW113334   0.050   0.047   1.515
 4145SOL    HW213335   6.962   6.951   1.495
 4146SOL     OW13336   5.005   5.814   2.751
 4146SOL    HW113337   5.069   5.882   2.716
 4146SOL    HW213338   5.006   5.733   2.692
 4147SOL     OW13339   4.440   5.008   6.192
 4147SOL    HW113340   4.359   5.061   6.167
 4147SOL    HW213341   4.506   5.068   6.238
 4148SOL     OW13342   2.251   1.376   5.497
 4148SOL    HW113343   2.249   1.476   5.492
 4148SOL    HW213344   2.343   1.346   5.523
 4149SOL     OW13345   1.909   3.207   6.461
 4149SOL    HW113346   1.829   3.147   6.469
 4149SOL    HW213347   1.909   3.272   6.537
 4150SOL     OW13348   5.621   1.850   6.496
 4150SOL    HW113349   5.602   1.943   6.525
 4150SOL    HW213350   5.687   1.808   6.558
 4151SOL     OW13351   3.403   5.694   4.137
 4151SOL    HW113352   3.338   5.637   4.087
 4151SOL    HW213353   3.354   5.743   4.209
 4152SOL     OW13354   3.051   4.664   1.461
 4152SOL    HW113355   3.014   4.670   1.369
 4152SOL    HW213356   3.086   4.754   1.489
 4153SOL     OW13357   6.971   5.631   1.385
 4153SOL    HW113358   6.877   5.664   1.371
 4153SOL    HW213359   0.007   5.668   1.313
 4154SOL     OW13360   1.144   6.216   3.719
 4154SOL    HW113361   1.157   6.311   3.747
 4154SOL    HW213362   1.162   6.156   3.797
 4155SOL     OW13363   0.715   0.618   1.426
 4155SOL    HW113364   0.804   0.577   1.403
 4155SOL    HW213365   0.715   0.646   1.522
 4156SOL     OW13366   0.624   5.267   6.194
 4156SOL    HW113367   0.702   5.204   6.191
 4156SOL    HW213368   0.641   5.336   6.264
 4157SOL     OW13369   6.324   6.040   1.544
 4157SOL    HW113370   6.376   6.061   1.461
 4157SOL    HW213371   6.323   6.121   1.604
 4158SOL     OW13372   1.172   2.571   1.503
 4158SOL    HW113373   1.115   2.608   1.576
 4158SOL    HW213374   1.216   2.646   1.453
 4159SOL     OW13375   3.094   0.347   4.154
 4159SOL    HW113376   3.106   0.307   4.063
 4159SOL    HW213377   3.183   0.379   4.188
 4160SOL     OW13378   6.565   0.010   6.776
 4160SOL    HW113379   6.586   0.041   6.869
 4160SOL    HW213380   6.472   6.995   6.773
 4161SOL     OW13381   3.607   3.331   1.820
 4161SOL    HW113382   3.704   3.354   1.819
 4161SOL    HW213383   3.557   3.399   1.873
 4162SOL     OW13384   5.484   5.838   1.824
 4162SOL    HW113385   5.438   5.772   1.766
 4162SOL    HW213386   5.536   5.790   1.895
 4163SOL     OW13387   3.667   6.069   1.573
 4163SOL    HW113388   3.695   6.025   1.659
 4163SOL    HW213389   3.725   6.149   1.557
 4164SOL     OW13390   6.860   0.588   5.466
 4164SOL    HW113391   6.832   0.678   5.434
 4164SOL    HW213392   6.901   0.596   5.557
 4165SOL     OW13393   4.786   0.806   4.586
 4165SOL    HW113394   4.787   0.786   4.684
 4165SOL    HW213395   4.878   0.834   4.557
 4166SOL     OW13396   5.716   1.412   1.450
 4166SOL    HW113397   5.757   1.396   1.360
 4166SOL    HW213398   5.706   1.511   1.464
 4167SOL     OW13399   3.632   5.548   4.225
 4167SOL    HW113400   3.693   5.552   4.145
 4167SOL    HW213401   3.543   5.587   4.201
 4168SOL     OW13402   5.282   3.818   6.747
 4168SOL    HW113403   5.233   3.902   6.724
 4168SOL    HW213404   5.353   3.802   6.679
 4169SOL     OW13405   4.931   3.086   5.667
 4169SOL    HW113406   4.912   3.032   5.584
 4169SOL    HW213407   4.866   3.161   5.674
 4170SOL     OW13408   0.071   2.706   4.400
 4170SOL    HW113409   7.003   2.740   4.376
 4170SOL    HW213410   0.123   2.779   4.444
 4171SOL     OW13411   0.344   2.600   0.212
 4171SOL    HW113412   0.412   2.639   0.151
 4171SOL    HW213413   0.388   2.566   0.295
 4172SOL     OW13414   2.489   4.620   0.794
 4172SOL    HW113415   2.441   4.650   0.877
 4172SOL    HW213416   2.553   4.691   0.765
 4173SOL     OW13417   4.526   2.244   6.339
 4173SOL    HW113418   4.571   2.256   6.251
 4173SOL    HW213419   4.554   2.318   6.401
 4174SOL     OW13420   3.377   0.389   5.022
 4174SOL    HW113421   3.283   0.391   5.057
 4174SOL    HW213422   3.406   0.294   5.010
 4175SOL     OW13423   0.773   4.653   6.948
 4175SOL    HW113424   0.737   4.716   6.880
 4175SOL    HW213425   0.826   4.703   7.016
 4176SOL     OW13426   5.204   0.145   6.066
 4176SOL    HW113427   5.185   0.235   6.105
 4176SOL    HW213428   5.293   0.147   6.020
 4177SOL     OW13429   4.043   4.821   2.925
 4177SOL    HW113430   4.026   4.829   3.024
 4177SOL    HW213431   3.960   4.846   2.875
 4178SOL     OW13432   4.048   5.538   1.248
 4178SOL    HW113433   4.004   5.493   1.170
 4178SOL    HW213434   4.098   5.470   1.301
 4179SOL     OW13435   5.473   2.874   5.563
 4179SOL    HW113436   5.568   2.842   5.563
 4179SOL    HW213437   5.467   2.960   5.613
 4180SOL     OW13438   4.386   4.126   7.018
 4180SOL    HW113439   4.372   4.033   6.985
 4180SOL    HW213440   4.472   4.131   0.046
 4181SOL     OW13441   4.489   6.426   4.715
 4181SOL    HW113442   4.389   6.434   4.709
 4181SOL    HW213443   4.531   6.510   4.680
 4182SOL     OW13444   0.100   6.660   4.756
 4182SOL    HW113445   0.164   6.611   4.696
 4182SOL    HW213446   0.141   6.672   4.846
 4183SOL     OW13447   3.745   1.954   1.072
 4183SOL    HW113448   3.778   1.893   0.999
 4183SOL    HW213449   3.688   2.025   1.032
 4184SOL     OW13450   3.520   5.662   3.745
 4184SOL    HW113451   3.490   5.719   3.668
 4184SOL    HW213452   3.444   5.651   3.809
 4185SOL     OW13453   5.757   3.195   2.966
 4185SOL    HW113454   5.743   3.278   3.019
 4185SOL    HW213455   5.679   3.181   2.904
 4186SOL     OW13456   1.596   6.314   0.714
 4186SOL    HW113457   1.540   6.341   0.792
 4186SOL    HW213458   1.537   6.282   0.640
 4187SOL     OW13459   2.042   3.590   6.579
 4187SOL    HW113460   2.077   3.639   6.499
 4187SOL    HW213461   1.992   3.654   6.637
 4188SOL     OW13462   4.599   0.063   0.658
 4188SOL    HW113463   4.616   0.132   0.727
 4188SOL    HW213464   4.501   0.061   0.634
 4189SOL     OW13465   5.077   5.025   3.970
 4189SOL    HW113466   5.112   5.017   4.063
 4189SOL    HW213467   5.008   4.954   3.954
 4190SOL     OW13468   6.839   6.032   1.036
 4190SOL    HW113469   6.786   5.951   1.061
 4190SOL    HW213470   6.825   6.053   0.939
 4191SOL     OW13471   4.724   4.486   6.621
 4191SOL    HW113472   4.768   4.565   6.577
 4191SOL    HW213473   4.760   4.476   6.714
 4192SOL     OW13474   1.048   3.488   1.458
 4192SOL    HW113475   1.083   3.439   1.379
 4192SOL    HW213476   0.959   3.449   1.485
 4193SOL     OW13477   0.074   0.299   0.757
 4193SOL    HW113478   0.081   0.222   0.820
 4193SOL    HW213479   0.162   0.312   0.711
 4194SOL     OW13480   4.345   1.319   5.230
 4194SOL    HW113481   4.312   1.226   5.211
 4194SOL    HW213482   4.395   1.319   5.317
 4195SOL     OW13483   3.473   6.274   1.112
 4195SOL    HW113484   3.516   6.210   1.049
 4195SOL    HW213485   3.384   6.238   1.140
 4196SOL     OW13486   6.450   2.940   1.899
 4196SOL    HW113487   6.468   2.907   1.807
 4196SOL    HW213488   6.361   2.905   1.930
 4197SOL     OW13489   3.886   0.748   6.600
 4197SOL    HW113490   3.915   0.655   6.622
 4197SOL    HW213491   3.795   0.765   6.637
 4198SOL     OW13492   6.369   1.844   2.326
 4198SOL    HW113493   6.412   1.890   2.248
 4198SOL    HW213494   6.440   1.802   2.383
 4199SOL     OW13495   0.542   3.949   5.737
 4199SOL    HW113496   0.501   3.862   5.764
 4199SOL    HW213497   0.602   3.934   5.658
 4200SOL     OW13498   4.622   1.102   3.377
 4200SOL    HW113499   4.689   1.034   3.405
 4200SOL    HW213500   4.616   1.104   3.277
 4201SOL     OW13501   5.480   6.441   3.808
 4201SOL    HW113502   5.444   6.400   3.891
 4201SOL    HW213503   5.409   6.442   3.738
 4202SOL     OW13504   4.783   3.993   1.034
 4202SOL    HW113505   4.761   4.028   1.125
 4202SOL    HW213506   4.817   4.067   0.977
 4203SOL     OW13507   6.373   5.731   6.531
 4203SOL    HW113508   6.297   5.667   6.522
 4203SOL    HW213509   6.348   5.805   6.592
 4204SOL     OW13510   2.489   3.449   6.791
 4204SOL    HW113511   2.468   3.375   6.855
 4204SOL    HW213512   2.404   3.482   6.749
 4205SOL     OW13513   3.866   6.659   5.087
 4205SOL    HW113514   3.861   6.562   5.064
 4205SOL    HW213515   3.868   6.714   5.004
 4206SOL     OW13516   1.484   2.326   4.940
 4206SOL    HW113517   1.578   2.295   4.944
 4206SOL    HW213518   1.455   2.358   5.031
 4207SOL     OW13519   1.634   2.482   2.217
 4207SOL    HW113520   1.647   2.576   2.248
 4207SOL    HW213521   1.603   2.482   2.122
 4208SOL     OW13522   2.113   3.550   4.757
 4208SOL    HW113523   2.112   3.629   4.818
 4208SOL    HW213524   2.198   3.550   4.703
 4209SOL     OW13525   6.883   6.664   2.220
 4209SOL    HW113526   6.911   6.709   2.135
 4209SOL    HW213527   6.944   6.693   2.294
 4210SOL     OW13528   4.113   3.645   4.776
 4210SOL    HW113529   4.072   3.731   4.747
 4210SOL    HW213530   4.123   3.644   4.876
 4211SOL     OW13531   4.224   2.479   5.462
 4211SOL    HW113532   4.174   2.518   5.384
 4211SOL    HW213533   4.191   2.521   5.547
 4212SOL     OW13534   0.147   2.607   3.265
 4212SOL    HW113535   0.167   2.654   3.350
 4212SOL    HW213536   0.188   2.656   3.188
 4213SOL     OW13537   3.300   0.867   3.594
 4213SOL    HW113538   3.335   0.774   3.612
 4213SOL    HW213539   3.345   0.903   3.512
 4214SOL     OW13540   0.455   5.761   3.959
 4214SOL    HW113541   0.553   5.777   3.949
 4214SOL    HW213542   0.424   5.694   3.891
 4215SOL     OW13543   4.568   6.417   5.332
 4215SOL    HW113544   4.646   6.477   5.313
 4215SOL    HW213545   4.598   6.322   5.326
 4216SOL     OW13546   2.611   5.847   1.894
 4216SOL    HW113547   2.597   5.932   1.844
 4216SOL    HW213548   2.708   5.838   1.918
 4217SOL     OW13549   0.873   0.614   2.750
 4217SOL    HW113550   0.790   0.611   2.807
 4217SOL    HW213551   0.950   0.644   2.806
 4218SOL     OW13552   2.896   1.346   1.651
 4218SOL    HW113553   2.977   1.404   1.637
 4218SOL    HW213554   2.817   1.388   1.608
 4219SOL     OW13555   4.597   6.074   3.682
 4219SOL    HW113556   4.632   6.144   3.619
 4219SOL    HW213557   4.635   6.090   3.773
 4220SOL     OW13558   5.172   2.613   1.805
 4220SOL    HW113559   5.162   2.543   1.875
 4220SOL    HW213560   5.082   2.646   1.776
 4221SOL     OW13561   0.724   5.913   0.294
 4221SOL    HW113562   0.702   5.962   0.209
 4221SOL    HW213563   0.804   5.955   0.337
 4222SOL     OW13564   4.797   2.848   3.661
 4222SOL    HW113565   4.880   2.824   3.610
 4222SOL    HW213566   4.820   2.906   3.738
 4223SOL     OW13567   4.144   3.599   2.060
 4223SOL    HW113568   4.190   3.538   1.996
 4223SOL    HW213569   4.137   3.690   2.020
 4224SOL     OW13570   4.929   3.458   4.687
 4224SOL    HW113571   4.878   3.406   4.619
 4224SOL    HW213572   4.955   3.398   4.762
 4225SOL     OW13573   0.091   1.965   5.494
 4225SOL    HW113574   0.069   1.874   5.457
 4225SOL    HW213575   0.160   2.009   5.437
 4226SOL     OW13576   1.504   5.455   4.985
 4226SOL    HW113577   1.595   5.457   4.943
 4226SOL    HW213578   1.453   5.536   4.958
 4227SOL     OW13579   5.642   5.521   2.583
 4227SOL    HW113580   5.545   5.524   2.556
 4227SOL    HW213581   5.695   5.577   2.520
 4228SOL     OW13582   1.171   5.045   4.233
 4228SOL    HW113583   1.140   4.956   4.200
 4228SOL    HW213584   1.264   5.063   4.199
 4229SOL     OW13585   6.419   4.823   5.373
 4229SOL    HW113586   6.355   4.824   5.450
 4229SOL    HW213587   6.498   4.766   5.397
 4230SOL     OW13588   0.451   0.705   2.278
 4230SOL    HW113589   0.476   0.802   2.269
 4230SOL    HW213590   0.407   0.691   2.367
 4231SOL     OW13591   5.762   1.933   5.591
 4231SOL    HW113592   5.688   1.867   5.581
 4231SOL    HW213593   5.829   1.920   5.519
 4232SOL     OW13594   1.586   5.602   3.836
 4232SOL    HW113595   1.618   5.697   3.831
 4232SOL    HW213596   1.628   5.557   3.915
 4233SOL     OW13597   5.111   5.106   3.533
 4233SOL    HW113598   5.086   5.152   3.618
 4233SOL    HW213599   5.034   5.111   3.469
 4234SOL     OW13600   2.906   5.873   6.156
 4234SOL    HW113601   2.827   5.814   6.137
 4234SOL    HW213602   2.932   5.922   6.073
 4235SOL     OW13603   0.610   5.706   5.679
 4235SOL    HW113604   0.708   5.716   5.700
 4235SOL    HW213605   0.583   5.610   5.692
 4236SOL     OW13606   0.300   5.428   2.866
 4236SOL    HW113607   0.354   5.465   2.790
 4236SOL    HW213608   0.205   5.418   2.838
 4237SOL     OW13609   6.817   4.753   3.924
 4237SOL    HW113610   6.850   4.659   3.915
 4237SOL    HW213611   6.780   4.766   4.016
 4238SOL     OW13612   2.378   6.750   3.019
 4238SOL    HW113613   2.462   6.704   3.049
 4238SOL    HW213614   2.391   6.786   2.927
 4239SOL     OW13615   4.216   1.157   3.688
 4239SOL    HW113616   4.226   1.255   3.673
 4239SOL    HW213617   4.141   1.122   3.632
 4240SOL     OW13618   0.023   6.411   1.145
 4240SOL    HW113619   0.068   6.410   1.234
 4240SOL    HW213620   0.064   6.340   1.087
 4241SOL     OW13621   6.389   3.053   0.540
 4241SOL    HW113622   6.428   3.017   0.625
 4241SOL    HW213623   6.308   3.001   0.515
 4242SOL     OW13624   1.974   1.769   3.604
 4242SOL    HW113625   2.026   1.835   3.658
 4242SOL    HW213626   1.877   1.776   3.627
 4243SOL     OW13627   4.987   0.258   3.113
 4243SOL    HW113628   5.076   0.243   3.155
 4243SOL    HW213629   4.999   0.291   3.020
 4244SOL     OW13630   3.389   3.555   2.233
 4244SOL    HW113631   3.472   3.501   2.249
 4244SOL    HW213632   3.410   3.629   2.168
 4245SOL     OW13633   5.925   2.280   6.450
 4245SOL    HW113634   5.861   2.228   6.393
 4245SOL    HW213635   5.991   2.217   6.492
 4246SOL     OW13636   0.733   3.817   1.841
 4246SOL    HW113637   0.715   3.896   1.900
 4246SOL    HW213638   0.832   3.810   1.824
 4247SOL     OW13639   0.305   5.403   5.059
 4247SOL    HW113640   0.331   5.425   4.965
 4247SOL    HW213641   0.385   5.412   5.118
 4248SOL     OW13642   1.515   3.147   5.591
 4248SOL    HW113643   1.592   3.123   5.532
 4248SOL    HW213644   1.540   3.131   5.687
 4249SOL     OW13645   5.461   3.950   6.276
 4249SOL    HW113646   5.519   3.972   6.198
 4249SOL    HW213647   5.402   3.873   6.253
 4250SOL     OW13648   6.992   4.619   3.290
 4250SOL    HW113649   6.918   4.556   3.313
 4250SOL    HW213650   6.988   4.699   3.350
 4251SOL     OW13651   5.802   4.380   0.600
 4251SOL    HW113652   5.721   4.434   0.577
 4251SOL    HW213653   5.855   4.362   0.517
 4252SOL     OW13654   0.706   5.223   5.814
 4252SOL    HW113655   0.666   5.218   5.722
 4252SOL    HW213656   0.746   5.314   5.827
 4253SOL     OW13657   4.361   6.858   2.368
 4253SOL    HW113658   4.394   6.868   2.462
 4253SOL    HW213659   4.261   6.846   2.369
 4254SOL     OW13660   2.555   4.282   1.070
 4254SOL    HW113661   2.626   4.353   1.079
 4254SOL    HW213662   2.497   4.283   1.152
 4255SOL     OW13663   0.401   2.703   4.596
 4255SOL    HW113664   0.352   2.788   4.577
 4255SOL    HW213665   0.499   2.722   4.604
 4256SOL     OW13666   1.956   0.249   1.551
 4256SOL    HW113667   2.026   0.206   1.493
 4256SOL    HW213668   1.870   0.199   1.541
 4257SOL     OW13669   3.856   1.837   4.716
 4257SOL    HW113670   3.761   1.809   4.701
 4257SOL    HW213671   3.912   1.757   4.736
 4258SOL     OW13672   5.568   6.673   2.699
 4258SOL    HW113673   5.644   6.638   2.753
 4258SOL    HW213674   5.482   6.642   2.739
 4259SOL     OW13675   2.281   2.316   0.001
 4259SOL    HW113676   2.316   2.398   6.979
 4259SOL    HW213677   2.291   2.324   0.100
 4260SOL     OW13678   4.769   5.516   3.712
 4260SOL    HW113679   4.860   5.519   3.672
 4260SOL    HW213680   4.703   5.556   3.648
 4261SOL     OW13681   1.532   6.494   2.010
 4261SOL    HW113682   1.522   6.527   1.916
 4261SOL    HW213683   1.581   6.407   2.011
 4262SOL     OW13684   0.784   4.995   6.643
 4262SOL    HW113685   0.740   4.940   6.713
 4262SOL    HW213686   0.859   5.047   6.683
 4263SOL     OW13687   2.929   4.682   5.536
 4263SOL    HW113688   2.939   4.781   5.526
 4263SOL    HW213689   3.018   4.642   5.556
 4264SOL     OW13690   0.571   0.882   1.142
 4264SOL    HW113691   0.580   0.912   1.048
 4264SOL    HW213692   0.534   0.789   1.144
 4265SOL     OW13693   6.726   1.551   0.739
 4265SOL    HW113694   6.777   1.468   0.715
 4265SOL    HW213695   6.765   1.629   0.690
 4266SOL     OW13696   2.346   5.429   0.452
 4266SOL    HW113697   2.286   5.490   0.400
 4266SOL    HW213698   2.344   5.455   0.549
 4267SOL     OW13699   1.942   3.715   5.054
 4267SOL    HW113700   1.909   3.799   5.097
 4267SOL    HW213701   1.970   3.650   5.124
 4268SOL     OW13702   2.064   0.877   0.627
 4268SOL    HW113703   2.046   0.960   0.575
 4268SOL    HW213704   2.106   0.808   0.567
 4269SOL     OW13705   3.319   3.089   0.251
 4269SOL    HW113706   3.418   3.101   0.260
 4269SOL    HW213707   3.289   3.124   0.162
 4270SOL     OW13708   3.155   3.003   4.840
 4270SOL    HW113709   3.249   2.987   4.811
 4270SOL    HW213710   3.092   2.989   4.763
 4271SOL     OW13711   0.774   6.976   6.404
 4271SOL    HW113712   0.868   6.997   6.433
 4271SOL    HW213713   0.750   6.884   6.434
 4272SOL     OW13714   0.164   4.530   4.732
 4272SOL    HW113715   0.185   4.531   4.634
 4272SOL    HW213716   0.187   4.619   4.772
 4273SOL     OW13717   5.404   6.852   5.833
 4273SOL    HW113718   5.465   6.926   5.804
 4273SOL    HW213719   5.309   6.877   5.812
 4274SOL     OW13720   1.613   6.601   3.435
 4274SOL    HW113721   1.684   6.623   3.369
 4274SOL    HW213722   1.601   6.679   3.498
 4275SOL     OW13723   0.760   6.944   6.118
 4275SOL    HW113724   0.671   6.945   6.073
 4275SOL    HW213725   0.749   6.969   6.214
 4276SOL     OW13726   1.991   4.244   2.537
 4276SOL    HW113727   1.970   4.208   2.628
 4276SOL    HW213728   2.077   4.205   2.505
 4277SOL     OW13729   0.034   5.323   3.637
 4277SOL    HW113730   0.129   5.324   3.666
 4277SOL    HW213731   7.006   5.392   3.688
 4278SOL     OW13732   6.682   6.814   5.011
 4278SOL    HW113733   6.655   6.882   4.943
 4278SOL    HW213734   6.609   6.802   5.077
 4279SOL     OW13735   3.457   6.232   5.015
 4279SOL    HW113736   3.416   6.147   5.048
 4279SOL    HW213737   3.423   6.308   5.070
 4280SOL     OW13738   5.561   2.374   4.385
 4280SOL    HW113739   5.635   2.385   4.452
 4280SOL    HW213740   5.540   2.462   4.343
 4281SOL     OW13741   2.133   4.123   4.862
 4281SOL    HW113742   2.192   4.082   4.930
 4281SOL    HW213743   2.042   4.081   4.865
 4282SOL     OW13744   2.047   2.812   0.938
 4282SOL    HW113745   1.968   2.857   0.980
 4282SOL    HW213746   2.018   2.723   0.901
 4283SOL     OW13747   2.018   0.240   4.351
 4283SOL    HW113748   2.074   0.292   4.287
 4283SOL    HW213749   2.022   0.284   4.441
 4284SOL     OW13750   5.729   2.165   2.346
 4284SOL    HW113751   5.697   2.086   2.293
 4284SOL    HW213752   5.693   2.249   2.305
 4285SOL     OW13753   1.031   0.061   5.678
 4285SOL    HW113754   0.935   0.070   5.705
 4285SOL    HW213755   1.036   0.036   5.581
 4286SOL     OW13756   4.794   5.895   0.529
 4286SOL    HW113757   4.713   5.924   0.479
 4286SOL    HW213758   4.862   5.861   0.465
 4287SOL     OW13759   5.925   6.972   4.717
 4287SOL    HW113760   5.841   7.007   4.674
 4287SOL    HW213761   6.004   0.001   4.683
 4288SOL     OW13762   1.636   6.374   2.770
 4288SOL    HW113763   1.735   6.388   2.768
 4288SOL    HW213764   1.614   6.282   2.738
 4289SOL     OW13765   5.584   2.842   1.147
 4289SOL    HW113766   5.644   2.826   1.068
 4289SOL    HW213767   5.628   2.907   1.209
 4290SOL     OW13768   2.485   0.775   1.583
 4290SOL    HW113769   2.394   0.766   1.623
 4290SOL    HW213770   2.531   0.687   1.585
 4291SOL     OW13771   6.203   3.593   0.855
 4291SOL    HW113772   6.223   3.631   0.945
 4291SOL    HW213773   6.107   3.562   0.853
 4292SOL     OW13774   5.816   5.125   6.548
 4292SOL    HW113775   5.871   5.144   6.466
 4292SOL    HW213776   5.818   5.204   6.608
 4293SOL     OW13777   0.136   2.773   6.766
 4293SOL    HW113778   0.145   2.813   6.675
 4293SOL    HW213779   0.050   2.722   6.772
 4294SOL     OW13780   4.332   2.405   5.975
 4294SOL    HW113781   4.418   2.453   5.956
 4294SOL    HW213782   4.316   2.337   5.904
 4295SOL     OW13783   3.537   0.096   4.433
 4295SOL    HW113784   3.588   0.010   4.437
 4295SOL    HW213785   3.547   0.145   4.519
 4296SOL     OW13786   2.626   1.700   1.325
 4296SOL    HW113787   2.671   1.766   1.264
 4296SOL    HW213788   2.585   1.749   1.402
 4297SOL     OW13789   5.661   0.702   5.256
 4297SOL    HW113790   5.608   0.769   5.203
 4297SOL    HW213791   5.758   0.712   5.234
 4298SOL     OW13792   2.971   5.951   1.239
 4298SOL    HW113793   2.938   5.899   1.318
 4298SOL    HW213794   2.916   6.034   1.229
 4299SOL     OW13795   0.759   3.639   6.484
 4299SOL    HW113796   0.840   3.696   6.497
 4299SOL    HW213797   0.784   3.558   6.431
 4300SOL     OW13798   4.183   1.199   6.833
 4300SOL    HW113799   4.100   1.223   6.782
 4300SOL    HW213800   4.249   1.273   6.826
 4301SOL     OW13801   2.797   1.832   0.488
 4301SOL    HW113802   2.713   1.878   0.515
 4301SOL    HW213803   2.832   1.778   0.564
 4302SOL     OW13804   0.966   6.575   6.873
 4302SOL    HW113805   0.981   6.489   6.825
 4302SOL    HW213806   1.039   6.640   6.849
 4303SOL     OW13807   0.036   3.321   2.326
 4303SOL    HW113808   0.060   3.229   2.296
 4303SOL    HW213809   0.082   3.341   2.412
 4304SOL     OW13810   3.692   3.658   4.004
 4304SOL    HW113811   3.763   3.593   4.032
 4304SOL    HW213812   3.674   3.721   4.079
 4305SOL     OW13813   6.426   1.350   3.556
 4305SOL    HW113814   6.417   1.449   3.554
 4305SOL    HW213815   6.337   1.308   3.538
 4306SOL     OW13816   6.700   4.681   5.721
 4306SOL    HW113817   6.778   4.694   5.660
 4306SOL    HW213818   6.704   4.590   5.761
 4307SOL     OW13819   4.800   4.011   6.140
 4307SOL    HW113820   4.824   4.103   6.172
 4307SOL    HW213821   4.702   4.006   6.123
 4308SOL     OW13822   5.339   5.816   4.593
 4308SOL    HW113823   5.359   5.825   4.496
 4308SOL    HW213824   5.424   5.812   4.645
 4309SOL     OW13825   1.470   1.315   0.470
 4309SOL    HW113826   1.518   1.231   0.444
 4309SOL    HW213827   1.534   1.392   0.471
 4310SOL     OW13828   1.861   1.804   2.816
 4310SOL    HW113829   1.910   1.751   2.747
 4310SOL    HW213830   1.926   1.856   2.872
 4311SOL     OW13831   2.217   5.960   3.395
 4311SOL    HW113832   2.204   5.861   3.390
 4311SOL    HW213833   2.302   5.984   3.349
 4312SOL     OW13834   2.113   5.476   2.173
 4312SOL    HW113835   2.193   5.430   2.212
 4312SOL    HW213836   2.103   5.450   2.077
 4313SOL     OW13837   4.774   1.464   1.833
 4313SOL    HW113838   4.705   1.522   1.876
 4313SOL    HW213839   4.739   1.430   1.746
 4314SOL     OW13840   4.936   3.511   2.490
 4314SOL    HW113841   4.925   3.481   2.395
 4314SOL    HW213842   4.931   3.432   2.551
 4315SOL     OW13843   2.701   0.750   1.903
 4315SOL    HW113844   2.712   0.732   1.805
 4315SOL    HW213845   2.612   0.718   1.933
 4316SOL     OW13846   5.985   0.966   1.845
 4316SOL    HW113847   5.886   0.957   1.846
 4316SOL    HW213848   6.022   0.946   1.936
 4317SOL     OW13849   3.374   1.237   4.250
 4317SOL    HW113850   3.404   1.149   4.213
 4317SOL    HW213851   3.284   1.227   4.293
 4318SOL     OW13852   0.380   3.026   3.857
 4318SOL    HW113853   0.284   3.031   3.885
 4318SOL    HW213854   0.386   2.984   3.767
 4319SOL     OW13855   2.700   3.950   6.339
 4319SOL    HW113856   2.603   3.962   6.321
 4319SOL    HW213857   2.719   3.853   6.353
 4320SOL     OW13858   0.357   6.530   2.944
 4320SOL    HW113859   0.325   6.521   2.849
 4320SOL    HW213860   0.358   6.627   2.969
 4321SOL     OW13861   6.787   0.257   5.140
 4321SOL    HW113862   6.719   0.280   5.209
 4321SOL    HW213863   6.869   0.220   5.185
 4322SOL     OW13864   5.866   1.036   0.017
 4322SOL    HW113865   5.777   1.082   0.024
 4322SOL    HW213866   5.927   1.090   6.982
 4323SOL     OW13867   6.422   3.344   2.595
 4323SOL    HW113868   6.475   3.393   2.525
 4323SOL    HW213869   6.415   3.400   2.677
 4324SOL     OW13870   6.071   4.131   6.472
 4324SOL    HW113871   6.144   4.189   6.437
 4324SOL    HW213872   6.092   4.103   6.566
 4325SOL     OW13873   1.674   1.523   6.455
 4325SOL    HW113874   1.623   1.440   6.435
 4325SOL    HW213875   1.695   1.528   6.552
 4326SOL     OW13876   6.244   3.153   5.264
 4326SOL    HW113877   6.268   3.241   5.305
 4326SOL    HW213878   6.145   3.147   5.254
 4327SOL     OW13879   6.258   6.560   2.391
 4327SOL    HW113880   6.173   6.511   2.370
 4327SOL    HW213881   6.252   6.653   2.355
 4328SOL     OW13882   5.076   5.374   6.959
 4328SOL    HW113883   4.977   5.359   6.956
 4328SOL    HW213884   5.095   5.472   6.954
 4329SOL     OW13885   4.290   2.241   5.782
 4329SOL    HW113886   4.384   2.238   5.748
 4329SOL    HW213887   4.241   2.159   5.751
 4330SOL     OW13888   1.162   7.017   6.110
 4330SOL    HW113889   1.257   6.985   6.106
 4330SOL    HW213890   1.136   0.031   6.020
 4331SOL     OW13891   5.842   2.363   6.721
 4331SOL    HW113892   5.881   2.338   6.633
 4331SOL    HW213893   5.852   2.461   6.736
 4332SOL     OW13894   5.004   3.201   2.010
 4332SOL    HW113895   5.078   3.169   2.068
 4332SOL    HW213896   4.928   3.136   2.013
 4333SOL     OW13897   5.601   1.056   4.428
 4333SOL    HW113898   5.665   1.132   4.411
 4333SOL    HW213899   5.623   1.014   4.516
 4334SOL     OW13900   4.049   1.955   2.245
 4334SOL    HW113901   3.961   2.003   2.243
 4334SOL    HW213902   4.034   1.860   2.274
 4335SOL     OW13903   2.944   3.989   5.056
 4335SOL    HW113904   2.865   4.049   5.066
 4335SOL    HW213905   2.961   3.972   4.959
 4336SOL     OW13906   1.273   6.539   4.606
 4336SOL    HW113907   1.211   6.529   4.684
 4336SOL    HW213908   1.352   6.593   4.633
 4337SOL     OW13909   6.690   5.442   0.437
 4337SOL    HW113910   6.621   5.508   0.410
 4337SOL    HW213911   6.770   5.491   0.473
 4338SOL     OW13912   6.434   6.154   3.948
 4338SOL    HW113913   6.530   6.183   3.937
 4338SOL    HW213914   6.418   6.072   3.892
 4339SOL     OW13915   5.945   1.847   5.372
 4339SOL    HW113916   5.965   1.851   5.274
 4339SOL    HW213917   6.022   1.804   5.419
 4340SOL     OW13918   5.436   3.954   1.274
 4340SOL    HW113919   5.492   3.882   1.234
 4340SOL    HW213920   5.341   3.924   1.279
 4341SOL     OW13921   1.931   4.252   1.580
 4341SOL    HW113922   1.978   4.190   1.517
 4341SOL    HW213923   1.994   4.324   1.609
 4342SOL     OW13924   1.242   2.892   2.930
 4342SOL    HW113925   1.250   2.983   2.888
 4342SOL    HW213926   1.209   2.827   2.862
 4343SOL     OW13927   3.204   1.616   0.987
 4343SOL    HW113928   3.239   1.522   0.994
 4343SOL    HW213929   3.154   1.639   1.070
 4344SOL     OW13930   1.877   4.959   3.169
 4344SOL    HW113931   1.837   4.913   3.248
 4344SOL    HW213932   1.957   4.908   3.137
 4345SOL     OW13933   1.571   2.414   5.487
 4345SOL    HW113934   1.609   2.342   5.429
 4345SOL    HW213935   1.635   2.491   5.490
 4346SOL     OW13936   2.047   3.311   1.855
 4346SOL    HW113937   2.108   3.381   1.893
 4346SOL    HW213938   2.057   3.310   1.755
 4347SOL     OW13939   5.688   6.973   2.853
 4347SOL    HW113940   5.686   6.903   2.924
 4347SOL    HW213941   5.607   6.964   2.795
 4348SOL     OW13942   1.611   3.883   6.964
 4348SOL    HW113943   1.580   3.978   6.968
 4348SOL    HW213944   1.587   3.844   6.875
 4349SOL     OW13945   0.346   1.232   3.688
 4349SOL    HW113946   0.348   1.199   3.782
 4349SOL    HW213947   0.403   1.174   3.630
 4350SOL     OW13948   5.546   2.326   4.060
 4350SOL    HW113949   5.484   2.248   4.049
 4350SOL    HW213950   5.567   2.338   4.157
 4351SOL     OW13951   2.886   6.178   1.912
 4351SOL    HW113952   2.894   6.230   1.997
 4351SOL    HW213953   2.870   6.082   1.934
 4352SOL     OW13954   6.822   1.317   2.033
 4352SOL    HW113955   6.761   1.392   2.058
 4352SOL    HW213956   6.883   1.297   2.110
 4353SOL     OW13957   3.413   5.869   6.692
 4353SOL    HW113958   3.362   5.800   6.640
 4353SOL    HW213959   3.419   5.842   6.787
 4354SOL     OW13960   2.533   0.107   6.861
 4354SOL    HW113961   2.434   0.096   6.873
 4354SOL    HW213962   2.556   0.204   6.858
 4355SOL     OW13963   4.527   1.146   0.383
 4355SOL    HW113964   4.505   1.048   0.376
 4355SOL    HW213965   4.618   1.156   0.422
 4356SOL     OW13966   4.036   4.216   0.407
 4356SOL    HW113967   3.975   4.143   0.438
 4356SOL    HW213968   3.982   4.293   0.374
 4357SOL     OW13969   6.132   0.098   0.097
 4357SOL    HW113970   6.204   0.028   0.099
 4357SOL    HW213971   6.043   0.055   0.113
 4358SOL     OW13972   0.732   6.984   1.769
 4358SOL    HW113973   0.796   6.997   1.845
 4358SOL    HW213974   0.688   0.049   1.747
 4359SOL     OW13975   0.304   2.282   4.015
 4359SOL    HW113976   0.272   2.269   4.109
 4359SOL    HW213977   0.227   2.270   3.952
 4360SOL     OW13978   1.156   2.956   1.648
 4360SOL    HW113979   1.132   2.977   1.743
 4360SOL    HW213980   1.117   3.026   1.588
 4361SOL     OW13981   5.063   2.751   2.073
 4361SOL    HW113982   5.153   2.785   2.099
 4361SOL    HW213983   5.062   2.651   2.081
 4362SOL     OW13984   6.619   4.215   4.757
 4362SOL    HW113985   6.589   4.251   4.846
 4362SOL    HW213986   6.660   4.289   4.703
 4363SOL     OW13987   4.950   2.704   5.580
 4363SOL    HW113988   5.047   2.725   5.585
 4363SOL    HW213989   4.897   2.788   5.567
 4364SOL     OW13990   3.096   4.016   4.597
 4364SOL    HW113991   3.039   4.090   4.562
 4364SOL    HW213992   3.077   3.932   4.545
 4365SOL     OW13993   4.296   2.358   2.486
 4365SOL    HW113994   4.350   2.404   2.556
 4365SOL    HW213995   4.208   2.331   2.525
 4366SOL     OW13996   5.642   5.577   1.165
 4366SOL    HW113997   5.719   5.627   1.126
 4366SOL    HW213998   5.574   5.557   1.094
 4367SOL     OW13999   1.572   6.497   6.268
 4367SOL    HW114000   1.579   6.560   6.345
 4367SOL    HW214001   1.617   6.411   6.292
 4368SOL     OW14002   5.319   3.995   1.583
 4368SOL    HW114003   5.273   3.985   1.496
 4368SOL    HW214004   5.367   4.083   1.586
 4369SOL     OW14005   4.373   5.370   2.068
 4369SOL    HW114006   4.427   5.391   1.986
 4369SOL    HW214007   4.297   5.434   2.075
 4370SOL     OW14008   6.034   4.829   3.871
 4370SOL    HW114009   6.008   4.747   3.819
 4370SOL    HW214010   6.063   4.901   3.807
 4371SOL     OW14011   6.057   1.405   2.244
 4371SOL    HW114012   6.048   1.428   2.340
 4371SOL    HW214013   6.131   1.458   2.203
 4372SOL     OW14014   4.246   1.443   3.757
 4372SOL    HW114015   4.247   1.515   3.687
 4372SOL    HW214016   4.190   1.473   3.834
 4373SOL     OW14017   6.365   1.903   6.529
 4373SOL    HW114018   6.405   1.816   6.554
 4373SOL    HW214019   6.376   1.918   6.430
 4374SOL     OW14020   1.978   2.719   1.644
 4374SOL    HW114021   1.893   2.668   1.655
 4374SOL    HW214022   2.053   2.656   1.624
 4375SOL     OW14023   2.420   6.616   4.889
 4375SOL    HW114024   2.428   6.675   4.809
 4375SOL    HW214025   2.481   6.649   4.962
 4376SOL     OW14026   5.795   0.900   3.133
 4376SOL    HW114027   5.718   0.849   3.173
 4376SOL    HW214028   5.878   0.879   3.185
 4377SOL     OW14029   6.022   4.385   6.818
 4377SOL    HW114030   5.988   4.337   6.899
 4377SOL    HW214031   5.997   4.333   6.736
 4378SOL     OW14032   1.758   0.177   4.229
 4378SOL    HW114033   1.718   0.091   4.261
 4378SOL    HW214034   1.832   0.204   4.290
 4379SOL     OW14035   2.654   2.356   5.200
 4379SOL    HW114036   2.554   2.352   5.195
 4379SOL    HW214037   2.684   2.450   5.190
 4380SOL     OW14038   0.316   1.201   1.758
 4380SOL    HW114039   0.252   1.269   1.795
 4380SOL    HW214040   0.271   1.111   1.756
 4381SOL     OW14041   2.788   6.465   5.889
 4381SOL    HW114042   2.689   6.475   5.878
 4381SOL    HW214043   2.833   6.487   5.802
 4382SOL     OW14044   6.893   3.629   5.592
 4382SOL    HW114045   6.864   3.724   5.577
 4382SOL    HW214046   6.817   3.567   5.570
 4383SOL     OW14047   5.464   2.973   7.002
 4383SOL    HW114048   5.549   2.935   0.017
 4383SOL    HW214049   5.395   2.978   0.052
 4384SOL     OW14050   6.531   6.395   3.795
 4384SOL    HW114051   6.618   6.409   3.842
 4384SOL    HW214052   6.458   6.436   3.850
 4385SOL     OW14053   5.866   1.957   4.381
 4385SOL    HW114054   5.876   2.037   4.323
 4385SOL    HW214055   5.936   1.890   4.357
 4386SOL     OW14056   0.842   3.391   5.566
 4386SOL    HW114057   0.759   3.403   5.512
 4386SOL    HW214058   0.818   3.363   5.659
 4387SOL     OW14059   6.591   2.018   0.300
 4387SOL    HW114060   6.570   1.959   0.377
 4387SOL    HW214061   6.545   2.106   0.312
 4388SOL     OW14062   4.848   1.903   6.569
 4388SOL    HW114063   4.943   1.892   6.598
 4388SOL    HW214064   4.839   1.871   6.474
 4389SOL     OW14065   0.386   3.527   1.583
 4389SOL    HW114066   0.445   3.492   1.656
 4389SOL    HW214067   0.317   3.588   1.623
 4390SOL     OW14068   6.233   0.673   1.571
 4390SOL    HW114069   6.136   0.678   1.591
 4390SOL    HW214070   6.268   0.583   1.598
 4391SOL     OW14071   2.136   6.162   6.492
 4391SOL    HW114072   2.091   6.074   6.477
 4391SOL    HW214073   2.068   6.235   6.490
 4392SOL     OW14074   1.951   2.488   5.074
 4392SOL    HW114075   1.961   2.410   5.136
 4392SOL    HW214076   2.012   2.476   4.996
 4393SOL     OW14077   4.762   0.359   1.684
 4393SOL    HW114078   4.758   0.320   1.776
 4393SOL    HW214079   4.730   0.454   1.686
 4394SOL     OW14080   1.320   0.551   1.417
 4394SOL    HW114081   1.262   0.474   1.392
 4394SOL    HW214082   1.312   0.568   1.515
 4395SOL     OW14083   2.781   5.663   0.993
 4395SOL    HW114084   2.777   5.746   0.936
 4395SOL    HW214085   2.710   5.667   1.063
 4396SOL     OW14086   2.288   0.424   3.248
 4396SOL    HW114087   2.366   0.427   3.185
 4396SOL    HW214088   2.204   0.443   3.198
 4397SOL     OW14089   2.898   1.878   3.993
 4397SOL    HW114090   2.959   1.892   3.915
 4397SOL    HW214091   2.900   1.959   4.051
 4398SOL     OW14092   2.095   2.931   5.773
 4398SOL    HW114093   2.031   3.002   5.803
 4398SOL    HW214094   2.067   2.898   5.683
 4399SOL     OW14095   2.962   6.902   2.338
 4399SOL    HW114096   2.968   6.822   2.279
 4399SOL    HW214097   2.870   6.908   2.377
 4400SOL     OW14098   2.215   5.544   4.909
 4400SOL    HW114099   2.314   5.557   4.903
 4400SOL    HW214100   2.195   5.455   4.950
 4401SOL     OW14101   3.797   6.994   6.065
 4401SOL    HW114102   3.713   0.021   6.084
 4401SOL    HW214103   3.870   0.004   6.125
 4402SOL     OW14104   1.272   0.401   3.052
 4402SOL    HW114105   1.290   0.406   3.150
 4402SOL    HW214106   1.356   0.378   3.003
 4403SOL     OW14107   1.194   5.043   1.051
 4403SOL    HW114108   1.120   4.981   1.077
 4403SOL    HW214109   1.277   4.991   1.034
 4404SOL     OW14110   0.745   6.024   6.470
 4404SOL    HW114111   0.686   5.955   6.428
 4404SOL    HW214112   0.809   5.979   6.532
 4405SOL     OW14113   2.045   5.069   3.696
 4405SOL    HW114114   1.957   5.114   3.681
 4405SOL    HW214115   2.036   5.001   3.769
 4406SOL     OW14116   6.181   3.388   2.454
 4406SOL    HW114117   6.266   3.361   2.499
 4406SOL    HW214118   6.107   3.328   2.485
 4407SOL     OW14119   6.134   6.211   1.918
 4407SOL    HW114120   6.072   6.289   1.921
 4407SOL    HW214121   6.210   6.230   1.856
 4408SOL     OW14122   4.159   0.642   1.133
 4408SOL    HW114123   4.224   0.715   1.151
 4408SOL    HW214124   4.066   0.676   1.142
 4409SOL     OW14125   3.592   0.600   2.283
 4409SOL    HW114126   3.509   0.549   2.304
 4409SOL    HW214127   3.666   0.536   2.260
 4410SOL     OW14128   0.949   6.105   1.196
 4410SOL    HW114129   0.988   6.044   1.127
 4410SOL    HW214130   1.022   6.143   1.252
 4411SOL     OW14131   3.268   4.494   5.347
 4411SOL    HW114132   3.176   4.495   5.308
 4411SOL    HW214133   3.294   4.588   5.373
 4412SOL     OW14134   5.139   6.482   2.519
 4412SOL    HW114135   5.067   6.530   2.570
 4412SOL    HW214136   5.123   6.492   2.421
 4413SOL     OW14137   4.602   6.400   3.685
 4413SOL    HW114138   4.536   6.474   3.698
 4413SOL    HW214139   4.594   6.365   3.592
 4414SOL     OW14140   4.213   4.161   1.275
 4414SOL    HW114141   4.132   4.218   1.263
 4414SOL    HW214142   4.285   4.190   1.212
 4415SOL     OW14143   2.831   3.871   1.305
 4415SOL    HW114144   2.863   3.854   1.398
 4415SOL    HW214145   2.754   3.934   1.308
 4416SOL     OW14146   4.589   2.552   2.845
 4416SOL    HW114147   4.593   2.565   2.944
 4416SOL    HW214148   4.502   2.509   2.821
 4417SOL     OW14149   0.341   3.506   3.958
 4417SOL    HW114150   0.310   3.576   3.894
 4417SOL    HW214151   0.378   3.428   3.908
 4418SOL     OW14152   6.209   6.706   6.813
 4418SOL    HW114153   6.193   6.707   6.912
 4418SOL    HW214154   6.142   6.646   6.768
 4419SOL     OW14155   6.467   5.784   6.274
 4419SOL    HW114156   6.388   5.780   6.212
 4419SOL    HW214157   6.442   5.745   6.362
 4420SOL     OW14158   3.772   2.616   0.748
 4420SOL    HW114159   3.793   2.526   0.710
 4420SOL    HW214160   3.823   2.628   0.833
 4421SOL     OW14161   1.609   2.842   5.313
 4421SOL    HW114162   1.640   2.813   5.222
 4421SOL    HW214163   1.627   2.769   5.379
 4422SOL     OW14164   6.779   4.365   6.878
 4422SOL    HW114165   6.867   4.373   6.832
 4422SOL    HW214166   6.777   4.426   6.957
 4423SOL     OW14167   5.455   4.040   5.177
 4423SOL    HW114168   5.529   3.972   5.185
 4423SOL    HW214169   5.411   4.051   5.265
 4424SOL     OW14170   4.805   5.867   3.697
 4424SOL    HW114171   4.752   5.941   3.738
 4424SOL    HW214172   4.744   5.793   3.670
 4425SOL     OW14173   1.961   5.426   1.890
 4425SOL    HW114174   1.889   5.394   1.951
 4425SOL    HW214175   1.940   5.519   1.859
 4426SOL     OW14176   0.985   6.827   4.098
 4426SOL    HW114177   0.937   6.856   4.181
 4426SOL    HW214178   0.999   6.728   4.102
 4427SOL     OW14179   2.884   6.420   2.560
 4427SOL    HW114180   2.869   6.322   2.566
 4427SOL    HW214181   2.981   6.438   2.542
 4428SOL     OW14182   5.965   0.397   3.646
 4428SOL    HW114183   6.042   0.346   3.608
 4428SOL    HW214184   5.943   0.363   3.737
 4429SOL     OW14185   2.400   6.233   3.422
 4429SOL    HW114186   2.491   6.258   3.389
 4429SOL    HW214187   2.331   6.284   3.370
 4430SOL     OW14188   5.055   4.321   5.191
 4430SOL    HW114189   5.074   4.223   5.191
 4430SOL    HW214190   5.121   4.368   5.133
 4431SOL     OW14191   3.122   0.212   3.923
 4431SOL    HW114192   3.023   0.219   3.910
 4431SOL    HW214193   3.155   0.131   3.874
 4432SOL     OW14194   1.212   3.854   6.331
 4432SOL    HW114195   1.159   3.939   6.338
 4432SOL    HW214196   1.306   3.871   6.359
 4433SOL     OW14197   0.863   0.516   5.147
 4433SOL    HW114198   0.934   0.509   5.217
 4433SOL    HW214199   0.799   0.589   5.171
 4434SOL     OW14200   0.012   0.675   2.230
 4434SOL    HW114201   0.020   0.740   2.154
 4434SOL    HW214202   7.003   0.723   2.312
 4435SOL     OW14203   2.333   3.495   0.358
 4435SOL    HW114204   2.374   3.527   0.273
 4435SOL    HW214205   2.359   3.400   0.374
 4436SOL     OW14206   4.160   1.289   1.858
 4436SOL    HW114207   4.080   1.236   1.830
 4436SOL    HW214208   4.192   1.345   1.782
 4437SOL     OW14209   0.024   3.792   1.056
 4437SOL    HW114210   0.080   3.709   1.060
 4437SOL    HW214211   6.978   3.789   1.129
 4438SOL     OW14212   3.880   0.603   5.976
 4438SOL    HW114213   3.978   0.614   5.992
 4438SOL    HW214214   3.852   0.663   5.901
 4439SOL     OW14215   1.967   6.509   2.508
 4439SOL    HW114216   1.941   6.588   2.453
 4439SOL    HW214217   2.054   6.526   2.553
 4440SOL     OW14218   1.240   4.791   0.043
 4440SOL    HW114219   1.229   4.717   0.110
 4440SOL    HW214220   1.280   4.755   6.982
 4441SOL     OW14221   0.278   1.000   0.496
 4441SOL    HW114222   0.241   0.993   0.404
 4441SOL    HW214223   0.322   0.913   0.521
 4442SOL     OW14224   1.978   4.660   6.601
 4442SOL    HW114225   1.888   4.641   6.641
 4442SOL    HW214226   1.987   4.611   6.515
 4443SOL     OW14227   0.361   5.507   6.713
 4443SOL    HW114228   0.436   5.504   6.779
 4443SOL    HW214229   0.338   5.602   6.692
 4444SOL     OW14230   5.575   4.481   0.232
 4444SOL    HW114231   5.546   4.387   0.217
 4444SOL    HW214232   5.538   4.514   0.318
 4445SOL     OW14233   0.135   5.623   0.225
 4445SOL    HW114234   0.187   5.702   0.256
 4445SOL    HW214235   0.037   5.639   0.241
 4446SOL     OW14236   5.141   0.796   0.786
 4446SOL    HW114237   5.068   0.757   0.729
 4446SOL    HW214238   5.100   0.850   0.859
 4447SOL     OW14239   5.312   5.342   5.482
 4447SOL    HW114240   5.332   5.440   5.481
 4447SOL    HW214241   5.289   5.313   5.574
 4448SOL     OW14242   3.928   6.483   2.123
 4448SOL    HW114243   3.934   6.580   2.097
 4448SOL    HW214244   4.003   6.432   2.081
 4449SOL     OW14245   3.295   1.174   5.294
 4449SOL    HW114246   3.354   1.251   5.318
 4449SOL    HW214247   3.325   1.092   5.344
 4450SOL     OW14248   3.185   6.774   0.089
 4450SOL    HW114249   3.224   6.836   0.021
 4450SOL    HW214250   3.256   6.748   0.155
 4451SOL     OW14251   4.893   4.419   2.959
 4451SOL    HW114252   4.822   4.372   3.011
 4451SOL    HW214253   4.949   4.352   2.911
 4452SOL     OW14254   5.108   5.964   4.635
 4452SOL    HW114255   5.121   6.060   4.662
 4452SOL    HW214256   5.192   5.913   4.651
 4453SOL     OW14257   0.063   3.856   0.680
 4453SOL    HW114258   0.141   3.834   0.738
 4453SOL    HW214259   0.055   3.956   0.672
 4454SOL     OW14260   0.431   2.712   6.551
 4454SOL    HW114261   0.419   2.613   6.556
 4454SOL    HW214262   0.433   2.741   6.455
 4455SOL     OW14263   0.441   6.714   5.187
 4455SOL    HW114264   0.529   6.728   5.230
 4455SOL    HW214265   0.380   6.791   5.209
 4456SOL     OW14266   1.924   7.021   4.525
 4456SOL    HW114267   1.892   0.087   4.557
 4456SOL    HW214268   1.930   7.022   4.425
 4457SOL     OW14269   0.929   2.551   5.004
 4457SOL    HW114270   0.830   2.563   5.017
 4457SOL    HW214271   0.958   2.600   4.922
 4458SOL     OW14272   1.796   3.430   0.073
 4458SOL    HW114273   1.766   3.336   0.053
 4458SOL    HW214274   1.891   3.428   0.104
 4459SOL     OW14275   1.310   2.419   3.023
 4459SOL    HW114276   1.409   2.410   3.033
 4459SOL    HW214277   1.280   2.369   2.941
 4460SOL     OW14278   6.576   3.175   3.917
 4460SOL    HW114279   6.533   3.241   3.978
 4460SOL    HW214280   6.672   3.199   3.904
 4461SOL     OW14281   3.002   0.969   1.161
 4461SOL    HW114282   3.090   0.966   1.115
 4461SOL    HW214283   3.016   0.964   1.260
 4462SOL     OW14284   6.379   4.520   3.028
 4462SOL    HW114285   6.436   4.593   3.065
 4462SOL    HW214286   6.295   4.558   2.990
 4463SOL     OW14287   5.941   1.737   0.423
 4463SOL    HW114288   6.006   1.697   0.358
 4463SOL    HW214289   5.946   1.688   0.510
 4464SOL     OW14290   0.223   5.388   0.365
 4464SOL    HW114291   0.208   5.409   0.462
 4464SOL    HW214292   0.152   5.432   0.310
 4465SOL     OW14293   3.104   5.838   0.987
 4465SOL    HW114294   3.072   5.868   1.076
 4465SOL    HW214295   3.172   5.903   0.953
 4466SOL     OW14296   1.457   2.170   3.245
 4466SOL    HW114297   1.527   2.168   3.173
 4466SOL    HW214298   1.453   2.261   3.285
 4467SOL     OW14299   4.270   6.050   3.195
 4467SOL    HW114300   4.230   6.113   3.261
 4467SOL    HW214301   4.285   6.098   3.108
 4468SOL     OW14302   1.685   2.964   1.407
 4468SOL    HW114303   1.739   2.996   1.485
 4468SOL    HW214304   1.590   2.954   1.435
 4469SOL     OW14305   3.147   6.501   0.906
 4469SOL    HW114306   3.144   6.503   0.806
 4469SOL    HW214307   3.242   6.514   0.936
 4470SOL     OW14308   1.435   0.237   2.556
 4470SOL    HW114309   1.519   0.256   2.607
 4470SOL    HW214310   1.442   0.147   2.513
 4471SOL     OW14311   0.887   1.108   6.286
 4471SOL    HW114312   0.872   1.138   6.380
 4471SOL    HW214313   0.863   1.011   6.278
 4472SOL     OW14314   1.517   2.284   0.777
 4472SOL    HW114315   1.507   2.189   0.750
 4472SOL    HW214316   1.430   2.318   0.815
 4473SOL     OW14317   0.043   3.097   4.639
 4473SOL    HW114318   0.044   3.181   4.585
 4473SOL    HW214319   6.971   3.067   4.653
 4474SOL     OW14320   3.134   5.585   0.827
 4474SOL    HW114321   3.229   5.555   0.822
 4474SOL    HW214322   3.119   5.632   0.914
 4475SOL     OW14323   1.365   3.657   1.121
 4475SOL    HW114324   1.433   3.724   1.091
 4475SOL    HW214325   1.402   3.604   1.197
 4476SOL     OW14326   4.742   1.206   3.634
 4476SOL    HW114327   4.721   1.168   3.544
 4476SOL    HW214328   4.658   1.238   3.677
 4477SOL     OW14329   1.779   0.796   5.310
 4477SOL    HW114330   1.738   0.785   5.400
 4477SOL    HW214331   1.730   0.739   5.244
 4478SOL     OW14332   1.575   0.277   0.487
 4478SOL    HW114333   1.503   0.345   0.470
 4478SOL    HW214334   1.654   0.322   0.529
 4479SOL     OW14335   1.265   2.703   0.804
 4479SOL    HW114336   1.275   2.667   0.711
 4479SOL    HW214337   1.291   2.799   0.805
 4480SOL     OW14338   0.917   5.699   4.256
 4480SOL    HW114339   0.923   5.603   4.283
 4480SOL    HW214340   0.980   5.717   4.181
 4481SOL     OW14341   2.211   3.903   6.398
 4481SOL    HW114342   2.140   3.963   6.434
 4481SOL    HW214343   2.274   3.877   6.472
 4482SOL     OW14344   2.767   6.076   6.751
 4482SOL    HW114345   2.781   5.993   6.696
 4482SOL    HW214346   2.850   6.132   6.749
 4483SOL     OW14347   1.062   3.243   1.107
 4483SOL    HW114348   0.966   3.230   1.083
 4483SOL    HW214349   1.079   3.340   1.124
 4484SOL     OW14350   1.935   2.157   0.080
 4484SOL    HW114351   1.957   2.063   0.053
 4484SOL    HW214352   1.896   2.157   0.172
 4485SOL     OW14353   5.394   2.798   5.053
 4485SOL    HW114354   5.398   2.848   5.139
 4485SOL    HW214355   5.369   2.702   5.071
 4486SOL     OW14356   4.940   5.142   5.565
 4486SOL    HW114357   4.993   5.169   5.485
 4486SOL    HW214358   4.902   5.051   5.550
 4487SOL     OW14359   0.819   3.215   0.169
 4487SOL    HW114360   0.795   3.240   0.262
 4487SOL    HW214361   0.766   3.135   0.141
 4488SOL     OW14362   6.911   3.895   4.201
 4488SOL    HW114363   6.948   3.921   4.112
 4488SOL    HW214364   6.959   3.946   4.273
 4489SOL     OW14365   4.512   5.288   5.710
 4489SOL    HW114366   4.420   5.323   5.724
 4489SOL    HW214367   4.570   5.317   5.786
 4490SOL     OW14368   5.071   1.475   1.073
 4490SOL    HW114369   5.005   1.526   1.129
 4490SOL    HW214370   5.103   1.533   0.999
 4491SOL     OW14371   0.881   2.909   3.184
 4491SOL    HW114372   0.980   2.923   3.176
 4491SOL    HW214373   0.853   2.924   3.279
 4492SOL     OW14374   6.299   0.636   2.576
 4492SOL    HW114375   6.356   0.628   2.494
 4492SOL    HW214376   6.222   0.573   2.569
 4493SOL     OW14377   4.485   1.366   4.694
 4493SOL    HW114378   4.461   1.285   4.642
 4493SOL    HW214379   4.483   1.345   4.792
 4494SOL     OW14380   1.285   0.029   0.833
 4494SOL    HW114381   1.200   7.002   0.850
 4494SOL    HW214382   1.344   0.022   0.914
 4495SOL     OW14383   4.634   5.235   1.743
 4495SOL    HW114384   4.599   5.160   1.799
 4495SOL    HW214385   4.637   5.206   1.647
 4496SOL     OW14386   3.674   6.025   6.197
 4496SOL    HW114387   3.667   5.955   6.126
 4496SOL    HW214388   3.729   5.991   6.273
 4497SOL     OW14389   3.940   1.684   6.368
 4497SOL    HW114390   3.906   1.749   6.436
 4497SOL    HW214391   4.029   1.715   6.334
 4498SOL     OW14392   1.487   5.157   5.399
 4498SOL    HW114393   1.579   5.173   5.365
 4498SOL    HW214394   1.490   5.138   5.497
 4499SOL     OW14395   5.888   2.133   2.566
 4499SOL    HW114396   5.811   2.117   2.505
 4499SOL    HW214397   5.938   2.214   2.537
 4500SOL     OW14398   3.831   5.597   6.797
 4500SOL    HW114399   3.775   5.523   6.833
 4500SOL    HW214400   3.838   5.589   6.697
 4501SOL     OW14401   5.543   1.103   3.110
 4501SOL    HW114402   5.539   1.011   3.147
 4501SOL    HW214403   5.503   1.167   3.176
 4502SOL     OW14404   0.350   3.799   6.508
 4502SOL    HW114405   0.389   3.787   6.417
 4502SOL    HW214406   0.293   3.882   6.509
 4503SOL     OW14407   2.251   0.457   2.654
 4503SOL    HW114408   2.238   0.477   2.557
 4503SOL    HW214409   2.262   0.542   2.705
 4504SOL     OW14410   0.626   2.551   2.930
 4504SOL    HW114411   0.623   2.454   2.952
 4504SOL    HW214412   0.720   2.579   2.910
 4505SOL     OW14413   6.152   4.157   4.076
 4505SOL    HW114414   6.138   4.238   4.132
 4505SOL    HW214415   6.182   4.184   3.984
 4506SOL     OW14416   5.005   2.932   5.011
 4506SOL    HW114417   5.085   2.976   4.969
 4506SOL    HW214418   4.941   3.001   5.043
 4507SOL     OW14419   6.540   2.730   3.108
 4507SOL    HW114420   6.490   2.657   3.060
 4507SOL    HW214421   6.481   2.771   3.177
 4508SOL     OW14422   0.193   5.205   0.998
 4508SOL    HW114423   0.182   5.147   1.079
 4508SOL    HW214424   0.176   5.150   0.915
 4509SOL     OW14425   4.789   2.814   2.088
 4509SOL    HW114426   4.781   2.913   2.078
 4509SOL    HW214427   4.884   2.786   2.078
 4510SOL     OW14428   4.241   1.663   4.478
 4510SOL    HW114429   4.267   1.655   4.574
 4510SOL    HW214430   4.234   1.571   4.438
 4511SOL     OW14431   0.072   4.306   0.583
 4511SOL    HW114432   0.059   4.329   0.679
 4511SOL    HW214433   0.091   4.389   0.531
 4512SOL     OW14434   3.070   2.982   5.530
 4512SOL    HW114435   3.164   3.015   5.544
 4512SOL    HW214436   3.070   2.909   5.462
 4513SOL     OW14437   0.979   6.569   0.507
 4513SOL    HW114438   1.068   6.611   0.523
 4513SOL    HW214439   0.981   6.521   0.419
 4514SOL     OW14440   3.073   4.678   6.579
 4514SOL    HW114441   3.010   4.733   6.634
 4514SOL    HW214442   3.022   4.608   6.530
 4515SOL     OW14443   4.963   0.565   6.504
 4515SOL    HW114444   4.877   0.584   6.457
 4515SOL    HW214445   5.038   0.563   6.437
 4516SOL     OW14446   3.303   1.835   4.825
 4516SOL    HW114447   3.287   1.930   4.853
 4516SOL    HW214448   3.400   1.813   4.837
 4517SOL     OW14449   3.709   1.285   5.439
 4517SOL    HW114450   3.768   1.263   5.361
 4517SOL    HW214451   3.764   1.284   5.523
 4518SOL     OW14452   1.308   6.903   1.136
 4518SOL    HW114453   1.397   6.925   1.095
 4518SOL    HW214454   1.312   6.811   1.176
 4519SOL     OW14455   4.901   6.795   0.026
 4519SOL    HW114456   4.907   6.888   0.062
 4519SOL    HW214457   4.911   6.730   0.102
 4520SOL     OW14458   4.512   5.807   4.811
 4520SOL    HW114459   4.445   5.756   4.865
 4520SOL    HW214460   4.469   5.843   4.729
 4521SOL     OW14461   4.201   2.294   4.358
 4521SOL    HW114462   4.194   2.294   4.258
 4521SOL    HW214463   4.271   2.359   4.386
 4522SOL     OW14464   5.067   4.480   3.210
 4522SOL    HW114465   5.061   4.393   3.260
 4522SOL    HW214466   5.048   4.464   3.113
 4523SOL     OW14467   0.156   3.558   5.487
 4523SOL    HW114468   0.065   3.525   5.514
 4523SOL    HW214469   0.157   3.577   5.389
 4524SOL     OW14470   0.996   3.520   3.309
 4524SOL    HW114471   0.989   3.581   3.230
 4524SOL    HW214472   1.066   3.554   3.371
 4525SOL     OW14473   2.980   2.077   5.120
 4525SOL    HW114474   3.059   2.137   5.110
 4525SOL    HW214475   2.897   2.126   5.094
 4526SOL     OW14476   0.522   0.262   5.784
 4526SOL    HW114477   0.444   0.256   5.846
 4526SOL    HW214478   0.531   0.356   5.750
 4527SOL     OW14479   6.921   0.686   2.616
 4527SOL    HW114480   6.868   0.609   2.580
 4527SOL    HW214481   7.017   0.675   2.589
 4528SOL     OW14482   4.032   0.981   5.190
 4528SOL    HW114483   4.002   0.927   5.112
 4528SOL    HW214484   4.131   0.995   5.185
 4529SOL     OW14485   2.535   1.004   4.224
 4529SOL    HW114486   2.478   1.049   4.156
 4529SOL    HW214487   2.480   0.984   4.305
 4530SOL     OW14488   3.544   5.264   6.061
 4530SOL    HW114489   3.536   5.198   6.136
 4530SOL    HW214490   3.466   5.326   6.063
 4531SOL     OW14491   0.769   5.521   6.025
 4531SOL    HW114492   0.829   5.598   6.048
 4531SOL    HW214493   0.787   5.492   5.931
 4532SOL     OW14494   5.777   0.497   2.618
 4532SOL    HW114495   5.756   0.540   2.705
 4532SOL    HW214496   5.875   0.506   2.598
 4533SOL     OW14497   2.825   0.429   1.825
 4533SOL    HW114498   2.892   0.423   1.751
 4533SOL    HW214499   2.738   0.465   1.790
 4534SOL     OW14500   4.432   1.262   3.489
 4534SOL    HW114501   4.441   1.235   3.585
 4534SOL    HW214502   4.501   1.215   3.434
 4535SOL     OW14503   2.764   0.963   1.010
 4535SOL    HW114504   2.706   1.041   1.036
 4535SOL    HW214505   2.853   0.972   1.054
 4536SOL     OW14506   2.865   1.255   5.785
 4536SOL    HW114507   2.876   1.160   5.812
 4536SOL    HW214508   2.876   1.314   5.866
 4537SOL     OW14509   3.064   3.282   3.635
 4537SOL    HW114510   3.130   3.310   3.704
 4537SOL    HW214511   2.974   3.272   3.677
 4538SOL     OW14512   0.115   1.954   0.859
 4538SOL    HW114513   0.095   1.856   0.858
 4538SOL    HW214514   0.179   1.976   0.786
 4539SOL     OW14515   1.953   6.088   5.519
 4539SOL    HW114516   1.925   6.158   5.453
 4539SOL    HW214517   2.006   6.017   5.472
 4540SOL     OW14518   0.526   0.600   7.020
 4540SOL    HW114519   0.458   0.536   0.034
 4540SOL    HW214520   0.591   0.550   6.963
 4541SOL     OW14521   4.493   2.816   5.628
 4541SOL    HW114522   4.450   2.733   5.662
 4541SOL    HW214523   4.428   2.892   5.631
 4542SOL     OW14524   6.900   2.003   0.698
 4542SOL    HW114525   6.853   1.929   0.652
 4542SOL    HW214526   6.874   2.005   0.795
 4543SOL     OW14527   3.548   2.517   7.006
 4543SOL    HW114528   3.453   2.506   0.012
 4543SOL    HW214529   3.592   2.589   0.038
 4544SOL     OW14530   5.576   6.256   0.414
 4544SOL    HW114531   5.493   6.212   0.380
 4544SOL    HW214532   5.616   6.200   0.487
 4545SOL     OW14533   2.177   3.172   4.754
 4545SOL    HW114534   2.099   3.208   4.806
 4545SOL    HW214535   2.253   3.156   4.817
 4546SOL     OW14536   3.035   1.354   6.150
 4546SOL    HW114537   3.097   1.418   6.104
 4546SOL    HW214538   2.941   1.372   6.121
 4547SOL     OW14539   6.661   0.555   0.007
 4547SOL    HW114540   6.576   0.556   0.060
 4547SOL    HW214541   6.737   0.581   0.067
 4548SOL     OW14542   2.427   1.971   3.028
 4548SOL    HW114543   2.467   2.062   3.022
 4548SOL    HW214544   2.345   1.966   2.970
 4549SOL     OW14545   6.349   3.930   4.689
 4549SOL    HW114546   6.428   3.869   4.699
 4549SOL    HW214547   6.381   4.022   4.667
 4550SOL     OW14548   1.688   4.477   3.084
 4550SOL    HW114549   1.680   4.551   3.151
 4550SOL    HW214550   1.644   4.505   2.998
 4551SOL     OW14551   1.338   2.871   5.156
 4551SOL    HW114552   1.406   2.826   5.213
 4551SOL    HW214553   1.298   2.948   5.206
 4552SOL     OW14554   5.653   1.337   1.067
 4552SOL    HW114555   5.564   1.366   1.032
 4552SOL    HW214556   5.649   1.240   1.093
 4553SOL     OW14557   6.611   5.359   6.729
 4553SOL    HW114558   6.652   5.434   6.677
 4553SOL    HW214559   6.646   5.272   6.695
 4554SOL     OW14560   6.521   6.317   3.104
 4554SOL    HW114561   6.530   6.234   3.048
 4554SOL    HW214562   6.582   6.310   3.183
 4555SOL     OW14563   1.707   0.975   6.781
 4555SOL    HW114564   1.656   1.034   6.718
 4555SOL    HW214565   1.644   0.912   6.827
 4556SOL     OW14566   5.901   4.798   5.025
 4556SOL    HW114567   5.836   4.874   5.035
 4556SOL    HW214568   5.993   4.834   5.011
 4557SOL     OW14569   6.614   4.374   3.117
 4557SOL    HW114570   6.675   4.368   3.037
 4557SOL    HW214571   6.530   4.421   3.091
 4558SOL     OW14572   0.577   3.433   5.439
 4558SOL    HW114573   0.559   3.490   5.358
 4558SOL    HW214574   0.552   3.338   5.419
 4559SOL     OW14575   7.006   2.836   3.007
 4559SOL    HW114576   6.938   2.773   3.043
 4559SOL    HW214577   0.024   2.889   3.082
 4560SOL     OW14578   6.079   4.262   2.693
 4560SOL    HW114579   6.130   4.268   2.779
 4560SOL    HW214580   6.131   4.208   2.627
 4561SOL     OW14581   3.910   2.182   4.057
 4561SOL    HW114582   3.818   2.200   4.092
 4561SOL    HW214583   3.954   2.113   4.115
 4562SOL     OW14584   3.385   1.295   1.383
 4562SOL    HW114585   3.337   1.223   1.433
 4562SOL    HW214586   3.484   1.279   1.390
 4563SOL     OW14587   0.767   4.168   1.884
 4563SOL    HW114588   0.704   4.127   1.818
 4563SOL    HW214589   0.842   4.212   1.836
 4564SOL     OW14590   1.184   3.843   2.196
 4564SOL    HW114591   1.240   3.925   2.181
 4564SOL    HW214592   1.239   3.761   2.175
 4565SOL     OW14593   2.122   5.697   6.213
 4565SOL    HW114594   2.136   5.762   6.139
 4565SOL    HW214595   2.091   5.610   6.175
 4566SOL     OW14596   6.223   4.966   2.660
 4566SOL    HW114597   6.265   4.975   2.569
 4566SOL    HW214598   6.154   4.895   2.658
 4567SOL     OW14599   0.229   0.425   6.647
 4567SOL    HW114600   0.273   0.418   6.737
 4567SOL    HW214601   0.296   0.404   6.576
 4568SOL     OW14602   1.306   5.852   3.656
 4568SOL    HW114603   1.320   5.765   3.703
 4568SOL    HW214604   1.345   5.847   3.564
 4569SOL     OW14605   2.117   0.949   3.598
 4569SOL    HW114606   2.177   0.944   3.518
 4569SOL    HW214607   2.027   0.912   3.575
 4570SOL     OW14608   5.554   6.018   2.130
 4570SOL    HW114609   5.457   6.018   2.105
 4570SOL    HW214610   5.607   6.057   2.054
 4571SOL     OW14611   3.136   3.296   6.618
 4571SOL    HW114612   3.067   3.268   6.684
 4571SOL    HW214613   3.192   3.217   6.592
 4572SOL     OW14614   3.061   3.451   1.791
 4572SOL    HW114615   3.029   3.478   1.700
 4572SOL    HW214616   2.983   3.422   1.846
 4573SOL     OW14617   2.712   5.368   1.703
 4573SOL    HW114618   2.624   5.408   1.678
 4573SOL    HW214619   2.778   5.441   1.718
 4574SOL     OW14620   5.361   1.223   1.415
 4574SOL    HW114621   5.351   1.142   1.357
 4574SOL    HW214622   5.434   1.207   1.482
 4575SOL     OW14623   0.310   6.959   5.147
 4575SOL    HW114624   0.283   6.966   5.243
 4575SOL    HW214625   0.233   6.983   5.089
 4576SOL     OW14626   2.642   4.843   5.130
 4576SOL    HW114627   2.734   4.812   5.105
 4576SOL    HW214628   2.602   4.778   5.195
 4577SOL     OW14629   1.593   1.701   2.041
 4577SOL    HW114630   1.540   1.756   2.106
 4577SOL    HW214631   1.631   1.760   1.970
 4578SOL     OW14632   1.746   1.228   2.377
 4578SOL    HW114633   1.753   1.156   2.308
 4578SOL    HW214634   1.734   1.317   2.332
 4579SOL     OW14635   4.630   1.358   2.595
 4579SOL    HW114636   4.676   1.409   2.668
 4579SOL    HW214637   4.564   1.294   2.636
 4580SOL     OW14638   6.866   2.194   0.476
 4580SOL    HW114639   6.880   2.122   0.543
 4580SOL    HW214640   6.795   2.257   0.508
 4581SOL     OW14641   3.503   0.608   1.229
 4581SOL    HW114642   3.513   0.641   1.323
 4581SOL    HW214643   3.445   0.671   1.178
 4582SOL     OW14644   6.117   1.726   3.638
 4582SOL    HW114645   6.162   1.763   3.719
 4582SOL    HW214646   6.186   1.695   3.572
 4583SOL     OW14647   1.063   0.102   6.817
 4583SOL    HW114648   1.002   0.023   6.827
 4583SOL    HW214649   1.055   0.138   6.724
 4584SOL     OW14650   1.442   0.649   5.069
 4584SOL    HW114651   1.488   0.620   4.986
 4584SOL    HW214652   1.351   0.683   5.047
 4585SOL     OW14653   1.661   3.694   3.650
 4585SOL    HW114654   1.714   3.660   3.728
 4585SOL    HW214655   1.723   3.712   3.573
 4586SOL     OW14656   5.561   4.747   6.386
 4586SOL    HW114657   5.506   4.804   6.448
 4586SOL    HW214658   5.658   4.760   6.406
 4587SOL     OW14659   3.000   3.229   4.924
 4587SOL    HW114660   2.949   3.263   5.004
 4587SOL    HW214661   3.065   3.159   4.954
 4588SOL     OW14662   3.315   3.731   5.973
 4588SOL    HW114663   3.314   3.831   5.971
 4588SOL    HW214664   3.372   3.696   5.899
 4589SOL     OW14665   6.277   6.839   2.967
 4589SOL    HW114666   6.316   6.793   3.046
 4589SOL    HW214667   6.221   6.916   2.997
 4590SOL     OW14668   3.341   5.580   1.079
 4590SOL    HW114669   3.330   5.506   1.013
 4590SOL    HW214670   3.252   5.611   1.111
 4591SOL     OW14671   1.893   0.501   5.556
 4591SOL    HW114672   1.818   0.566   5.542
 4591SOL    HW214673   1.961   0.541   5.617
 4592SOL     OW14674   1.844   1.617   3.969
 4592SOL    HW114675   1.941   1.635   3.950
 4592SOL    HW214676   1.837   1.541   4.034
 4593SOL     OW14677   1.507   5.980   4.550
 4593SOL    HW114678   1.550   5.896   4.583
 4593SOL    HW214679   1.540   6.000   4.457
 4594SOL     OW14680   1.808   0.893   3.103
 4594SOL    HW114681   1.794   0.989   3.081
 4594SOL    HW214682   1.808   0.880   3.202
 4595SOL     OW14683   5.475   2.095   6.837
 4595SOL    HW114684   5.525   2.172   6.876
 4595SOL    HW214685   5.504   2.010   6.881
 4596SOL     OW14686   0.406   1.103   2.449
 4596SOL    HW114687   0.458   1.051   2.381
 4596SOL    HW214688   0.439   1.197   2.452
 4597SOL     OW14689   2.825   6.424   0.126
 4597SOL    HW114690   2.732   6.461   0.121
 4597SOL    HW214691   2.890   6.500   0.124
 4598SOL     OW14692   1.639   4.730   0.186
 4598SOL    HW114693   1.652   4.693   0.094
 4598SOL    HW214694   1.580   4.811   0.181
 4599SOL     OW14695   2.374   5.809   2.308
 4599SOL    HW114696   2.414   5.875   2.244
 4599SOL    HW214697   2.445   5.749   2.343
 4600SOL     OW14698   0.231   6.826   5.896
 4600SOL    HW114699   0.196   6.833   5.989
 4600SOL    HW214700   0.267   6.914   5.867
 4601SOL     OW14701   1.985   1.237   4.843
 4601SOL    HW114702   1.938   1.316   4.883
 4601SOL    HW214703   1.957   1.154   4.891
 4602SOL     OW14704   2.782   2.263   6.579
 4602SOL    HW114705   2.708   2.237   6.518
 4602SOL    HW214706   2.783   2.362   6.591
 4603SOL     OW14707   5.059   0.105   0.517
 4603SOL    HW114708   5.089   0.180   0.575
 4603SOL    HW214709   4.964   0.118   0.491
 4604SOL     OW14710   5.628   0.051   5.633
 4604SOL    HW114711   5.661   6.982   5.656
 4604SOL    HW214712   5.703   0.104   5.592
 4605SOL     OW14713   3.579   0.506   1.934
 4605SOL    HW114714   3.654   0.523   1.997
 4605SOL    HW214715   3.503   0.462   1.983
 4606SOL     OW14716   6.819   6.688   4.380
 4606SOL    HW114717   6.896   6.680   4.317
 4606SOL    HW214718   6.853   6.701   4.473
 4607SOL     OW14719   2.120   2.646   1.220
 4607SOL    HW114720   2.190   2.659   1.151
 4607SOL    HW214721   2.032   2.627   1.176
 4608SOL     OW14722   6.555   3.071   4.601
 4608SOL    HW114723   6.462   3.067   4.564
 4608SOL    HW214724   6.563   3.150   4.661
 4609SOL     OW14725   4.414   6.269   6.802
 4609SOL    HW114726   4.412   6.352   6.858
 4609SOL    HW214727   4.344   6.205   6.834
 4610SOL     OW14728   5.207   3.400   0.218
 4610SOL    HW114729   5.280   3.456   0.257
 4610SOL    HW214730   5.232   3.371   0.126
 4611SOL     OW14731   1.062   0.781   6.468
 4611SOL    HW114732   1.139   0.833   6.432
 4611SOL    HW214733   1.032   0.714   6.399
 4612SOL     OW14734   2.478   1.000   1.258
 4612SOL    HW114735   2.490   0.906   1.226
 4612SOL    HW214736   2.530   1.015   1.342
 4613SOL     OW14737   1.724   4.613   1.296
 4613SOL    HW114738   1.719   4.515   1.312
 4613SOL    HW214739   1.819   4.644   1.306
 4614SOL     OW14740   6.482   4.230   4.466
 4614SOL    HW114741   6.408   4.280   4.510
 4614SOL    HW214742   6.445   4.170   4.395
 4615SOL     OW14743   1.147   2.620   0.071
 4615SOL    HW114744   1.138   2.684   7.017
 4615SOL    HW214745   1.117   2.529   0.042
 4616SOL     OW14746   6.420   2.612   6.073
 4616SOL    HW114747   6.457   2.560   6.150
 4616SOL    HW214748   6.323   2.631   6.089
 4617SOL     OW14749   0.085   2.963   3.209
 4617SOL    HW114750   0.016   3.035   3.197
 4617SOL    HW214751   0.108   2.954   3.306
 4618SOL     OW14752   1.859   4.502   5.572
 4618SOL    HW114753   1.902   4.413   5.562
 4618SOL    HW214754   1.817   4.509   5.663
 4619SOL     OW14755   3.859   6.464   5.966
 4619SOL    HW114756   3.832   6.386   6.021
 4619SOL    HW214757   3.796   6.475   5.889
 4620SOL     OW14758   0.142   4.527   2.203
 4620SOL    HW114759   0.156   4.481   2.291
 4620SOL    HW214760   0.230   4.537   2.157
 4621SOL     OW14761   4.010   0.360   3.022
 4621SOL    HW114762   4.068   0.357   3.104
 4621SOL    HW214763   4.068   0.362   2.941
 4622SOL     OW14764   5.374   6.078   1.928
 4622SOL    HW114765   5.425   6.001   1.889
 4622SOL    HW214766   5.347   6.140   1.854
 4623SOL     OW14767   2.799   4.706   0.847
 4623SOL    HW114768   2.737   4.732   0.772
 4623SOL    HW214769   2.805   4.781   0.912
 4624SOL     OW14770   4.576   0.911   2.192
 4624SOL    HW114771   4.576   0.812   2.210
 4624SOL    HW214772   4.510   0.931   2.119
 4625SOL     OW14773   1.525   5.874   2.054
 4625SOL    HW114774   1.508   5.783   2.091
 4625SOL    HW214775   1.617   5.878   2.015
 4626SOL     OW14776   4.212   3.857   1.602
 4626SOL    HW114777   4.208   3.948   1.644
 4626SOL    HW214778   4.305   3.822   1.609
 4627SOL     OW14779   5.781   6.877   5.046
 4627SOL    HW114780   5.785   6.971   5.012
 4627SOL    HW214781   5.861   6.826   5.013
 4628SOL     OW14782   5.465   5.107   4.365
 4628SOL    HW114783   5.408   5.025   4.375
 4628SOL    HW214784   5.409   5.182   4.330
 4629SOL     OW14785   2.332   6.194   6.668
 4629SOL    HW114786   2.341   6.294   6.665
 4629SOL    HW214787   2.248   6.167   6.621
 4630SOL     OW14788   1.826   3.270   2.182
 4630SOL    HW114789   1.819   3.309   2.090
 4630SOL    HW214790   1.918   3.286   2.218
 4631SOL     OW14791   6.943   0.796   3.363
 4631SOL    HW114792   6.964   0.791   3.265
 4631SOL    HW214793   6.952   0.890   3.394
 4632SOL     OW14794   3.363   4.930   2.309
 4632SOL    HW114795   3.462   4.916   2.308
 4632SOL    HW214796   3.338   4.982   2.391
 4633SOL     OW14797   5.304   1.356   4.201
 4633SOL    HW114798   5.378   1.414   4.235
 4633SOL    HW214799   5.302   1.270   4.251
 4634SOL     OW14800   2.910   3.626   4.764
 4634SOL    HW114801   2.935   3.596   4.856
 4634SOL    HW214802   2.898   3.725   4.764
 4635SOL     OW14803   4.737   6.562   1.533
 4635SOL    HW114804   4.781   6.481   1.570
 4635SOL    HW214805   4.745   6.563   1.433
 4636SOL     OW14806   2.043   5.636   0.529
 4636SOL    HW114807   2.098   5.627   0.445
 4636SOL    HW214808   1.951   5.668   0.505
 4637SOL     OW14809   2.936   1.362   2.781
 4637SOL    HW114810   2.919   1.271   2.742
 4637SOL    HW214811   3.018   1.401   2.740
 4638SOL     OW14812   3.374   4.721   0.236
 4638SOL    HW114813   3.423   4.671   0.165
 4638SOL    HW214814   3.419   4.808   0.254
 4639SOL     OW14815   2.898   2.242   1.021
 4639SOL    HW114816   2.833   2.318   1.035
 4639SOL    HW214817   2.954   2.261   0.941
 4640SOL     OW14818   6.483   2.801   6.641
 4640SOL    HW114819   6.390   2.768   6.655
 4640SOL    HW214820   6.536   2.791   6.725
 4641SOL     OW14821   1.046   5.741   3.888
 4641SOL    HW114822   1.085   5.755   3.797
 4641SOL    HW214823   1.111   5.690   3.945
 4642SOL     OW14824   0.031   1.251   3.657
 4642SOL    HW114825   0.064   1.338   3.620
 4642SOL    HW214826   0.108   1.190   3.674
 4643SOL     OW14827   0.191   2.005   7.001
 4643SOL    HW114828   0.259   2.021   0.051
 4643SOL    HW214829   0.168   1.908   6.998
 4644SOL     OW14830   1.258   1.184   0.332
 4644SOL    HW114831   1.304   1.262   0.374
 4644SOL    HW214832   1.241   1.114   0.402
 4645SOL     OW14833   0.888   1.705   3.943
 4645SOL    HW114834   0.957   1.768   3.908
 4645SOL    HW214835   0.814   1.695   3.876
 4646SOL     OW14836   2.373   5.292   3.897
 4646SOL    HW114837   2.347   5.302   3.801
 4646SOL    HW214838   2.293   5.265   3.951
 4647SOL     OW14839   1.255   6.238   2.223
 4647SOL    HW114840   1.301   6.190   2.148
 4647SOL    HW214841   1.318   6.246   2.300
 4648SOL     OW14842   2.897   1.957   4.809
 4648SOL    HW114843   2.886   1.928   4.713
 4648SOL    HW214844   2.900   2.057   4.813
 4649SOL     OW14845   6.446   0.869   0.008
 4649SOL    HW114846   6.403   0.856   0.097
 4649SOL    HW214847   6.414   0.799   6.967
 4650SOL     OW14848   5.873   5.932   1.445
 4650SOL    HW114849   5.791   5.880   1.471
 4650SOL    HW214850   5.902   5.989   1.522
 4651SOL     OW14851   6.389   3.565   6.163
 4651SOL    HW114852   6.406   3.492   6.229
 4651SOL    HW214853   6.342   3.641   6.210
 4652SOL     OW14854   0.310   6.599   4.948
 4652SOL    HW114855   0.357   6.603   5.036
 4652SOL    HW214856   0.242   6.526   4.949
 4653SOL     OW14857   5.593   5.478   0.802
 4653SOL    HW114858   5.523   5.494   0.871
 4653SOL    HW214859   5.562   5.406   0.739
 4654SOL     OW14860   0.690   0.052   5.157
 4654SOL    HW114861   0.648   0.058   5.248
 4654SOL    HW214862   0.671   0.136   5.106
 4655SOL     OW14863   4.460   2.718   1.170
 4655SOL    HW114864   4.488   2.661   1.247
 4655SOL    HW214865   4.360   2.722   1.166
 4656SOL     OW14866   0.550   1.210   1.980
 4656SOL    HW114867   0.602   1.256   1.908
 4656SOL    HW214868   0.525   1.118   1.951
 4657SOL     OW14869   5.130   0.230   1.875
 4657SOL    HW114870   5.087   0.163   1.814
 4657SOL    HW214871   5.182   0.183   1.946
 4658SOL     OW14872   1.834   2.585   5.885
 4658SOL    HW114873   1.780   2.630   5.814
 4658SOL    HW214874   1.853   2.490   5.857
 4659SOL     OW14875   2.411   4.518   0.240
 4659SOL    HW114876   2.417   4.433   0.291
 4659SOL    HW214877   2.432   4.501   0.144
 4660SOL     OW14878   1.267   6.216   4.507
 4660SOL    HW114879   1.187   6.248   4.557
 4660SOL    HW214880   1.273   6.116   4.514
 4661SOL     OW14881   0.667   2.436   5.574
 4661SOL    HW114882   0.673   2.379   5.656
 4661SOL    HW214883   0.734   2.510   5.581
 4662SOL     OW14884   2.986   6.575   5.402
 4662SOL    HW114885   2.968   6.521   5.320
 4662SOL    HW214886   3.021   6.665   5.377
 4663SOL     OW14887   1.258   0.194   0.265
 4663SOL    HW114888   1.322   0.118   0.257
 4663SOL    HW214889   1.213   0.191   0.354
 4664SOL     OW14890   6.977   6.569   0.026
 4664SOL    HW114891   6.994   6.663   0.056
 4664SOL    HW214892   6.883   6.561   7.016
 4665SOL     OW14893   2.314   0.240   4.508
 4665SOL    HW114894   2.310   0.312   4.577
 4665SOL    HW214895   2.269   0.271   4.425
 4666SOL     OW14896   2.710   1.963   5.343
 4666SOL    HW114897   2.755   2.052   5.343
 4666SOL    HW214898   2.773   1.893   5.310
 4667SOL     OW14899   6.608   3.740   1.648
 4667SOL    HW114900   6.680   3.807   1.627
 4667SOL    HW214901   6.572   3.758   1.740
 4668SOL     OW14902   4.402   2.123   3.924
 4668SOL    HW114903   4.435   2.161   4.010
 4668SOL    HW214904   4.327   2.180   3.890
 4669SOL     OW14905   5.682   6.718   6.478
 4669SOL    HW114906   5.762   6.662   6.500
 4669SOL    HW214907   5.674   6.729   6.379
 4670SOL     OW14908   0.373   2.702   0.748
 4670SOL    HW114909   0.427   2.740   0.823
 4670SOL    HW214910   0.279   2.689   0.778
 4671SOL     OW14911   0.756   3.805   1.100
 4671SOL    HW114912   0.660   3.798   1.073
 4671SOL    HW214913   0.767   3.772   1.194
 4672SOL     OW14914   2.465   3.879   6.854
 4672SOL    HW114915   2.534   3.810   6.832
 4672SOL    HW214916   2.509   3.967   6.868
 4673SOL     OW14917   6.072   0.618   0.191
 4673SOL    HW114918   5.996   0.679   0.168
 4673SOL    HW214919   6.113   0.583   0.107
 4674SOL     OW14920   1.460   2.038   0.664
 4674SOL    HW114921   1.471   2.037   0.565
 4674SOL    HW214922   1.378   1.987   0.689
 4675SOL     OW14923   2.267   5.979   6.971
 4675SOL    HW114924   2.343   5.964   0.012
 4675SOL    HW214925   2.297   6.038   6.896
 4676SOL     OW14926   0.250   6.125   4.138
 4676SOL    HW114927   0.318   6.127   4.212
 4676SOL    HW214928   0.199   6.210   4.138
 4677SOL     OW14929   4.585   0.155   6.482
 4677SOL    HW114930   4.665   0.201   6.446
 4677SOL    HW214931   4.540   0.104   6.408
 4678SOL     OW14932   2.195   4.545   6.685
 4678SOL    HW114933   2.273   4.607   6.696
 4678SOL    HW214934   2.113   4.598   6.666
 4679SOL     OW14935   2.984   1.014   5.871
 4679SOL    HW114936   3.081   0.996   5.858
 4679SOL    HW214937   2.931   0.935   5.840
 4680SOL     OW14938   1.790   4.824   0.438
 4680SOL    HW114939   1.821   4.746   0.382
 4680SOL    HW214940   1.723   4.792   0.504
 4681SOL     OW14941   0.769   5.685   5.150
 4681SOL    HW114942   0.784   5.781   5.126
 4681SOL    HW214943   0.728   5.679   5.241
 4682SOL     OW14944   4.067   6.575   0.794
 4682SOL    HW114945   4.091   6.597   0.889
 4682SOL    HW214946   3.991   6.633   0.765
 4683SOL     OW14947   6.399   4.538   3.602
 4683SOL    HW114948   6.374   4.497   3.690
 4683SOL    HW214949   6.478   4.490   3.563
 4684SOL     OW14950   1.816   0.691   4.711
 4684SOL    HW114951   1.827   0.697   4.811
 4684SOL    HW214952   1.741   0.628   4.690
 4685SOL     OW14953   5.067   4.801   4.852
 4685SOL    HW114954   5.144   4.782   4.791
 4685SOL    HW214955   5.080   4.891   4.894
 4686SOL     OW14956   3.854   5.868   0.275
 4686SOL    HW114957   3.809   5.911   0.354
 4686SOL    HW214958   3.859   5.769   0.288
 4687SOL     OW14959   6.153   6.085   4.612
 4687SOL    HW114960   6.213   6.091   4.533
 4687SOL    HW214961   6.104   6.172   4.624
 4688SOL     OW14962   0.397   2.049   6.525
 4688SOL    HW114963   0.319   2.000   6.564
 4688SOL    HW214964   0.433   1.998   6.447
 4689SOL     OW14965   1.046   5.762   5.234
 4689SOL    HW114966   1.028   5.670   5.270
 4689SOL    HW214967   1.019   5.767   5.138
 4690SOL     OW14968   1.582   2.184   6.847
 4690SOL    HW114969   1.670   2.229   6.835
 4690SOL    HW214970   1.548   2.201   6.939
 4691SOL     OW14971   2.602   5.647   0.764
 4691SOL    HW114972   2.652   5.632   0.849
 4691SOL    HW214973   2.667   5.650   0.687
 4692SOL     OW14974   0.511   5.186   3.279
 4692SOL    HW114975   0.499   5.206   3.182
 4692SOL    HW214976   0.541   5.269   3.327
 4693SOL     OW14977   0.507   1.447   3.589
 4693SOL    HW114978   0.603   1.431   3.615
 4693SOL    HW214979   0.447   1.395   3.650
 4694SOL     OW14980   1.214   2.245   6.295
 4694SOL    HW114981   1.216   2.160   6.242
 4694SOL    HW214982   1.165   2.230   6.380
 4695SOL     OW14983   3.354   3.150   2.207
 4695SOL    HW114984   3.429   3.216   2.212
 4695SOL    HW214985   3.297   3.171   2.127
 4696SOL     OW14986   0.035   3.210   6.689
 4696SOL    HW114987   0.005   3.115   6.696
 4696SOL    HW214988   0.019   3.243   6.596
 4697SOL     OW14989   0.760   5.305   0.105
 4697SOL    HW114990   0.822   5.231   0.079
 4697SOL    HW214991   0.688   5.269   0.164
 4698SOL     OW14992   5.776   3.207   1.048
 4698SOL    HW114993   5.766   3.304   1.070
 4698SOL    HW214994   5.831   3.197   0.965
 4699SOL     OW14995   0.139   0.422   3.382
 4699SOL    HW114996   0.057   0.403   3.437
 4699SOL    HW214997   0.220   0.397   3.435
 4700SOL     OW14998   4.757   0.806   1.035
 4700SOL    HW114999   4.715   0.875   0.976
 4700SOL    HW215000   4.727   0.715   1.006
 4701SOL     OW15001   0.869   0.806   0.988
 4701SOL    HW115002   0.931   0.746   1.039
 4701SOL    HW215003   0.774   0.778   1.007
 4702SOL     OW15004   3.347   3.903   0.289
 4702SOL    HW115005   3.356   3.987   0.343
 4702SOL    HW215006   3.322   3.827   0.348
 4703SOL     OW15007   2.239   0.791   1.707
 4703SOL    HW115008   2.202   0.771   1.798
 4703SOL    HW215009   2.176   0.756   1.638
 4704SOL     OW15010   5.179   6.685   0.577
 4704SOL    HW115011   5.141   6.763   0.526
 4704SOL    HW215012   5.250   6.717   0.639
 4705SOL     OW15013   3.295   3.764   4.543
 4705SOL    HW115014   3.346   3.688   4.504
 4705SOL    HW215015   3.211   3.779   4.492
 4706SOL     OW15016   3.905   5.782   0.558
 4706SOL    HW115017   3.907   5.737   0.469
 4706SOL    HW215018   3.922   5.714   0.630
 4707SOL     OW15019   2.363   5.871   1.177
 4707SOL    HW115020   2.281   5.861   1.120
 4707SOL    HW215021   2.443   5.882   1.117
 4708SOL     OW15022   2.375   2.574   2.148
 4708SOL    HW115023   2.398   2.617   2.236
 4708SOL    HW215024   2.276   2.580   2.133
 4709SOL     OW15025   3.942   4.411   5.982
 4709SOL    HW115026   3.869   4.351   6.013
 4709SOL    HW215027   3.931   4.502   6.023
 4710SOL     OW15028   5.078   1.540   0.552
 4710SOL    HW115029   5.173   1.567   0.567
 4710SOL    HW215030   5.023   1.622   0.534
 4711SOL     OW15031   3.331   0.554   2.579
 4711SOL    HW115032   3.258   0.613   2.545
 4711SOL    HW215033   3.313   0.460   2.554
 4712SOL     OW15034   1.903   4.952   0.650
 4712SOL    HW115035   2.002   4.935   0.658
 4712SOL    HW215036   1.866   4.897   0.575
 4713SOL     OW15037   1.963   5.533   1.023
 4713SOL    HW115038   1.881   5.489   0.987
 4713SOL    HW215039   2.008   5.585   0.950
 4714SOL     OW15040   3.074   2.495   0.968
 4714SOL    HW115041   3.127   2.543   1.037
 4714SOL    HW215042   3.121   2.411   0.941
 4715SOL     OW15043   6.634   3.268   3.564
 4715SOL    HW115044   6.681   3.356   3.572
 4715SOL    HW215045   6.567   3.259   3.637
 4716SOL     OW15046   3.343   6.148   0.736
 4716SOL    HW115047   3.287   6.180   0.812
 4716SOL    HW215048   3.314   6.055   0.710
 4717SOL     OW15049   2.038   5.929   3.741
 4717SOL    HW115050   2.130   5.907   3.707
 4717SOL    HW215051   1.977   5.945   3.664
 4718SOL     OW15052   5.808   1.270   5.725
 4718SOL    HW115053   5.905   1.267   5.700
 4718SOL    HW215054   5.760   1.335   5.665
 4719SOL     OW15055   4.109   2.821   1.034
 4719SOL    HW115056   4.123   2.758   1.111
 4719SOL    HW215057   4.189   2.879   1.023
 4720SOL     OW15058   2.714   0.494   4.912
 4720SOL    HW115059   2.646   0.567   4.911
 4720SOL    HW215060   2.680   0.417   4.966
 4721SOL     OW15061   1.514   1.998   1.470
 4721SOL    HW115062   1.464   2.003   1.383
 4721SOL    HW215063   1.557   2.086   1.489
 4722SOL     OW15064   2.020   0.424   0.397
 4722SOL    HW115065   2.095   0.365   0.369
 4722SOL    HW215066   1.941   0.409   0.336
 4723SOL     OW15067   2.239   6.770   6.714
 4723SOL    HW115068   2.258   6.768   6.812
 4723SOL    HW215069   2.325   6.783   6.664
 4724SOL     OW15070   4.412   6.104   1.461
 4724SOL    HW115071   4.485   6.114   1.529
 4724SOL    HW215072   4.452   6.102   1.370
 4725SOL     OW15073   5.328   6.230   3.136
 4725SOL    HW115074   5.323   6.318   3.182
 4725SOL    HW215075   5.305   6.157   3.200
 4726SOL     OW15076   0.195   5.099   6.620
 4726SOL    HW115077   0.190   5.166   6.546
 4726SOL    HW215078   0.287   5.063   6.627
 4727SOL     OW15079   0.660   6.113   0.125
 4727SOL    HW115080   0.727   6.182   0.099
 4727SOL    HW215081   0.568   6.152   0.116
 4728SOL     OW15082   0.006   0.722   6.974
 4728SOL    HW115083   6.982   0.709   6.887
 4728SOL    HW215084   0.104   0.735   6.958
 4729SOL     OW15085   3.581   0.642   1.494
 4729SOL    HW115086   3.672   0.645   1.536
 4729SOL    HW215087   3.536   0.556   1.519
 4730SOL     OW15088   1.862   0.230   5.561
 4730SOL    HW115089   1.884   0.172   5.639
 4730SOL    HW215090   1.893   0.324   5.579
 4731SOL     OW15091   5.444   1.443   5.244
 4731SOL    HW115092   5.417   1.378   5.316
 4731SOL    HW215093   5.372   1.446   5.174
 4732SOL     OW15094   0.078   1.838   0.461
 4732SOL    HW115095   0.031   1.841   0.549
 4732SOL    HW215096   0.013   1.815   0.388
 4733SOL     OW15097   6.792   2.809   3.434
 4733SOL    HW115098   6.810   2.907   3.434
 4733SOL    HW215099   6.842   2.766   3.509
 4734SOL     OW15100   4.039   4.356   6.763
 4734SOL    HW115101   3.990   4.296   6.700
 4734SOL    HW215102   4.128   4.315   6.785
 4735SOL     OW15103   1.221   4.983   3.285
 4735SOL    HW115104   1.166   5.060   3.317
 4735SOL    HW215105   1.167   4.926   3.223
 4736SOL     OW15106   1.112   0.661   0.794
 4736SOL    HW115107   1.044   0.719   0.749
 4736SOL    HW215108   1.100   0.667   0.893
 4737SOL     OW15109   2.499   5.161   1.775
 4737SOL    HW115110   2.507   5.122   1.867
 4737SOL    HW215111   2.481   5.260   1.783
 4738SOL     OW15112   6.740   6.423   2.193
 4738SOL    HW115113   6.790   6.508   2.177
 4738SOL    HW215114   6.711   6.419   2.288
 4739SOL     OW15115   4.417   0.653   1.020
 4739SOL    HW115116   4.434   0.706   1.103
 4739SOL    HW215117   4.504   0.629   0.978
 4740SOL     OW15118   0.683   1.856   3.361
 4740SOL    HW115119   0.712   1.781   3.303
 4740SOL    HW215120   0.585   1.872   3.349
 4741SOL     OW15121   4.114   3.858   1.948
 4741SOL    HW115122   4.161   3.946   1.962
 4741SOL    HW215123   4.030   3.874   1.897
 4742SOL     OW15124   3.121   6.802   0.590
 4742SOL    HW115125   3.120   6.880   0.528
 4742SOL    HW215126   3.033   6.756   0.588
 4743SOL     OW15127   2.182   5.172   1.338
 4743SOL    HW115128   2.208   5.170   1.434
 4743SOL    HW215129   2.124   5.251   1.320
 4744SOL     OW15130   2.368   5.797   0.715
 4744SOL    HW115131   2.449   5.741   0.733
 4744SOL    HW215132   2.290   5.738   0.696
 4745SOL     OW15133   0.937   4.607   0.259
 4745SOL    HW115134   0.932   4.552   0.176
 4745SOL    HW215135   0.895   4.557   0.335
 4746SOL     OW15136   4.735   5.270   4.098
 4746SOL    HW115137   4.660   5.315   4.147
 4746SOL    HW215138   4.793   5.221   4.164
 4747SOL     OW15139   1.254   1.915   0.354
 4747SOL    HW115140   1.199   1.949   0.430
 4747SOL    HW215141   1.199   1.911   0.271
 4748SOL     OW15142   1.736   6.840   3.026
 4748SOL    HW115143   1.719   6.938   3.017
 4748SOL    HW215144   1.832   6.820   3.006
 4749SOL     OW15145   2.011   1.145   6.444
 4749SOL    HW115146   2.047   1.064   6.398
 4749SOL    HW215147   2.052   1.152   6.535
 4750SOL     OW15148   4.690   2.591   5.531
 4750SOL    HW115149   4.772   2.586   5.588
 4750SOL    HW215150   4.630   2.662   5.566
 4751SOL     OW15151   4.346   0.496   3.056
 4751SOL    HW115152   4.277   0.435   3.095
 4751SOL    HW215153   4.423   0.506   3.119
 4752SOL     OW15154   4.518   1.701   0.097
 4752SOL    HW115155   4.558   1.660   0.014
 4752SOL    HW215156   4.474   1.787   0.073
 4753SOL     OW15157   3.296   6.054   5.137
 4753SOL    HW115158   3.244   6.018   5.059
 4753SOL    HW215159   3.259   6.018   5.222
 4754SOL     OW15160   5.069   5.006   6.386
 4754SOL    HW115161   5.095   4.910   6.397
 4754SOL    HW215162   5.001   5.014   6.312
 4755SOL     OW15163   1.522   1.112   1.422
 4755SOL    HW115164   1.473   1.136   1.338
 4755SOL    HW215165   1.619   1.097   1.400
 4756SOL     OW15166   6.156   3.805   6.624
 4756SOL    HW115167   6.194   3.896   6.642
 4756SOL    HW215168   6.194   3.740   6.690
 4757SOL     OW15169   2.015   3.833   1.479
 4757SOL    HW115170   2.114   3.838   1.494
 4757SOL    HW215171   1.992   3.883   1.396
 4758SOL     OW15172   3.161   6.249   3.276
 4758SOL    HW115173   3.247   6.292   3.252
 4758SOL    HW215174   3.171   6.201   3.364
 4759SOL     OW15175   0.682   5.349   1.545
 4759SOL    HW115176   0.780   5.336   1.559
 4759SOL    HW215177   0.662   5.446   1.536
 4760SOL     OW15178   1.130   6.190   1.352
 4760SOL    HW115179   1.108   6.192   1.450
 4760SOL    HW215180   1.227   6.212   1.339
 4761SOL     OW15181   6.534   6.385   1.464
 4761SOL    HW115182   6.436   6.379   1.478
 4761SOL    HW215183   6.568   6.298   1.427
 4762SOL     OW15184   1.792   0.193   1.998
 4762SOL    HW115185   1.739   0.208   1.914
 4762SOL    HW215186   1.741   0.133   2.059
 4763SOL     OW15187   5.405   4.606   1.761
 4763SOL    HW115188   5.379   4.702   1.756
 4763SOL    HW215189   5.420   4.580   1.857
 4764SOL     OW15190   4.277   2.978   0.229
 4764SOL    HW115191   4.376   2.965   0.226
 4764SOL    HW215192   4.250   3.044   0.159
 4765SOL     OW15193   3.772   1.939   4.407
 4765SOL    HW115194   3.773   1.839   4.412
 4765SOL    HW215195   3.826   1.969   4.329
 4766SOL     OW15196   0.658   0.209   4.128
 4766SOL    HW115197   0.580   0.271   4.118
 4766SOL    HW215198   0.740   0.252   4.089
 4767SOL     OW15199   1.491   4.581   3.933
 4767SOL    HW115200   1.589   4.584   3.914
 4767SOL    HW215201   1.440   4.607   3.851
 4768SOL     OW15202   4.081   2.790   6.752
 4768SOL    HW115203   4.100   2.879   6.711
 4768SOL    HW215204   4.166   2.751   6.788
 4769SOL     OW15205   2.161   4.832   0.661
 4769SOL    HW115206   2.143   4.775   0.581
 4769SOL    HW215207   2.189   4.775   0.738
 4770SOL     OW15208   0.974   1.674   5.698
 4770SOL    HW115209   0.911   1.611   5.743
 4770SOL    HW215210   0.925   1.727   5.629
 4771SOL     OW15211   2.070   6.500   5.062
 4771SOL    HW115212   2.026   6.411   5.056
 4771SOL    HW215213   2.066   6.545   4.973
 4772SOL     OW15214   2.806   5.013   2.056
 4772SOL    HW115215   2.890   5.068   2.054
 4772SOL    HW215216   2.829   4.918   2.078
 4773SOL     OW15217   2.003   5.066   4.840
 4773SOL    HW115218   2.000   4.996   4.911
 4773SOL    HW215219   1.979   5.155   4.880
 4774SOL     OW15220   1.281   4.052   0.001
 4774SOL    HW115221   1.370   4.075   6.985
 4774SOL    HW215222   1.213   4.049   6.951
 4775SOL     OW15223   6.409   6.162   5.170
 4775SOL    HW115224   6.464   6.220   5.229
 4775SOL    HW215225   6.430   6.182   5.074
 4776SOL     OW15226   0.191   1.163   6.329
 4776SOL    HW115227   0.255   1.239   6.315
 4776SOL    HW215228   0.117   1.193   6.389
 4777SOL     OW15229   0.839   6.955   2.463
 4777SOL    HW115230   0.794   6.967   2.552
 4777SOL    HW215231   0.907   0.005   2.451
 4778SOL     OW15232   1.011   1.467   6.492
 4778SOL    HW115233   1.093   1.517   6.520
 4778SOL    HW215234   1.000   1.387   6.551
 4779SOL     OW15235   5.485   0.153   4.314
 4779SOL    HW115236   5.439   0.206   4.385
 4779SOL    HW215237   5.445   0.062   4.309
 4780SOL     OW15238   6.036   2.895   4.796
 4780SOL    HW115239   6.029   2.822   4.864
 4780SOL    HW215240   6.131   2.905   4.767
 4781SOL     OW15241   2.128   5.931   2.291
 4781SOL    HW115242   2.215   5.886   2.313
 4781SOL    HW215243   2.132   6.027   2.318
 4782SOL     OW15244   6.755   6.652   4.022
 4782SOL    HW115245   6.759   6.706   3.938
 4782SOL    HW215246   6.842   6.658   4.071
 4783SOL     OW15247   6.341   3.746   6.979
 4783SOL    HW115248   6.347   3.726   0.054
 4783SOL    HW215249   6.411   3.812   6.954
 4784SOL     OW15250   5.124   3.125   6.621
 4784SOL    HW115251   5.092   3.032   6.603
 4784SOL    HW215252   5.197   3.123   6.690
 4785SOL     OW15253   0.215   6.666   4.279
 4785SOL    HW115254   0.254   6.664   4.371
 4785SOL    HW215255   0.276   6.617   4.216
 4786SOL     OW15256   1.858   5.850   0.375
 4786SOL    HW115257   1.883   5.893   0.288
 4786SOL    HW215258   1.871   5.915   0.449
 4787SOL     OW15259   3.421   1.442   3.997
 4787SOL    HW115260   3.408   1.383   4.077
 4787SOL    HW215261   3.501   1.500   4.011
 4788SOL     OW15262   6.167   6.379   0.349
 4788SOL    HW115263   6.225   6.390   0.430
 4788SOL    HW215264   6.092   6.317   0.370
 4789SOL     OW15265   5.951   1.292   3.243
 4789SOL    HW115266   5.898   1.243   3.313
 4789SOL    HW215267   5.975   1.228   3.170
 4790SOL     OW15268   6.624   1.763   4.970
 4790SOL    HW115269   6.598   1.851   4.931
 4790SOL    HW215270   6.611   1.691   4.901
 4791SOL     OW15271   6.972   0.791   0.463
 4791SOL    HW115272   7.010   0.879   0.492
 4791SOL    HW215273   6.915   0.753   0.536
 4792SOL     OW15274   2.236   2.955   2.799
 4792SOL    HW115275   2.195   3.040   2.831
 4792SOL    HW215276   2.252   2.962   2.700
 4793SOL     OW15277   0.780   3.537   5.858
 4793SOL    HW115278   0.827   3.625   5.850
 4793SOL    HW215279   0.847   3.463   5.852
 4794SOL     OW15280   4.361   1.646   4.757
 4794SOL    HW115281   4.414   1.562   4.749
 4794SOL    HW215282   4.423   1.725   4.752
 4795SOL     OW15283   6.953   0.848   6.122
 4795SOL    HW115284   6.954   0.832   6.221
 4795SOL    HW215285   6.858   0.851   6.090
 4796SOL     OW15286   4.299   1.025   5.118
 4796SOL    HW115287   4.379   0.966   5.122
 4796SOL    HW215288   4.275   1.043   5.023
 4797SOL     OW15289   1.418   4.987   5.199
 4797SOL    HW115290   1.390   5.046   5.123
 4797SOL    HW215291   1.441   5.044   5.279
 4798SOL     OW15292   4.051   5.148   6.784
 4798SOL    HW115293   4.007   5.077   6.839
 4798SOL    HW215294   4.130   5.110   6.737
 4799SOL     OW15295   3.590   3.131   0.288
 4799SOL    HW115296   3.636   3.216   0.263
 4799SOL    HW215297   3.620   3.102   0.378
 4800SOL     OW15298   1.015   4.376   0.441
 4800SOL    HW115299   1.071   4.458   0.447
 4800SOL    HW215300   1.065   4.298   0.478
 4801SOL     OW15301   5.442   2.808   1.486
 4801SOL    HW115302   5.401   2.811   1.577
 4801SOL    HW215303   5.370   2.798   1.417
 4802SOL     OW15304   6.534   0.073   3.911
 4802SOL    HW115305   6.616   0.050   3.964
 4802SOL    HW215306   6.453   0.065   3.970
 4803SOL     OW15307   4.882   4.286   6.206
 4803SOL    HW115308   4.851   4.377   6.180
 4803SOL    HW215309   4.826   4.251   6.281
 4804SOL     OW15310   4.894   1.582   1.257
 4804SOL    HW115311   4.840   1.664   1.242
 4804SOL    HW215312   4.963   1.600   1.327
 4805SOL     OW15313   6.674   0.983   0.127
 4805SOL    HW115314   6.593   0.934   0.095
 4805SOL    HW215315   6.710   1.041   0.054
 4806SOL     OW15316   0.952   1.124   3.249
 4806SOL    HW115317   0.871   1.078   3.213
 4806SOL    HW215318   0.926   1.183   3.325
 4807SOL     OW15319   0.407   3.593   5.605
 4807SOL    HW115320   0.473   3.549   5.544
 4807SOL    HW215321   0.317   3.596   5.561
 4808SOL     OW15322   4.223   5.356   1.350
 4808SOL    HW115323   4.301   5.413   1.374
 4808SOL    HW215324   4.238   5.262   1.383
 4809SOL     OW15325   3.689   4.355   1.367
 4809SOL    HW115326   3.598   4.322   1.394
 4809SOL    HW215327   3.757   4.283   1.382
 4810SOL     OW15328   0.463   4.936   3.907
 4810SOL    HW115329   0.554   4.953   3.869
 4810SOL    HW215330   0.418   4.864   3.854
 4811SOL     OW15331   3.244   3.885   4.251
 4811SOL    HW115332   3.292   3.967   4.281
 4811SOL    HW215333   3.239   3.885   4.151
 4812SOL     OW15334   1.014   0.136   2.459
 4812SOL    HW115335   0.959   0.188   2.524
 4812SOL    HW215336   1.106   0.122   2.496
 4813SOL     OW15337   6.369   1.626   5.816
 4813SOL    HW115338   6.289   1.566   5.823
 4813SOL    HW215339   6.416   1.609   5.729
 4814SOL     OW15340   6.462   4.215   1.639
 4814SOL    HW115341   6.446   4.172   1.727
 4814SOL    HW215342   6.394   4.288   1.624
 4815SOL     OW15343   5.694   5.287   2.026
 4815SOL    HW115344   5.629   5.316   1.956
 4815SOL    HW215345   5.742   5.366   2.064
 4816SOL     OW15346   2.059   1.146   2.431
 4816SOL    HW115347   1.980   1.185   2.384
 4816SOL    HW215348   2.094   1.211   2.498
 4817SOL     OW15349   3.937   2.431   0.505
 4817SOL    HW115350   3.955   2.529   0.493
 4817SOL    HW215351   4.004   2.392   0.568
 4818SOL     OW15352   4.114   0.258   5.726
 4818SOL    HW115353   4.031   0.294   5.768
 4818SOL    HW215354   4.187   0.254   5.794
 4819SOL     OW15355   3.174   0.570   1.270
 4819SOL    HW115356   3.167   0.484   1.220
 4819SOL    HW215357   3.089   0.622   1.259
 4820SOL     OW15358   5.763   4.283   1.947
 4820SOL    HW115359   5.717   4.198   1.972
 4820SOL    HW215360   5.837   4.264   1.883
 4821SOL     OW15361   0.012   4.337   1.574
 4821SOL    HW115362   6.974   4.360   1.498
 4821SOL    HW215363   7.014   4.395   1.653
 4822SOL     OW15364   1.871   4.162   2.786
 4822SOL    HW115365   1.814   4.201   2.859
 4822SOL    HW215366   1.840   4.069   2.766
 4823SOL     OW15367   1.617   0.906   4.623
 4823SOL    HW115368   1.645   0.834   4.686
 4823SOL    HW215369   1.530   0.882   4.580
 4824SOL     OW15370   5.184   2.989   1.857
 4824SOL    HW115371   5.098   2.940   1.844
 4824SOL    HW215372   5.171   3.062   1.924
 4825SOL     OW15373   0.634   3.081   3.276
 4825SOL    HW115374   0.701   3.010   3.301
 4825SOL    HW215375   0.573   3.047   3.205
 4826SOL     OW15376   6.170   6.335   6.978
 4826SOL    HW115377   6.155   6.236   6.978
 4826SOL    HW215378   6.113   6.377   0.026
 4827SOL     OW15379   5.748   0.788   1.344
 4827SOL    HW115380   5.702   0.859   1.290
 4827SOL    HW215381   5.715   0.698   1.317
 4828SOL     OW15382   5.361   3.444   0.515
 4828SOL    HW115383   5.318   3.360   0.547
 4828SOL    HW215384   5.320   3.523   0.561
 4829SOL     OW15385   2.912   0.564   5.901
 4829SOL    HW115386   2.895   0.636   5.968
 4829SOL    HW215387   3.004   0.527   5.914
 4830SOL     OW15388   3.922   0.125   4.748
 4830SOL    HW115389   3.990   0.058   4.779
 4830SOL    HW215390   3.967   0.211   4.726
 4831SOL     OW15391   6.139   3.937   5.864
 4831SOL    HW115392   6.174   3.961   5.955
 4831SOL    HW215393   6.216   3.930   5.800
 4832SOL     OW15394   2.321   3.799   6.637
 4832SOL    HW115395   2.375   3.825   6.716
 4832SOL    HW215396   2.324   3.700   6.625
 4833SOL     OW15397   5.205   1.752   2.947
 4833SOL    HW115398   5.203   1.749   3.047
 4833SOL    HW215399   5.285   1.701   2.914
 4834SOL     OW15400   5.527   0.885   2.412
 4834SOL    HW115401   5.604   0.860   2.352
 4834SOL    HW215402   5.529   0.827   2.493
 4835SOL     OW15403   2.131   0.849   6.496
 4835SOL    HW115404   2.145   0.830   6.593
 4835SOL    HW215405   2.218   0.880   6.455
 4836SOL     OW15406   5.266   2.594   3.634
 4836SOL    HW115407   5.240   2.571   3.540
 4836SOL    HW215408   5.348   2.652   3.633
 4837SOL     OW15409   1.307   3.883   0.215
 4837SOL    HW115410   1.301   3.927   0.126
 4837SOL    HW215411   1.396   3.839   0.225
 4838SOL     OW15412   2.657   5.758   2.466
 4838SOL    HW115413   2.635   5.672   2.512
 4838SOL    HW215414   2.691   5.739   2.374
 4839SOL     OW15415   0.569   6.197   6.766
 4839SOL    HW115416   0.527   6.283   6.793
 4839SOL    HW215417   0.498   6.128   6.751
 4840SOL     OW15418   0.112   6.563   0.448
 4840SOL    HW115419   0.070   6.642   0.402
 4840SOL    HW215420   0.209   6.582   0.464
 4841SOL     OW15421   2.856   5.859   2.017
 4841SOL    HW115422   2.890   5.909   2.096
 4841SOL    HW215423   2.928   5.799   1.982
 4842SOL     OW15424   4.266   5.724   1.184
 4842SOL    HW115425   4.198   5.660   1.219
 4842SOL    HW215426   4.283   5.704   1.087
 4843SOL     OW15427   0.233   3.175   0.130
 4843SOL    HW115428   0.322   3.220   0.128
 4843SOL    HW215429   0.236   3.095   0.190
 4844SOL     OW15430   5.983   1.841   6.049
 4844SOL    HW115431   5.922   1.761   6.053
 4844SOL    HW215432   6.045   1.831   5.971
 4845SOL     OW15433   6.123   5.530   3.809
 4845SOL    HW115434   6.163   5.500   3.722
 4845SOL    HW215435   6.167   5.615   3.838
 4846SOL     OW15436   1.403   4.491   0.646
 4846SOL    HW115437   1.362   4.462   0.732
 4846SOL    HW215438   1.417   4.412   0.587
 4847SOL     OW15439   4.026   2.186   4.537
 4847SOL    HW115440   4.035   2.090   4.509
 4847SOL    HW215441   4.054   2.245   4.462
 4848SOL     OW15442   2.742   2.352   2.922
 4848SOL    HW115443   2.699   2.263   2.936
 4848SOL    HW215444   2.838   2.347   2.950
 4849SOL     OW15445   1.464   6.507   0.283
 4849SOL    HW115446   1.543   6.446   0.284
 4849SOL    HW215447   1.380   6.453   0.274
 4850SOL     OW15448   4.347   0.455   2.200
 4850SOL    HW115449   4.442   0.440   2.229
 4850SOL    HW215450   4.323   0.387   2.131
 4851SOL     OW15451   5.452   6.194   4.828
 4851SOL    HW115452   5.416   6.261   4.894
 4851SOL    HW215453   5.388   6.119   4.818
 4852SOL     OW15454   1.798   1.084   0.023
 4852SOL    HW115455   1.798   1.046   6.953
 4852SOL    HW215456   1.802   1.010   0.089
 4853SOL     OW15457   3.072   1.808   2.263
 4853SOL    HW115458   3.136   1.763   2.201
 4853SOL    HW215459   3.093   1.906   2.267
 4854SOL     OW15460   5.165   6.913   1.500
 4854SOL    HW115461   5.105   6.927   1.422
 4854SOL    HW215462   5.140   6.829   1.547
 4855SOL     OW15463   0.246   2.228   2.336
 4855SOL    HW115464   0.199   2.255   2.420
 4855SOL    HW215465   0.343   2.213   2.356
 4856SOL     OW15466   2.754   4.713   3.561
 4856SOL    HW115467   2.686   4.647   3.529
 4856SOL    HW215468   2.761   4.708   3.661
 4857SOL     OW15469   6.582   1.879   6.066
 4857SOL    HW115470   6.593   1.780   6.065
 4857SOL    HW215471   6.671   1.923   6.056
 4858SOL     OW15472   1.419   1.424   4.072
 4858SOL    HW115473   1.460   1.370   4.145
 4858SOL    HW215474   1.412   1.369   3.989
 4859SOL     OW15475   2.533   5.723   4.562
 4859SOL    HW115476   2.514   5.798   4.497
 4859SOL    HW215477   2.495   5.746   4.651
 4860SOL     OW15478   4.280   5.123   0.812
 4860SOL    HW115479   4.228   5.075   0.741
 4860SOL    HW215480   4.262   5.080   0.901
 4861SOL     OW15481   5.251   3.992   4.998
 4861SOL    HW115482   5.282   3.955   4.910
 4861SOL    HW215483   5.328   3.998   5.061
 4862SOL     OW15484   1.167   6.488   2.224
 4862SOL    HW115485   1.149   6.527   2.314
 4862SOL    HW215486   1.188   6.391   2.233
 4863SOL     OW15487   6.197   4.066   6.710
 4863SOL    HW115488   6.177   4.049   6.807
 4863SOL    HW215489   6.252   4.149   6.702
 4864SOL     OW15490   2.736   1.343   3.128
 4864SOL    HW115491   2.780   1.255   3.108
 4864SOL    HW215492   2.687   1.375   3.046
 4865SOL     OW15493   2.161   6.342   4.726
 4865SOL    HW115494   2.165   6.310   4.631
 4865SOL    HW215495   2.191   6.438   4.729
 4866SOL     OW15496   6.722   3.837   0.329
 4866SOL    HW115497   6.718   3.867   0.234
 4866SOL    HW215498   6.661   3.759   0.342
 4867SOL     OW15499   5.273   0.255   2.691
 4867SOL    HW115500   5.191   0.281   2.742
 4867SOL    HW215501   5.281   0.313   2.609
 4868SOL     OW15502   6.743   4.600   0.890
 4868SOL    HW115503   6.754   4.546   0.806
 4868SOL    HW215504   6.710   4.540   0.963
 4869SOL     OW15505   0.329   1.119   0.101
 4869SOL    HW115506   0.343   1.172   0.184
 4869SOL    HW215507   0.385   1.157   0.027
 4870SOL     OW15508   0.752   5.831   2.084
 4870SOL    HW115509   0.689   5.831   2.007
 4870SOL    HW215510   0.807   5.914   2.082
 4871SOL     OW15511   1.321   1.619   4.589
 4871SOL    HW115512   1.257   1.694   4.607
 4871SOL    HW215513   1.394   1.652   4.530
 4872SOL     OW15514   5.724   0.069   3.748
 4872SOL    HW115515   5.694   7.001   3.721
 4872SOL    HW215516   5.768   0.115   3.671
 4873SOL     OW15517   6.677   5.804   5.612
 4873SOL    HW115518   6.755   5.866   5.606
 4873SOL    HW215519   6.593   5.855   5.594
 4874SOL     OW15520   4.877   2.915   2.898
 4874SOL    HW115521   4.920   2.975   2.965
 4874SOL    HW215522   4.881   2.821   2.930
 4875SOL     OW15523   5.705   6.399   5.445
 4875SOL    HW115524   5.656   6.340   5.381
 4875SOL    HW215525   5.711   6.491   5.407
 4876SOL     OW15526   2.031   0.956   2.683
 4876SOL    HW115527   1.993   1.024   2.746
 4876SOL    HW215528   2.083   1.003   2.612
 4877SOL     OW15529   0.017   2.258   4.851
 4877SOL    HW115530   0.046   2.228   4.941
 4877SOL    HW215531   0.097   2.268   4.792
 4878SOL     OW15532   1.192   2.701   2.748
 4878SOL    HW115533   1.128   2.633   2.714
 4878SOL    HW215534   1.224   2.758   2.673
 4879SOL     OW15535   5.255   1.867   3.235
 4879SOL    HW115536   5.347   1.834   3.257
 4879SOL    HW215537   5.236   1.949   3.290
 4880SOL     OW15538   6.081   2.435   6.302
 4880SOL    HW115539   6.005   2.390   6.349
 4880SOL    HW215540   6.155   2.370   6.288
 4881SOL     OW15541   1.404   3.364   1.848
 4881SOL    HW115542   1.460   3.287   1.819
 4881SOL    HW215543   1.310   3.333   1.864
 4882SOL     OW15544   4.562   2.590   4.672
 4882SOL    HW115545   4.502   2.545   4.737
 4882SOL    HW215546   4.598   2.522   4.608
 4883SOL     OW15547   6.425   4.058   1.935
 4883SOL    HW115548   6.348   4.052   1.997
 4883SOL    HW215549   6.438   3.970   1.889
 4884SOL     OW15550   2.221   6.604   1.734
 4884SOL    HW115551   2.239   6.515   1.693
 4884SOL    HW215552   2.239   6.676   1.666
 4885SOL     OW15553   0.929   4.686   0.587
 4885SOL    HW115554   0.890   4.614   0.644
 4885SOL    HW215555   1.015   4.655   0.546
 4886SOL     OW15556   2.965   1.552   2.233
 4886SOL    HW115557   2.898   1.612   2.190
 4886SOL    HW215558   3.032   1.608   2.283
 4887SOL     OW15559   0.389   6.864   1.406
 4887SOL    HW115560   0.389   6.764   1.411
 4887SOL    HW215561   0.406   6.902   1.497
 4888SOL     OW15562   3.573   6.304   3.004
 4888SOL    HW115563   3.507   6.287   2.930
 4888SOL    HW215564   3.658   6.340   2.966
 4889SOL     OW15565   6.960   2.735   3.644
 4889SOL    HW115566   0.001   2.809   3.667
 4889SOL    HW215567   7.012   2.653   3.620
 4890SOL     OW15568   0.493   1.571   4.755
 4890SOL    HW115569   0.583   1.551   4.793
 4890SOL    HW215570   0.469   1.666   4.773
 4891SOL     OW15571   2.697   5.708   6.047
 4891SOL    HW115572   2.631   5.782   6.046
 4891SOL    HW215573   2.696   5.660   5.959
 4892SOL     OW15574   5.310   6.165   2.874
 4892SOL    HW115575   5.305   6.195   2.969
 4892SOL    HW215576   5.361   6.233   2.821
 4893SOL     OW15577   0.438   3.454   2.022
 4893SOL    HW115578   0.358   3.493   2.068
 4893SOL    HW215579   0.436   3.354   2.028
 4894SOL     OW15580   4.725   6.540   2.072
 4894SOL    HW115581   4.811   6.534   2.021
 4894SOL    HW215582   4.666   6.609   2.031
 4895SOL     OW15583   6.773   4.711   4.229
 4895SOL    HW115584   6.777   4.717   4.329
 4895SOL    HW215585   6.677   4.716   4.199
 4896SOL     OW15586   1.986   4.908   3.894
 4896SOL    HW115587   2.061   4.884   3.956
 4896SOL    HW215588   1.899   4.904   3.943
 4897SOL     OW15589   2.026   6.434   5.372
 4897SOL    HW115590   2.098   6.487   5.327
 4897SOL    HW215591   1.997   6.359   5.311
 4898SOL     OW15592   4.252   1.842   3.958
 4898SOL    HW115593   4.307   1.787   3.895
 4898SOL    HW215594   4.312   1.902   4.011
 4899SOL     OW15595   6.856   4.764   1.744
 4899SOL    HW115596   6.855   4.844   1.805
 4899SOL    HW215597   6.946   4.719   1.750
 4900SOL     OW15598   3.798   6.105   5.592
 4900SOL    HW115599   3.793   6.015   5.634
 4900SOL    HW215600   3.891   6.141   5.600
 4901SOL     OW15601   0.034   1.143   6.076
 4901SOL    HW115602   0.078   1.090   6.148
 4901SOL    HW215603   0.037   1.091   5.990
 4902SOL     OW15604   1.875   0.378   5.851
 4902SOL    HW115605   1.794   0.418   5.895
 4902SOL    HW215606   1.876   0.280   5.867
 4903SOL     OW15607   5.342   5.185   1.686
 4903SOL    HW115608   5.277   5.232   1.627
 4903SOL    HW215609   5.398   5.123   1.631
 4904SOL     OW15610   1.772   0.417   0.614
 4904SOL    HW115611   1.705   0.447   0.682
 4904SOL    HW215612   1.789   0.490   0.549
 4905SOL     OW15613   3.167   6.632   2.297
 4905SOL    HW115614   3.255   6.677   2.282
 4905SOL    HW215615   3.110   6.642   2.215
 4906SOL     OW15616   5.202   3.394   4.847
 4906SOL    HW115617   5.118   3.445   4.868
 4906SOL    HW215618   5.179   3.313   4.793
 4907SOL     OW15619   4.640   1.399   6.371
 4907SOL    HW115620   4.562   1.448   6.410
 4907SOL    HW215621   4.721   1.457   6.377
 4908SOL     OW15622   4.235   6.771   0.079
 4908SOL    HW115623   4.226   6.870   0.064
 4908SOL    HW215624   4.243   6.753   0.177
 4909SOL     OW15625   5.580   4.652   4.243
 4909SOL    HW115626   5.575   4.719   4.168
 4909SOL    HW215627   5.674   4.617   4.249
 4910SOL     OW15628   4.785   1.534   5.564
 4910SOL    HW115629   4.715   1.605   5.565
 4910SOL    HW215630   4.816   1.516   5.657
 4911SOL     OW15631   0.294   2.267   1.902
 4911SOL    HW115632   0.390   2.258   1.928
 4911SOL    HW215633   0.257   2.352   1.937
 4912SOL     OW15634   6.034   2.126   4.173
 4912SOL    HW115635   5.994   2.189   4.106
 4912SOL    HW215636   6.076   2.178   4.247
 4913SOL     OW15637   6.462   2.741   5.619
 4913SOL    HW115638   6.482   2.682   5.697
 4913SOL    HW215639   6.535   2.733   5.551
 4914SOL     OW15640   4.637   0.271   3.629
 4914SOL    HW115641   4.681   0.332   3.564
 4914SOL    HW215642   4.628   0.180   3.588
 4915SOL     OW15643   3.980   5.448   5.698
 4915SOL    HW115644   3.981   5.546   5.679
 4915SOL    HW215645   4.073   5.412   5.691
 4916SOL     OW15646   6.322   2.172   3.841
 4916SOL    HW115647   6.284   2.231   3.912
 4916SOL    HW215648   6.410   2.136   3.871
 4917SOL     OW15649   4.939   6.985   0.770
 4917SOL    HW115650   4.970   6.996   0.676
 4917SOL    HW215651   4.906   0.050   0.805
 4918SOL     OW15652   6.412   5.457   2.193
 4918SOL    HW115653   6.470   5.527   2.150
 4918SOL    HW215654   6.470   5.395   2.246
 4919SOL     OW15655   3.439   4.114   2.432
 4919SOL    HW115656   3.342   4.110   2.458
 4919SOL    HW215657   3.496   4.112   2.514
 4920SOL     OW15658   5.932   0.727   5.219
 4920SOL    HW115659   6.009   0.727   5.283
 4920SOL    HW215660   5.955   0.670   5.140
 4921SOL     OW15661   0.192   0.056   2.287
 4921SOL    HW115662   0.147   0.072   2.375
 4921SOL    HW215663   0.247   6.995   2.293
 4922SOL     OW15664   3.699   2.228   6.430
 4922SOL    HW115665   3.725   2.254   6.337
 4922SOL    HW215666   3.616   2.173   6.427
 4923SOL     OW15667   3.765   1.723   2.568
 4923SOL    HW115668   3.722   1.726   2.658
 4923SOL    HW215669   3.701   1.760   2.500
 4924SOL     OW15670   2.477   0.710   5.610
 4924SOL    HW115671   2.555   0.693   5.670
 4924SOL    HW215672   2.465   0.633   5.548
 4925SOL     OW15673   5.424   6.064   3.606
 4925SOL    HW115674   5.406   5.996   3.534
 4925SOL    HW215675   5.395   6.027   3.694
 4926SOL     OW15676   5.412   2.368   0.741
 4926SOL    HW115677   5.475   2.298   0.774
 4926SOL    HW215678   5.412   2.368   0.641
 4927SOL     OW15679   3.608   1.507   6.594
 4927SOL    HW115680   3.553   1.591   6.584
 4927SOL    HW215681   3.584   1.462   6.680
 4928SOL     OW15682   0.300   2.045   0.266
 4928SOL    HW115683   0.256   1.976   0.323
 4928SOL    HW215684   0.305   2.131   0.317
 4929SOL     OW15685   0.429   6.742   4.772
 4929SOL    HW115686   0.400   6.690   4.853
 4929SOL    HW215687   0.485   6.820   4.800
 4930SOL     OW15688   5.452   6.537   2.475
 4930SOL    HW115689   5.501   6.564   2.558
 4930SOL    HW215690   5.353   6.543   2.492
 4931SOL     OW15691   6.334   5.771   0.671
 4931SOL    HW115692   6.253   5.825   0.650
 4931SOL    HW215693   6.311   5.674   0.670
 4932SOL     OW15694   2.859   3.294   1.916
 4932SOL    HW115695   2.903   3.254   1.996
 4932SOL    HW215696   2.784   3.235   1.886
 4933SOL     OW15697   3.020   6.149   5.386
 4933SOL    HW115698   3.061   6.093   5.315
 4933SOL    HW215699   2.926   6.173   5.360
 4934SOL     OW15700   3.696   4.910   3.080
 4934SOL    HW115701   3.705   4.881   2.985
 4934SOL    HW215702   3.787   4.929   3.118
 4935SOL     OW15703   0.457   1.016   6.236
 4935SOL    HW115704   0.475   0.969   6.323
 4935SOL    HW215705   0.365   0.994   6.205
 4936SOL     OW15706   2.949   3.608   0.651
 4936SOL    HW115707   2.910   3.637   0.738
 4936SOL    HW215708   3.047   3.592   0.662
 4937SOL     OW15709   4.477   2.570   5.118
 4937SOL    HW115710   4.426   2.604   5.039
 4937SOL    HW215711   4.571   2.550   5.091
 4938SOL     OW15712   4.251   5.846   6.024
 4938SOL    HW115713   4.287   5.934   6.053
 4938SOL    HW215714   4.303   5.811   5.947
 4939SOL     OW15715   4.630   3.040   5.762
 4939SOL    HW115716   4.623   2.957   5.706
 4939SOL    HW215717   4.552   3.044   5.824
 4940SOL     OW15718   2.452   6.345   4.161
 4940SOL    HW115719   2.459   6.320   4.258
 4940SOL    HW215720   2.410   6.435   4.153
 4941SOL     OW15721   5.613   0.433   0.697
 4941SOL    HW115722   5.697   0.472   0.733
 4941SOL    HW215723   5.553   0.408   0.774
 4942SOL     OW15724   4.783   3.663   5.359
 4942SOL    HW115725   4.880   3.649   5.338
 4942SOL    HW215726   4.727   3.627   5.284
 4943SOL     OW15727   4.255   2.386   1.151
 4943SOL    HW115728   4.333   2.423   1.102
 4943SOL    HW215729   4.283   2.356   1.242
 4944SOL     OW15730   2.287   4.875   2.339
 4944SOL    HW115731   2.207   4.926   2.368
 4944SOL    HW215732   2.259   4.792   2.290
 4945SOL     OW15733   0.897   6.813   4.408
 4945SOL    HW115734   0.908   6.911   4.426
 4945SOL    HW215735   0.809   6.782   4.443
 4946SOL     OW15736   1.142   3.809   2.658
 4946SOL    HW115737   1.165   3.901   2.625
 4946SOL    HW215738   1.153   3.743   2.583
 4947SOL     OW15739   0.663   6.673   0.765
 4947SOL    HW115740   0.671   6.576   0.789
 4947SOL    HW215741   0.666   6.683   0.665
 4948SOL     OW15742   2.197   1.396   1.952
 4948SOL    HW115743   2.204   1.353   2.042
 4948SOL    HW215744   2.107   1.378   1.913
 4949SOL     OW15745   5.656   1.615   3.799
 4949SOL    HW115746   5.702   1.702   3.780
 4949SOL    HW215747   5.601   1.625   3.883
 4950SOL     OW15748   3.079   5.679   5.058
 4950SOL    HW115749   3.159   5.631   5.094
 4950SOL    HW215750   2.996   5.634   5.090
 4951SOL     OW15751   4.430   2.453   3.611
 4951SOL    HW115752   4.424   2.418   3.518
 4951SOL    HW215753   4.497   2.400   3.663
 4952SOL     OW15754   0.770   5.956   5.088
 4952SOL    HW115755   0.778   6.042   5.138
 4952SOL    HW215756   0.675   5.942   5.060
 4953SOL     OW15757   1.610   4.879   1.874
 4953SOL    HW115758   1.584   4.783   1.884
 4953SOL    HW215759   1.570   4.933   1.948
 4954SOL     OW15760   5.329   6.027   6.801
 4954SOL    HW115761   5.381   6.028   6.886
 4954SOL    HW215762   5.317   5.932   6.771
 4955SOL     OW15763   1.323   6.645   1.255
 4955SOL    HW115764   1.224   6.643   1.256
 4955SOL    HW215765   1.359   6.571   1.311
 4956SOL     OW15766   4.808   6.329   4.111
 4956SOL    HW115767   4.726   6.274   4.098
 4956SOL    HW215768   4.795   6.419   4.068
 4957SOL     OW15769   1.110   0.094   4.285
 4957SOL    HW115770   1.022   0.133   4.313
 4957SOL    HW215771   1.154   0.051   4.364
 4958SOL     OW15772   0.062   5.983   0.236
 4958SOL    HW115773   0.058   6.044   0.157
 4958SOL    HW215774   0.004   6.020   0.309
 4959SOL     OW15775   0.727   0.593   1.158
 4959SOL    HW115776   0.721   0.602   1.257
 4959SOL    HW215777   0.668   0.519   1.127
 4960SOL     OW15778   4.315   6.800   4.943
 4960SOL    HW115779   4.364   6.713   4.949
 4960SOL    HW215780   4.218   6.782   4.923
 4961SOL     OW15781   4.817   0.535   5.158
 4961SOL    HW115782   4.859   0.449   5.128
 4961SOL    HW215783   4.726   0.517   5.195
 4962SOL     OW15784   6.893   0.953   0.833
 4962SOL    HW115785   6.915   0.855   0.827
 4962SOL    HW215786   6.969   1.001   0.876
 4963SOL     OW15787   0.259   4.897   1.737
 4963SOL    HW115788   0.354   4.888   1.769
 4963SOL    HW215789   0.197   4.886   1.814
 4964SOL     OW15790   3.750   6.670   3.031
 4964SOL    HW115791   3.754   6.586   2.978
 4964SOL    HW215792   3.825   6.671   3.097
 4965SOL     OW15793   7.005   6.677   4.164
 4965SOL    HW115794   0.068   6.673   4.216
 4965SOL    HW215795   6.999   6.765   4.117
 4966SOL     OW15796   3.734   4.933   3.958
 4966SOL    HW115797   3.755   5.024   3.993
 4966SOL    HW215798   3.764   4.864   4.024
 4967SOL     OW15799   4.067   2.586   5.720
 4967SOL    HW115800   4.015   2.523   5.778
 4967SOL    HW215801   4.055   2.679   5.755
 4968SOL     OW15802   5.764   3.071   5.760
 4968SOL    HW115803   5.820   2.998   5.719
 4968SOL    HW215804   5.808   3.103   5.843
 4969SOL     OW15805   1.124   1.730   1.638
 4969SOL    HW115806   1.072   1.670   1.577
 4969SOL    HW215807   1.189   1.676   1.692
 4970SOL     OW15808   0.682   2.671   5.879
 4970SOL    HW115809   0.776   2.678   5.845
 4970SOL    HW215810   0.620   2.713   5.813
 4971SOL     OW15811   5.733   5.757   3.785
 4971SOL    HW115812   5.808   5.748   3.720
 4971SOL    HW215813   5.769   5.752   3.878
 4972SOL     OW15814   1.417   2.562   6.138
 4972SOL    HW115815   1.342   2.616   6.176
 4972SOL    HW215816   1.380   2.481   6.092
 4973SOL     OW15817   5.479   6.153   2.562
 4973SOL    HW115818   5.524   6.082   2.616
 4973SOL    HW215819   5.471   6.236   2.617
 4974SOL     OW15820   5.712   6.821   1.922
 4974SOL    HW115821   5.748   6.911   1.947
 4974SOL    HW215822   5.705   6.764   2.004
 4975SOL     OW15823   5.872   6.007   0.717
 4975SOL    HW115824   5.925   5.923   0.713
 4975SOL    HW215825   5.889   6.054   0.804
 4976SOL     OW15826   4.043   0.360   4.662
 4976SOL    HW115827   4.121   0.369   4.600
 4976SOL    HW215828   3.986   0.442   4.656
 4977SOL     OW15829   3.581   3.979   0.439
 4977SOL    HW115830   3.597   4.027   0.525
 4977SOL    HW215831   3.552   3.885   0.457
 4978SOL     OW15832   5.566   3.266   6.262
 4978SOL    HW115833   5.584   3.171   6.287
 4978SOL    HW215834   5.551   3.273   6.164
 4979SOL     OW15835   1.237   1.358   5.412
 4979SOL    HW115836   1.290   1.331   5.492
 4979SOL    HW215837   1.141   1.372   5.439
 4980SOL     OW15838   2.389   5.292   2.072
 4980SOL    HW115839   2.440   5.206   2.063
 4980SOL    HW215840   2.340   5.311   1.988
 4981SOL     OW15841   4.511   6.422   5.636
 4981SOL    HW115842   4.536   6.406   5.540
 4981SOL    HW215843   4.476   6.337   5.675
 4982SOL     OW15844   2.611   2.804   0.391
 4982SOL    HW115845   2.523   2.849   0.373
 4982SOL    HW215846   2.598   2.705   0.392
 4983SOL     OW15847   5.408   3.040   4.112
 4983SOL    HW115848   5.375   2.974   4.180
 4983SOL    HW215849   5.385   3.008   4.020
 4984SOL     OW15850   4.793   4.152   2.521
 4984SOL    HW115851   4.806   4.082   2.591
 4984SOL    HW215852   4.769   4.108   2.434
 4985SOL     OW15853   5.594   4.563   2.269
 4985SOL    HW115854   5.692   4.579   2.286
 4985SOL    HW215855   5.555   4.512   2.345
 4986SOL     OW15856   4.720   4.998   1.626
 4986SOL    HW115857   4.702   4.983   1.529
 4986SOL    HW215858   4.709   4.912   1.676
 4987SOL     OW15859   0.355   3.332   1.381
 4987SOL    HW115860   0.423   3.328   1.308
 4987SOL    HW215861   0.380   3.405   1.444
 4988SOL     OW15862   0.403   2.084   4.912
 4988SOL    HW115863   0.442   2.021   4.980
 4988SOL    HW215864   0.386   2.034   4.827
 4989SOL     OW15865   0.610   0.898   0.610
 4989SOL    HW115866   0.658   0.931   0.528
 4989SOL    HW215867   0.560   0.814   0.588
 4990SOL     OW15868   0.509   2.798   5.686
 4990SOL    HW115869   0.413   2.781   5.710
 4990SOL    HW215870   0.521   2.785   5.588
 4991SOL     OW15871   1.516   2.685   4.734
 4991SOL    HW115872   1.483   2.661   4.826
 4991SOL    HW215873   1.464   2.764   4.700
 4992SOL     OW15874   3.238   0.607   6.119
 4992SOL    HW115875   3.184   0.560   6.189
 4992SOL    HW215876   3.295   0.677   6.163
 4993SOL     OW15877   2.855   5.940   4.009
 4993SOL    HW115878   2.805   5.862   4.047
 4993SOL    HW215879   2.928   5.967   4.072
 4994SOL     OW15880   0.012   6.782   2.420
 4994SOL    HW115881   0.111   6.796   2.419
 4994SOL    HW215882   7.013   6.698   2.469
 4995SOL     OW15883   5.544   3.001   5.991
 4995SOL    HW115884   5.619   2.955   6.038
 4995SOL    HW215885   5.580   3.077   5.937
 4996SOL     OW15886   1.037   1.106   4.060
 4996SOL    HW115887   1.100   1.074   4.130
 4996SOL    HW215888   1.053   1.204   4.043
 4997SOL     OW15889   0.445   2.270   3.707
 4997SOL    HW115890   0.395   2.188   3.736
 4997SOL    HW215891   0.492   2.252   3.621
 4998SOL     OW15892   1.790   5.464   4.771
 4998SOL    HW115893   1.836   5.412   4.843
 4998SOL    HW215894   1.804   5.562   4.787
 4999SOL     OW15895   6.256   4.370   1.573
 4999SOL    HW115896   6.217   4.433   1.640
 4999SOL    HW215897   6.267   4.417   1.486
 5000SOL     OW15898   7.021   6.374   4.564
 5000SOL    HW115899   6.976   6.303   4.510
 5000SOL    HW215900   6.955   6.411   4.631
 5001SOL     OW15901   4.470   4.086   5.817
 5001SOL    HW115902   4.504   3.992   5.807
 5001SOL    HW215903   4.407   4.107   5.741
 5002SOL     OW15904   2.171   1.520   1.260
 5002SOL    HW115905   2.155   1.609   1.218
 5002SOL    HW215906   2.091   1.494   1.314
 5003SOL     OW15907   6.587   5.827   2.912
 5003SOL    HW115908   6.624   5.787   2.828
 5003SOL    HW215909   6.633   5.788   2.991
 5004SOL     OW15910   3.388   5.817   6.978
 5004SOL    HW115911   3.298   5.804   7.019
 5004SOL    HW215912   3.457   5.822   0.028
 5005SOL     OW15913   4.489   2.152   6.656
 5005SOL    HW115914   4.443   2.240   6.665
 5005SOL    HW215915   4.586   2.163   6.678
 5006SOL     OW15916   5.433   5.547   4.057
 5006SOL    HW115917   5.433   5.640   4.021
 5006SOL    HW215918   5.446   5.550   4.157
 5007SOL     OW15919   3.933   1.708   5.437
 5007SOL    HW115920   3.944   1.615   5.401
 5007SOL    HW215921   3.959   1.774   5.367
 5008SOL     OW15922   6.248   1.903   3.807
 5008SOL    HW115923   6.302   1.871   3.884
 5008SOL    HW215924   6.239   2.003   3.812
 5009SOL     OW15925   1.728   6.102   3.332
 5009SOL    HW115926   1.669   6.155   3.393
 5009SOL    HW215927   1.819   6.143   3.330
 5010SOL     OW15928   3.975   3.181   4.859
 5010SOL    HW115929   4.042   3.210   4.928
 5010SOL    HW215930   3.985   3.239   4.778
 5011SOL     OW15931   1.759   2.735   2.299
 5011SOL    HW115932   1.790   2.830   2.287
 5011SOL    HW215933   1.838   2.674   2.299
 5012SOL     OW15934   6.250   3.043   6.695
 5012SOL    HW115935   6.206   3.105   6.760
 5012SOL    HW215936   6.236   2.949   6.724
 5013SOL     OW15937   4.248   0.922   6.819
 5013SOL    HW115938   4.281   1.016   6.810
 5013SOL    HW215939   4.213   0.908   6.911
 5014SOL     OW15940   6.116   6.715   0.081
 5014SOL    HW115941   6.054   6.665   0.142
 5014SOL    HW215942   6.208   6.715   0.120
 5015SOL     OW15943   4.737   2.437   3.416
 5015SOL    HW115944   4.685   2.521   3.435
 5015SOL    HW215945   4.751   2.429   3.317
 5016SOL     OW15946   1.871   7.001   2.755
 5016SOL    HW115947   1.875   6.942   2.674
 5016SOL    HW215948   1.963   7.010   2.794
 5017SOL     OW15949   2.521   2.930   1.423
 5017SOL    HW115950   2.523   2.832   1.442
 5017SOL    HW215951   2.489   2.946   1.330
 5018SOL     OW15952   6.496   5.266   4.166
 5018SOL    HW115953   6.399   5.266   4.140
 5018SOL    HW215954   6.518   5.180   4.213
 5019SOL     OW15955   2.599   5.174   6.140
 5019SOL    HW115956   2.689   5.142   6.168
 5019SOL    HW215957   2.595   5.177   6.040
 5020SOL     OW15958   4.907   6.023   6.677
 5020SOL    HW115959   4.825   6.028   6.733
 5020SOL    HW215960   4.889   6.061   6.587
 5021SOL     OW15961   1.727   5.089   5.778
 5021SOL    HW115962   1.766   5.171   5.821
 5021SOL    HW215963   1.642   5.114   5.731
 5022SOL     OW15964   1.404   5.328   0.590
 5022SOL    HW115965   1.358   5.312   0.678
 5022SOL    HW215966   1.455   5.246   0.564
 5023SOL     OW15967   6.392   2.872   2.267
 5023SOL    HW115968   6.466   2.819   2.308
 5023SOL    HW215969   6.379   2.957   2.319
 5024SOL     OW15970   5.791   3.399   4.791
 5024SOL    HW115971   5.879   3.427   4.827
 5024SOL    HW215972   5.718   3.453   4.834
 5025SOL     OW15973   6.203   1.635   3.085
 5025SOL    HW115974   6.240   1.544   3.067
 5025SOL    HW215975   6.276   1.703   3.078
 5026SOL     OW15976   0.534   6.363   3.440
 5026SOL    HW115977   0.600   6.343   3.512
 5026SOL    HW215978   0.441   6.344   3.473
 5027SOL     OW15979   1.227   6.663   3.462
 5027SOL    HW115980   1.201   6.753   3.427
 5027SOL    HW215981   1.265   6.607   3.388
 5028SOL     OW15982   0.944   0.528   2.506
 5028SOL    HW115983   1.044   0.527   2.507
 5028SOL    HW215984   0.911   0.560   2.595
 5029SOL     OW15985   0.144   0.786   1.990
 5029SOL    HW115986   0.171   0.876   2.024
 5029SOL    HW215987   0.223   0.724   1.995
 5030SOL     OW15988   1.522   6.059   6.909
 5030SOL    HW115989   1.455   6.133   6.907
 5030SOL    HW215990   1.594   6.077   6.842
 5031SOL     OW15991   5.531   0.412   4.536
 5031SOL    HW115992   5.477   0.363   4.604
 5031SOL    HW215993   5.470   0.465   4.477
 5032SOL     OW15994   1.391   6.045   0.958
 5032SOL    HW115995   1.400   5.974   1.028
 5032SOL    HW215996   1.469   6.042   0.896
 5033SOL     OW15997   1.826   4.573   5.888
 5033SOL    HW115998   1.767   4.549   5.965
 5033SOL    HW215999   1.805   4.666   5.858
 5034SOL     OW16000   6.850   3.752   0.771
 5034SOL    HW116001   6.945   3.784   0.767
 5034SOL    HW216002   6.848   3.652   0.769
 5035SOL     OW16003   5.983   4.044   0.965
 5035SOL    HW116004   5.972   3.950   0.998
 5035SOL    HW216005   6.012   4.042   0.869
 5036SOL     OW16006   1.994   0.665   2.198
 5036SOL    HW116007   1.914   0.650   2.140
 5036SOL    HW216008   1.967   0.715   2.280
 5037SOL     OW16009   4.632   2.403   3.776
 5037SOL    HW116010   4.653   2.320   3.827
 5037SOL    HW216011   4.717   2.450   3.752
 5038SOL     OW16012   2.897   6.507   5.652
 5038SOL    HW116013   2.930   6.415   5.632
 5038SOL    HW216014   2.904   6.564   5.570
 5039SOL     OW16015   1.947   1.402   4.323
 5039SOL    HW116016   1.931   1.336   4.397
 5039SOL    HW216017   1.976   1.489   4.362
 5040SOL     OW16018   2.518   3.569   6.332
 5040SOL    HW116019   2.591   3.601   6.393
 5040SOL    HW216020   2.449   3.520   6.385
 5041SOL     OW16021   1.285   5.315   0.866
 5041SOL    HW116022   1.205   5.270   0.905
 5041SOL    HW216023   1.260   5.408   0.837
 5042SOL     OW16024   5.498   2.393   6.557
 5042SOL    HW116025   5.457   2.362   6.471
 5042SOL    HW216026   5.547   2.479   6.542
 5043SOL     OW16027   4.166   0.293   3.226
 5043SOL    HW116028   4.098   0.358   3.260
 5043SOL    HW216029   4.249   0.300   3.281
 5044SOL     OW16030   6.301   4.222   3.141
 5044SOL    HW116031   6.249   4.305   3.123
 5044SOL    HW216032   6.257   4.144   3.095
 5045SOL     OW16033   6.443   3.014   6.418
 5045SOL    HW116034   6.356   3.055   6.392
 5045SOL    HW216035   6.433   2.962   6.503
 5046SOL     OW16036   3.218   2.943   5.104
 5046SOL    HW116037   3.179   2.958   5.013
 5046SOL    HW216038   3.231   3.030   5.150
 5047SOL     OW16039   1.047   1.031   2.404
 5047SOL    HW116040   1.136   1.023   2.359
 5047SOL    HW216041   0.992   1.100   2.357
 5048SOL     OW16042   5.635   3.092   1.264
 5048SOL    HW116043   5.638   3.152   1.344
 5048SOL    HW216044   5.676   3.138   1.186
 5049SOL     OW16045   1.241   2.272   2.521
 5049SOL    HW116046   1.270   2.194   2.466
 5049SOL    HW216047   1.242   2.355   2.464
 5050SOL     OW16048   0.781   3.326   1.104
 5050SOL    HW116049   0.750   3.396   1.168
 5050SOL    HW216050   0.719   3.322   1.026
 5051SOL     OW16051   2.998   5.177   0.248
 5051SOL    HW116052   3.013   5.271   0.280
 5051SOL    HW216053   3.005   5.174   0.149
 5052SOL     OW16054   5.402   4.157   0.994
 5052SOL    HW116055   5.400   4.062   1.026
 5052SOL    HW216056   5.445   4.161   0.904
 5053SOL     OW16057   2.174   4.598   0.153
 5053SOL    HW116058   2.261   4.563   0.188
 5053SOL    HW216059   2.158   4.563   0.060
 5054SOL     OW16060   4.051   5.537   4.745
 5054SOL    HW116061   3.972   5.477   4.759
 5054SOL    HW216062   4.020   5.623   4.706
 5055SOL     OW16063   1.580   1.978   4.316
 5055SOL    HW116064   1.601   1.946   4.409
 5055SOL    HW216065   1.484   1.961   4.296
 5056SOL     OW16066   1.975   2.548   5.515
 5056SOL    HW116067   1.928   2.463   5.493
 5056SOL    HW216068   2.030   2.577   5.436
 5057SOL     OW16069   0.725   4.620   2.803
 5057SOL    HW116070   0.806   4.589   2.852
 5057SOL    HW216071   0.672   4.681   2.861
 5058SOL     OW16072   3.167   3.883   6.648
 5058SOL    HW116073   3.257   3.882   6.691
 5058SOL    HW216074   3.103   3.935   6.705
 5059SOL     OW16075   3.305   1.420   3.488
 5059SOL    HW116076   3.341   1.344   3.433
 5059SOL    HW216077   3.270   1.385   3.575
 5060SOL     OW16078   0.055   3.577   5.836
 5060SOL    HW116079   0.021   3.611   5.748
 5060SOL    HW216080   0.017   3.486   5.853
 5061SOL     OW16081   3.831   2.584   5.551
 5061SOL    HW116082   3.905   2.590   5.618
 5061SOL    HW216083   3.865   2.539   5.468
 5062SOL     OW16084   5.704   1.175   3.399
 5062SOL    HW116085   5.619   1.202   3.354
 5062SOL    HW216086   5.702   1.077   3.417
 5063SOL     OW16087   1.235   0.810   2.247
 5063SOL    HW116088   1.324   0.850   2.226
 5063SOL    HW216089   1.177   0.812   2.165
 5064SOL     OW16090   5.298   5.784   1.078
 5064SOL    HW116091   5.252   5.700   1.051
 5064SOL    HW216092   5.334   5.774   1.170
 5065SOL     OW16093   2.215   0.573   2.402
 5065SOL    HW116094   2.170   0.638   2.342
 5065SOL    HW216095   2.310   0.562   2.373
 5066SOL     OW16096   2.537   4.830   2.196
 5066SOL    HW116097   2.514   4.765   2.124
 5066SOL    HW216098   2.468   4.825   2.269
 5067SOL     OW16099   4.862   3.073   0.382
 5067SOL    HW116100   4.908   2.984   0.376
 5067SOL    HW216101   4.901   3.135   0.314
 5068SOL     OW16102   3.006   6.146   0.637
 5068SOL    HW116103   3.033   6.146   0.733
 5068SOL    HW216104   2.990   6.240   0.607
 5069SOL     OW16105   3.480   4.877   5.367
 5069SOL    HW116106   3.574   4.860   5.338
 5069SOL    HW216107   3.474   4.969   5.406
 5070SOL     OW16108   5.720   3.706   4.120
 5070SOL    HW116109   5.702   3.799   4.087
 5070SOL    HW216110   5.737   3.646   4.042
 5071SOL     OW16111   2.734   0.428   3.958
 5071SOL    HW116112   2.815   0.416   4.015
 5071SOL    HW216113   2.664   0.479   4.009
 5072SOL     OW16114   0.410   1.580   0.256
 5072SOL    HW116115   0.496   1.529   0.266
 5072SOL    HW216116   0.360   1.544   0.177
 5073SOL     OW16117   2.468   1.134   2.537
 5073SOL    HW116118   2.441   1.162   2.629
 5073SOL    HW216119   2.445   1.206   2.472
 5074SOL     OW16120   3.406   2.225   1.760
 5074SOL    HW116121   3.377   2.143   1.810
 5074SOL    HW216122   3.499   2.250   1.788
 5075SOL     OW16123   0.866   3.654   0.372
 5075SOL    HW116124   0.934   3.670   0.301
 5075SOL    HW216125   0.898   3.689   0.459
 5076SOL     OW16126   5.924   0.019   6.233
 5076SOL    HW116127   5.924   0.094   6.299
 5076SOL    HW216128   5.840   0.023   6.179
 5077SOL     OW16129   0.650   4.473   3.930
 5077SOL    HW116130   0.740   4.430   3.935
 5077SOL    HW216131   0.607   4.471   4.021
 5078SOL     OW16132   0.398   1.801   4.355
 5078SOL    HW116133   0.336   1.726   4.380
 5078SOL    HW216134   0.487   1.763   4.329
 5079SOL     OW16135   1.294   3.026   5.488
 5079SOL    HW116136   1.280   3.083   5.407
 5079SOL    HW216137   1.384   3.046   5.527
 5080SOL     OW16138   5.792   5.804   6.854
 5080SOL    HW116139   5.741   5.736   6.800
 5080SOL    HW216140   5.890   5.788   6.843
 5081SOL     OW16141   3.043   5.482   5.575
 5081SOL    HW116142   2.995   5.460   5.659
 5081SOL    HW216143   3.137   5.508   5.596
 5082SOL     OW16144   5.347   5.896   2.428
 5082SOL    HW116145   5.346   5.822   2.362
 5082SOL    HW216146   5.363   5.983   2.381
 5083SOL     OW16147   1.515   0.288   2.989
 5083SOL    HW116148   1.554   0.304   3.080
 5083SOL    HW216149   1.546   0.360   2.927
 5084SOL     OW16150   1.966   5.036   5.419
 5084SOL    HW116151   2.062   5.039   5.448
 5084SOL    HW216152   1.919   4.965   5.471
 5085SOL     OW16153   0.425   4.514   5.743
 5085SOL    HW116154   0.508   4.522   5.798
 5085SOL    HW216155   0.411   4.418   5.717
 5086SOL     OW16156   1.835   5.269   2.076
 5086SOL    HW116157   1.871   5.187   2.121
 5086SOL    HW216158   1.787   5.325   2.143
 5087SOL     OW16159   6.162   4.707   2.026
 5087SOL    HW116160   6.114   4.621   2.041
 5087SOL    HW216161   6.141   4.742   1.935
 5088SOL     OW16162   5.386   6.354   2.015
 5088SOL    HW116163   5.452   6.357   1.939
 5088SOL    HW216164   5.336   6.268   2.011
 5089SOL     OW16165   5.869   5.194   5.622
 5089SOL    HW116166   5.849   5.275   5.676
 5089SOL    HW216167   5.793   5.129   5.630
 5090SOL     OW16168   3.286   6.758   4.952
 5090SOL    HW116169   3.191   6.761   4.982
 5090SOL    HW216170   3.301   6.829   4.883
 5091SOL     OW16171   6.145   6.944   6.520
 5091SOL    HW116172   6.050   6.942   6.551
 5091SOL    HW216173   6.153   7.006   6.442
 5092SOL     OW16174   2.950   3.445   4.221
 5092SOL    HW116175   2.989   3.353   4.228
 5092SOL    HW216176   2.942   3.485   4.312
 5093SOL     OW16177   2.525   2.206   3.090
 5093SOL    HW116178   2.599   2.164   3.142
 5093SOL    HW216179   2.536   2.306   3.090
 5094SOL     OW16180   2.414   5.727   5.492
 5094SOL    HW116181   2.468   5.784   5.553
 5094SOL    HW216182   2.394   5.778   5.408
 5095SOL     OW16183   6.879   1.752   3.291
 5095SOL    HW116184   6.932   1.793   3.365
 5095SOL    HW216185   6.820   1.680   3.329
 5096SOL     OW16186   5.523   3.079   5.165
 5096SOL    HW116187   5.451   3.144   5.145
 5096SOL    HW216188   5.499   3.027   5.247
 5097SOL     OW16189   1.000   0.213   6.010
 5097SOL    HW116190   0.970   0.139   6.070
 5097SOL    HW216191   1.076   0.262   6.053
 5098SOL     OW16192   3.230   2.827   1.392
 5098SOL    HW116193   3.277   2.739   1.393
 5098SOL    HW216194   3.135   2.815   1.420
 5099SOL     OW16195   1.648   0.237   1.780
 5099SOL    HW116196   1.675   0.285   1.697
 5099SOL    HW216197   1.594   0.157   1.757
 5100SOL     OW16198   5.334   4.711   2.422
 5100SOL    HW116199   5.258   4.737   2.481
 5100SOL    HW216200   5.385   4.636   2.465
 5101SOL     OW16201   3.962   0.499   6.360
 5101SOL    HW116202   3.882   0.537   6.314
 5101SOL    HW216203   4.038   0.495   6.295
 5102SOL     OW16204   5.029   4.113   4.770
 5102SOL    HW116205   4.966   4.154   4.705
 5102SOL    HW216206   4.977   4.064   4.840
 5103SOL     OW16207   0.793   0.895   6.475
 5103SOL    HW116208   0.889   0.868   6.470
 5103SOL    HW216209   0.736   0.814   6.488
 5104SOL     OW16210   3.674   3.493   1.226
 5104SOL    HW116211   3.717   3.503   1.316
 5104SOL    HW216212   3.608   3.419   1.229
 5105SOL     OW16213   4.234   3.615   6.260
 5105SOL    HW116214   4.149   3.667   6.261
 5105SOL    HW216215   4.218   3.523   6.225
 5106SOL     OW16216   4.605   2.538   0.666
 5106SOL    HW116217   4.546   2.571   0.740
 5106SOL    HW216218   4.653   2.456   0.696
 5107SOL     OW16219   4.498   3.209   0.181
 5107SOL    HW116220   4.532   3.301   0.157
 5107SOL    HW216221   4.566   3.141   0.153
 5108SOL     OW16222   4.221   4.867   6.915
 5108SOL    HW116223   4.262   4.862   7.006
 5108SOL    HW216224   4.122   4.852   6.922
 5109SOL     OW16225   1.298   2.762   1.318
 5109SOL    HW116226   1.369   2.714   1.267
 5109SOL    HW216227   1.230   2.799   1.255
 5110SOL     OW16228   4.890   0.658   5.772
 5110SOL    HW116229   4.790   0.662   5.781
 5110SOL    HW216230   4.914   0.615   5.686
 5111SOL     OW16231   0.642   6.697   4.537
 5111SOL    HW116232   0.572   6.647   4.588
 5111SOL    HW216233   0.623   6.795   4.541
 5112SOL     OW16234   0.178   0.167   3.230
 5112SOL    HW116235   0.273   0.169   3.197
 5112SOL    HW216236   0.163   0.244   3.292
 5113SOL     OW16237   1.863   3.912   6.955
 5113SOL    HW116238   1.775   3.869   6.973
 5113SOL    HW216239   1.925   3.892   0.008
 5114SOL     OW16240   4.631   5.491   1.198
 5114SOL    HW116241   4.682   5.431   1.260
 5114SOL    HW216242   4.579   5.557   1.252
 5115SOL     OW16243   2.008   3.587   1.131
 5115SOL    HW116244   2.058   3.672   1.117
 5115SOL    HW216245   1.987   3.546   1.042
 5116SOL     OW16246   2.139   0.459   6.642
 5116SOL    HW116247   2.159   0.515   6.562
 5116SOL    HW216248   2.042   0.435   6.644
 5117SOL     OW16249   1.501   2.280   3.935
 5117SOL    HW116250   1.455   2.266   3.847
 5117SOL    HW216251   1.567   2.206   3.949
 5118SOL     OW16252   5.014   6.022   6.220
 5118SOL    HW116253   5.110   6.012   6.197
 5118SOL    HW216254   5.003   6.097   6.286
 5119SOL     OW16255   5.316   1.278   0.345
 5119SOL    HW116256   5.360   1.289   0.256
 5119SOL    HW216257   5.217   1.273   0.333
 5120SOL     OW16258   5.407   6.583   5.881
 5120SOL    HW116259   5.419   6.680   5.860
 5120SOL    HW216260   5.448   6.527   5.810
 5121SOL     OW16261   1.493   3.869   6.335
 5121SOL    HW116262   1.531   3.822   6.256
 5121SOL    HW216263   1.565   3.920   6.382
 5122SOL     OW16264   5.507   5.530   4.319
 5122SOL    HW116265   5.599   5.515   4.284
 5122SOL    HW216266   5.503   5.501   4.414
 5123SOL     OW16267   4.967   3.322   1.499
 5123SOL    HW116268   4.899   3.366   1.439
 5123SOL    HW216269   4.941   3.227   1.514
 5124SOL     OW16270   2.229   5.901   4.579
 5124SOL    HW116271   2.190   5.814   4.610
 5124SOL    HW216272   2.297   5.933   4.645
 5125SOL     OW16273   0.124   1.633   3.846
 5125SOL    HW116274   0.040   1.592   3.880
 5125SOL    HW216275   0.117   1.732   3.848
 5126SOL     OW16276   2.170   0.219   0.324
 5126SOL    HW116277   2.104   0.145   0.338
 5126SOL    HW216278   2.223   0.201   0.241
 5127SOL     OW16279   1.899   5.364   6.940
 5127SOL    HW116280   1.877   5.299   7.013
 5127SOL    HW216281   1.922   5.315   6.856
 5128SOL     OW16282   6.071   6.896   2.130
 5128SOL    HW116283   5.975   6.879   2.106
 5128SOL    HW216284   6.094   6.991   2.108
 5129SOL     OW16285   5.666   6.782   1.088
 5129SOL    HW116286   5.577   6.816   1.117
 5129SOL    HW216287   5.737   6.847   1.114
 5130SOL     OW16288   6.930   4.844   3.498
 5130SOL    HW116289   6.999   4.909   3.529
 5130SOL    HW216290   6.860   4.833   3.568
 5131SOL     OW16291   2.562   2.481   3.096
 5131SOL    HW116292   2.488   2.544   3.076
 5131SOL    HW216293   2.625   2.476   3.019
 5132SOL     OW16294   2.876   5.877   5.372
 5132SOL    HW116295   2.865   5.973   5.347
 5132SOL    HW216296   2.851   5.819   5.294
 5133SOL     OW16297   3.654   6.771   6.035
 5133SOL    HW116298   3.707   6.854   6.017
 5133SOL    HW216299   3.666   6.743   6.130
 5134SOL     OW16300   6.977   3.485   0.371
 5134SOL    HW116301   6.880   3.488   0.394
 5134SOL    HW216302   0.005   3.549   0.430
 5135SOL     OW16303   6.617   1.810   4.598
 5135SOL    HW116304   6.692   1.794   4.533
 5135SOL    HW216305   6.610   1.732   4.660
 5136SOL     OW16306   4.112   1.234   4.203
 5136SOL    HW116307   4.157   1.223   4.114
 5136SOL    HW216308   4.065   1.149   4.227
 5137SOL     OW16309   3.260   4.522   6.396
 5137SOL    HW116310   3.212   4.566   6.472
 5137SOL    HW216311   3.194   4.497   6.325
 5138SOL     OW16312   2.565   3.711   6.084
 5138SOL    HW116313   2.525   3.796   6.121
 5138SOL    HW216314   2.551   3.637   6.149
 5139SOL     OW16315   0.800   0.202   3.366
 5139SOL    HW116316   0.822   0.142   3.443
 5139SOL    HW216317   0.858   0.180   3.288
 5140SOL     OW16318   3.526   2.948   1.300
 5140SOL    HW116319   3.496   2.953   1.204
 5140SOL    HW216320   3.447   2.959   1.360
 5141SOL     OW16321   6.624   3.165   0.034
 5141SOL    HW116322   6.624   3.265   0.042
 5141SOL    HW216323   6.618   3.125   0.126
 5142SOL     OW16324   5.360   3.231   3.922
 5142SOL    HW116325   5.383   3.202   4.015
 5142SOL    HW216326   5.303   3.161   3.879
 5143SOL     OW16327   6.515   5.296   4.571
 5143SOL    HW116328   6.482   5.203   4.586
 5143SOL    HW216329   6.581   5.296   4.496
 5144SOL     OW16330   1.606   1.330   5.300
 5144SOL    HW116331   1.638   1.317   5.394
 5144SOL    HW216332   1.590   1.428   5.285
 5145SOL     OW16333   3.297   5.579   5.625
 5145SOL    HW116334   3.369   5.526   5.669
 5145SOL    HW216335   3.337   5.660   5.582
 5146SOL     OW16336   3.135   4.863   6.961
 5146SOL    HW116337   3.226   4.840   6.928
 5146SOL    HW216338   3.110   4.800   0.012
 5147SOL     OW16339   5.949   4.852   6.755
 5147SOL    HW116340   6.011   4.864   6.677
 5147SOL    HW216341   5.856   4.878   6.728
 5148SOL     OW16342   0.499   5.977   1.482
 5148SOL    HW116343   0.476   5.888   1.443
 5148SOL    HW216344   0.507   5.969   1.582
 5149SOL     OW16345   6.551   1.344   4.996
 5149SOL    HW116346   6.535   1.370   5.091
 5149SOL    HW216347   6.604   1.260   4.993
 5150SOL     OW16348   1.637   5.047   4.521
 5150SOL    HW116349   1.599   5.138   4.504
 5150SOL    HW216350   1.567   4.978   4.505
 5151SOL     OW16351   4.399   0.710   6.717
 5151SOL    HW116352   4.357   0.793   6.752
 5151SOL    HW216353   4.498   0.713   6.730
 5152SOL     OW16354   0.519   4.720   0.214
 5152SOL    HW116355   0.468   4.728   0.299
 5152SOL    HW216356   0.460   4.745   0.137
 5153SOL     OW16357   1.769   1.881   0.636
 5153SOL    HW116358   1.810   1.905   0.548
 5153SOL    HW216359   1.763   1.781   0.643
 5154SOL     OW16360   2.163   3.194   4.478
 5154SOL    HW116361   2.164   3.289   4.449
 5154SOL    HW216362   2.183   3.189   4.576
 5155SOL     OW16363   3.352   0.863   2.357
 5155SOL    HW116364   3.354   0.952   2.404
 5155SOL    HW216365   3.391   0.873   2.266
 5156SOL     OW16366   5.921   2.875   5.339
 5156SOL    HW116367   5.948   2.966   5.308
 5156SOL    HW216368   5.832   2.881   5.385
 5157SOL     OW16369   5.618   3.286   3.407
 5157SOL    HW116370   5.717   3.292   3.411
 5157SOL    HW216371   5.587   3.300   3.313
 5158SOL     OW16372   4.474   1.665   1.687
 5158SOL    HW116373   4.484   1.634   1.782
 5158SOL    HW216374   4.563   1.699   1.654
 5159SOL     OW16375   1.224   2.963   4.226
 5159SOL    HW116376   1.283   2.973   4.306
 5159SOL    HW216377   1.185   3.052   4.202
 5160SOL     OW16378   1.825   2.883   4.298
 5160SOL    HW116379   1.874   2.939   4.364
 5160SOL    HW216380   1.804   2.794   4.339
 5161SOL     OW16381   1.638   2.679   6.288
 5161SOL    HW116382   1.645   2.616   6.365
 5161SOL    HW216383   1.572   2.643   6.222
 5162SOL     OW16384   6.578   6.331   4.464
 5162SOL    HW116385   6.675   6.351   4.451
 5162SOL    HW216386   6.523   6.406   4.427
 5163SOL     OW16387   5.417   3.874   0.933
 5163SOL    HW116388   5.514   3.854   0.937
 5163SOL    HW216389   5.366   3.790   0.917
 5164SOL     OW16390   5.907   4.464   6.424
 5164SOL    HW116391   5.997   4.499   6.398
 5164SOL    HW216392   5.875   4.512   6.505
 5165SOL     OW16393   6.704   4.338   4.349
 5165SOL    HW116394   6.615   4.305   4.381
 5165SOL    HW216395   6.698   4.360   4.252
 5166SOL     OW16396   1.496   6.584   1.741
 5166SOL    HW116397   1.432   6.510   1.723
 5166SOL    HW216398   1.514   6.634   1.657
 5167SOL     OW16399   0.594   6.512   5.804
 5167SOL    HW116400   0.552   6.423   5.822
 5167SOL    HW216401   0.689   6.511   5.835
 5168SOL     OW16402   4.146   2.282   2.772
 5168SOL    HW116403   4.106   2.249   2.858
 5168SOL    HW216404   4.168   2.203   2.714
 5169SOL     OW16405   3.696   4.303   6.026
 5169SOL    HW116406   3.618   4.364   6.038
 5169SOL    HW216407   3.701   4.238   6.102
 5170SOL     OW16408   5.410   4.015   4.548
 5170SOL    HW116409   5.478   3.968   4.491
 5170SOL    HW216410   5.456   4.066   4.620
 5171SOL     OW16411   2.457   4.552   4.725
 5171SOL    HW116412   2.407   4.470   4.697
 5171SOL    HW216413   2.555   4.538   4.711
 5172SOL     OW16414   1.548   5.236   1.739
 5172SOL    HW116415   1.569   5.313   1.679
 5172SOL    HW216416   1.627   5.215   1.797
 5173SOL     OW16417   5.629   3.766   5.976
 5173SOL    HW116418   5.637   3.738   6.072
 5173SOL    HW216419   5.542   3.733   5.939
 5174SOL     OW16420   1.189   4.652   6.008
 5174SOL    HW116421   1.179   4.673   6.105
 5174SOL    HW216422   1.255   4.578   5.997
 5175SOL     OW16423   0.448   4.896   6.588
 5175SOL    HW116424   0.449   4.982   6.536
 5175SOL    HW216425   0.417   4.822   6.529
 5176SOL     OW16426   5.366   3.365   0.841
 5176SOL    HW116427   5.312   3.307   0.903
 5176SOL    HW216428   5.352   3.461   0.865
 5177SOL     OW16429   5.534   6.962   6.485
 5177SOL    HW116430   5.434   6.958   6.486
 5177SOL    HW216431   5.571   6.870   6.476
 5178SOL     OW16432   2.473   2.329   2.064
 5178SOL    HW116433   2.394   2.278   2.031
 5178SOL    HW216434   2.444   2.420   2.095
 5179SOL     OW16435   3.032   6.123   5.883
 5179SOL    HW116436   2.990   6.181   5.952
 5179SOL    HW216437   2.979   6.039   5.872
 5180SOL     OW16438   2.989   2.221   1.282
 5180SOL    HW116439   2.966   2.210   1.185
 5180SOL    HW216440   3.028   2.312   1.297
 5181SOL     OW16441   3.553   6.080   2.060
 5181SOL    HW116442   3.620   6.151   2.081
 5181SOL    HW216443   3.523   6.036   2.145
 5182SOL     OW16444   4.921   4.528   2.038
 5182SOL    HW116445   4.940   4.550   2.133
 5182SOL    HW216446   4.996   4.561   1.980
 5183SOL     OW16447   4.581   0.363   2.300
 5183SOL    HW116448   4.638   0.288   2.267
 5183SOL    HW216449   4.547   0.341   2.392
 5184SOL     OW16450   0.821   1.407   2.945
 5184SOL    HW116451   0.836   1.311   2.922
 5184SOL    HW216452   0.855   1.464   2.870
 5185SOL     OW16453   3.888   0.442   2.394
 5185SOL    HW116454   3.831   0.411   2.470
 5185SOL    HW216455   3.953   0.511   2.427
 5186SOL     OW16456   6.008   4.646   0.592
 5186SOL    HW116457   6.097   4.692   0.591
 5186SOL    HW216458   5.987   4.614   0.500
 5187SOL     OW16459   4.907   1.704   3.707
 5187SOL    HW116460   5.002   1.675   3.711
 5187SOL    HW216461   4.876   1.702   3.611
 5188SOL     OW16462   1.093   3.778   5.508
 5188SOL    HW116463   1.095   3.690   5.459
 5188SOL    HW216464   1.181   3.824   5.496
 5189SOL     OW16465   4.885   5.560   6.315
 5189SOL    HW116466   4.844   5.646   6.284
 5189SOL    HW216467   4.828   5.520   6.386
 5190SOL     OW16468   1.461   2.155   3.686
 5190SOL    HW116469   1.550   2.188   3.656
 5190SOL    HW216470   1.435   2.075   3.631
 5191SOL     OW16471   3.699   0.375   1.713
 5191SOL    HW116472   3.798   0.357   1.716
 5191SOL    HW216473   3.670   0.416   1.799
 5192SOL     OW16474   6.407   4.795   2.821
 5192SOL    HW116475   6.317   4.753   2.806
 5192SOL    HW216476   6.398   4.874   2.882
 5193SOL     OW16477   4.847   3.964   2.717
 5193SOL    HW116478   4.853   3.865   2.703
 5193SOL    HW216479   4.939   4.002   2.724
 5194SOL     OW16480   6.095   0.627   5.416
 5194SOL    HW116481   6.182   0.631   5.463
 5194SOL    HW216482   6.044   0.546   5.446
 5195SOL     OW16483   5.874   5.900   5.910
 5195SOL    HW116484   5.778   5.930   5.915
 5195SOL    HW216485   5.934   5.975   5.939
 5196SOL     OW16486   0.557   3.401   1.769
 5196SOL    HW116487   0.525   3.306   1.770
 5196SOL    HW216488   0.545   3.441   1.860
 5197SOL     OW16489   3.314   6.286   4.766
 5197SOL    HW116490   3.339   6.292   4.862
 5197SOL    HW216491   3.307   6.379   4.728
 5198SOL     OW16492   4.159   6.652   5.153
 5198SOL    HW116493   4.226   6.713   5.110
 5198SOL    HW216494   4.081   6.706   5.185
 5199SOL     OW16495   0.841   4.861   1.744
 5199SOL    HW116496   0.807   4.807   1.822
 5199SOL    HW216497   0.904   4.931   1.778
 5200SOL     OW16498   6.705   0.718   4.910
 5200SOL    HW116499   6.662   0.777   4.841
 5200SOL    HW216500   6.680   0.623   4.892
 5201SOL     OW16501   6.382   5.038   4.623
 5201SOL    HW116502   6.365   4.987   4.539
 5201SOL    HW216503   6.295   5.073   4.659
 5202SOL     OW16504   3.768   3.091   6.285
 5202SOL    HW116505   3.852   3.103   6.233
 5202SOL    HW216506   3.752   3.172   6.342
 5203SOL     OW16507   1.984   0.250   7.009
 5203SOL    HW116508   1.912   0.289   0.044
 5203SOL    HW216509   1.990   0.152   0.003
 5204SOL     OW16510   2.569   0.443   0.386
 5204SOL    HW116511   2.623   0.368   0.425
 5204SOL    HW216512   2.521   0.410   0.304
 5205SOL     OW16513   0.449   5.803   0.979
 5205SOL    HW116514   0.548   5.796   0.991
 5205SOL    HW216515   0.426   5.897   0.953
 5206SOL     OW16516   0.799   4.702   3.977
 5206SOL    HW116517   0.743   4.622   3.956
 5206SOL    HW216518   0.869   4.677   4.045
 5207SOL     OW16519   6.821   0.289   3.973
 5207SOL    HW116520   6.917   0.284   3.943
 5207SOL    HW216521   6.801   0.209   4.030
 5208SOL     OW16522   4.922   1.765   0.506
 5208SOL    HW116523   4.828   1.797   0.519
 5208SOL    HW216524   4.964   1.813   0.430
 5209SOL     OW16525   5.897   5.868   2.768
 5209SOL    HW116526   5.902   5.906   2.860
 5209SOL    HW216527   5.983   5.885   2.720
 5210SOL     OW16528   5.405   4.313   0.050
 5210SOL    HW116529   5.309   4.337   0.060
 5210SOL    HW216530   5.432   4.322   6.977
 5211SOL     OW16531   4.909   2.721   4.905
 5211SOL    HW116532   4.957   2.706   4.819
 5211SOL    HW216533   4.946   2.802   4.951
 5212SOL     OW16534   0.956   3.760   0.627
 5212SOL    HW116535   1.055   3.763   0.633
 5212SOL    HW216536   0.919   3.698   0.696
 5213SOL     OW16537   4.069   3.768   3.065
 5213SOL    HW116538   4.086   3.698   2.995
 5213SOL    HW216539   4.127   3.749   3.144
 5214SOL     OW16540   5.504   3.570   5.432
 5214SOL    HW116541   5.469   3.611   5.516
 5214SOL    HW216542   5.604   3.578   5.430
 5215SOL     OW16543   0.242   3.725   4.899
 5215SOL    HW116544   0.167   3.698   4.960
 5215SOL    HW216545   0.249   3.660   4.824
 5216SOL     OW16546   5.187   5.316   1.313
 5216SOL    HW116547   5.270   5.324   1.256
 5216SOL    HW216548   5.178   5.221   1.343
 5217SOL     OW16549   4.532   6.115   3.239
 5217SOL    HW116550   4.437   6.091   3.218
 5217SOL    HW216551   4.593   6.052   3.191
 5218SOL     OW16552   0.837   0.068   0.926
 5218SOL    HW116553   0.802   6.998   0.922
 5218SOL    HW216554   0.936   0.067   0.919
 5219SOL     OW16555   3.390   1.375   4.789
 5219SOL    HW116556   3.473   1.394   4.843
 5219SOL    HW216557   3.310   1.379   4.849
 5220SOL     OW16558   2.183   4.901   4.090
 5220SOL    HW116559   2.209   4.996   4.103
 5220SOL    HW216560   2.261   4.842   4.114
 5221SOL     OW16561   6.389   5.821   1.078
 5221SOL    HW116562   6.408   5.772   1.163
 5221SOL    HW216563   6.466   5.812   1.015
 5222SOL     OW16564   5.979   3.769   1.024
 5222SOL    HW116565   6.077   3.764   1.004
 5222SOL    HW216566   5.959   3.717   1.108
 5223SOL     OW16567   6.919   3.000   0.695
 5223SOL    HW116568   6.870   2.991   0.608
 5223SOL    HW216569   6.860   3.043   0.763
 5224SOL     OW16570   0.230   2.196   5.224
 5224SOL    HW116571   0.257   2.292   5.226
 5224SOL    HW216572   0.262   2.150   5.307
 5225SOL     OW16573   0.070   1.807   4.794
 5225SOL    HW116574   0.059   1.711   4.767
 5225SOL    HW216575   0.050   1.817   4.891
 5226SOL     OW16576   0.635   6.620   3.574
 5226SOL    HW116577   0.661   6.630   3.478
 5226SOL    HW216578   0.616   6.524   3.593
 5227SOL     OW16579   6.864   2.955   5.405
 5227SOL    HW116580   6.948   2.972   5.457
 5227SOL    HW216581   6.844   2.857   5.405
 5228SOL     OW16582   1.166   1.196   5.724
 5228SOL    HW116583   1.216   1.267   5.773
 5228SOL    HW216584   1.227   1.152   5.657
 5229SOL     OW16585   3.376   2.029   5.901
 5229SOL    HW116586   3.371   2.014   5.802
 5229SOL    HW216587   3.469   2.010   5.932
 5230SOL     OW16588   6.964   6.943   2.195
 5230SOL    HW116589   6.919   6.898   2.273
 5230SOL    HW216590   0.025   6.987   2.227
 5231SOL     OW16591   6.938   2.225   1.345
 5231SOL    HW116592   6.944   2.147   1.407
 5231SOL    HW216593   0.004   2.244   1.304
 5232SOL     OW16594   1.786   2.910   6.023
 5232SOL    HW116595   1.843   2.828   6.029
 5232SOL    HW216596   1.755   2.936   6.115
 5233SOL     OW16597   2.940   0.177   2.888
 5233SOL    HW116598   2.879   0.220   2.821
 5233SOL    HW216599   2.909   0.083   2.905
 5234SOL     OW16600   2.240   2.095   6.811
 5234SOL    HW116601   2.293   2.071   6.892
 5234SOL    HW216602   2.242   2.194   6.798
 5235SOL     OW16603   2.128   2.569   1.482
 5235SOL    HW116604   2.117   2.470   1.495
 5235SOL    HW216605   2.124   2.591   1.385
 5236SOL     OW16606   3.222   5.279   1.821
 5236SOL    HW116607   3.280   5.252   1.744
 5236SOL    HW216608   3.147   5.214   1.831
 5237SOL     OW16609   1.790   1.836   2.560
 5237SOL    HW116610   1.827   1.849   2.652
 5237SOL    HW216611   1.821   1.747   2.524
 5238SOL     OW16612   0.665   6.441   2.800
 5238SOL    HW116613   0.616   6.474   2.720
 5238SOL    HW216614   0.709   6.518   2.846
 5239SOL     OW16615   2.090   3.919   0.852
 5239SOL    HW116616   2.172   3.933   0.797
 5239SOL    HW216617   2.012   3.900   0.792
 5240SOL     OW16618   2.041   3.554   6.014
 5240SOL    HW116619   2.104   3.579   6.087
 5240SOL    HW216620   2.085   3.489   5.952
 5241SOL     OW16621   0.253   5.718   2.114
 5241SOL    HW116622   0.317   5.793   2.136
 5241SOL    HW216623   0.305   5.639   2.083
 5242SOL     OW16624   4.616   0.653   0.024
 5242SOL    HW116625   4.596   0.563   7.008
 5242SOL    HW216626   4.582   0.657   0.118
 5243SOL     OW16627   2.324   6.486   2.031
 5243SOL    HW116628   2.245   6.547   2.028
 5243SOL    HW216629   2.382   6.502   1.951
 5244SOL     OW16630   4.631   2.017   0.236
 5244SOL    HW116631   4.601   2.100   0.189
 5244SOL    HW216632   4.552   1.972   0.278
 5245SOL     OW16633   3.391   3.672   1.508
 5245SOL    HW116634   3.304   3.629   1.482
 5245SOL    HW216635   3.466   3.610   1.487
 5246SOL     OW16636   6.463   3.974   6.868
 5246SOL    HW116637   6.483   3.974   6.770
 5246SOL    HW216638   6.454   4.068   6.901
 5247SOL     OW16639   4.397   2.009   6.398
 5247SOL    HW116640   4.448   2.085   6.358
 5247SOL    HW216641   4.455   1.959   6.462
 5248SOL     OW16642   6.172   1.209   3.516
 5248SOL    HW116643   6.121   1.288   3.551
 5248SOL    HW216644   6.109   1.131   3.505
 5249SOL     OW16645   0.233   4.787   0.073
 5249SOL    HW116646   0.194   4.765   7.007
 5249SOL    HW216647   0.257   4.884   0.077
 5250SOL     OW16648   1.792   5.872   1.035
 5250SOL    HW116649   1.702   5.905   1.064
 5250SOL    HW216650   1.817   5.791   1.088
 5251SOL     OW16651   0.785   4.821   0.160
 5251SOL    HW116652   0.837   4.744   0.199
 5251SOL    HW216653   0.690   4.793   0.146
 5252SOL     OW16654   3.671   6.673   2.440
 5252SOL    HW116655   3.629   6.670   2.531
 5252SOL    HW216656   3.715   6.586   2.420
 5253SOL     OW16657   0.114   5.664   4.779
 5253SOL    HW116658   0.157   5.586   4.824
 5253SOL    HW216659   0.081   5.636   4.688
 5254SOL     OW16660   5.398   6.676   3.949
 5254SOL    HW116661   5.448   6.603   3.902
 5254SOL    HW216662   5.454   6.759   3.951
 5255SOL     OW16663   6.218   1.791   5.466
 5255SOL    HW116664   6.140   1.758   5.519
 5255SOL    HW216665   6.283   1.717   5.452
 5256SOL     OW16666   0.363   1.596   2.388
 5256SOL    HW116667   0.394   1.679   2.434
 5256SOL    HW216668   0.412   1.585   2.301
 5257SOL     OW16669   3.976   1.183   6.262
 5257SOL    HW116670   4.020   1.096   6.241
 5257SOL    HW216671   3.896   1.167   6.320
 5258SOL     OW16672   4.070   1.284   3.166
 5258SOL    HW116673   4.014   1.351   3.117
 5258SOL    HW216674   4.161   1.321   3.180
 5259SOL     OW16675   6.170   4.953   3.648
 5259SOL    HW116676   6.190   5.023   3.716
 5259SOL    HW216677   6.155   4.997   3.559
 5260SOL     OW16678   2.455   0.666   0.731
 5260SOL    HW116679   2.471   0.655   0.633
 5260SOL    HW216680   2.406   0.586   0.766
 5261SOL     OW16681   5.542   4.081   0.121
 5261SOL    HW116682   5.479   4.156   0.104
 5261SOL    HW216683   5.527   4.009   0.054
 5262SOL     OW16684   2.218   0.930   2.423
 5262SOL    HW116685   2.312   0.943   2.392
 5262SOL    HW216686   2.170   1.017   2.422
 5263SOL     OW16687   0.988   6.197   2.250
 5263SOL    HW116688   0.951   6.240   2.332
 5263SOL    HW216689   1.082   6.227   2.235
 5264SOL     OW16690   6.280   1.377   1.702
 5264SOL    HW116691   6.242   1.295   1.745
 5264SOL    HW216692   6.211   1.450   1.702
 5265SOL     OW16693   6.574   4.835   4.671
 5265SOL    HW116694   6.537   4.746   4.645
 5265SOL    HW216695   6.510   4.907   4.644
 5266SOL     OW16696   1.928   0.618   6.829
 5266SOL    HW116697   1.931   0.580   6.737
 5266SOL    HW216698   1.863   0.566   6.884
 5267SOL     OW16699   5.297   2.622   4.625
 5267SOL    HW116700   5.209   2.621   4.673
 5267SOL    HW216701   5.302   2.704   4.568
 5268SOL     OW16702   5.556   0.133   6.288
 5268SOL    HW116703   5.545   0.054   6.347
 5268SOL    HW216704   5.492   0.205   6.316
 5269SOL     OW16705   0.519   7.005   4.057
 5269SOL    HW116706   0.566   6.916   4.051
 5269SOL    HW216707   0.579   0.048   4.103
 5270SOL     OW16708   0.246   1.828   6.150
 5270SOL    HW116709   0.179   1.753   6.148
 5270SOL    HW216710   0.221   1.893   6.221
 5271SOL     OW16711   0.317   4.779   3.258
 5271SOL    HW116712   0.352   4.687   3.241
 5271SOL    HW216713   0.391   4.846   3.250
 5272SOL     OW16714   4.643   0.335   0.257
 5272SOL    HW116715   4.736   0.367   0.277
 5272SOL    HW216716   4.585   0.350   0.337
 5273SOL     OW16717   1.599   1.937   2.859
 5273SOL    HW116718   1.554   1.951   2.771
 5273SOL    HW216719   1.687   1.891   2.845
 5274SOL     OW16720   4.774   5.378   1.439
 5274SOL    HW116721   4.700   5.315   1.465
 5274SOL    HW216722   4.806   5.426   1.520
 5275SOL     OW16723   4.789   2.158   6.682
 5275SOL    HW116724   4.835   2.235   6.638
 5275SOL    HW216725   4.827   2.073   6.648
 5276SOL     OW16726   4.480   6.315   2.049
 5276SOL    HW116727   4.421   6.344   1.974
 5276SOL    HW216728   4.574   6.346   2.033
 5277SOL     OW16729   2.312   2.886   1.799
 5277SOL    HW116730   2.366   2.951   1.745
 5277SOL    HW216731   2.364   2.803   1.813
 5278SOL     OW16732   4.479   3.752   1.595
 5278SOL    HW116733   4.571   3.786   1.576
 5278SOL    HW216734   4.479   3.704   1.682
 5279SOL     OW16735   2.247   5.472   2.992
 5279SOL    HW116736   2.318   5.537   3.015
 5279SOL    HW216737   2.284   5.379   2.995
 5280SOL     OW16738   4.938   6.560   4.704
 5280SOL    HW116739   4.912   6.472   4.664
 5280SOL    HW216740   4.987   6.545   4.789
 5281SOL     OW16741   0.204   2.513   1.982
 5281SOL    HW116742   0.264   2.554   1.913
 5281SOL    HW216743   0.199   2.572   2.062
 5282SOL     OW16744   4.955   1.990   2.164
 5282SOL    HW116745   4.906   1.906   2.141
 5282SOL    HW216746   4.941   2.058   2.092
 5283SOL     OW16747   5.449   5.245   6.461
 5283SOL    HW116748   5.425   5.179   6.389
 5283SOL    HW216749   5.491   5.196   6.538
 5284SOL     OW16750   5.191   3.140   3.644
 5284SOL    HW116751   5.098   3.149   3.607
 5284SOL    HW216752   5.203   3.050   3.685
 5285SOL     OW16753   3.309   5.955   2.568
 5285SOL    HW116754   3.337   5.887   2.635
 5285SOL    HW216755   3.223   5.997   2.596
 5286SOL     OW16756   2.174   4.838   1.883
 5286SOL    HW116757   2.254   4.839   1.824
 5286SOL    HW216758   2.180   4.912   1.949
 5287SOL     OW16759   0.820   1.369   1.371
 5287SOL    HW116760   0.798   1.387   1.275
 5287SOL    HW216761   0.815   1.270   1.388
 5288SOL     OW16762   4.325   1.207   0.647
 5288SOL    HW116763   4.410   1.253   0.624
 5288SOL    HW216764   4.248   1.269   0.629
 5289SOL     OW16765   1.936   5.665   1.260
 5289SOL    HW116766   1.948   5.618   1.172
 5289SOL    HW216767   1.960   5.603   1.334
 5290SOL     OW16768   5.183   5.650   0.708
 5290SOL    HW116769   5.278   5.621   0.717
 5290SOL    HW216770   5.176   5.748   0.725
 5291SOL     OW16771   2.003   5.227   5.830
 5291SOL    HW116772   2.028   5.132   5.810
 5291SOL    HW216773   2.085   5.283   5.834
 5292SOL     OW16774   5.093   2.592   5.963
 5292SOL    HW116775   5.154   2.665   5.933
 5292SOL    HW216776   5.004   2.603   5.919
 5293SOL     OW16777   1.155   0.945   4.712
 5293SOL    HW116778   1.125   0.970   4.804
 5293SOL    HW216779   1.077   0.948   4.650
 5294SOL     OW16780   5.070   2.253   5.485
 5294SOL    HW116781   5.033   2.340   5.451
 5294SOL    HW216782   4.994   2.189   5.501
 5295SOL     OW16783   5.875   0.610   2.037
 5295SOL    HW116784   5.937   0.601   1.959
 5295SOL    HW216785   5.902   0.545   2.109
 5296SOL     OW16786   0.933   3.977   0.461
 5296SOL    HW116787   0.946   3.902   0.525
 5296SOL    HW216788   0.969   3.952   0.371
 5297SOL     OW16789   1.779   3.119   1.628
 5297SOL    HW116790   1.850   3.179   1.592
 5297SOL    HW216791   1.822   3.047   1.683
 5298SOL     OW16792   1.104   5.136   1.519
 5298SOL    HW116793   1.151   5.130   1.431
 5298SOL    HW216794   1.171   5.132   1.593
 5299SOL     OW16795   3.222   0.485   1.545
 5299SOL    HW116796   3.320   0.491   1.565
 5299SOL    HW216797   3.203   0.530   1.458
 5300SOL     OW16798   6.622   5.054   3.353
 5300SOL    HW116799   6.702   5.000   3.331
 5300SOL    HW216800   6.541   5.013   3.312
 5301SOL     OW16801   4.910   0.391   0.281
 5301SOL    HW116802   4.953   0.437   0.203
 5301SOL    HW216803   4.981   0.360   0.344
 5302SOL     OW16804   6.573   4.386   3.441
 5302SOL    HW116805   6.670   4.405   3.426
 5302SOL    HW216806   6.547   4.302   3.392
 5303SOL     OW16807   0.384   5.055   3.466
 5303SOL    HW116808   0.421   5.090   3.381
 5303SOL    HW216809   0.285   5.069   3.468
 5304SOL     OW16810   5.230   2.065   5.356
 5304SOL    HW116811   5.188   2.147   5.395
 5304SOL    HW216812   5.181   1.984   5.389
 5305SOL     OW16813   2.843   1.112   2.664
 5305SOL    HW116814   2.771   1.071   2.719
 5305SOL    HW216815   2.814   1.116   2.569
 5306SOL     OW16816   2.385   0.446   4.690
 5306SOL    HW116817   2.355   0.386   4.764
 5306SOL    HW216818   2.485   0.446   4.686
 5307SOL     OW16819   4.244   6.947   6.717
 5307SOL    HW116820   4.233   6.968   6.620
 5307SOL    HW216821   4.216   0.003   6.772
 5308SOL     OW16822   0.035   1.187   2.911
 5308SOL    HW116823   6.982   1.252   2.907
 5308SOL    HW216824   0.085   1.189   2.824
 5309SOL     OW16825   3.994   3.251   4.593
 5309SOL    HW116826   3.918   3.315   4.580
 5309SOL    HW216827   3.963   3.158   4.570
 5310SOL     OW16828   5.636   1.832   0.708
 5310SOL    HW116829   5.556   1.781   0.741
 5310SOL    HW216830   5.629   1.928   0.737
 5311SOL     OW16831   2.022   5.726   6.780
 5311SOL    HW116832   1.935   5.686   6.810
 5311SOL    HW216833   2.018   5.825   6.791
 5312SOL     OW16834   0.575   2.398   1.898
 5312SOL    HW116835   0.492   2.417   1.844
 5312SOL    HW216836   0.623   2.484   1.915
 5313SOL     OW16837   1.449   5.804   6.701
 5313SOL    HW116838   1.403   5.886   6.735
 5313SOL    HW216839   1.546   5.825   6.684
 5314SOL     OW16840   3.420   4.730   0.736
 5314SOL    HW116841   3.459   4.652   0.688
 5314SOL    HW216842   3.320   4.719   0.740
 5315SOL     OW16843   5.099   3.090   2.394
 5315SOL    HW116844   5.131   3.173   2.440
 5315SOL    HW216845   5.005   3.102   2.365
 5316SOL     OW16846   6.494   5.343   5.318
 5316SOL    HW116847   6.486   5.317   5.414
 5316SOL    HW216848   6.532   5.435   5.312
 5317SOL     OW16849   5.688   5.590   3.016
 5317SOL    HW116850   5.703   5.503   2.970
 5317SOL    HW216851   5.667   5.661   2.948
 5318SOL     OW16852   0.334   2.518   5.152
 5318SOL    HW116853   0.340   2.563   5.063
 5318SOL    HW216854   0.328   2.587   5.224
 5319SOL     OW16855   3.960   7.011   1.460
 5319SOL    HW116856   3.950   0.045   1.541
 5319SOL    HW216857   4.050   0.001   1.420
 5320SOL     OW16858   5.830   3.612   5.847
 5320SOL    HW116859   5.757   3.653   5.901
 5320SOL    HW216860   5.878   3.683   5.795
 5321SOL     OW16861   1.805   5.449   6.367
 5321SOL    HW116862   1.878   5.515   6.383
 5321SOL    HW216863   1.843   5.356   6.365
 5322SOL     OW16864   3.347   6.216   0.279
 5322SOL    HW116865   3.400   6.197   0.196
 5322SOL    HW216866   3.320   6.312   0.279
 5323SOL     OW16867   6.307   3.384   0.034
 5323SOL    HW116868   6.311   3.391   6.957
 5323SOL    HW216869   6.288   3.474   0.073
 5324SOL     OW16870   3.806   2.919   1.827
 5324SOL    HW116871   3.849   3.009   1.831
 5324SOL    HW216872   3.825   2.877   1.739
 5325SOL     OW16873   4.986   5.876   4.378
 5325SOL    HW116874   4.989   5.973   4.354
 5325SOL    HW216875   5.003   5.864   4.476
 5326SOL     OW16876   0.572   0.405   2.146
 5326SOL    HW116877   0.480   0.367   2.156
 5326SOL    HW216878   0.630   0.371   2.220
 5327SOL     OW16879   6.923   1.046   4.608
 5327SOL    HW116880   6.936   0.981   4.533
 5327SOL    HW216881   6.942   1.139   4.576
 5328SOL     OW16882   3.924   4.932   0.966
 5328SOL    HW116883   3.853   4.945   1.035
 5328SOL    HW216884   3.937   4.834   0.949
 5329SOL     OW16885   6.319   5.369   0.262
 5329SOL    HW116886   6.264   5.434   0.211
 5329SOL    HW216887   6.360   5.415   0.341
 5330SOL     OW16888   3.752   4.856   0.261
 5330SOL    HW116889   3.661   4.896   0.269
 5330SOL    HW216890   3.755   4.794   0.183
 5331SOL     OW16891   4.214   2.607   6.496
 5331SOL    HW116892   4.252   2.539   6.433
 5331SOL    HW216893   4.127   2.573   6.533
 5332SOL     OW16894   6.065   3.086   0.193
 5332SOL    HW116895   6.023   3.049   0.111
 5332SOL    HW216896   6.164   3.096   0.178
 5333SOL     OW16897   1.288   1.969   4.341
 5333SOL    HW116898   1.246   2.029   4.273
 5333SOL    HW216899   1.261   1.874   4.323
 5334SOL     OW16900   3.235   5.928   1.747
 5334SOL    HW116901   3.172   5.904   1.673
 5334SOL    HW216902   3.275   5.844   1.784
 5335SOL     OW16903   0.172   4.328   1.274
 5335SOL    HW116904   0.098   4.276   1.318
 5335SOL    HW216905   0.246   4.342   1.340
 5336SOL     OW16906   1.312   3.165   4.984
 5336SOL    HW116907   1.392   3.226   4.991
 5336SOL    HW216908   1.294   3.125   5.074
 5337SOL     OW16909   6.299   5.031   0.630
 5337SOL    HW116910   6.286   4.932   0.626
 5337SOL    HW216911   6.396   5.052   0.643
 5338SOL     OW16912   6.349   3.367   0.936
 5338SOL    HW116913   6.415   3.411   0.997
 5338SOL    HW216914   6.291   3.437   0.894
 5339SOL     OW16915   4.970   3.710   2.660
 5339SOL    HW116916   5.065   3.725   2.687
 5339SOL    HW216917   4.965   3.631   2.598
 5340SOL     OW16918   4.884   3.852   2.074
 5340SOL    HW116919   4.809   3.885   2.016
 5340SOL    HW216920   4.900   3.755   2.056
 5341SOL     OW16921   4.331   4.649   3.650
 5341SOL    HW116922   4.367   4.614   3.563
 5341SOL    HW216923   4.399   4.636   3.722
 5342SOL     OW16924   6.995   5.811   4.968
 5342SOL    HW116925   0.044   5.797   4.899
 5342SOL    HW216926   6.924   5.741   4.958
 5343SOL     OW16927   3.335   2.756   6.236
 5343SOL    HW116928   3.396   2.827   6.271
 5343SOL    HW216929   3.362   2.667   6.273
 5344SOL     OW16930   0.320   1.396   6.281
 5344SOL    HW116931   0.412   1.363   6.302
 5344SOL    HW216932   0.297   1.375   6.186
 5345SOL     OW16933   4.966   1.391   6.726
 5345SOL    HW116934   4.985   1.406   6.823
 5345SOL    HW216935   4.868   1.404   6.709
 5346SOL     OW16936   3.019   6.010   3.167
 5346SOL    HW116937   3.077   6.086   3.138
 5346SOL    HW216938   3.007   6.014   3.267
 5347SOL     OW16939   5.917   1.978   3.951
 5347SOL    HW116940   5.973   2.006   4.029
 5347SOL    HW216941   5.825   1.955   3.983
 5348SOL     OW16942   5.038   2.484   4.674
 5348SOL    HW116943   5.033   2.446   4.582
 5348SOL    HW216944   4.997   2.575   4.675
 5349SOL     OW16945   0.824   3.750   1.367
 5349SOL    HW116946   0.923   3.761   1.372
 5349SOL    HW216947   0.781   3.787   1.449
 5350SOL     OW16948   1.004   6.078   6.956
 5350SOL    HW116949   0.921   6.053   6.907
 5350SOL    HW216950   1.034   6.000   7.012
 5351SOL     OW16951   6.654   6.273   3.362
 5351SOL    HW116952   6.582   6.280   3.431
 5351SOL    HW216953   6.719   6.202   3.389
 5352SOL     OW16954   1.297   2.899   5.968
 5352SOL    HW116955   1.350   2.935   6.046
 5352SOL    HW216956   1.213   2.952   5.957
 5353SOL     OW16957   3.886   4.855   3.727
 5353SOL    HW116958   3.947   4.795   3.779
 5353SOL    HW216959   3.819   4.896   3.789
 5354SOL     OW16960   3.753   5.847   1.440
 5354SOL    HW116961   3.833   5.828   1.498
 5354SOL    HW216962   3.701   5.922   1.480
 5355SOL     OW16963   5.372   4.382   5.422
 5355SOL    HW116964   5.449   4.358   5.363
 5355SOL    HW216965   5.406   4.407   5.513
 5356SOL     OW16966   0.347   5.533   0.906
 5356SOL    HW116967   0.311   5.557   0.996
 5356SOL    HW216968   0.392   5.612   0.866
 5357SOL     OW16969   6.047   3.715   3.098
 5357SOL    HW116970   5.950   3.735   3.088
 5357SOL    HW216971   6.067   3.699   3.195
 5358SOL     OW16972   4.493   1.078   6.747
 5358SOL    HW116973   4.531   1.098   6.657
 5358SOL    HW216974   4.504   1.158   6.806
 5359SOL     OW16975   3.244   2.040   6.478
 5359SOL    HW116976   3.167   2.103   6.487
 5359SOL    HW216977   3.237   1.968   6.547
 5360SOL     OW16978   5.773   4.915   4.294
 5360SOL    HW116979   5.749   4.993   4.352
 5360SOL    HW216980   5.714   4.913   4.214
 5361SOL     OW16981   1.254   5.137   2.168
 5361SOL    HW116982   1.240   5.195   2.248
 5361SOL    HW216983   1.254   5.194   2.086
 5362SOL     OW16984   5.584   1.708   2.462
 5362SOL    HW116985   5.618   1.791   2.506
 5362SOL    HW216986   5.652   1.677   2.394
 5363SOL     OW16987   5.626   4.870   3.775
 5363SOL    HW116988   5.644   4.967   3.791
 5363SOL    HW216989   5.659   4.845   3.684
 5364SOL     OW16990   4.731   1.976   2.944
 5364SOL    HW116991   4.670   1.897   2.952
 5364SOL    HW216992   4.800   1.958   2.874
 5365SOL     OW16993   3.036   3.193   4.276
 5365SOL    HW116994   3.023   3.235   4.366
 5365SOL    HW216995   3.107   3.122   4.282
 5366SOL     OW16996   6.144   6.288   3.447
 5366SOL    HW116997   6.202   6.240   3.381
 5366SOL    HW216998   6.080   6.223   3.488
 5367SOL     OW16999   6.052   5.600   1.344
 5367SOL    HW117000   6.039   5.698   1.329
 5367SOL    HW217001   6.049   5.552   1.256
 5368SOL     OW17002   6.758   5.773   4.177
 5368SOL    HW117003   6.706   5.772   4.092
 5368SOL    HW217004   6.848   5.731   4.162
 5369SOL     OW17005   3.768   5.899   2.419
 5369SOL    HW117006   3.802   5.822   2.473
 5369SOL    HW217007   3.722   5.965   2.479
 5370SOL     OW17008   1.702   3.030   0.495
 5370SOL    HW117009   1.767   3.013   0.568
 5370SOL    HW217010   1.743   3.006   0.407
 5371SOL     OW17011   6.043   5.356   4.907
 5371SOL    HW117012   5.948   5.330   4.885
 5371SOL    HW217013   6.054   5.359   5.006
 5372SOL     OW17014   1.708   0.086   3.028
 5372SOL    HW117015   1.626   0.136   2.999
 5372SOL    HW217016   1.789   0.143   3.013
 5373SOL     OW17017   3.007   1.037   6.473
 5373SOL    HW117018   3.034   0.941   6.488
 5373SOL    HW217019   3.080   1.097   6.506
 5374SOL     OW17020   2.153   3.947   1.944
 5374SOL    HW117021   2.093   3.998   2.005
 5374SOL    HW217022   2.098   3.905   1.871
 5375SOL     OW17023   2.371   4.741   4.924
 5375SOL    HW117024   2.425   4.667   4.883
 5375SOL    HW217025   2.281   4.706   4.949
 5376SOL     OW17026   0.523   0.285   6.113
 5376SOL    HW117027   0.444   0.301   6.053
 5376SOL    HW217028   0.605   0.322   6.069
 5377SOL     OW17029   1.591   1.259   2.802
 5377SOL    HW117030   1.528   1.329   2.769
 5377SOL    HW217031   1.612   1.195   2.728
 5378SOL     OW17032   4.460   0.332   2.560
 5378SOL    HW117033   4.376   0.365   2.601
 5378SOL    HW217034   4.539   0.364   2.613
 5379SOL     OW17035   2.247   2.202   4.505
 5379SOL    HW117036   2.344   2.215   4.486
 5379SOL    HW217037   2.214   2.119   4.460
 5380SOL     OW17038   4.153   6.201   1.782
 5380SOL    HW117039   4.137   6.190   1.684
 5380SOL    HW217040   4.187   6.115   1.820
 5381SOL     OW17041   2.866   0.169   3.567
 5381SOL    HW117042   2.772   0.181   3.536
 5381SOL    HW217043   2.915   0.108   3.504
 5382SOL     OW17044   4.737   0.952   2.466
 5382SOL    HW117045   4.812   0.908   2.416
 5382SOL    HW217046   4.652   0.940   2.414
 5383SOL     OW17047   2.190   2.941   4.360
 5383SOL    HW117048   2.193   3.036   4.393
 5383SOL    HW217049   2.214   2.879   4.435
 5384SOL     OW17050   6.055   5.261   5.453
 5384SOL    HW117051   5.986   5.223   5.515
 5384SOL    HW217052   6.011   5.294   5.370
 5385SOL     OW17053   3.865   3.389   6.145
 5385SOL    HW117054   3.814   3.387   6.231
 5385SOL    HW217055   3.803   3.415   6.071
 5386SOL     OW17056   4.952   4.637   4.406
 5386SOL    HW117057   4.873   4.622   4.465
 5386SOL    HW217058   4.961   4.559   4.343
 5387SOL     OW17059   1.099   1.739   4.324
 5387SOL    HW117060   1.157   1.763   4.246
 5387SOL    HW217061   1.006   1.771   4.308
 5388SOL     OW17062   0.246   6.776   2.980
 5388SOL    HW117063   0.183   6.750   2.907
 5388SOL    HW217064   0.195   6.823   3.052
 5389SOL     OW17065   5.021   1.251   3.634
 5389SOL    HW117066   5.044   1.278   3.541
 5389SOL    HW217067   4.923   1.230   3.639
 5390SOL     OW17068   6.930   3.442   3.515
 5390SOL    HW117069   6.843   3.456   3.563
 5390SOL    HW217070   6.985   3.526   3.521
 5391SOL     OW17071   3.092   2.849   0.633
 5391SOL    HW117072   3.169   2.792   0.664
 5391SOL    HW217073   3.115   2.890   0.545
 5392SOL     OW17074   6.107   0.531   3.850
 5392SOL    HW117075   6.030   0.590   3.878
 5392SOL    HW217076   6.086   0.488   3.762
 5393SOL     OW17077   4.460   2.458   4.297
 5393SOL    HW117078   4.511   2.497   4.373
 5393SOL    HW217079   4.419   2.532   4.243
 5394SOL     OW17080   0.934   1.854   1.403
 5394SOL    HW117081   0.948   1.949   1.431
 5394SOL    HW217082   0.862   1.813   1.458
 5395SOL     OW17083   6.524   1.269   0.717
 5395SOL    HW117084   6.458   1.268   0.642
 5395SOL    HW217085   6.580   1.186   0.713
 5396SOL     OW17086   4.484   3.931   0.507
 5396SOL    HW117087   4.415   4.002   0.491
 5396SOL    HW217088   4.467   3.854   0.445
 5397SOL     OW17089   0.183   0.798   2.780
 5397SOL    HW117090   0.095   0.781   2.824
 5397SOL    HW217091   0.257   0.773   2.844
 5398SOL     OW17092   6.235   2.821   2.031
 5398SOL    HW117093   6.284   2.834   2.117
 5398SOL    HW217094   6.161   2.887   2.025
 5399SOL     OW17095   1.603   1.953   0.058
 5399SOL    HW117096   1.658   1.979   0.138
 5399SOL    HW217097   1.548   2.032   0.029
 5400SOL     OW17098   4.806   2.934   1.230
 5400SOL    HW117099   4.738   2.926   1.303
 5400SOL    HW217100   4.767   2.898   1.145
 5401SOL     OW17101   5.104   2.440   1.297
 5401SOL    HW117102   5.070   2.528   1.266
 5401SOL    HW217103   5.172   2.454   1.370
 5402SOL     OW17104   1.455   6.230   2.422
 5402SOL    HW117105   1.519   6.306   2.421
 5402SOL    HW217106   1.487   6.161   2.487
 5403SOL     OW17107   4.464   2.536   6.885
 5403SOL    HW117108   4.439   2.620   6.933
 5403SOL    HW217109   4.564   2.533   6.873
 5404SOL     OW17110   5.184   0.339   6.791
 5404SOL    HW117111   5.093   0.378   6.805
 5404SOL    HW217112   5.234   0.340   6.878
 5405SOL     OW17113   0.021   4.827   0.255
 5405SOL    HW117114   0.024   4.922   0.285
 5405SOL    HW217115   0.105   4.805   0.206
 5406SOL     OW17116   2.183   0.982   5.884
 5406SOL    HW117117   2.168   0.984   5.785
 5406SOL    HW217118   2.198   1.075   5.917
 5407SOL     OW17119   1.757   0.017   3.284
 5407SOL    HW117120   1.857   0.015   3.273
 5407SOL    HW217121   1.714   0.031   3.195
 5408SOL     OW17122   2.297   1.665   4.479
 5408SOL    HW117123   2.202   1.659   4.510
 5408SOL    HW217124   2.352   1.597   4.528
 5409SOL     OW17125   1.008   2.620   2.103
 5409SOL    HW117126   1.103   2.622   2.072
 5409SOL    HW217127   0.973   2.526   2.097
 5410SOL     OW17128   6.347   2.196   0.606
 5410SOL    HW117129   6.249   2.206   0.621
 5410SOL    HW217130   6.367   2.207   0.509
 5411SOL     OW17131   3.506   5.554   6.926
 5411SOL    HW117132   3.462   5.641   6.949
 5411SOL    HW217133   3.600   5.554   6.959
 5412SOL     OW17134   0.015   2.358   5.935
 5412SOL    HW117135   0.009   2.423   5.860
 5412SOL    HW217136   0.057   2.273   5.903
 5413SOL     OW17137   0.944   5.091   4.677
 5413SOL    HW117138   0.922   5.183   4.647
 5413SOL    HW217139   1.008   5.049   4.613
 5414SOL     OW17140   5.079   4.609   5.866
 5414SOL    HW117141   5.176   4.589   5.854
 5414SOL    HW217142   5.068   4.706   5.890
 5415SOL     OW17143   4.079   1.111   0.503
 5415SOL    HW117144   4.034   1.077   0.585
 5415SOL    HW217145   4.070   1.210   0.498
 5416SOL     OW17146   3.750   5.480   0.010
 5416SOL    HW117147   3.723   5.407   0.073
 5416SOL    HW217148   3.848   5.498   0.020
 5417SOL     OW17149   4.517   6.630   3.971
 5417SOL    HW117150   4.513   6.715   4.024
 5417SOL    HW217151   4.607   6.621   3.928
 5418SOL     OW17152   6.516   3.129   5.585
 5418SOL    HW117153   6.577   3.084   5.651
 5418SOL    HW217154   6.561   3.211   5.550
 5419SOL     OW17155   4.031   1.545   5.882
 5419SOL    HW117156   4.054   1.497   5.967
 5419SOL    HW217157   4.087   1.628   5.874
 5420SOL     OW17158   1.611   2.221   1.797
 5420SOL    HW117159   1.542   2.190   1.862
 5420SOL    HW217160   1.682   2.151   1.789
 5421SOL     OW17161   3.618   4.910   2.246
 5421SOL    HW117162   3.619   4.853   2.164
 5421SOL    HW217163   3.634   5.005   2.221
 5422SOL     OW17164   2.871   5.159   4.121
 5422SOL    HW117165   2.773   5.154   4.102
 5422SOL    HW217166   2.922   5.113   4.048
 5423SOL     OW17167   4.986   6.611   1.942
 5423SOL    HW117168   5.067   6.644   1.991
 5423SOL    HW217169   4.984   6.651   1.851
 5424SOL     OW17170   4.023   3.368   5.386
 5424SOL    HW117171   4.015   3.293   5.451
 5424SOL    HW217172   4.118   3.378   5.358
 5425SOL     OW17173   1.407   4.449   5.598
 5425SOL    HW117174   1.421   4.520   5.529
 5425SOL    HW217175   1.363   4.370   5.556
 5426SOL     OW17176   6.813   4.993   1.322
 5426SOL    HW117177   6.796   5.059   1.395
 5426SOL    HW217178   6.910   4.971   1.318
 5427SOL     OW17179   4.100   2.979   0.533
 5427SOL    HW117180   4.122   2.971   0.631
 5427SOL    HW217181   4.139   2.901   0.484
 5428SOL     OW17182   5.420   5.271   3.249
 5428SOL    HW117183   5.431   5.345   3.183
 5428SOL    HW217184   5.337   5.286   3.303
 5429SOL     OW17185   2.954   0.215   4.690
 5429SOL    HW117186   2.976   0.167   4.605
 5429SOL    HW217187   2.903   0.299   4.668
 5430SOL     OW17188   2.696   3.898   5.549
 5430SOL    HW117189   2.766   3.842   5.593
 5430SOL    HW217190   2.647   3.842   5.481
 5431SOL     OW17191   4.545   4.708   0.361
 5431SOL    HW117192   4.644   4.701   0.375
 5431SOL    HW217193   4.515   4.802   0.380
 5432SOL     OW17194   0.543   5.325   6.894
 5432SOL    HW117195   0.465   5.274   6.859
 5432SOL    HW217196   0.592   5.269   6.961
 5433SOL     OW17197   3.460   0.341   1.152
 5433SOL    HW117198   3.437   0.438   1.150
 5433SOL    HW217199   3.442   0.304   1.243
 5434SOL     OW17200   4.566   0.679   4.466
 5434SOL    HW117201   4.584   0.582   4.451
 5434SOL    HW217202   4.637   0.718   4.524
 5435SOL     OW17203   6.559   5.073   0.728
 5435SOL    HW117204   6.631   5.133   0.763
 5435SOL    HW217205   6.598   4.984   0.705
 5436SOL     OW17206   1.874   4.503   2.791
 5436SOL    HW117207   1.779   4.490   2.820
 5436SOL    HW217208   1.884   4.473   2.696
 5437SOL     OW17209   3.392   6.579   0.968
 5437SOL    HW117210   3.475   6.535   1.003
 5437SOL    HW217211   3.415   6.637   0.890
 5438SOL     OW17212   4.662   6.181   2.410
 5438SOL    HW117213   4.680   6.118   2.335
 5438SOL    HW217214   4.744   6.188   2.467
 5439SOL     OW17215   0.916   4.543   1.522
 5439SOL    HW117216   1.008   4.573   1.547
 5439SOL    HW217217   0.881   4.603   1.450
 5440SOL     OW17218   6.054   6.602   3.587
 5440SOL    HW117219   5.983   6.532   3.592
 5440SOL    HW217220   6.031   6.668   3.516
 5441SOL     OW17221   5.606   2.566   4.869
 5441SOL    HW117222   5.522   2.593   4.823
 5441SOL    HW217223   5.654   2.647   4.902
 5442SOL     OW17224   3.171   0.393   6.587
 5442SOL    HW117225   3.112   0.449   6.645
 5442SOL    HW217226   3.258   0.376   6.635
 5443SOL     OW17227   4.934   1.444   3.212
 5443SOL    HW117228   4.945   1.543   3.221
 5443SOL    HW217229   4.966   1.416   3.122
 5444SOL     OW17230   6.583   0.766   5.952
 5444SOL    HW117231   6.493   0.785   5.990
 5444SOL    HW217232   6.615   0.677   5.983
 5445SOL     OW17233   5.570   5.667   6.058
 5445SOL    HW117234   5.634   5.665   5.981
 5445SOL    HW217235   5.583   5.751   6.111
 5446SOL     OW17236   6.957   4.236   6.078
 5446SOL    HW117237   0.033   4.235   6.062
 5446SOL    HW217238   6.934   4.174   6.153
 5447SOL     OW17239   0.114   1.378   1.780
 5447SOL    HW117240   0.121   1.439   1.702
 5447SOL    HW217241   0.018   1.366   1.805
 5448SOL     OW17242   5.112   4.653   2.967
 5448SOL    HW117243   5.028   4.598   2.971
 5448SOL    HW217244   5.089   4.747   2.942
 5449SOL     OW17245   2.982   1.179   2.065
 5449SOL    HW117246   2.936   1.259   2.027
 5449SOL    HW217247   2.962   1.099   2.008
 5450SOL     OW17248   4.221   5.587   2.065
 5450SOL    HW117249   4.304   5.642   2.066
 5450SOL    HW217250   4.142   5.645   2.086
 5451SOL     OW17251   6.295   6.579   3.418
 5451SOL    HW117252   6.294   6.614   3.512
 5451SOL    HW217253   6.231   6.503   3.409
 5452SOL     OW17254   1.919   3.870   2.406
 5452SOL    HW117255   1.911   3.931   2.328
 5452SOL    HW217256   1.985   3.798   2.386
 5453SOL     OW17257   6.528   4.748   4.129
 5453SOL    HW117258   6.482   4.815   4.070
 5453SOL    HW217259   6.484   4.659   4.118
 5454SOL     OW17260   6.291   3.977   3.345
 5454SOL    HW117261   6.360   3.919   3.303
 5454SOL    HW217262   6.313   3.991   3.442
 5455SOL     OW17263   2.388   2.341   3.724
 5455SOL    HW117264   2.419   2.343   3.819
 5455SOL    HW217265   2.437   2.411   3.672
 5456SOL     OW17266   5.176   2.299   0.848
 5456SOL    HW117267   5.265   2.292   0.803
 5456SOL    HW217268   5.112   2.347   0.788
 5457SOL     OW17269   5.482   1.142   6.386
 5457SOL    HW117270   5.482   1.169   6.482
 5457SOL    HW217271   5.430   1.209   6.333
 5458SOL     OW17272   6.003   3.445   0.124
 5458SOL    HW117273   5.928   3.441   0.059
 5458SOL    HW217274   6.030   3.353   0.152
 5459SOL     OW17275   1.767   3.556   4.884
 5459SOL    HW117276   1.816   3.609   4.954
 5459SOL    HW217277   1.821   3.475   4.860
 5460SOL     OW17278   1.078   0.711   1.403
 5460SOL    HW117279   1.176   0.692   1.412
 5460SOL    HW217280   1.048   0.766   1.481
 5461SOL     OW17281   6.430   0.738   5.601
 5461SOL    HW117282   6.439   0.767   5.506
 5461SOL    HW217283   6.514   0.760   5.651
 5462SOL     OW17284   5.072   4.311   6.549
 5462SOL    HW117285   5.127   4.315   6.466
 5462SOL    HW217286   4.987   4.261   6.530
 5463SOL     OW17287   1.049   3.041   5.967
 5463SOL    HW117288   0.990   3.017   6.044
 5463SOL    HW217289   1.030   2.980   5.890
 5464SOL     OW17290   2.088   5.786   5.684
 5464SOL    HW117291   2.013   5.822   5.739
 5464SOL    HW217292   2.061   5.786   5.587
 5465SOL     OW17293   0.612   0.049   4.384
 5465SOL    HW117294   0.641   0.118   4.318
 5465SOL    HW217295   0.540   7.015   4.344
 5466SOL     OW17296   5.925   2.187   4.640
 5466SOL    HW117297   5.887   2.133   4.565
 5466SOL    HW217298   5.909   2.284   4.623
 5467SOL     OW17299   5.027   2.986   4.348
 5467SOL    HW117300   4.934   2.969   4.379
 5467SOL    HW217301   5.055   3.079   4.372
 5468SOL     OW17302   0.179   0.995   0.851
 5468SOL    HW117303   0.235   0.913   0.846
 5468SOL    HW217304   0.237   1.076   0.860
 5469SOL     OW17305   3.772   0.322   4.104
 5469SOL    HW117306   3.756   0.413   4.066
 5469SOL    HW217307   3.689   0.291   4.150
 5470SOL     OW17308   4.000   5.107   3.993
 5470SOL    HW117309   4.034   5.111   3.899
 5470SOL    HW217310   3.961   5.017   4.011
 5471SOL     OW17311   5.007   0.924   3.074
 5471SOL    HW117312   5.072   0.910   3.149
 5471SOL    HW217313   4.914   0.905   3.106
 5472SOL     OW17314   3.195   3.618   6.569
 5472SOL    HW117315   3.204   3.716   6.591
 5472SOL    HW217316   3.214   3.604   6.472
 5473SOL     OW17317   2.360   4.931   1.696
 5473SOL    HW117318   2.430   4.860   1.695
 5473SOL    HW217319   2.403   5.020   1.707
 5474SOL     OW17320   1.093   4.984   2.627
 5474SOL    HW117321   1.143   5.044   2.565
 5474SOL    HW217322   1.153   4.911   2.659
 5475SOL     OW17323   0.763   1.055   4.794
 5475SOL    HW117324   0.706   0.980   4.828
 5475SOL    HW217325   0.838   1.070   4.858
 5476SOL     OW17326   2.544   6.958   5.003
 5476SOL    HW117327   2.611   6.998   5.064
 5476SOL    HW217328   2.453   6.996   5.023
 5477SOL     OW17329   1.591   3.933   3.944
 5477SOL    HW117330   1.554   3.869   4.012
 5477SOL    HW217331   1.550   3.914   3.855
 5478SOL     OW17332   5.103   4.770   6.231
 5478SOL    HW117333   5.129   4.785   6.135
 5478SOL    HW217334   5.038   4.695   6.237
 5479SOL     OW17335   5.001   1.665   4.812
 5479SOL    HW117336   4.905   1.636   4.815
 5479SOL    HW217337   5.035   1.677   4.905
 5480SOL     OW17338   0.779   3.649   4.108
 5480SOL    HW117339   0.798   3.582   4.180
 5480SOL    HW217340   0.684   3.638   4.078
 5481SOL     OW17341   4.709   1.868   6.073
 5481SOL    HW117342   4.681   1.925   6.150
 5481SOL    HW217343   4.629   1.846   6.017
 5482SOL     OW17344   5.365   2.881   0.986
 5482SOL    HW117345   5.440   2.867   1.051
 5482SOL    HW217346   5.356   2.979   0.966
 5483SOL     OW17347   6.690   2.781   6.449
 5483SOL    HW117348   6.611   2.773   6.509
 5483SOL    HW217349   6.660   2.810   6.358
 5484SOL     OW17350   6.916   6.762   4.604
 5484SOL    HW117351   6.869   6.841   4.643
 5484SOL    HW217352   6.979   6.724   4.672
 5485SOL     OW17353   3.447   0.220   5.361
 5485SOL    HW117354   3.390   0.290   5.318
 5485SOL    HW217355   3.441   0.135   5.309
 5486SOL     OW17356   1.068   0.624   4.154
 5486SOL    HW117357   1.136   0.686   4.116
 5486SOL    HW217358   0.998   0.678   4.203
 5487SOL     OW17359   4.343   4.922   1.166
 5487SOL    HW117360   4.314   4.885   1.254
 5487SOL    HW217361   4.267   4.970   1.123
 5488SOL     OW17362   4.734   1.065   5.890
 5488SOL    HW117363   4.697   1.017   5.810
 5488SOL    HW217364   4.684   1.151   5.902
 5489SOL     OW17365   0.849   4.076   3.232
 5489SOL    HW117366   0.819   3.983   3.208
 5489SOL    HW217367   0.860   4.082   3.331
 5490SOL     OW17368   1.756   1.932   6.763
 5490SOL    HW117369   1.751   1.919   6.664
 5490SOL    HW217370   1.677   1.987   6.793
 5491SOL     OW17371   0.299   5.392   1.378
 5491SOL    HW117372   0.358   5.330   1.327
 5491SOL    HW217373   0.206   5.386   1.343
 5492SOL     OW17374   1.511   1.089   5.272
 5492SOL    HW117375   1.581   1.033   5.228
 5492SOL    HW217376   1.540   1.184   5.272
 5493SOL     OW17377   3.089   2.995   0.037
 5493SOL    HW117378   3.101   3.083   0.084
 5493SOL    HW217379   3.041   3.010   6.973
 5494SOL     OW17380   6.010   3.112   2.116
 5494SOL    HW117381   6.078   3.158   2.174
 5494SOL    HW217382   5.950   3.180   2.075
 5495SOL     OW17383   3.462   2.878   2.508
 5495SOL    HW117384   3.459   2.859   2.410
 5495SOL    HW217385   3.374   2.914   2.538
 5496SOL     OW17386   3.469   5.735   1.374
 5496SOL    HW117387   3.433   5.825   1.348
 5496SOL    HW217388   3.565   5.743   1.397
 5497SOL     OW17389   6.320   6.764   2.123
 5497SOL    HW117390   6.224   6.789   2.132
 5497SOL    HW217391   6.364   6.767   2.213
 5498SOL     OW17392   4.472   0.806   5.157
 5498SOL    HW117393   4.456   0.811   5.256
 5498SOL    HW217394   4.571   0.800   5.140
 5499SOL     OW17395   0.184   2.161   4.255
 5499SOL    HW117396   0.146   2.072   4.278
 5499SOL    HW217397   0.124   2.233   4.289
 5500SOL     OW17398   1.785   5.847   2.009
 5500SOL    HW117399   1.803   5.782   2.084
 5500SOL    HW217400   1.798   5.800   1.921
 5501SOL     OW17401   2.272   6.919   2.508
 5501SOL    HW117402   2.248   7.007   2.550
 5501SOL    HW217403   2.263   6.926   2.409
 5502SOL     OW17404   4.747   4.058   6.814
 5502SOL    HW117405   4.788   4.026   6.729
 5502SOL    HW217406   4.659   4.013   6.827
 5503SOL     OW17407   1.637   5.510   4.251
 5503SOL    HW117408   1.683   5.495   4.338
 5503SOL    HW217409   1.664   5.600   4.215
 5504SOL     OW17410   3.324   2.051   4.995
 5504SOL    HW117411   3.401   2.072   4.935
 5504SOL    HW217412   3.259   2.127   4.994
 5505SOL     OW17413   2.645   4.862   5.853
 5505SOL    HW117414   2.621   4.866   5.950
 5505SOL    HW217415   2.656   4.767   5.825
 5506SOL     OW17416   6.371   0.027   5.492
 5506SOL    HW117417   6.453   0.037   5.435
 5506SOL    HW217418   6.310   0.105   5.476
 5507SOL     OW17419   3.134   5.849   3.869
 5507SOL    HW117420   3.071   5.779   3.904
 5507SOL    HW217421   3.124   5.933   3.923
 5508SOL     OW17422   2.433   0.905   6.018
 5508SOL    HW117423   2.487   0.822   6.002
 5508SOL    HW217424   2.344   0.896   5.974
 5509SOL     OW17425   5.658   6.302   6.671
 5509SOL    HW117426   5.702   6.225   6.718
 5509SOL    HW217427   5.686   6.304   6.575
 5510SOL     OW17428   5.220   0.883   5.158
 5510SOL    HW117429   5.136   0.934   5.176
 5510SOL    HW217430   5.263   0.918   5.074
 5511SOL     OW17431   0.610   1.352   2.232
 5511SOL    HW117432   0.624   1.265   2.185
 5511SOL    HW217433   0.551   1.411   2.177
 5512SOL     OW17434   1.911   0.096   1.204
 5512SOL    HW117435   2.004   0.117   1.236
 5512SOL    HW217436   1.851   0.085   1.282
 5513SOL     OW17437   3.771   4.877   4.609
 5513SOL    HW117438   3.717   4.942   4.663
 5513SOL    HW217439   3.741   4.784   4.629
 5514SOL     OW17440   5.719   5.358   3.198
 5514SOL    HW117441   5.674   5.440   3.236
 5514SOL    HW217442   5.678   5.336   3.109
 5515SOL     OW17443   6.603   2.788   1.216
 5515SOL    HW117444   6.506   2.763   1.215
 5515SOL    HW217445   6.648   2.742   1.293
 5516SOL     OW17446   1.566   3.195   6.304
 5516SOL    HW117447   1.477   3.196   6.258
 5516SOL    HW217448   1.575   3.277   6.361
 5517SOL     OW17449   2.383   1.433   2.794
 5517SOL    HW117450   2.397   1.519   2.745
 5517SOL    HW217451   2.338   1.451   2.882
 5518SOL     OW17452   6.207   4.661   4.702
 5518SOL    HW117453   6.134   4.727   4.723
 5518SOL    HW217454   6.222   4.660   4.603
 5519SOL     OW17455   4.918   3.337   4.075
 5519SOL    HW117456   4.883   3.249   4.107
 5519SOL    HW217457   5.001   3.323   4.022
 5520SOL     OW17458   1.990   3.800   1.771
 5520SOL    HW117459   1.896   3.831   1.760
 5520SOL    HW217460   2.031   3.783   1.681
 5521SOL     OW17461   5.303   5.351   1.957
 5521SOL    HW117462   5.291   5.252   1.965
 5521SOL    HW217463   5.214   5.394   1.943
 5522SOL     OW17464   2.235   3.614   1.601
 5522SOL    HW117465   2.292   3.568   1.668
 5522SOL    HW217466   2.254   3.712   1.601
 5523SOL     OW17467   2.877   0.964   1.910
 5523SOL    HW117468   2.821   0.882   1.913
 5523SOL    HW217469   2.919   0.972   1.819
 5524SOL     OW17470   0.184   5.961   6.030
 5524SOL    HW117471   0.187   5.866   6.060
 5524SOL    HW217472   0.273   5.987   5.992
 5525SOL     OW17473   0.027   5.440   5.124
 5525SOL    HW117474   7.009   5.355   5.156
 5525SOL    HW217475   0.127   5.432   5.127
 5526SOL     OW17476   6.315   2.875   4.691
 5526SOL    HW117477   6.372   2.884   4.773
 5526SOL    HW217478   6.365   2.822   4.622
 5527SOL     OW17479   1.813   3.557   1.454
 5527SOL    HW117480   1.741   3.581   1.389
 5527SOL    HW217481   1.775   3.495   1.524
 5528SOL     OW17482   0.585   3.164   3.528
 5528SOL    HW117483   0.668   3.174   3.584
 5528SOL    HW217484   0.611   3.157   3.432
 5529SOL     OW17485   1.539   1.385   4.952
 5529SOL    HW117486   1.501   1.302   4.994
 5529SOL    HW217487   1.487   1.465   4.984
 5530SOL     OW17488   0.795   2.660   0.794
 5530SOL    HW117489   0.879   2.701   0.759
 5530SOL    HW217490   0.809   2.563   0.810
 5531SOL     OW17491   3.352   2.635   5.961
 5531SOL    HW117492   3.434   2.686   5.935
 5531SOL    HW217493   3.323   2.664   6.052
 5532SOL     OW17494   2.867   1.516   1.129
 5532SOL    HW117495   2.938   1.576   1.167
 5532SOL    HW217496   2.777   1.548   1.161
 5533SOL     OW17497   4.247   0.951   1.213
 5533SOL    HW117498   4.169   0.952   1.150
 5533SOL    HW217499   4.219   0.908   1.299
 5534SOL     OW17500   0.085   3.961   5.790
 5534SOL    HW117501   7.010   3.977   5.806
 5534SOL    HW217502   0.115   4.015   5.712
 5535SOL     OW17503   6.347   2.838   3.270
 5535SOL    HW117504   6.273   2.838   3.203
 5535SOL    HW217505   6.319   2.787   3.351
 5536SOL     OW17506   1.850   0.799   3.631
 5536SOL    HW117507   1.811   0.847   3.710
 5536SOL    HW217508   1.826   0.702   3.636
 5537SOL     OW17509   4.367   1.003   4.269
 5537SOL    HW117510   4.416   1.020   4.183
 5537SOL    HW217511   4.269   0.994   4.251
 5538SOL     OW17512   5.208   1.836   0.348
 5538SOL    HW117513   5.218   1.829   0.447
 5538SOL    HW217514   5.139   1.772   0.316
 5539SOL     OW17515   3.262   0.020   0.308
 5539SOL    HW117516   3.315   6.958   0.318
 5539SOL    HW217517   3.169   0.005   0.343
 5540SOL     OW17518   5.289   0.506   6.593
 5540SOL    HW117519   5.236   0.453   6.660
 5540SOL    HW217520   5.315   0.447   6.517
 5541SOL     OW17521   4.520   3.569   5.892
 5541SOL    HW117522   4.554   3.554   5.985
 5541SOL    HW217523   4.457   3.495   5.868
 5542SOL     OW17524   4.126   4.556   0.252
 5542SOL    HW117525   4.145   4.553   0.350
 5542SOL    HW217526   4.074   4.475   0.226
 5543SOL     OW17527   1.253   0.430   1.056
 5543SOL    HW117528   1.167   0.472   1.027
 5543SOL    HW217529   1.290   0.374   0.983
 5544SOL     OW17530   3.962   5.715   5.694
 5544SOL    HW117531   4.023   5.793   5.697
 5544SOL    HW217532   3.868   5.746   5.679
 5545SOL     OW17533   3.556   0.408   3.112
 5545SOL    HW117534   3.495   0.329   3.121
 5545SOL    HW217535   3.648   0.383   3.144
 5546SOL     OW17536   0.919   5.527   5.007
 5546SOL    HW117537   0.928   5.441   5.057
 5546SOL    HW217538   0.850   5.584   5.051
 5547SOL     OW17539   5.517   1.491   4.590
 5547SOL    HW117540   5.547   1.511   4.683
 5547SOL    HW217541   5.461   1.567   4.555
 5548SOL     OW17542   6.627   4.527   5.411
 5548SOL    HW117543   6.691   4.601   5.392
 5548SOL    HW217544   6.661   4.472   5.488
 5549SOL     OW17545   4.430   2.923   0.851
 5549SOL    HW117546   4.397   2.988   0.919
 5549SOL    HW217547   4.442   2.970   0.763
 5550SOL     OW17548   1.624   3.395   2.310
 5550SOL    HW117549   1.682   3.345   2.246
 5550SOL    HW217550   1.632   3.493   2.294
 5551SOL     OW17551   1.941   5.148   4.091
 5551SOL    HW117552   1.915   5.237   4.055
 5551SOL    HW217553   1.986   5.094   4.020
 5552SOL     OW17554   0.490   6.751   6.873
 5552SOL    HW117555   0.587   6.758   6.895
 5552SOL    HW217556   0.436   6.773   6.955
 5553SOL     OW17557   4.772   0.267   0.028
 5553SOL    HW117558   4.805   0.361   0.022
 5553SOL    HW217559   4.694   0.263   0.091
 5554SOL     OW17560   5.157   2.807   1.381
 5554SOL    HW117561   5.155   2.728   1.444
 5554SOL    HW217562   5.213   2.784   1.302
 5555SOL     OW17563   1.725   4.243   2.451
 5555SOL    HW117564   1.691   4.151   2.473
 5555SOL    HW217565   1.823   4.247   2.471
 5556SOL     OW17566   0.015   0.342   4.927
 5556SOL    HW117567   0.070   0.343   4.843
 5556SOL    HW217568   6.941   0.340   4.903
 5557SOL     OW17569   3.212   6.415   1.709
 5557SOL    HW117570   3.301   6.413   1.755
 5557SOL    HW217571   3.225   6.413   1.610
 5558SOL     OW17572   3.762   4.568   6.863
 5558SOL    HW117573   3.746   4.474   6.834
 5558SOL    HW217574   3.838   4.606   6.809
 5559SOL     OW17575   1.716   0.230   2.696
 5559SOL    HW117576   1.774   0.170   2.750
 5559SOL    HW217577   1.751   0.235   2.602
 5560SOL     OW17578   0.395   5.922   2.979
 5560SOL    HW117579   0.387   5.903   2.881
 5560SOL    HW217580   0.421   6.018   2.992
 5561SOL     OW17581   3.439   0.231   3.909
 5561SOL    HW117582   3.491   0.213   3.992
 5561SOL    HW217583   3.341   0.235   3.930
 5562SOL     OW17584   3.979   3.601   1.367
 5562SOL    HW117585   4.000   3.639   1.277
 5562SOL    HW217586   4.061   3.558   1.405
 5563SOL     OW17587   2.802   4.689   2.680
 5563SOL    HW117588   2.748   4.633   2.744
 5563SOL    HW217589   2.862   4.749   2.732
 5564SOL     OW17590   5.552   0.840   5.595
 5564SOL    HW117591   5.539   0.935   5.620
 5564SOL    HW217592   5.588   0.789   5.673
 5565SOL     OW17593   2.766   2.422   6.827
 5565SOL    HW117594   2.839   2.455   6.766
 5565SOL    HW217595   2.805   2.362   6.896
 5566SOL     OW17596   0.831   3.227   6.666
 5566SOL    HW117597   0.793   3.206   6.576
 5566SOL    HW217598   0.844   3.326   6.675
 5567SOL     OW17599   6.647   4.353   1.502
 5567SOL    HW117600   6.600   4.420   1.444
 5567SOL    HW217601   6.579   4.293   1.545
 5568SOL     OW17602   4.510   6.460   1.690
 5568SOL    HW117603   4.428   6.507   1.723
 5568SOL    HW217604   4.557   6.518   1.624
 5569SOL     OW17605   2.356   2.863   4.147
 5569SOL    HW117606   2.275   2.878   4.203
 5569SOL    HW217607   2.426   2.818   4.202
 5570SOL     OW17608   0.153   3.484   3.232
 5570SOL    HW117609   0.090   3.429   3.287
 5570SOL    HW217610   0.102   3.554   3.183
 5571SOL     OW17611   6.749   4.965   1.950
 5571SOL    HW117612   6.686   4.922   1.885
 5571SOL    HW217613   6.718   5.057   1.971
 5572SOL     OW17614   1.086   3.031   4.811
 5572SOL    HW117615   1.132   3.084   4.882
 5572SOL    HW217616   1.112   3.065   4.721
 5573SOL     OW17617   2.502   5.300   4.356
 5573SOL    HW117618   2.563   5.236   4.404
 5573SOL    HW217619   2.444   5.347   4.423
 5574SOL     OW17620   0.075   1.995   6.297
 5574SOL    HW117621   0.068   2.095   6.292
 5574SOL    HW217622   0.036   1.964   6.383
 5575SOL     OW17623   0.565   0.150   1.460
 5575SOL    HW117624   0.501   0.204   1.405
 5575SOL    HW217625   0.516   0.109   1.537
 5576SOL     OW17626   1.831   3.979   3.787
 5576SOL    HW117627   1.868   4.072   3.797
 5576SOL    HW217628   1.749   3.970   3.843
 5577SOL     OW17629   1.612   3.418   6.468
 5577SOL    HW117630   1.648   3.431   6.560
 5577SOL    HW217631   1.678   3.453   6.401
 5578SOL     OW17632   3.599   3.118   2.762
 5578SOL    HW117633   3.602   3.169   2.676
 5578SOL    HW217634   3.650   3.032   2.751
 5579SOL     OW17635   0.500   2.874   1.462
 5579SOL    HW117636   0.445   2.957   1.465
 5579SOL    HW217637   0.491   2.831   1.372
 5580SOL     OW17638   4.890   1.975   5.041
 5580SOL    HW117639   4.922   1.937   5.127
 5580SOL    HW217640   4.800   1.935   5.019
 5581SOL     OW17641   0.486   1.822   0.073
 5581SOL    HW117642   0.450   1.786   0.159
 5581SOL    HW217643   0.527   1.912   0.089
 5582SOL     OW17644   2.210   3.251   6.595
 5582SOL    HW117645   2.133   3.270   6.534
 5582SOL    HW217646   2.276   3.193   6.548
 5583SOL     OW17647   5.106   1.276   1.985
 5583SOL    HW117648   5.031   1.343   1.984
 5583SOL    HW217649   5.193   1.322   1.968
 5584SOL     OW17650   0.216   4.335   5.132
 5584SOL    HW117651   0.302   4.373   5.167
 5584SOL    HW217652   0.232   4.295   5.042
 5585SOL     OW17653   4.452   4.962   2.151
 5585SOL    HW117654   4.396   5.034   2.191
 5585SOL    HW217655   4.518   4.929   2.220
 5586SOL     OW17656   6.762   3.079   6.103
 5586SOL    HW117657   6.773   3.115   6.196
 5586SOL    HW217658   6.686   3.013   6.101
 5587SOL     OW17659   5.174   0.654   6.287
 5587SOL    HW117660   5.265   0.667   6.325
 5587SOL    HW217661   5.138   0.741   6.252
 5588SOL     OW17662   3.349   6.725   1.387
 5588SOL    HW117663   3.370   6.676   1.471
 5588SOL    HW217664   3.382   6.673   1.308
 5589SOL     OW17665   5.772   4.850   6.515
 5589SOL    HW117666   5.818   4.823   6.430
 5589SOL    HW217667   5.768   4.950   6.520
 5590SOL     OW17668   6.100   5.795   4.365
 5590SOL    HW117669   6.035   5.872   4.368
 5590SOL    HW217670   6.076   5.729   4.436
 5591SOL     OW17671   6.060   1.480   1.398
 5591SOL    HW117672   6.015   1.450   1.482
 5591SOL    HW217673   6.006   1.452   1.319
 5592SOL     OW17674   0.856   4.622   3.383
 5592SOL    HW117675   0.918   4.661   3.451
 5592SOL    HW217676   0.763   4.620   3.421
 5593SOL     OW17677   6.205   1.864   0.084
 5593SOL    HW117678   6.249   1.925   0.018
 5593SOL    HW217679   6.269   1.793   0.112
 5594SOL     OW17680   5.519   2.098   5.413
 5594SOL    HW117681   5.579   2.116   5.336
 5594SOL    HW217682   5.424   2.104   5.384
 5595SOL     OW17683   0.767   3.045   5.417
 5595SOL    HW117684   0.787   3.006   5.328
 5595SOL    HW217685   0.850   3.046   5.473
 5596SOL     OW17686   4.416   6.872   2.645
 5596SOL    HW117687   4.326   6.904   2.672
 5596SOL    HW217688   4.481   6.948   2.649
 5597SOL     OW17689   4.850   3.359   3.315
 5597SOL    HW117690   4.806   3.446   3.339
 5597SOL    HW217691   4.866   3.356   3.217
 5598SOL     OW17692   5.277   2.375   4.528
 5598SOL    HW117693   5.344   2.398   4.458
 5598SOL    HW217694   5.281   2.442   4.602
 5599SOL     OW17695   0.444   2.082   4.334
 5599SOL    HW117696   0.363   2.130   4.301
 5599SOL    HW217697   0.425   1.984   4.341
 5600SOL     OW17698   1.490   2.505   4.094
 5600SOL    HW117699   1.500   2.426   4.033
 5600SOL    HW217700   1.576   2.555   4.098
 5601SOL     OW17701   2.611   1.156   5.817
 5601SOL    HW117702   2.526   1.136   5.768
 5601SOL    HW217703   2.662   1.227   5.770
 5602SOL     OW17704   0.808   1.147   0.810
 5602SOL    HW117705   0.861   1.124   0.891
 5602SOL    HW217706   0.801   1.247   0.802
 5603SOL     OW17707   5.306   2.037   0.082
 5603SOL    HW117708   5.394   2.011   0.123
 5603SOL    HW217709   5.255   2.095   0.145
 5604SOL     OW17710   5.826   2.174   5.702
 5604SOL    HW117711   5.772   2.114   5.643
 5604SOL    HW217712   5.862   2.122   5.779
 5605SOL     OW17713   0.712   1.970   4.404
 5605SOL    HW117714   0.651   2.049   4.398
 5605SOL    HW217715   0.797   1.989   4.356
 5606SOL     OW17716   4.608   0.083   1.605
 5606SOL    HW117717   4.656   0.024   1.670
 5606SOL    HW217718   4.675   0.123   1.542
 5607SOL     OW17719   5.362   1.772   1.814
 5607SOL    HW117720   5.280   1.724   1.848
 5607SOL    HW217721   5.334   1.853   1.763
 5608SOL     OW17722   4.288   0.368   4.866
 5608SOL    HW117723   4.353   0.291   4.866
 5608SOL    HW217724   4.202   0.338   4.825
 5609SOL     OW17725   2.565   6.386   6.595
 5609SOL    HW117726   2.632   6.370   6.667
 5609SOL    HW217727   2.479   6.417   6.636
 5610SOL     OW17728   5.272   0.233   0.231
 5610SOL    HW117729   5.227   0.148   0.206
 5610SOL    HW217730   5.371   0.220   0.229
 5611SOL     OW17731   1.491   4.973   3.284
 5611SOL    HW117732   1.391   4.973   3.282
 5611SOL    HW217733   1.526   5.030   3.210
 5612SOL     OW17734   3.196   0.805   5.733
 5612SOL    HW117735   3.192   0.894   5.687
 5612SOL    HW217736   3.190   0.732   5.664
 5613SOL     OW17737   4.352   4.617   2.314
 5613SOL    HW117738   4.356   4.673   2.231
 5613SOL    HW217739   4.368   4.521   2.289
 5614SOL     OW17740   4.726   2.669   3.075
 5614SOL    HW117741   4.679   2.737   3.131
 5614SOL    HW217742   4.725   2.580   3.122
 5615SOL     OW17743   1.616   0.518   0.230
 5615SOL    HW117744   1.646   0.559   0.317
 5615SOL    HW217745   1.525   0.553   0.206
 5616SOL     OW17746   2.144   0.889   4.344
 5616SOL    HW117747   2.102   0.923   4.260
 5616SOL    HW217748   2.076   0.890   4.417
 5617SOL     OW17749   2.085   0.626   4.856
 5617SOL    HW117750   2.002   0.609   4.909
 5617SOL    HW217751   2.162   0.581   4.899
 5618SOL     OW17752   6.182   3.906   3.759
 5618SOL    HW117753   6.122   3.953   3.694
 5618SOL    HW217754   6.145   3.915   3.852
 5619SOL     OW17755   2.274   3.860   5.588
 5619SOL    HW117756   2.334   3.782   5.603
 5619SOL    HW217757   2.179   3.832   5.601
 5620SOL     OW17758   3.534   2.324   6.810
 5620SOL    HW117759   3.545   2.385   6.889
 5620SOL    HW217760   3.453   2.352   6.758
 5621SOL     OW17761   1.543   1.851   5.400
 5621SOL    HW117762   1.572   1.902   5.319
 5621SOL    HW217763   1.533   1.754   5.377
 5622SOL     OW17764   4.631   0.710   6.155
 5622SOL    HW117765   4.710   0.770   6.157
 5622SOL    HW217766   4.587   0.715   6.065
 5623SOL     OW17767   1.678   6.542   6.626
 5623SOL    HW117768   1.618   6.614   6.662
 5623SOL    HW217769   1.740   6.582   6.559
 5624SOL     OW17770   0.999   4.745   3.624
 5624SOL    HW117771   0.956   4.662   3.658
 5624SOL    HW217772   1.085   4.760   3.673
 5625SOL     OW17773   6.682   2.630   4.838
 5625SOL    HW117774   6.681   2.681   4.924
 5625SOL    HW217775   6.759   2.661   4.781
 5626SOL     OW17776   3.811   7.008   5.058
 5626SOL    HW117777   3.816   0.085   5.050
 5626SOL    HW217778   3.725   6.975   5.018
 5627SOL     OW17779   1.416   6.140   1.318
 5627SOL    HW117780   1.479   6.218   1.323
 5627SOL    HW217781   1.381   6.118   1.409
 5628SOL     OW17782   2.272   2.107   4.971
 5628SOL    HW117783   2.308   2.161   4.896
 5628SOL    HW217784   2.303   2.013   4.963
 5629SOL     OW17785   3.636   3.825   2.622
 5629SOL    HW117786   3.725   3.837   2.576
 5629SOL    HW217787   3.605   3.914   2.656
 5630SOL     OW17788   0.507   4.618   1.040
 5630SOL    HW117789   0.544   4.525   1.042
 5630SOL    HW217790   0.532   4.662   0.954
 5631SOL     OW17791   4.762   1.189   0.492
 5631SOL    HW117792   4.808   1.155   0.411
 5631SOL    HW217793   4.821   1.178   0.572
 5632SOL     OW17794   4.551   4.011   6.542
 5632SOL    HW117795   4.570   4.108   6.555
 5632SOL    HW217796   4.466   4.000   6.491
 5633SOL     OW17797   6.453   2.687   4.558
 5633SOL    HW117798   6.546   2.690   4.520
 5633SOL    HW217799   6.386   2.700   4.485
 5634SOL     OW17800   4.038   5.488   4.300
 5634SOL    HW117801   3.990   5.567   4.338
 5634SOL    HW217802   4.034   5.412   4.366
 5635SOL     OW17803   2.391   2.447   4.975
 5635SOL    HW117804   2.396   2.546   4.988
 5635SOL    HW217805   2.469   2.417   4.920
 5636SOL     OW17806   4.220   5.514   2.993
 5636SOL    HW117807   4.282   5.440   2.970
 5636SOL    HW217808   4.169   5.492   3.076
 5637SOL     OW17809   5.889   6.704   3.943
 5637SOL    HW117810   5.838   6.649   3.877
 5637SOL    HW217811   5.832   6.779   3.975
 5638SOL     OW17812   5.357   3.096   6.799
 5638SOL    HW117813   5.425   3.071   6.868
 5638SOL    HW217814   5.341   3.194   6.802
 5639SOL     OW17815   1.218   1.862   6.181
 5639SOL    HW117816   1.178   1.861   6.089
 5639SOL    HW217817   1.274   1.780   6.194
 5640SOL     OW17818   2.578   7.003   3.674
 5640SOL    HW117819   2.587   0.014   3.580
 5640SOL    HW217820   2.628   6.917   3.684
 5641SOL     OW17821   6.586   5.105   5.538
 5641SOL    HW117822   6.558   5.024   5.486
 5641SOL    HW217823   6.562   5.093   5.634
 5642SOL     OW17824   1.489   1.766   6.277
 5642SOL    HW117825   1.485   1.863   6.300
 5642SOL    HW217826   1.532   1.715   6.351
 5643SOL     OW17827   6.181   2.314   4.316
 5643SOL    HW117828   6.199   2.269   4.404
 5643SOL    HW217829   6.154   2.409   4.332
 5644SOL     OW17830   3.218   0.006   6.353
 5644SOL    HW117831   3.217   6.942   6.304
 5644SOL    HW217832   3.125   0.031   6.379
 5645SOL     OW17833   6.023   3.434   3.846
 5645SOL    HW117834   5.965   3.353   3.853
 5645SOL    HW217835   6.109   3.418   3.896
 5646SOL     OW17836   1.749   4.205   3.019
 5646SOL    HW117837   1.689   4.137   3.062
 5646SOL    HW217838   1.734   4.294   3.061
 5647SOL     OW17839   6.342   5.941   3.225
 5647SOL    HW117840   6.379   5.856   3.188
 5647SOL    HW217841   6.392   5.966   3.308
 5648SOL     OW17842   4.144   6.280   2.863
 5648SOL    HW117843   4.089   6.291   2.781
 5648SOL    HW217844   4.179   6.368   2.893
 5649SOL     OW17845   0.665   6.251   3.989
 5649SOL    HW117846   0.707   6.283   4.074
 5649SOL    HW217847   0.676   6.151   3.982
 5650SOL     OW17848   6.766   4.145   0.777
 5650SOL    HW117849   6.779   4.071   0.710
 5650SOL    HW217850   6.840   4.141   0.844
 5651SOL     OW17851   1.659   0.816   1.557
 5651SOL    HW117852   1.684   0.804   1.653
 5651SOL    HW217853   1.560   0.828   1.550
 5652SOL     OW17854   1.217   5.517   1.526
 5652SOL    HW117855   1.254   5.534   1.434
 5652SOL    HW217856   1.185   5.604   1.565
 5653SOL     OW17857   0.257   6.373   1.749
 5653SOL    HW117858   0.174   6.409   1.792
 5653SOL    HW217859   0.231   6.307   1.678
 5654SOL     OW17860   2.428   5.797   4.804
 5654SOL    HW117861   2.353   5.847   4.848
 5654SOL    HW217862   2.488   5.759   4.874
 5655SOL     OW17863   6.315   2.750   4.274
 5655SOL    HW117864   6.278   2.831   4.230
 5655SOL    HW217865   6.361   2.693   4.206
 5656SOL     OW17866   0.419   3.217   6.883
 5656SOL    HW117867   0.378   3.126   6.877
 5656SOL    HW217868   0.347   3.286   6.882
 5657SOL     OW17869   4.539   5.528   4.941
 5657SOL    HW117870   4.442   5.501   4.946
 5657SOL    HW217871   4.574   5.507   4.850
 5658SOL     OW17872   1.886   1.957   5.720
 5658SOL    HW117873   1.944   2.017   5.664
 5658SOL    HW217874   1.926   1.947   5.811
 5659SOL     OW17875   3.569   4.232   6.329
 5659SOL    HW117876   3.666   4.212   6.343
 5659SOL    HW217877   3.550   4.326   6.358
 5660SOL     OW17878   4.263   0.367   6.717
 5660SOL    HW117879   4.318   0.406   6.790
 5660SOL    HW217880   4.319   0.357   6.635
 5661SOL     OW17881   0.902   5.421   5.804
 5661SOL    HW117882   0.995   5.383   5.808
 5661SOL    HW217883   0.885   5.457   5.712
 5662SOL     OW17884   2.633   6.176   2.270
 5662SOL    HW117885   2.723   6.217   2.254
 5662SOL    HW217886   2.629   6.086   2.226
 5663SOL     OW17887   1.092   2.769   0.424
 5663SOL    HW117888   1.071   2.866   0.433
 5663SOL    HW217889   1.145   2.754   0.341
 5664SOL     OW17890   5.108   4.169   4.350
 5664SOL    HW117891   5.118   4.116   4.434
 5664SOL    HW217892   5.170   4.247   4.353
 5665SOL     OW17893   2.618   1.227   1.097
 5665SOL    HW117894   2.700   1.243   1.154
 5665SOL    HW217895   2.561   1.157   1.140
 5666SOL     OW17896   5.948   1.098   4.961
 5666SOL    HW117897   6.006   1.040   4.904
 5666SOL    HW217898   5.853   1.093   4.928
 5667SOL     OW17899   2.663   5.392   4.763
 5667SOL    HW117900   2.686   5.332   4.840
 5667SOL    HW217901   2.743   5.403   4.705
 5668SOL     OW17902   5.406   3.107   3.418
 5668SOL    HW117903   5.344   3.131   3.492
 5668SOL    HW217904   5.481   3.173   3.414
 5669SOL     OW17905   6.385   4.279   6.610
 5669SOL    HW117906   6.400   4.346   6.682
 5669SOL    HW217907   6.455   4.207   6.617
 5670SOL     OW17908   1.211   2.164   2.137
 5670SOL    HW117909   1.266   2.228   2.190
 5670SOL    HW217910   1.130   2.137   2.190
 5671SOL     OW17911   0.474   6.944   3.217
 5671SOL    HW117912   0.419   6.929   3.299
 5671SOL    HW217913   0.463   0.016   3.187
 5672SOL     OW17914   5.050   3.706   5.338
 5672SOL    HW117915   5.097   3.704   5.249
 5672SOL    HW217916   5.117   3.704   5.411
 5673SOL     OW17917   0.792   0.612   0.789
 5673SOL    HW117918   0.813   0.709   0.795
 5673SOL    HW217919   0.741   0.594   0.705
 5674SOL     OW17920   2.001   5.457   5.482
 5674SOL    HW117921   2.025   5.365   5.513
 5674SOL    HW217922   2.075   5.494   5.426
 5675SOL     OW17923   2.178   2.011   0.318
 5675SOL    HW117924   2.132   2.057   0.393
 5675SOL    HW217925   2.112   1.957   0.266
 5676SOL     OW17926   2.685   2.045   1.713
 5676SOL    HW117927   2.673   2.110   1.788
 5676SOL    HW217928   2.750   2.083   1.646
 5677SOL     OW17929   6.899   0.740   1.330
 5677SOL    HW117930   6.840   0.666   1.363
 5677SOL    HW217931   6.971   0.758   1.397
 5678SOL     OW17932   3.381   1.962   1.865
 5678SOL    HW117933   3.314   1.917   1.806
 5678SOL    HW217934   3.467   1.910   1.862
 5679SOL     OW17935   5.764   3.566   5.313
 5679SOL    HW117936   5.802   3.506   5.242
 5679SOL    HW217937   5.777   3.662   5.285
 5680SOL     OW17938   1.826   5.829   5.838
 5680SOL    HW117939   1.837   5.927   5.820
 5680SOL    HW217940   1.805   5.815   5.934
 5681SOL     OW17941   0.775   3.847   3.126
 5681SOL    HW117942   0.805   3.754   3.103
 5681SOL    HW217943   0.685   3.863   3.086
 5682SOL     OW17944   2.327   4.168   1.902
 5682SOL    HW117945   2.295   4.173   1.997
 5682SOL    HW217946   2.271   4.103   1.852
 5683SOL     OW17947   5.340   1.420   6.405
 5683SOL    HW117948   5.363   1.510   6.441
 5683SOL    HW217949   5.287   1.369   6.473
 5684SOL     OW17950   2.127   2.597   5.306
 5684SOL    HW117951   2.221   2.566   5.289
 5684SOL    HW217952   2.074   2.590   5.222
 5685SOL     OW17953   2.611   1.640   3.675
 5685SOL    HW117954   2.557   1.601   3.750
 5685SOL    HW217955   2.694   1.586   3.663
 5686SOL     OW17956   3.602   6.353   6.496
 5686SOL    HW117957   3.598   6.256   6.474
 5686SOL    HW217958   3.661   6.367   6.576
 5687SOL     OW17959   2.495   6.580   6.150
 5687SOL    HW117960   2.594   6.590   6.141
 5687SOL    HW217961   2.475   6.515   6.224
 5688SOL     OW17962   2.146   2.994   3.355
 5688SOL    HW117963   2.171   3.080   3.310
 5688SOL    HW217964   2.148   3.008   3.455
 5689SOL     OW17965   0.779   1.750   1.587
 5689SOL    HW117966   0.823   1.729   1.674
 5689SOL    HW217967   0.706   1.816   1.602
 5690SOL     OW17968   1.540   5.871   0.073
 5690SOL    HW117969   1.521   5.946   0.011
 5690SOL    HW217970   1.638   5.848   0.070
 5691SOL     OW17971   3.935   1.184   2.718
 5691SOL    HW117972   3.848   1.202   2.673
 5691SOL    HW217973   3.925   1.107   2.781
 5692SOL     OW17974   4.155   5.065   1.060
 5692SOL    HW117975   4.153   5.163   1.039
 5692SOL    HW217976   4.079   5.020   1.014
 5693SOL     OW17977   3.929   1.219   1.327
 5693SOL    HW117978   3.944   1.201   1.230
 5693SOL    HW217979   3.831   1.232   1.345
 5694SOL     OW17980   0.900   6.869   2.162
 5694SOL    HW117981   0.887   6.922   2.078
 5694SOL    HW217982   0.915   6.932   2.238
 5695SOL     OW17983   1.616   0.499   0.824
 5695SOL    HW117984   1.542   0.555   0.788
 5695SOL    HW217985   1.650   0.540   0.909
 5696SOL     OW17986   1.727   6.708   3.905
 5696SOL    HW117987   1.759   6.790   3.952
 5696SOL    HW217988   1.714   6.634   3.971
 5697SOL     OW17989   6.285   2.577   0.117
 5697SOL    HW117990   6.253   2.489   0.081
 5697SOL    HW217991   6.381   2.590   0.091
 5698SOL     OW17992   2.576   2.525   3.657
 5698SOL    HW117993   2.563   2.519   3.558
 5698SOL    HW217994   2.531   2.608   3.691
 5699SOL     OW17995   2.155   2.572   2.798
 5699SOL    HW117996   2.055   2.576   2.793
 5699SOL    HW217997   2.182   2.554   2.893
 5700SOL     OW17998   6.103   0.734   3.603
 5700SOL    HW117999   6.197   0.708   3.582
 5700SOL    HW218000   6.102   0.795   3.682
 5701SOL     OW18001   0.226   0.802   1.276
 5701SOL    HW118002   0.325   0.796   1.286
 5701SOL    HW218003   0.197   0.738   1.205
 5702SOL     OW18004   2.363   6.763   4.673
 5702SOL    HW118005   2.298   6.836   4.652
 5702SOL    HW218006   2.448   6.779   4.623
 5703SOL     OW18007   6.879   2.710   6.699
 5703SOL    HW118008   6.876   2.801   6.742
 5703SOL    HW218009   6.801   2.700   6.638
 5704SOL     OW18010   5.233   4.499   3.846
 5704SOL    HW118011   5.290   4.419   3.824
 5704SOL    HW218012   5.271   4.546   3.925
 5705SOL     OW18013   6.033   6.690   5.976
 5705SOL    HW118014   5.972   6.685   5.898
 5705SOL    HW218015   6.110   6.750   5.955
 5706SOL     OW18016   5.105   2.256   6.940
 5706SOL    HW118017   5.007   2.235   6.940
 5706SOL    HW218018   5.157   2.175   6.967
 5707SOL     OW18019   5.629   5.950   2.676
 5707SOL    HW118020   5.684   5.917   2.752
 5707SOL    HW218021   5.686   5.960   2.595
 5708SOL     OW18022   4.421   5.681   2.903
 5708SOL    HW118023   4.401   5.681   2.805
 5708SOL    HW218024   4.340   5.649   2.953
 5709SOL     OW18025   0.796   1.530   2.325
 5709SOL    HW118026   0.734   1.467   2.278
 5709SOL    HW218027   0.889   1.516   2.292
 5710SOL     OW18028   2.417   2.118   0.749
 5710SOL    HW118029   2.506   2.132   0.793
 5710SOL    HW218030   2.379   2.206   0.723
 5711SOL     OW18031   5.408   2.528   2.269
 5711SOL    HW118032   5.313   2.515   2.296
 5711SOL    HW218033   5.419   2.618   2.227
 5712SOL     OW18034   6.279   6.347   1.378
 5712SOL    HW118035   6.291   6.352   1.279
 5712SOL    HW218036   6.216   6.273   1.400
 5713SOL     OW18037   2.256   6.338   0.789
 5713SOL    HW118038   2.160   6.314   0.781
 5713SOL    HW218039   2.308   6.257   0.819
 5714SOL     OW18040   6.428   6.722   1.253
 5714SOL    HW118041   6.374   6.637   1.254
 5714SOL    HW218042   6.502   6.715   1.320
 5715SOL     OW18043   0.823   0.179   1.420
 5715SOL    HW118044   0.726   0.161   1.437
 5715SOL    HW218045   0.838   0.278   1.415
 5716SOL     OW18046   6.739   4.526   6.132
 5716SOL    HW118047   6.651   4.572   6.124
 5716SOL    HW218048   6.798   4.578   6.193
 5717SOL     OW18049   1.225   4.999   2.916
 5717SOL    HW118050   1.244   4.925   2.851
 5717SOL    HW218051   1.160   4.967   2.985
 5718SOL     OW18052   0.612   3.532   0.434
 5718SOL    HW118053   0.551   3.566   0.362
 5718SOL    HW218054   0.706   3.557   0.412
 5719SOL     OW18055   2.590   3.867   0.818
 5719SOL    HW118056   2.535   3.943   0.852
 5719SOL    HW218057   2.546   3.827   0.738
 5720SOL     OW18058   2.296   4.846   5.637
 5720SOL    HW118059   2.364   4.847   5.564
 5720SOL    HW218060   2.241   4.763   5.631
 5721SOL     OW18061   4.138   4.120   0.144
 5721SOL    HW118062   4.237   4.126   0.143
 5721SOL    HW218063   4.104   4.138   0.237
 5722SOL     OW18064   0.339   0.775   5.790
 5722SOL    HW118065   0.255   0.771   5.735
 5722SOL    HW218066   0.396   0.850   5.757
 5723SOL     OW18067   4.357   3.129   6.796
 5723SOL    HW118068   4.371   3.202   6.863
 5723SOL    HW218069   4.433   3.064   6.801
 5724SOL     OW18070   5.702   2.439   3.692
 5724SOL    HW118071   5.679   2.536   3.704
 5724SOL    HW218072   5.629   2.382   3.729
 5725SOL     OW18073   6.742   3.897   3.856
 5725SOL    HW118074   6.643   3.884   3.860
 5725SOL    HW218075   6.770   3.917   3.763
 5726SOL     OW18076   5.128   4.780   2.571
 5726SOL    HW118077   5.052   4.754   2.512
 5726SOL    HW218078   5.097   4.848   2.637
 5727SOL     OW18079   0.588   2.393   5.110
 5727SOL    HW118080   0.502   2.424   5.151
 5727SOL    HW218081   0.574   2.379   5.012
 5728SOL     OW18082   5.047   6.206   4.739
 5728SOL    HW118083   5.029   6.291   4.788
 5728SOL    HW218084   5.085   6.139   4.802
 5729SOL     OW18085   1.944   1.618   5.353
 5729SOL    HW118086   1.954   1.706   5.398
 5729SOL    HW218087   2.006   1.552   5.396
 5730SOL     OW18088   6.561   4.122   5.418
 5730SOL    HW118089   6.580   4.109   5.321
 5730SOL    HW218090   6.648   4.132   5.467
 5731SOL     OW18091   0.700   6.351   1.813
 5731SOL    HW118092   0.715   6.345   1.912
 5731SOL    HW218093   0.625   6.414   1.795
 5732SOL     OW18094   1.327   6.952   3.731
 5732SOL    HW118095   1.300   6.875   3.788
 5732SOL    HW218096   1.287   0.014   3.767
 5733SOL     OW18097   3.839   0.372   5.324
 5733SOL    HW118098   3.834   0.306   5.399
 5733SOL    HW218099   3.860   0.463   5.361
 5734SOL     OW18100   2.177   6.326   2.620
 5734SOL    HW118101   2.219   6.410   2.584
 5734SOL    HW218102   2.157   6.265   2.544
 5735SOL     OW18103   2.991   1.614   1.881
 5735SOL    HW118104   3.089   1.597   1.870
 5735SOL    HW218105   2.946   1.531   1.914
 5736SOL     OW18106   1.544   5.326   0.172
 5736SOL    HW118107   1.579   5.332   0.265
 5736SOL    HW218108   1.454   5.283   0.173
 5737SOL     OW18109   5.266   4.825   1.013
 5737SOL    HW118110   5.238   4.769   0.935
 5737SOL    HW218111   5.322   4.770   1.075
 5738SOL     OW18112   1.469   4.192   5.956
 5738SOL    HW118113   1.418   4.172   6.040
 5738SOL    HW218114   1.550   4.134   5.951
 5739SOL     OW18115   0.926   1.061   1.047
 5739SOL    HW118116   1.026   1.066   1.046
 5739SOL    HW218117   0.897   0.967   1.030
 5740SOL     OW18118   4.096   6.192   6.403
 5740SOL    HW118119   4.171   6.134   6.434
 5740SOL    HW218120   4.014   6.174   6.457
 5741SOL     OW18121   0.585   4.874   3.541
 5741SOL    HW118122   0.651   4.940   3.577
 5741SOL    HW218123   0.506   4.923   3.503
 5742SOL     OW18124   6.681   6.513   4.236
 5742SOL    HW118125   6.728   6.575   4.299
 5742SOL    HW218126   6.692   6.545   4.142
 5743SOL     OW18127   1.803   6.562   5.474
 5743SOL    HW118128   1.890   6.538   5.431
 5743SOL    HW218129   1.802   6.660   5.494
 5744SOL     OW18130   5.798   0.073   2.410
 5744SOL    HW118131   5.735   7.022   2.433
 5744SOL    HW218132   5.891   0.044   2.429
 5745SOL     OW18133   1.087   1.878   3.831
 5745SOL    HW118134   1.168   1.838   3.788
 5745SOL    HW218135   1.061   1.961   3.782
 5746SOL     OW18136   5.802   3.733   0.218
 5746SOL    HW118137   5.742   3.680   0.277
 5746SOL    HW218138   5.833   3.677   0.142
 5747SOL     OW18139   1.200   5.833   3.111
 5747SOL    HW118140   1.245   5.921   3.105
 5747SOL    HW218141   1.114   5.842   3.160
 5748SOL     OW18142   2.586   6.182   2.742
 5748SOL    HW118143   2.589   6.222   2.833
 5748SOL    HW218144   2.548   6.089   2.747
 5749SOL     OW18145   2.447   1.774   3.503
 5749SOL    HW118146   2.423   1.853   3.560
 5749SOL    HW218147   2.502   1.710   3.557
 5750SOL     OW18148   6.660   5.779   2.623
 5750SOL    HW118149   6.666   5.859   2.563
 5750SOL    HW218150   6.728   5.711   2.595
 5751SOL     OW18151   2.329   4.165   6.053
 5751SOL    HW118152   2.280   4.095   6.001
 5751SOL    HW218153   2.271   4.246   6.063
 5752SOL     OW18154   6.690   0.289   6.912
 5752SOL    HW118155   6.702   0.373   6.966
 5752SOL    HW218156   6.622   0.305   6.840
 5753SOL     OW18157   3.446   2.400   0.279
 5753SOL    HW118158   3.461   2.303   0.260
 5753SOL    HW218159   3.534   2.445   0.295
 5754SOL     OW18160   6.134   4.488   1.266
 5754SOL    HW118161   6.103   4.402   1.227
 5754SOL    HW218162   6.119   4.562   1.199
 5755SOL     OW18163   3.629   3.902   1.429
 5755SOL    HW118164   3.556   3.866   1.371
 5755SOL    HW218165   3.686   3.827   1.462
 5756SOL     OW18166   0.273   6.349   4.594
 5756SOL    HW118167   0.298   6.266   4.646
 5756SOL    HW218168   0.174   6.363   4.599
 5757SOL     OW18169   0.377   5.047   1.318
 5757SOL    HW118170   0.445   4.987   1.276
 5757SOL    HW218171   0.335   5.000   1.395
 5758SOL     OW18172   0.852   1.890   5.563
 5758SOL    HW118173   0.858   1.990   5.562
 5758SOL    HW218174   0.791   1.860   5.489
 5759SOL     OW18175   5.318   1.856   4.837
 5759SOL    HW118176   5.304   1.949   4.870
 5759SOL    HW218177   5.246   1.834   4.770
 5760SOL     OW18178   1.645   5.402   2.209
 5760SOL    HW118179   1.657   5.502   2.214
 5760SOL    HW218180   1.552   5.382   2.178
 5761SOL     OW18181   5.016   6.976   4.816
 5761SOL    HW118182   4.982   6.954   4.908
 5761SOL    HW218183   4.984   6.906   4.752
 5762SOL     OW18184   5.665   6.120   1.685
 5762SOL    HW118185   5.665   6.137   1.784
 5762SOL    HW218186   5.689   6.025   1.668
 5763SOL     OW18187   0.924   1.070   1.713
 5763SOL    HW118188   0.988   1.113   1.649
 5763SOL    HW218189   0.832   1.105   1.696
 5764SOL     OW18190   4.066   3.779   5.316
 5764SOL    HW118191   4.142   3.798   5.378
 5764SOL    HW218192   4.032   3.866   5.278
 5765SOL     OW18193   5.399   4.561   0.739
 5765SOL    HW118194   5.472   4.594   0.799
 5765SOL    HW218195   5.315   4.611   0.758
 5766SOL     OW18196   2.977   1.411   3.373
 5766SOL    HW118197   3.018   1.452   3.455
 5766SOL    HW218198   2.878   1.423   3.375
 5767SOL     OW18199   0.128   6.358   1.411
 5767SOL    HW118200   0.148   6.260   1.419
 5767SOL    HW218201   0.206   6.411   1.444
 5768SOL     OW18202   6.635   1.490   3.021
 5768SOL    HW118203   6.621   1.445   3.109
 5768SOL    HW218204   6.727   1.473   2.988
 5769SOL     OW18205   2.473   5.362   3.535
 5769SOL    HW118206   2.408   5.295   3.570
 5769SOL    HW218207   2.470   5.364   3.435
 5770SOL     OW18208   6.288   0.433   1.689
 5770SOL    HW118209   6.242   0.346   1.705
 5770SOL    HW218210   6.378   0.431   1.733
 5771SOL     OW18211   0.583   1.615   1.916
 5771SOL    HW118212   0.683   1.608   1.921
 5771SOL    HW218213   0.549   1.553   1.845
 5772SOL     OW18214   6.532   4.099   0.168
 5772SOL    HW118215   6.439   4.061   0.168
 5772SOL    HW218216   6.591   4.040   0.112
 5773SOL     OW18217   5.876   5.761   4.027
 5773SOL    HW118218   5.947   5.700   4.063
 5773SOL    HW218219   5.802   5.769   4.094
 5774SOL     OW18220   2.205   5.084   3.264
 5774SOL    HW118221   2.119   5.112   3.307
 5774SOL    HW218222   2.257   5.027   3.327
 5775SOL     OW18223   0.012   0.304   0.321
 5775SOL    HW118224   6.953   0.329   0.373
 5775SOL    HW218225   0.019   0.361   0.239
 5776SOL     OW18226   5.481   1.099   5.670
 5776SOL    HW118227   5.531   1.152   5.739
 5776SOL    HW218228   5.383   1.109   5.686
 5777SOL     OW18229   6.611   0.668   5.218
 5777SOL    HW118230   6.626   0.686   5.121
 5777SOL    HW218231   6.583   0.752   5.265
 5778SOL     OW18232   2.664   0.060   3.975
 5778SOL    HW118233   2.609   0.089   3.897
 5778SOL    HW218234   2.709   6.996   3.954
 5779SOL     OW18235   4.271   1.009   2.514
 5779SOL    HW118236   4.180   1.039   2.488
 5779SOL    HW218237   4.277   0.909   2.508
 5780SOL     OW18238   6.076   3.710   1.628
 5780SOL    HW118239   6.013   3.787   1.632
 5780SOL    HW218240   6.027   3.629   1.594
 5781SOL     OW18241   2.420   5.256   4.949
 5781SOL    HW118242   2.443   5.164   4.981
 5781SOL    HW218243   2.397   5.253   4.852
 5782SOL     OW18244   2.673   1.314   2.861
 5782SOL    HW118245   2.616   1.318   2.780
 5782SOL    HW218246   2.770   1.313   2.834
 5783SOL     OW18247   2.189   6.914   0.915
 5783SOL    HW118248   2.111   6.930   0.976
 5783SOL    HW218249   2.170   6.834   0.858
 5784SOL     OW18250   1.838   5.633   6.959
 5784SOL    HW118251   1.856   5.654   0.032
 5784SOL    HW218252   1.871   5.541   6.938
 5785SOL     OW18253   2.128   1.537   0.199
 5785SOL    HW118254   2.192   1.552   0.275
 5785SOL    HW218255   2.079   1.451   0.214
 5786SOL     OW18256   1.358   3.204   1.135
 5786SOL    HW118257   1.267   3.225   1.099
 5786SOL    HW218258   1.350   3.156   1.222
 5787SOL     OW18259   6.946   2.932   5.870
 5787SOL    HW118260   6.962   2.996   5.795
 5787SOL    HW218261   6.893   2.976   5.942
 5788SOL     OW18262   2.052   2.347   1.968
 5788SOL    HW118263   2.055   2.425   2.030
 5788SOL    HW218264   1.978   2.360   1.902
 5789SOL     OW18265   3.101   5.138   0.008
 5789SOL    HW118266   3.173   5.197   6.994
 5789SOL    HW218267   3.116   5.044   7.000
 5790SOL     OW18268   6.199   5.889   3.635
 5790SOL    HW118269   6.294   5.861   3.621
 5790SOL    HW218270   6.169   5.860   3.725
 5791SOL     OW18271   4.190   1.303   2.226
 5791SOL    HW118272   4.272   1.266   2.268
 5791SOL    HW218273   4.214   1.383   2.170
 5792SOL     OW18274   4.772   2.911   2.607
 5792SOL    HW118275   4.789   2.928   2.704
 5792SOL    HW218276   4.784   2.814   2.588
 5793SOL     OW18277   3.906   2.632   6.500
 5793SOL    HW118278   3.951   2.551   6.461
 5793SOL    HW218279   3.846   2.604   6.574
 5794SOL     OW18280   4.048   6.566   0.006
 5794SOL    HW118281   4.094   6.635   0.061
 5794SOL    HW218282   3.968   6.532   0.055
 5795SOL     OW18283   2.430   6.045   1.386
 5795SOL    HW118284   2.362   6.099   1.436
 5795SOL    HW218285   2.385   5.965   1.346
 5796SOL     OW18286   5.341   0.772   6.552
 5796SOL    HW118287   5.327   0.676   6.578
 5796SOL    HW218288   5.252   0.815   6.537
 5797SOL     OW18289   6.344   2.730   1.184
 5797SOL    HW118290   6.269   2.737   1.119
 5797SOL    HW218291   6.350   2.636   1.218
 5798SOL     OW18292   1.604   3.742   4.761
 5798SOL    HW118293   1.648   3.690   4.835
 5798SOL    HW218294   1.665   3.816   4.732
 5799SOL     OW18295   2.581   6.705   3.651
 5799SOL    HW118296   2.505   6.641   3.641
 5799SOL    HW218297   2.578   6.747   3.742
 5800SOL     OW18298   1.636   0.428   1.574
 5800SOL    HW118299   1.589   0.362   1.516
 5800SOL    HW218300   1.570   0.474   1.633
 5801SOL     OW18301   2.250   1.662   1.947
 5801SOL    HW118302   2.235   1.729   1.874
 5801SOL    HW218303   2.218   1.572   1.917
 5802SOL     OW18304   0.766   0.415   1.964
 5802SOL    HW118305   0.851   0.424   2.017
 5802SOL    HW218306   0.692   0.385   2.025
 5803SOL     OW18307   0.394   5.786   4.246
 5803SOL    HW118308   0.374   5.691   4.269
 5803SOL    HW218309   0.391   5.798   4.147
 5804SOL     OW18310   5.872   1.858   2.837
 5804SOL    HW118311   5.776   1.841   2.814
 5804SOL    HW218312   5.875   1.922   2.914
 5805SOL     OW18313   1.547   2.488   1.939
 5805SOL    HW118314   1.602   2.429   1.881
 5805SOL    HW218315   1.459   2.505   1.895
 5806SOL     OW18316   6.676   4.112   1.973
 5806SOL    HW118317   6.587   4.096   1.931
 5806SOL    HW218318   6.707   4.205   1.950
 5807SOL     OW18319   2.268   0.962   1.494
 5807SOL    HW118320   2.327   0.937   1.417
 5807SOL    HW218321   2.281   0.897   1.569
 5808SOL     OW18322   6.819   0.269   5.478
 5808SOL    HW118323   6.897   0.245   5.421
 5808SOL    HW218324   6.850   0.326   5.554
 5809SOL     OW18325   6.970   2.183   5.283
 5809SOL    HW118326   0.044   2.191   5.256
 5809SOL    HW218327   6.955   2.234   5.367
 5810SOL     OW18328   2.993   6.389   5.181
 5810SOL    HW118329   3.068   6.426   5.127
 5810SOL    HW218330   2.945   6.320   5.127
 5811SOL     OW18331   4.108   4.614   6.388
 5811SOL    HW118332   4.206   4.598   6.377
 5811SOL    HW218333   4.091   4.712   6.397
 5812SOL     OW18334   5.153   2.867   6.941
 5812SOL    HW118335   5.223   2.934   6.917
 5812SOL    HW218336   5.188   2.805   7.011
 5813SOL     OW18337   4.736   5.599   0.514
 5813SOL    HW118338   4.704   5.540   0.588
 5813SOL    HW218339   4.750   5.692   0.549
 5814SOL     OW18340   5.349   1.342   1.918
 5814SOL    HW118341   5.385   1.401   1.846
 5814SOL    HW218342   5.414   1.268   1.936
 5815SOL     OW18343   6.441   2.686   4.032
 5815SOL    HW118344   6.459   2.633   3.949
 5815SOL    HW218345   6.486   2.775   4.026
 5816SOL     OW18346   0.152   3.610   2.783
 5816SOL    HW118347   0.169   3.608   2.684
 5816SOL    HW218348   0.136   3.517   2.816
 5817SOL     OW18349   5.909   3.775   3.522
 5817SOL    HW118350   5.948   3.823   3.444
 5817SOL    HW218351   5.930   3.825   3.606
 5818SOL     OW18352   2.410   0.882   4.422
 5818SOL    HW118353   2.433   0.815   4.493
 5818SOL    HW218354   2.316   0.867   4.392
 5819SOL     OW18355   4.114   4.556   0.543
 5819SOL    HW118356   4.023   4.554   0.583
 5819SOL    HW218357   4.174   4.495   0.595
 5820SOL     OW18358   5.990   6.418   2.644
 5820SOL    HW118359   6.048   6.337   2.651
 5820SOL    HW218360   5.926   6.407   2.568
 5821SOL     OW18361   0.070   0.182   1.404
 5821SOL    HW118362   0.032   0.274   1.408
 5821SOL    HW218363   0.164   0.186   1.371
 5822SOL     OW18364   1.470   3.729   3.318
 5822SOL    HW118365   1.404   3.673   3.368
 5822SOL    HW218366   1.489   3.687   3.229
 5823SOL     OW18367   1.635   5.859   3.400
 5823SOL    HW118368   1.675   5.938   3.355
 5823SOL    HW218369   1.678   5.776   3.367
 5824SOL     OW18370   1.276   0.025   2.390
 5824SOL    HW118371   1.289   6.951   2.409
 5824SOL    HW218372   1.254   0.038   2.294
 5825SOL     OW18373   5.103   1.429   4.034
 5825SOL    HW118374   5.158   1.439   3.951
 5825SOL    HW218375   5.164   1.419   4.113
 5826SOL     OW18376   1.250   6.694   5.774
 5826SOL    HW118377   1.163   6.645   5.767
 5826SOL    HW218378   1.326   6.629   5.766
 5827SOL     OW18379   2.026   4.286   3.648
 5827SOL    HW118380   2.066   4.198   3.622
 5827SOL    HW218381   1.942   4.269   3.700
 5828SOL     OW18382   3.818   0.726   5.424
 5828SOL    HW118383   3.904   0.777   5.427
 5828SOL    HW218384   3.743   0.788   5.401
 5829SOL     OW18385   2.295   0.632   3.429
 5829SOL    HW118386   2.226   0.699   3.403
 5829SOL    HW218387   2.290   0.552   3.369
 5830SOL     OW18388   4.026   4.929   4.546
 5830SOL    HW118389   3.929   4.911   4.563
 5830SOL    HW218390   4.082   4.868   4.602
 5831SOL     OW18391   1.649   2.217   5.215
 5831SOL    HW118392   1.683   2.155   5.287
 5831SOL    HW218393   1.715   2.220   5.140
 5832SOL     OW18394   3.015   5.215   2.068
 5832SOL    HW118395   3.006   5.314   2.078
 5832SOL    HW218396   3.040   5.174   2.155
 5833SOL     OW18397   3.892   5.205   0.131
 5833SOL    HW118398   3.957   5.170   0.063
 5833SOL    HW218399   3.942   5.239   0.211
 5834SOL     OW18400   5.821   2.669   6.696
 5834SOL    HW118401   5.806   2.686   6.599
 5834SOL    HW218402   5.876   2.744   6.735
 5835SOL     OW18403   4.956   2.270   3.057
 5835SOL    HW118404   4.980   2.175   3.081
 5835SOL    HW218405   4.968   2.283   2.958
 5836SOL     OW18406   4.989   6.173   2.830
 5836SOL    HW118407   4.951   6.167   2.738
 5836SOL    HW218408   5.086   6.195   2.825
 5837SOL     OW18409   2.805   5.549   6.301
 5837SOL    HW118410   2.745   5.601   6.240
 5837SOL    HW218411   2.759   5.466   6.332
 5838SOL     OW18412   3.998   2.698   0.445
 5838SOL    HW118413   4.005   2.739   0.536
 5838SOL    HW218414   3.934   2.751   0.389
 5839SOL     OW18415   1.645   2.497   0.274
 5839SOL    HW118416   1.641   2.546   0.361
 5839SOL    HW218417   1.622   2.560   0.200
 5840SOL     OW18418   0.119   3.270   3.574
 5840SOL    HW118419   0.114   3.183   3.623
 5840SOL    HW218420   0.028   3.311   3.571
 5841SOL     OW18421   4.987   1.147   0.732
 5841SOL    HW118422   4.963   1.237   0.769
 5841SOL    HW218423   4.925   1.078   0.771
 5842SOL     OW18424   2.212   2.340   0.939
 5842SOL    HW118425   2.132   2.308   0.889
 5842SOL    HW218426   2.281   2.372   0.873
 5843SOL     OW18427   2.846   3.817   0.820
 5843SOL    HW118428   2.875   3.883   0.888
 5843SOL    HW218429   2.746   3.813   0.818
 5844SOL     OW18430   0.620   5.982   4.771
 5844SOL    HW118431   0.656   5.903   4.720
 5844SOL    HW218432   0.640   6.066   4.720
 5845SOL     OW18433   1.618   6.975   2.489
 5845SOL    HW118434   1.717   6.965   2.493
 5845SOL    HW218435   1.580   6.968   2.582
 5846SOL     OW18436   0.059   3.873   5.373
 5846SOL    HW118437   0.132   3.827   5.424
 5846SOL    HW218438   0.079   3.971   5.368
 5847SOL     OW18439   1.718   3.936   6.566
 5847SOL    HW118440   1.730   4.024   6.612
 5847SOL    HW218441   1.771   3.936   6.481
 5848SOL     OW18442   1.688   5.362   2.503
 5848SOL    HW118443   1.629   5.407   2.436
 5848SOL    HW218444   1.782   5.361   2.469
 5849SOL     OW18445   3.485   5.875   5.789
 5849SOL    HW118446   3.403   5.843   5.836
 5849SOL    HW218447   3.466   5.962   5.743
 5850SOL     OW18448   0.759   1.111   2.161
 5850SOL    HW118449   0.845   1.065   2.141
 5850SOL    HW218450   0.697   1.102   2.082
 5851SOL     OW18451   6.390   3.576   4.275
 5851SOL    HW118452   6.301   3.619   4.290
 5851SOL    HW218453   6.393   3.488   4.324
 5852SOL     OW18454   5.015   4.288   2.187
 5852SOL    HW118455   4.995   4.341   2.105
 5852SOL    HW218456   5.114   4.283   2.200
 5853SOL     OW18457   4.977   5.083   6.132
 5853SOL    HW118458   4.976   5.052   6.037
 5853SOL    HW218459   4.883   5.092   6.165
 5854SOL     OW18460   3.273   4.730   5.452
 5854SOL    HW118461   3.351   4.786   5.425
 5854SOL    HW218462   3.188   4.782   5.437
 5855SOL     OW18463   2.205   2.874   3.072
 5855SOL    HW118464   2.232   2.908   2.982
 5855SOL    HW218465   2.231   2.941   3.142
 5856SOL     OW18466   1.253   5.689   2.890
 5856SOL    HW118467   1.225   5.755   2.959
 5856SOL    HW218468   1.197   5.702   2.807
 5857SOL     OW18469   5.522   5.092   6.672
 5857SOL    HW118470   5.599   5.088   6.736
 5857SOL    HW218471   5.438   5.112   6.723
 5858SOL     OW18472   1.902   0.840   2.387
 5858SOL    HW118473   1.857   0.796   2.464
 5858SOL    HW218474   1.973   0.902   2.420
 5859SOL     OW18475   5.395   5.691   1.306
 5859SOL    HW118476   5.337   5.620   1.347
 5859SOL    HW218477   5.483   5.652   1.281
 5860SOL     OW18478   0.243   3.944   3.205
 5860SOL    HW118479   0.281   3.881   3.137
 5860SOL    HW218480   0.264   4.038   3.180
 5861SOL     OW18481   5.079   0.940   4.628
 5861SOL    HW118482   5.121   0.859   4.589
 5861SOL    HW218483   5.056   0.923   4.724
 5862SOL     OW18484   6.400   5.725   2.557
 5862SOL    HW118485   6.493   5.726   2.592
 5862SOL    HW218486   6.338   5.691   2.628
 5863SOL     OW18487   4.150   6.909   6.447
 5863SOL    HW118488   4.055   6.902   6.480
 5863SOL    HW218489   4.154   6.882   6.351
 5864SOL     OW18490   3.235   3.996   2.285
 5864SOL    HW118491   3.303   4.064   2.259
 5864SOL    HW218492   3.202   3.949   2.203
 5865SOL     OW18493   6.646   0.504   6.015
 5865SOL    HW118494   6.664   0.475   5.921
 5865SOL    HW218495   6.708   0.457   6.077
 5866SOL     OW18496   3.333   3.183   2.825
 5866SOL    HW118497   3.311   3.255   2.891
 5866SOL    HW218498   3.432   3.176   2.816
 5867SOL     OW18499   2.810   1.715   2.078
 5867SOL    HW118500   2.840   1.810   2.065
 5867SOL    HW218501   2.852   1.657   2.009
 5868SOL     OW18502   0.996   1.630   6.228
 5868SOL    HW118503   0.968   1.616   6.323
 5868SOL    HW218504   1.059   1.558   6.200
 5869SOL     OW18505   1.246   6.078   3.217
 5869SOL    HW118506   1.195   6.087   3.303
 5869SOL    HW218507   1.308   6.156   3.207
 5870SOL     OW18508   3.318   5.833   4.349
 5870SOL    HW118509   3.415   5.857   4.350
 5870SOL    HW218510   3.265   5.907   4.391
 5871SOL     OW18511   2.941   3.386   3.892
 5871SOL    HW118512   2.990   3.303   3.917
 5871SOL    HW218513   2.862   3.397   3.951
 5872SOL     OW18514   4.916   5.718   1.294
 5872SOL    HW118515   4.915   5.618   1.294
 5872SOL    HW218516   5.010   5.751   1.288
 5873SOL     OW18517   4.213   6.100   2.325
 5873SOL    HW118518   4.294   6.065   2.279
 5873SOL    HW218519   4.183   6.035   2.395
 5874SOL     OW18520   1.217   4.102   5.267
 5874SOL    HW118521   1.269   4.165   5.210
 5874SOL    HW218522   1.210   4.013   5.221
 5875SOL     OW18523   3.014   1.927   1.352
 5875SOL    HW118524   3.100   1.971   1.324
 5875SOL    HW218525   2.943   1.947   1.285
 5876SOL     OW18526   3.285   2.854   1.803
 5876SOL    HW118527   3.299   2.949   1.830
 5876SOL    HW218528   3.374   2.808   1.793
 5877SOL     OW18529   5.831   4.436   1.232
 5877SOL    HW118530   5.770   4.374   1.182
 5877SOL    HW218531   5.926   4.406   1.220
 5878SOL     OW18532   2.227   4.631   2.641
 5878SOL    HW118533   2.247   4.535   2.657
 5878SOL    HW218534   2.306   4.675   2.599
 5879SOL     OW18535   0.493   4.308   4.461
 5879SOL    HW118536   0.569   4.263   4.507
 5879SOL    HW218537   0.408   4.291   4.511
 5880SOL     OW18538   2.931   5.544   0.375
 5880SOL    HW118539   3.006   5.607   0.393
 5880SOL    HW218540   2.916   5.538   0.276
 5881SOL     OW18541   1.526   5.782   4.862
 5881SOL    HW118542   1.474   5.730   4.794
 5881SOL    HW218543   1.624   5.775   4.842
 5882SOL     OW18544   4.906   0.798   2.299
 5882SOL    HW118545   4.953   0.787   2.212
 5882SOL    HW218546   4.814   0.758   2.292
 5883SOL     OW18547   0.322   3.084   5.243
 5883SOL    HW118548   0.341   3.079   5.341
 5883SOL    HW218549   0.408   3.083   5.192
 5884SOL     OW18550   0.788   1.419   3.663
 5884SOL    HW118551   0.881   1.436   3.695
 5884SOL    HW218552   0.791   1.365   3.579
 5885SOL     OW18553   5.853   6.971   1.114
 5885SOL    HW118554   5.799   7.017   1.044
 5885SOL    HW218555   5.918   0.013   1.154
 5886SOL     OW18556   6.915   1.027   6.510
 5886SOL    HW118557   6.818   1.004   6.503
 5886SOL    HW218558   6.969   0.958   6.462
 5887SOL     OW18559   4.723   6.559   3.297
 5887SOL    HW118560   4.810   6.569   3.344
 5887SOL    HW218561   4.718   6.624   3.222
 5888SOL     OW18562   1.566   0.783   3.472
 5888SOL    HW118563   1.496   0.748   3.410
 5888SOL    HW218564   1.633   0.836   3.420
 5889SOL     OW18565   2.748   0.581   0.547
 5889SOL    HW118566   2.713   0.560   0.639
 5889SOL    HW218567   2.690   0.538   0.478
 5890SOL     OW18568   3.331   4.991   6.016
 5890SOL    HW118569   3.372   4.933   5.946
 5890SOL    HW218570   3.403   5.039   6.066
 5891SOL     OW18571   2.025   3.804   6.776
 5891SOL    HW118572   1.938   3.838   6.813
 5891SOL    HW218573   2.082   3.770   6.851
 5892SOL     OW18574   1.410   0.258   1.947
 5892SOL    HW118575   1.384   0.170   1.987
 5892SOL    HW218576   1.482   0.244   1.879
 5893SOL     OW18577   1.851   1.142   3.014
 5893SOL    HW118578   1.918   1.152   2.941
 5893SOL    HW218579   1.770   1.197   2.993
 5894SOL     OW18580   0.833   3.247   3.639
 5894SOL    HW118581   0.847   3.333   3.589
 5894SOL    HW218582   0.922   3.212   3.669
 5895SOL     OW18583   5.246   3.657   3.796
 5895SOL    HW118584   5.277   3.750   3.817
 5895SOL    HW218585   5.260   3.638   3.699
 5896SOL     OW18586   4.540   2.145   5.599
 5896SOL    HW118587   4.542   2.069   5.534
 5896SOL    HW218588   4.537   2.231   5.549
 5897SOL     OW18589   3.997   0.387   1.820
 5897SOL    HW118590   4.084   0.436   1.827
 5897SOL    HW218591   3.971   0.351   1.910
 5898SOL     OW18592   1.640   0.044   2.201
 5898SOL    HW118593   1.626   0.024   2.298
 5898SOL    HW218594   1.655   6.981   2.151
 5899SOL     OW18595   5.545   6.888   3.961
 5899SOL    HW118596   5.516   6.900   4.056
 5899SOL    HW218597   5.642   6.910   3.952
 5900SOL     OW18598   4.500   5.239   2.486
 5900SOL    HW118599   4.451   5.277   2.565
 5900SOL    HW218600   4.443   5.248   2.404
 5901SOL     OW18601   3.591   6.948   5.464
 5901SOL    HW118602   3.497   6.926   5.492
 5901SOL    HW218603   3.597   6.944   5.364
 5902SOL     OW18604   6.136   1.095   6.611
 5902SOL    HW118605   6.159   1.191   6.597
 5902SOL    HW218606   6.046   1.076   6.573
 5903SOL     OW18607   6.601   3.329   6.217
 5903SOL    HW118608   6.629   3.392   6.144
 5903SOL    HW218609   6.677   3.319   6.282
 5904SOL     OW18610   0.317   4.428   2.443
 5904SOL    HW118611   0.280   4.426   2.537
 5904SOL    HW218612   0.316   4.522   2.409
 5905SOL     OW18613   6.747   4.765   2.424
 5905SOL    HW118614   6.824   4.701   2.421
 5905SOL    HW218615   6.773   4.849   2.376
 5906SOL     OW18616   6.568   1.403   4.023
 5906SOL    HW118617   6.645   1.365   3.972
 5906SOL    HW218618   6.497   1.432   3.959
 5907SOL     OW18619   2.020   0.194   1.824
 5907SOL    HW118620   1.979   0.200   1.733
 5907SOL    HW218621   1.951   0.217   1.893
 5908SOL     OW18622   0.358   2.845   6.031
 5908SOL    HW118623   0.394   2.806   6.116
 5908SOL    HW218624   0.298   2.921   6.053
 5909SOL     OW18625   6.683   3.795   1.002
 5909SOL    HW118626   6.732   3.806   1.089
 5909SOL    HW218627   6.749   3.790   0.928
 5910SOL     OW18628   2.127   1.913   3.776
 5910SOL    HW118629   2.221   1.878   3.779
 5910SOL    HW218630   2.128   2.008   3.745
 5911SOL     OW18631   6.991   5.352   6.198
 5911SOL    HW118632   6.990   5.442   6.242
 5911SOL    HW218633   6.915   5.298   6.233
 5912SOL     OW18634   0.681   0.796   3.930
 5912SOL    HW118635   0.762   0.748   3.897
 5912SOL    HW218636   0.707   0.858   4.005
 5913SOL     OW18637   5.463   1.760   6.781
 5913SOL    HW118638   5.478   1.663   6.760
 5913SOL    HW218639   5.398   1.798   6.716
 5914SOL     OW18640   0.050   5.797   0.621
 5914SOL    HW118641   0.035   5.896   0.611
 5914SOL    HW218642   0.053   5.773   0.718
 5915SOL     OW18643   3.777   1.544   5.910
 5915SOL    HW118644   3.876   1.548   5.901
 5915SOL    HW218645   3.752   1.550   6.007
 5916SOL     OW18646   1.261   6.059   2.562
 5916SOL    HW118647   1.308   6.089   2.479
 5916SOL    HW218648   1.167   6.032   2.539
 5917SOL     OW18649   3.667   4.566   0.383
 5917SOL    HW118650   3.712   4.644   0.426
 5917SOL    HW218651   3.581   4.547   0.431
 5918SOL     OW18652   3.193   6.381   5.436
 5918SOL    HW118653   3.124   6.452   5.447
 5918SOL    HW218654   3.148   6.294   5.412
 5919SOL     OW18655   3.203   2.973   3.792
 5919SOL    HW118656   3.122   2.985   3.849
 5919SOL    HW218657   3.176   2.969   3.696
 5920SOL     OW18658   6.106   0.477   4.776
 5920SOL    HW118659   6.193   0.521   4.754
 5920SOL    HW218660   6.067   0.436   4.693
 5921SOL     OW18661   2.668   4.576   6.038
 5921SOL    HW118662   2.744   4.560   5.976
 5921SOL    HW218663   2.666   4.505   6.108
 5922SOL     OW18664   5.244   3.712   2.780
 5922SOL    HW118665   5.268   3.619   2.808
 5922SOL    HW218666   5.272   3.727   2.685
 5923SOL     OW18667   6.730   0.443   3.004
 5923SOL    HW118668   6.672   0.470   3.080
 5923SOL    HW218669   6.817   0.409   3.039
 5924SOL     OW18670   5.699   0.237   3.361
 5924SOL    HW118671   5.644   0.254   3.442
 5924SOL    HW218672   5.778   0.181   3.385
 5925SOL     OW18673   4.239   0.354   1.519
 5925SOL    HW118674   4.320   0.407   1.543
 5925SOL    HW218675   4.160   0.415   1.510
 5926SOL     OW18676   4.869   4.877   3.966
 5926SOL    HW118677   4.834   4.968   3.944
 5926SOL    HW218678   4.795   4.821   4.004
 5927SOL     OW18679   0.796   4.645   1.963
 5927SOL    HW118680   0.766   4.738   1.988
 5927SOL    HW218681   0.737   4.579   2.009
 5928SOL     OW18682   3.058   0.754   0.356
 5928SOL    HW118683   3.034   0.696   0.278
 5928SOL    HW218684   3.142   0.721   0.398
 5929SOL     OW18685   1.726   1.037   6.339
 5929SOL    HW118686   1.749   1.078   6.427
 5929SOL    HW218687   1.709   1.110   6.272
 5930SOL     OW18688   1.124   3.653   2.432
 5930SOL    HW118689   1.133   3.554   2.443
 5930SOL    HW218690   1.150   3.680   2.339
 5931SOL     OW18691   4.802   6.185   3.042
 5931SOL    HW118692   4.720   6.240   3.059
 5931SOL    HW218693   4.860   6.233   2.977
 5932SOL     OW18694   2.850   0.779   6.669
 5932SOL    HW118695   2.791   0.725   6.729
 5932SOL    HW218696   2.806   0.865   6.647
 5933SOL     OW18697   6.205   5.976   4.101
 5933SOL    HW118698   6.257   5.937   4.177
 5933SOL    HW218699   6.117   6.009   4.135
 5934SOL     OW18700   3.403   3.618   6.346
 5934SOL    HW118701   3.439   3.621   6.439
 5934SOL    HW218702   3.359   3.705   6.325
 5935SOL     OW18703   1.271   5.719   6.319
 5935SOL    HW118704   1.296   5.637   6.268
 5935SOL    HW218705   1.240   5.693   6.411
 5936SOL     OW18706   3.230   3.220   1.926
 5936SOL    HW118707   3.186   3.134   1.899
 5936SOL    HW218708   3.212   3.290   1.856
 5937SOL     OW18709   0.249   2.829   1.707
 5937SOL    HW118710   0.298   2.860   1.626
 5937SOL    HW218711   0.240   2.904   1.772
 5938SOL     OW18712   0.410   4.703   4.617
 5938SOL    HW118713   0.339   4.716   4.686
 5938SOL    HW218714   0.500   4.701   4.663
 5939SOL     OW18715   3.397   0.666   4.715
 5939SOL    HW118716   3.437   0.746   4.670
 5939SOL    HW218717   3.304   0.652   4.681
 5940SOL     OW18718   5.394   5.673   2.290
 5940SOL    HW118719   5.412   5.614   2.369
 5940SOL    HW218720   5.301   5.658   2.258
 5941SOL     OW18721   0.114   2.284   2.575
 5941SOL    HW118722   0.133   2.206   2.635
 5941SOL    HW218723   0.167   2.363   2.605
 5942SOL     OW18724   5.209   2.963   6.290
 5942SOL    HW118725   5.208   3.063   6.285
 5942SOL    HW218726   5.247   2.925   6.206
 5943SOL     OW18727   3.031   4.276   1.752
 5943SOL    HW118728   2.969   4.346   1.787
 5943SOL    HW218729   3.102   4.320   1.696
 5944SOL     OW18730   0.180   3.353   6.891
 5944SOL    HW118731   0.169   3.302   6.977
 5944SOL    HW218732   0.122   3.312   6.820
 5945SOL     OW18733   6.884   6.022   4.817
 5945SOL    HW118734   6.927   5.947   4.866
 5945SOL    HW218735   6.886   6.003   4.718
 5946SOL     OW18736   3.141   4.404   0.668
 5946SOL    HW118737   3.213   4.337   0.683
 5946SOL    HW218738   3.054   4.358   0.655
 5947SOL     OW18739   3.701   3.222   4.796
 5947SOL    HW118740   3.786   3.225   4.848
 5947SOL    HW218741   3.697   3.137   4.743
 5948SOL     OW18742   4.723   3.849   1.608
 5948SOL    HW118743   4.782   3.769   1.614
 5948SOL    HW218744   4.779   3.931   1.594
 5949SOL     OW18745   6.664   4.309   2.445
 5949SOL    HW118746   6.641   4.274   2.355
 5949SOL    HW218747   6.642   4.240   2.514
 5950SOL     OW18748   4.477   0.408   5.092
 5950SOL    HW118749   4.521   0.319   5.080
 5950SOL    HW218750   4.380   0.401   5.071
 5951SOL     OW18751   0.564   3.745   6.285
 5951SOL    HW118752   0.484   3.709   6.237
 5951SOL    HW218753   0.616   3.669   6.323
 5952SOL     OW18754   3.884   5.011   0.687
 5952SOL    HW118755   3.858   4.982   0.780
 5952SOL    HW218756   3.872   5.110   0.679
 5953SOL     OW18757   6.457   2.929   4.925
 5953SOL    HW118758   6.500   3.016   4.904
 5953SOL    HW218759   6.516   2.876   4.986
 5954SOL     OW18760   1.918   5.764   3.991
 5954SOL    HW118761   1.964   5.812   4.066
 5954SOL    HW218762   1.982   5.753   3.914
 5955SOL     OW18763   5.650   3.644   0.527
 5955SOL    HW118764   5.675   3.614   0.618
 5955SOL    HW218765   5.647   3.744   0.524
 5956SOL     OW18766   5.315   2.537   5.159
 5956SOL    HW118767   5.218   2.533   5.183
 5956SOL    HW218768   5.341   2.455   5.108
 5957SOL     OW18769   0.793   1.824   2.994
 5957SOL    HW118770   0.702   1.785   2.980
 5957SOL    HW218771   0.839   1.776   3.068
 5958SOL     OW18772   3.651   6.946   2.723
 5958SOL    HW118773   3.663   6.847   2.730
 5958SOL    HW218774   3.578   6.967   2.657
 5959SOL     OW18775   5.035   2.370   4.428
 5959SOL    HW118776   5.133   2.378   4.444
 5959SOL    HW218777   5.018   2.343   4.333
 5960SOL     OW18778   4.479   0.343   6.201
 5960SOL    HW118779   4.564   0.360   6.251
 5960SOL    HW218780   4.477   0.398   6.118
 5961SOL     OW18781   2.748   2.106   3.210
 5961SOL    HW118782   2.805   2.181   3.179
 5961SOL    HW218783   2.799   2.020   3.203
 5962SOL     OW18784   4.717   6.514   1.069
 5962SOL    HW118785   4.633   6.558   1.037
 5962SOL    HW218786   4.743   6.441   1.007
 5963SOL     OW18787   3.163   4.274   6.763
 5963SOL    HW118788   3.130   4.292   6.670
 5963SOL    HW218789   3.257   4.305   6.772
 5964SOL     OW18790   2.440   6.824   2.717
 5964SOL    HW118791   2.362   6.839   2.656
 5964SOL    HW218792   2.514   6.781   2.667
 5965SOL     OW18793   1.914   0.605   0.140
 5965SOL    HW118794   1.965   0.614   0.054
 5965SOL    HW218795   1.911   0.509   0.167
 5966SOL     OW18796   2.793   0.954   4.811
 5966SOL    HW118797   2.800   0.945   4.712
 5966SOL    HW218798   2.702   0.987   4.836
 5967SOL     OW18799   3.426   1.744   4.363
 5967SOL    HW118800   3.442   1.680   4.438
 5967SOL    HW218801   3.400   1.833   4.400
 5968SOL     OW18802   5.314   2.681   1.207
 5968SOL    HW118803   5.332   2.742   1.130
 5968SOL    HW218804   5.270   2.598   1.174
 5969SOL     OW18805   5.123   0.906   6.918
 5969SOL    HW118806   5.040   0.937   6.871
 5969SOL    HW218807   5.173   0.842   6.860
 5970SOL     OW18808   0.114   3.370   0.751
 5970SOL    HW118809   0.146   3.356   0.845
 5970SOL    HW218810   0.164   3.309   0.689
 5971SOL     OW18811   0.509   6.886   3.623
 5971SOL    HW118812   0.584   6.827   3.592
 5971SOL    HW218813   0.422   6.848   3.591
 5972SOL     OW18814   4.472   5.189   1.184
 5972SOL    HW118815   4.480   5.090   1.192
 5972SOL    HW218816   4.468   5.215   1.088
 5973SOL     OW18817   2.368   2.198   2.716
 5973SOL    HW118818   2.345   2.127   2.650
 5973SOL    HW218819   2.444   2.253   2.681
 5974SOL     OW18820   5.385   2.006   5.651
 5974SOL    HW118821   5.445   2.003   5.571
 5974SOL    HW218822   5.305   1.948   5.635
 5975SOL     OW18823   4.500   5.135   0.618
 5975SOL    HW118824   4.482   5.055   0.561
 5975SOL    HW218825   4.432   5.139   0.692
 5976SOL     OW18826   2.559   3.583   5.842
 5976SOL    HW118827   2.524   3.492   5.864
 5976SOL    HW218828   2.572   3.636   5.926
 5977SOL     OW18829   6.509   4.129   0.536
 5977SOL    HW118830   6.570   4.055   0.565
 5977SOL    HW218831   6.556   4.187   0.470
 5978SOL     OW18832   2.878   4.370   0.626
 5978SOL    HW118833   2.798   4.314   0.646
 5978SOL    HW218834   2.851   4.465   0.616
 5979SOL     OW18835   5.708   0.567   1.607
 5979SOL    HW118836   5.652   0.552   1.689
 5979SOL    HW218837   5.648   0.582   1.528
 5980SOL     OW18838   2.953   3.278   1.209
 5980SOL    HW118839   2.912   3.220   1.280
 5980SOL    HW218840   2.939   3.374   1.233
 5981SOL     OW18841   2.390   2.371   0.653
 5981SOL    HW118842   2.299   2.360   0.613
 5981SOL    HW218843   2.459   2.330   0.593
 5982SOL     OW18844   5.782   2.834   0.957
 5982SOL    HW118845   5.743   2.871   0.873
 5982SOL    HW218846   5.874   2.871   0.970
 5983SOL     OW18847   0.184   0.633   3.670
 5983SOL    HW118848   0.217   0.700   3.604
 5983SOL    HW218849   0.088   0.612   3.651
 5984SOL     OW18850   6.739   0.024   3.513
 5984SOL    HW118851   6.671   6.975   3.526
 5984SOL    HW218852   6.772   0.021   3.418
 5985SOL     OW18853   5.743   2.888   2.635
 5985SOL    HW118854   5.728   2.928   2.725
 5985SOL    HW218855   5.686   2.807   2.624
 5986SOL     OW18856   4.057   3.629   5.101
 5986SOL    HW118857   4.094   3.682   5.178
 5986SOL    HW218858   4.014   3.545   5.136
 5987SOL     OW18859   6.995   7.022   5.498
 5987SOL    HW118860   6.958   0.018   5.589
 5987SOL    HW218861   6.957   6.936   5.464
 5988SOL     OW18862   1.106   2.500   6.251
 5988SOL    HW118863   1.153   2.413   6.233
 5988SOL    HW218864   1.120   2.526   6.346
 5989SOL     OW18865   0.411   5.976   6.704
 5989SOL    HW118866   0.327   5.921   6.700
 5989SOL    HW218867   0.489   5.916   6.717
 5990SOL     OW18868   3.544   4.989   1.838
 5990SOL    HW118869   3.565   4.899   1.878
 5990SOL    HW218870   3.451   5.015   1.862
 5991SOL     OW18871   5.195   6.896   1.003
 5991SOL    HW118872   5.118   6.957   0.983
 5991SOL    HW218873   5.162   6.813   1.048
 5992SOL     OW18874   3.932   6.412   1.846
 5992SOL    HW118875   4.022   6.371   1.827
 5992SOL    HW218876   3.894   6.372   1.929
 5993SOL     OW18877   6.357   1.687   0.220
 5993SOL    HW118878   6.447   1.730   0.208
 5993SOL    HW218879   6.360   1.625   0.298
 5994SOL     OW18880   0.560   3.575   0.688
 5994SOL    HW118881   0.595   3.564   0.595
 5994SOL    HW218882   0.564   3.671   0.714
 5995SOL     OW18883   4.538   4.044   1.458
 5995SOL    HW118884   4.532   4.104   1.538
 5995SOL    HW218885   4.517   3.950   1.486
 5996SOL     OW18886   3.135   5.279   0.912
 5996SOL    HW118887   3.070   5.349   0.941
 5996SOL    HW218888   3.110   5.247   0.821
 5997SOL     OW18889   6.862   0.048   3.759
 5997SOL    HW118890   6.815   0.075   3.675
 5997SOL    HW218891   6.852   0.121   3.827
 5998SOL     OW18892   6.144   6.797   1.338
 5998SOL    HW118893   6.128   6.804   1.240
 5998SOL    HW218894   6.069   6.840   1.388
 5999SOL     OW18895   5.161   2.811   0.809
 5999SOL    HW118896   5.111   2.757   0.876
 5999SOL    HW218897   5.235   2.860   0.853
 6000SOL     OW18898   0.338   3.900   1.513
 6000SOL    HW118899   0.274   3.866   1.445
 6000SOL    HW218900   0.327   3.999   1.522
 6001SOL     OW18901   6.445   5.082   5.796
 6001SOL    HW118902   6.349   5.096   5.772
 6001SOL    HW218903   6.476   5.158   5.854
 6002SOL     OW18904   6.205   5.208   4.729
 6002SOL    HW118905   6.160   5.259   4.802
 6002SOL    HW218906   6.214   5.267   4.648
 6003SOL     OW18907   0.605   2.959   4.578
 6003SOL    HW118908   0.615   3.058   4.571
 6003SOL    HW218909   0.686   2.920   4.621
 6004SOL     OW18910   5.351   2.865   4.296
 6004SOL    HW118911   5.275   2.802   4.308
 6004SOL    HW218912   5.398   2.878   4.383
 6005SOL     OW18913   3.915   5.297   6.348
 6005SOL    HW118914   3.915   5.197   6.352
 6005SOL    HW218915   3.843   5.333   6.406
 6006SOL     OW18916   3.297   6.225   5.852
 6006SOL    HW118917   3.309   6.282   5.933
 6006SOL    HW218918   3.206   6.184   5.853
 6007SOL     OW18919   2.490   5.778   6.514
 6007SOL    HW118920   2.511   5.876   6.514
 6007SOL    HW218921   2.504   5.740   6.423
 6008SOL     OW18922   3.288   4.137   6.048
 6008SOL    HW118923   3.385   4.120   6.032
 6008SOL    HW218924   3.252   4.197   5.976
 6009SOL     OW18925   3.122   5.053   3.298
 6009SOL    HW118926   3.207   5.035   3.348
 6009SOL    HW218927   3.112   4.986   3.225
 6010SOL     OW18928   0.732   5.501   4.786
 6010SOL    HW118929   0.801   5.510   4.857
 6010SOL    HW218930   0.739   5.577   4.721
 6011SOL     OW18931   6.168   1.873   1.602
 6011SOL    HW118932   6.197   1.968   1.616
 6011SOL    HW218933   6.111   1.844   1.679
 6012SOL     OW18934   6.833   0.325   6.147
 6012SOL    HW118935   6.826   0.318   6.246
 6012SOL    HW218936   6.851   0.235   6.108
 6013SOL     OW18937   5.838   1.563   2.327
 6013SOL    HW118938   5.820   1.483   2.384
 6013SOL    HW218939   5.889   1.535   2.245
 6014SOL     OW18940   4.036   3.161   4.193
 6014SOL    HW118941   4.083   3.116   4.269
 6014SOL    HW218942   4.041   3.260   4.205
 6015SOL     OW18943   5.814   1.584   4.478
 6015SOL    HW118944   5.861   1.606   4.393
 6015SOL    HW218945   5.855   1.503   4.519
 6016SOL     OW18946   5.262   1.134   4.364
 6016SOL    HW118947   5.169   1.124   4.399
 6016SOL    HW218948   5.321   1.169   4.437
 6017SOL     OW18949   6.597   2.117   5.406
 6017SOL    HW118950   6.677   2.074   5.448
 6017SOL    HW218951   6.622   2.151   5.315
 6018SOL     OW18952   3.192   1.024   5.578
 6018SOL    HW118953   3.148   1.114   5.567
 6018SOL    HW218954   3.152   0.959   5.513
 6019SOL     OW18955   6.917   3.834   6.932
 6019SOL    HW118956   6.858   3.910   6.959
 6019SOL    HW218957   6.961   3.796   7.013
 6020SOL     OW18958   0.657   4.781   6.704
 6020SOL    HW118959   0.589   4.837   6.656
 6020SOL    HW218960   0.658   4.689   6.665
 6021SOL     OW18961   4.929   0.098   3.406
 6021SOL    HW118962   4.972   0.018   3.363
 6021SOL    HW218963   4.993   0.175   3.404
 6022SOL     OW18964   6.027   1.705   1.798
 6022SOL    HW118965   6.108   1.653   1.771
 6022SOL    HW218966   5.956   1.642   1.831
 6023SOL     OW18967   4.241   0.704   2.012
 6023SOL    HW118968   4.247   0.614   1.970
 6023SOL    HW218969   4.273   0.699   2.107
 6024SOL     OW18970   1.034   5.788   0.336
 6024SOL    HW118971   1.021   5.764   0.432
 6024SOL    HW218972   1.077   5.878   0.330
 6025SOL     OW18973   3.151   0.626   4.346
 6025SOL    HW118974   3.102   0.678   4.276
 6025SOL    HW218975   3.138   0.670   4.435
 6026SOL     OW18976   6.753   4.423   4.625
 6026SOL    HW118977   6.842   4.467   4.628
 6026SOL    HW218978   6.732   4.395   4.531
 6027SOL     OW18979   5.863   4.144   6.696
 6027SOL    HW118980   5.875   4.133   6.597
 6027SOL    HW218981   5.765   4.143   6.718
 6028SOL     OW18982   5.691   5.418   6.337
 6028SOL    HW118983   5.605   5.442   6.291
 6028SOL    HW218984   5.687   5.449   6.432
 6029SOL     OW18985   2.180   0.810   3.095
 6029SOL    HW118986   2.206   0.731   3.039
 6029SOL    HW218987   2.124   0.779   3.172
 6030SOL     OW18988   5.382   3.666   4.233
 6030SOL    HW118989   5.384   3.617   4.145
 6030SOL    HW218990   5.298   3.720   4.238
 6031SOL     OW18991   0.883   6.292   4.835
 6031SOL    HW118992   0.851   6.325   4.924
 6031SOL    HW218993   0.918   6.199   4.844
 6032SOL     OW18994   3.575   6.354   3.470
 6032SOL    HW118995   3.494   6.404   3.439
 6032SOL    HW218996   3.568   6.337   3.568
 6033SOL     OW18997   1.801   1.565   2.439
 6033SOL    HW118998   1.883   1.554   2.383
 6033SOL    HW218999   1.721   1.578   2.380
 6034SOL     OW19000   0.494   0.821   0.168
 6034SOL    HW119001   0.515   0.749   0.101
 6034SOL    HW219002   0.412   0.797   0.218
 6035SOL     OW19003   2.115   0.455   3.024
 6035SOL    HW119004   2.194   0.484   2.970
 6035SOL    HW219005   2.040   0.519   3.009
 6036SOL     OW19006   6.407   2.512   0.928
 6036SOL    HW119007   6.372   2.606   0.934
 6036SOL    HW219008   6.395   2.467   1.016
 6037SOL     OW19009   5.173   2.266   0.255
 6037SOL    HW119010   5.091   2.240   0.305
 6037SOL    HW219011   5.151   2.335   0.186
 6038SOL     OW19012   0.421   1.506   5.876
 6038SOL    HW119013   0.370   1.454   5.945
 6038SOL    HW219014   0.361   1.525   5.798
 6039SOL     OW19015   3.809   3.490   3.338
 6039SOL    HW119016   3.870   3.411   3.337
 6039SOL    HW219017   3.714   3.459   3.328
 6040SOL     OW19018   0.355   1.692   0.495
 6040SOL    HW119019   0.290   1.767   0.479
 6040SOL    HW219020   0.378   1.648   0.409
 6041SOL     OW19021   2.497   3.308   5.940
 6041SOL    HW119022   2.439   3.227   5.929
 6041SOL    HW219023   2.533   3.311   6.034
 6042SOL     OW19024   3.741   6.256   3.277
 6042SOL    HW119025   3.697   6.281   3.363
 6042SOL    HW219026   3.671   6.251   3.205
 6043SOL     OW19027   2.451   0.368   3.640
 6043SOL    HW119028   2.400   0.282   3.632
 6043SOL    HW219029   2.507   0.381   3.559
 6044SOL     OW19030   0.767   2.856   1.363
 6044SOL    HW119031   0.698   2.917   1.402
 6044SOL    HW219032   0.839   2.840   1.430
 6045SOL     OW19033   4.605   2.211   3.390
 6045SOL    HW119034   4.639   2.133   3.442
 6045SOL    HW219035   4.659   2.292   3.411
 6046SOL     OW19036   3.060   3.028   2.245
 6046SOL    HW119037   3.019   3.110   2.208
 6046SOL    HW219038   3.158   3.028   2.226
 6047SOL     OW19039   6.132   1.400   1.032
 6047SOL    HW119040   6.173   1.328   0.976
 6047SOL    HW219041   6.195   1.426   1.105
 6048SOL     OW19042   6.340   5.868   4.309
 6048SOL    HW119043   6.248   5.835   4.328
 6048SOL    HW219044   6.405   5.792   4.312
 6049SOL     OW19045   4.513   5.197   5.310
 6049SOL    HW119046   4.536   5.187   5.214
 6049SOL    HW219047   4.574   5.141   5.366
 6050SOL     OW19048   3.946   6.694   1.823
 6050SOL    HW119049   4.029   6.693   1.768
 6050SOL    HW219050   3.937   6.606   1.871
 6051SOL     OW19051   1.058   1.057   3.655
 6051SOL    HW119052   1.089   0.964   3.634
 6051SOL    HW219053   1.117   1.123   3.607
 6052SOL     OW19054   5.435   6.721   0.357
 6052SOL    HW119055   5.352   6.703   0.303
 6052SOL    HW219056   5.513   6.677   0.313
 6053SOL     OW19057   4.146   2.879   6.409
 6053SOL    HW119058   4.096   2.839   6.486
 6053SOL    HW219059   4.242   2.851   6.414
 6054SOL     OW19060   3.880   4.296   0.971
 6054SOL    HW119061   3.834   4.209   0.953
 6054SOL    HW219062   3.814   4.362   1.006
 6055SOL     OW19063   3.449   4.510   0.541
 6055SOL    HW119064   3.371   4.567   0.512
 6055SOL    HW219065   3.420   4.415   0.546
 6056SOL     OW19066   5.252   5.745   5.160
 6056SOL    HW119067   5.323   5.785   5.218
 6056SOL    HW219068   5.206   5.671   5.209
 6057SOL     OW19069   4.948   0.270   4.379
 6057SOL    HW119070   5.003   0.208   4.436
 6057SOL    HW219071   4.853   0.265   4.409
 6058SOL     OW19072   5.399   2.207   6.175
 6058SOL    HW119073   5.362   2.203   6.268
 6058SOL    HW219074   5.444   2.120   6.153
 6059SOL     OW19075   4.076   3.397   6.811
 6059SOL    HW119076   4.144   3.399   6.738
 6059SOL    HW219077   3.984   3.397   6.771
 6060SOL     OW19078   2.704   3.330   6.712
 6060SOL    HW119079   2.768   3.403   6.686
 6060SOL    HW219080   2.620   3.371   6.747
 6061SOL     OW19081   3.552   5.132   6.890
 6061SOL    HW119082   3.465   5.181   6.892
 6061SOL    HW219083   3.537   5.036   6.869
 6062SOL     OW19084   1.988   1.882   6.969
 6062SOL    HW119085   2.067   1.865   6.910
 6062SOL    HW219086   1.910   1.911   6.912
 6063SOL     OW19087   4.376   4.493   6.429
 6063SOL    HW119088   4.434   4.425   6.474
 6063SOL    HW219089   4.380   4.481   6.330
 6064SOL     OW19090   6.758   5.616   0.984
 6064SOL    HW119091   6.712   5.535   1.020
 6064SOL    HW219092   6.739   5.694   1.042
 6065SOL     OW19093   0.550   6.206   2.660
 6065SOL    HW119094   0.452   6.214   2.645
 6065SOL    HW219095   0.598   6.277   2.607
 6066SOL     OW19096   5.678   6.451   3.581
 6066SOL    HW119097   5.611   6.408   3.643
 6066SOL    HW219098   5.700   6.543   3.615
 6067SOL     OW19099   5.765   0.358   6.346
 6067SOL    HW119100   5.822   0.292   6.395
 6067SOL    HW219101   5.692   0.309   6.298
 6068SOL     OW19102   4.629   1.856   4.997
 6068SOL    HW119103   4.630   1.874   4.899
 6068SOL    HW219104   4.534   1.843   5.027
 6069SOL     OW19105   0.036   3.525   6.511
 6069SOL    HW119106   6.974   3.488   6.474
 6069SOL    HW219107   0.024   3.546   6.608
 6070SOL     OW19108   2.637   1.411   0.461
 6070SOL    HW119109   2.727   1.382   0.495
 6070SOL    HW219110   2.578   1.433   0.539
 6071SOL     OW19111   6.230   0.237   4.925
 6071SOL    HW119112   6.192   0.176   4.856
 6071SOL    HW219113   6.193   0.329   4.912
 6072SOL     OW19114   6.966   2.456   1.006
 6072SOL    HW119115   6.977   2.555   1.013
 6072SOL    HW219116   7.003   2.424   0.918
 6073SOL     OW19117   4.823   2.464   0.340
 6073SOL    HW119118   4.858   2.509   0.422
 6073SOL    HW219119   4.840   2.522   0.261
 6074SOL     OW19120   0.277   6.504   2.671
 6074SOL    HW119121   0.252   6.549   2.585
 6074SOL    HW219122   0.277   6.405   2.659
 6075SOL     OW19123   4.916   6.916   6.685
 6075SOL    HW119124   4.935   7.004   6.729
 6075SOL    HW219125   4.820   6.913   6.656
 6076SOL     OW19126   1.410   5.080   3.546
 6076SOL    HW119127   1.450   5.005   3.600
 6076SOL    HW219128   1.420   5.061   3.449
 6077SOL     OW19129   5.545   6.724   2.169
 6077SOL    HW119130   5.545   6.778   2.252
 6077SOL    HW219131   5.576   6.631   2.190
 6078SOL     OW19132   4.016   3.550   0.636
 6078SOL    HW119133   3.970   3.468   0.669
 6078SOL    HW219134   3.975   3.631   0.677
 6079SOL     OW19135   3.255   3.886   6.378
 6079SOL    HW119136   3.251   3.901   6.477
 6079SOL    HW219137   3.175   3.927   6.335
 6080SOL     OW19138   0.010   4.369   6.764
 6080SOL    HW119139   0.061   4.357   6.679
 6080SOL    HW219140   0.058   4.322   6.838
 6081SOL     OW19141   1.575   3.383   4.221
 6081SOL    HW119142   1.612   3.471   4.252
 6081SOL    HW219143   1.646   3.334   4.171
 6082SOL     OW19144   4.472   1.115   0.976
 6082SOL    HW119145   4.458   1.207   0.940
 6082SOL    HW219146   4.526   1.120   1.060
 6083SOL     OW19147   4.944   0.161   6.353
 6083SOL    HW119148   5.013   0.180   6.423
 6083SOL    HW219149   4.871   0.229   6.359
 6084SOL     OW19150   6.837   6.388   3.152
 6084SOL    HW119151   6.758   6.446   3.129
 6084SOL    HW219152   6.873   6.416   3.241
 6085SOL     OW19153   0.434   6.077   0.817
 6085SOL    HW119154   0.425   6.158   0.874
 6085SOL    HW219155   0.476   6.102   0.729
 6086SOL     OW19156   3.512   3.950   6.287
 6086SOL    HW119157   3.418   3.929   6.314
 6086SOL    HW219158   3.524   4.050   6.283
 6087SOL     OW19159   4.955   6.559   0.642
 6087SOL    HW119160   4.896   6.636   0.666
 6087SOL    HW219161   5.041   6.593   0.605
 6088SOL     OW19162   5.494   6.673   3.411
 6088SOL    HW119163   5.497   6.608   3.488
 6088SOL    HW219164   5.408   6.663   3.362
 6089SOL     OW19165   6.116   3.621   3.346
 6089SOL    HW119166   6.174   3.672   3.410
 6089SOL    HW219167   6.073   3.545   3.394
 6090SOL     OW19168   3.979   6.058   3.845
 6090SOL    HW119169   4.061   6.042   3.790
 6090SOL    HW219170   3.983   6.151   3.883
 6091SOL     OW19171   1.963   1.392   1.777
 6091SOL    HW119172   1.928   1.308   1.735
 6091SOL    HW219173   2.012   1.446   1.709
 6092SOL     OW19174   3.992   6.014   1.265
 6092SOL    HW119175   4.063   5.990   1.332
 6092SOL    HW219176   3.908   5.964   1.287
 6093SOL     OW19177   2.450   2.057   2.170
 6093SOL    HW119178   2.472   2.015   2.081
 6093SOL    HW219179   2.522   2.034   2.235
 6094SOL     OW19180   0.645   6.224   4.640
 6094SOL    HW119181   0.650   6.259   4.546
 6094SOL    HW219182   0.702   6.280   4.700
 6095SOL     OW19183   4.337   5.509   0.860
 6095SOL    HW119184   4.343   5.607   0.837
 6095SOL    HW219185   4.276   5.464   0.795
 6096SOL     OW19186   5.762   6.727   2.999
 6096SOL    HW119187   5.789   6.680   3.083
 6096SOL    HW219188   5.772   6.665   2.921
 6097SOL     OW19189   1.924   5.787   2.252
 6097SOL    HW119190   1.991   5.859   2.266
 6097SOL    HW219191   1.948   5.707   2.306
 6098SOL     OW19192   6.416   0.873   5.018
 6098SOL    HW119193   6.454   0.872   4.925
 6098SOL    HW219194   6.371   0.786   5.036
 6099SOL     OW19195   4.363   0.725   5.946
 6099SOL    HW119196   4.345   0.811   5.899
 6099SOL    HW219197   4.347   0.649   5.882
 6100SOL     OW19198   0.262   6.289   4.973
 6100SOL    HW119199   0.310   6.226   4.911
 6100SOL    HW219200   0.164   6.282   4.958
 6101SOL     OW19201   6.216   3.086   1.291
 6101SOL    HW119202   6.180   3.096   1.198
 6101SOL    HW219203   6.315   3.078   1.288
 6102SOL     OW19204   4.589   0.058   2.649
 6102SOL    HW119205   4.683   0.030   2.631
 6102SOL    HW219206   4.588   0.153   2.679
 6103SOL     OW19207   7.011   1.709   1.785
 6103SOL    HW119208   6.924   1.661   1.772
 6103SOL    HW219209   7.001   1.775   1.860
 6104SOL     OW19210   6.534   0.956   4.285
 6104SOL    HW119211   6.608   1.019   4.311
 6104SOL    HW219212   6.555   0.916   4.195
 6105SOL     OW19213   3.076   4.789   5.232
 6105SOL    HW119214   3.064   4.690   5.221
 6105SOL    HW219215   3.035   4.836   5.155
 6106SOL     OW19216   6.210   5.473   6.487
 6106SOL    HW119217   6.276   5.448   6.417
 6106SOL    HW219218   6.123   5.497   6.443
 6107SOL     OW19219   5.350   4.670   5.731
 6107SOL    HW119220   5.374   4.721   5.649
 6107SOL    HW219221   5.390   4.579   5.727
 6108SOL     OW19222   2.481   1.482   0.690
 6108SOL    HW119223   2.417   1.559   0.688
 6108SOL    HW219224   2.467   1.430   0.775
 6109SOL     OW19225   6.326   0.132   3.191
 6109SOL    HW119226   6.287   0.217   3.228
 6109SOL    HW219227   6.255   0.084   3.138
 6110SOL     OW19228   2.045   1.823   4.963
 6110SOL    HW119229   2.123   1.820   4.900
 6110SOL    HW219230   2.056   1.751   5.031
 6111SOL     OW19231   1.707   4.820   1.125
 6111SOL    HW119232   1.725   4.797   1.030
 6111SOL    HW219233   1.695   4.736   1.178
 6112SOL     OW19234   4.874   0.091   2.577
 6112SOL    HW119235   4.859   0.172   2.634
 6112SOL    HW219236   4.957   0.044   2.606
 6113SOL     OW19237   2.346   5.149   6.808
 6113SOL    HW119238   2.291   5.231   6.797
 6113SOL    HW219239   2.325   5.106   6.896
 6114SOL     OW19240   5.131   1.687   0.901
 6114SOL    HW119241   5.186   1.688   0.818
 6114SOL    HW219242   5.150   1.769   0.955
 6115SOL     OW19243   0.855   0.486   5.465
 6115SOL    HW119244   0.776   0.432   5.435
 6115SOL    HW219245   0.889   0.449   5.552
 6116SOL     OW19246   5.127   1.860   5.543
 6116SOL    HW119247   5.132   1.760   5.541
 6116SOL    HW219248   5.053   1.888   5.604
 6117SOL     OW19249   1.810   2.261   1.063
 6117SOL    HW119250   1.810   2.242   1.161
 6117SOL    HW219251   1.756   2.343   1.044
 6118SOL     OW19252   6.261   0.422   0.445
 6118SOL    HW119253   6.332   0.437   0.513
 6118SOL    HW219254   6.171   0.433   0.487
 6119SOL     OW19255   6.545   1.751   0.905
 6119SOL    HW119256   6.601   1.770   0.986
 6119SOL    HW219257   6.596   1.696   0.840
 6120SOL     OW19258   2.120   1.009   5.359
 6120SOL    HW119259   2.145   1.106   5.354
 6120SOL    HW219260   2.129   0.968   5.268
 6121SOL     OW19261   0.394   2.995   4.818
 6121SOL    HW119262   0.445   2.946   4.747
 6121SOL    HW219263   0.337   3.066   4.775
 6122SOL     OW19264   5.040   5.830   5.852
 6122SOL    HW119265   4.988   5.756   5.894
 6122SOL    HW219266   5.135   5.825   5.883
 6123SOL     OW19267   5.532   1.655   4.832
 6123SOL    HW119268   5.482   1.739   4.854
 6123SOL    HW219269   5.628   1.677   4.814
 6124SOL     OW19270   2.347   6.881   4.072
 6124SOL    HW119271   2.285   6.886   3.994
 6124SOL    HW219272   2.310   6.818   4.140
 6125SOL     OW19273   1.779   2.058   6.307
 6125SOL    HW119274   1.819   2.149   6.296
 6125SOL    HW219275   1.730   2.033   6.223
 6126SOL     OW19276   6.263   2.906   5.705
 6126SOL    HW119277   6.332   2.847   5.663
 6126SOL    HW219278   6.246   2.985   5.646
 6127SOL     OW19279   3.964   2.105   1.953
 6127SOL    HW119280   3.880   2.149   1.985
 6127SOL    HW219281   4.043   2.146   2.000
 6128SOL     OW19282   6.019   6.031   0.241
 6128SOL    HW119283   6.032   5.937   0.271
 6128SOL    HW219284   6.106   6.067   0.205
 6129SOL     OW19285   1.618   5.369   2.780
 6129SOL    HW119286   1.640   5.356   2.683
 6129SOL    HW219287   1.682   5.318   2.836
 6130SOL     OW19288   5.444   2.071   0.995
 6130SOL    HW119289   5.503   2.106   0.923
 6130SOL    HW219290   5.499   2.025   1.065
 6131SOL     OW19291   6.942   1.886   2.523
 6131SOL    HW119292   6.898   1.799   2.543
 6131SOL    HW219293   0.017   1.871   2.505
 6132SOL     OW19294   3.361   1.105   6.329
 6132SOL    HW119295   3.316   1.127   6.415
 6132SOL    HW219296   3.293   1.073   6.263
 6133SOL     OW19297   1.826   1.372   4.084
 6133SOL    HW119298   1.752   1.305   4.089
 6133SOL    HW219299   1.867   1.382   4.174
 6134SOL     OW19300   5.253   6.894   6.457
 6134SOL    HW119301   5.247   6.795   6.439
 6134SOL    HW219302   5.211   6.944   6.380
 6135SOL     OW19303   6.582   0.134   6.521
 6135SOL    HW119304   6.603   0.070   6.448
 6135SOL    HW219305   6.598   0.091   6.609
 6136SOL     OW19306   1.459   2.991   2.449
 6136SOL    HW119307   1.476   2.893   2.448
 6136SOL    HW219308   1.378   3.011   2.393
 6137SOL     OW19309   7.006   4.097   2.458
 6137SOL    HW119310   0.010   4.034   2.385
 6137SOL    HW219311   6.931   4.057   2.511
 6138SOL     OW19312   3.679   0.069   1.956
 6138SOL    HW119313   3.679   0.097   2.052
 6138SOL    HW219314   3.749   7.022   1.941
 6139SOL     OW19315   1.578   0.435   5.465
 6139SOL    HW119316   1.631   0.393   5.539
 6139SOL    HW219317   1.482   0.438   5.491
 6140SOL     OW19318   1.821   6.723   3.295
 6140SOL    HW119319   1.771   6.809   3.303
 6140SOL    HW219320   1.874   6.722   3.210
 6141SOL     OW19321   0.562   0.704   6.011
 6141SOL    HW119322   0.559   0.632   5.941
 6141SOL    HW219323   0.477   0.756   6.009
 6142SOL     OW19324   0.431   0.060   1.068
 6142SOL    HW119325   0.509   0.047   1.130
 6142SOL    HW219326   0.464   0.103   0.983
 6143SOL     OW19327   6.328   4.215   5.610
 6143SOL    HW119328   6.292   4.308   5.612
 6143SOL    HW219329   6.408   4.212   5.550
 6144SOL     OW19330   3.897   5.110   2.862
 6144SOL    HW119331   3.848   5.195   2.881
 6144SOL    HW219332   3.958   5.088   2.938
 6145SOL     OW19333   4.962   3.053   4.652
 6145SOL    HW119334   4.883   3.002   4.619
 6145SOL    HW219335   4.974   3.136   4.597
 6146SOL     OW19336   5.423   0.210   4.726
 6146SOL    HW119337   5.473   0.127   4.748
 6146SOL    HW219338   5.339   0.215   4.781
 6147SOL     OW19339   1.852   2.055   3.702
 6147SOL    HW119340   1.810   2.129   3.649
 6147SOL    HW219341   1.951   2.067   3.704
 6148SOL     OW19342   3.171   5.985   0.367
 6148SOL    HW119343   3.163   5.997   0.269
 6148SOL    HW219344   3.242   6.046   0.403
 6149SOL     OW19345   3.034   6.968   2.085
 6149SOL    HW119346   3.054   0.039   2.060
 6149SOL    HW219347   3.018   6.963   2.184
 6150SOL     OW19348   6.197   4.356   6.366
 6150SOL    HW119349   6.246   4.341   6.452
 6150SOL    HW219350   6.179   4.454   6.355
 6151SOL     OW19351   4.607   4.399   4.493
 6151SOL    HW119352   4.577   4.473   4.434
 6151SOL    HW219353   4.681   4.348   4.448
 6152SOL     OW19354   0.728   4.620   4.301
 6152SOL    HW119355   0.804   4.609   4.238
 6152SOL    HW219356   0.723   4.714   4.334
 6153SOL     OW19357   5.319   5.155   0.936
 6153SOL    HW119358   5.273   5.066   0.935
 6153SOL    HW219359   5.273   5.217   0.873
 6154SOL     OW19360   6.093   3.279   1.783
 6154SOL    HW119361   6.179   3.304   1.826
 6154SOL    HW219362   6.017   3.322   1.832
 6155SOL     OW19363   2.010   1.450   3.200
 6155SOL    HW119364   2.086   1.510   3.225
 6155SOL    HW219365   1.973   1.479   3.111
 6156SOL     OW19366   5.125   5.067   1.396
 6156SOL    HW119367   5.096   5.016   1.477
 6156SOL    HW219368   5.104   5.013   1.314
 6157SOL     OW19369   1.178   1.991   2.461
 6157SOL    HW119370   1.116   2.013   2.536
 6157SOL    HW219371   1.126   1.952   2.385
 6158SOL     OW19372   3.028   2.858   5.759
 6158SOL    HW119373   3.119   2.817   5.752
 6158SOL    HW219374   3.019   2.930   5.691
 6159SOL     OW19375   5.700   3.125   0.132
 6159SOL    HW119376   5.771   3.087   0.073
 6159SOL    HW219377   5.740   3.154   0.219
 6160SOL     OW19378   0.784   0.041   7.016
 6160SOL    HW119379   0.699   0.087   0.020
 6160SOL    HW219380   0.839   0.023   0.075
 6161SOL     OW19381   4.763   2.638   6.338
 6161SOL    HW119382   4.858   2.658   6.312
 6161SOL    HW219383   4.747   2.672   6.431
 6162SOL     OW19384   6.367   5.541   2.790
 6162SOL    HW119385   6.320   5.486   2.859
 6162SOL    HW219386   6.350   5.638   2.807
 6163SOL     OW19387   5.673   6.007   3.311
 6163SOL    HW119388   5.726   6.044   3.388
 6163SOL    HW219389   5.708   5.917   3.287
 6164SOL     OW19390   3.687   4.155   4.865
 6164SOL    HW119391   3.601   4.130   4.910
 6164SOL    HW219392   3.750   4.191   4.933
 6165SOL     OW19393   4.021   1.944   0.237
 6165SOL    HW119394   3.962   2.015   0.274
 6165SOL    HW219395   3.976   1.855   0.246
 6166SOL     OW19396   0.909   2.293   6.906
 6166SOL    HW119397   0.863   2.204   6.915
 6166SOL    HW219398   0.927   2.312   6.810
 6167SOL     OW19399   1.205   3.591   3.717
 6167SOL    HW119400   1.214   3.500   3.676
 6167SOL    HW219401   1.292   3.618   3.758
 6168SOL     OW19402   0.493   3.565   4.381
 6168SOL    HW119403   0.568   3.546   4.444
 6168SOL    HW219404   0.421   3.616   4.429
 6169SOL     OW19405   2.357   6.848   0.194
 6169SOL    HW119406   2.394   6.880   0.281
 6169SOL    HW219407   2.295   6.771   0.210
 6170SOL     OW19408   3.636   4.016   6.804
 6170SOL    HW119409   3.718   3.977   6.763
 6170SOL    HW219410   3.649   4.024   6.903
 6171SOL     OW19411   1.980   4.527   2.540
 6171SOL    HW119412   2.060   4.555   2.592
 6171SOL    HW219413   1.987   4.430   2.517
 6172SOL     OW19414   1.246   6.168   2.828
 6172SOL    HW119415   1.161   6.164   2.881
 6172SOL    HW219416   1.231   6.125   2.738
 6173SOL     OW19417   1.353   5.091   2.530
 6173SOL    HW119418   1.332   5.125   2.622
 6173SOL    HW219419   1.450   5.070   2.523
 6174SOL     OW19420   5.388   5.277   2.880
 6174SOL    HW119421   5.324   5.332   2.934
 6174SOL    HW219422   5.382   5.181   2.909
 6175SOL     OW19423   4.722   0.424   3.381
 6175SOL    HW119424   4.798   0.481   3.350
 6175SOL    HW219425   4.712   0.346   3.321
 6176SOL     OW19426   6.156   3.322   5.871
 6176SOL    HW119427   6.153   3.401   5.932
 6176SOL    HW219428   6.251   3.294   5.856
 6177SOL     OW19429   5.352   2.073   0.629
 6177SOL    HW119430   5.309   2.138   0.566
 6177SOL    HW219431   5.439   2.043   0.590
 6178SOL     OW19432   5.619   3.433   0.764
 6178SOL    HW119433   5.651   3.344   0.797
 6178SOL    HW219434   5.520   3.431   0.751
 6179SOL     OW19435   0.034   2.317   5.498
 6179SOL    HW119436   6.977   2.338   5.554
 6179SOL    HW219437   0.111   2.374   5.528
 6180SOL     OW19438   3.789   6.929   0.976
 6180SOL    HW119439   3.700   6.924   1.021
 6180SOL    HW219440   3.787   6.871   0.894
 6181SOL     OW19441   4.935   6.473   6.804
 6181SOL    HW119442   4.847   6.427   6.815
 6181SOL    HW219443   5.002   6.410   6.764
 6182SOL     OW19444   4.866   6.485   6.408
 6182SOL    HW119445   4.838   6.536   6.327
 6182SOL    HW219446   4.784   6.451   6.456
 6183SOL     OW19447   2.939   6.988   3.409
 6183SOL    HW119448   3.029   6.971   3.369
 6183SOL    HW219449   2.876   6.915   3.381
 6184SOL     OW19450   0.434   0.405   6.474
 6184SOL    HW119451   0.478   0.316   6.471
 6184SOL    HW219452   0.497   0.472   6.512
 6185SOL     OW19453   6.885   3.480   6.258
 6185SOL    HW119454   6.970   3.459   6.209
 6185SOL    HW219455   6.821   3.525   6.196
 6186SOL     OW19456   5.257   0.352   4.363
 6186SOL    HW119457   5.164   0.334   4.331
 6186SOL    HW219458   5.313   0.385   4.288
 6187SOL     OW19459   4.520   4.659   4.325
 6187SOL    HW119460   4.499   4.745   4.372
 6187SOL    HW219461   4.437   4.623   4.282
 6188SOL     OW19462   2.916   6.596   1.090
 6188SOL    HW119463   2.985   6.555   1.149
 6188SOL    HW219464   2.910   6.694   1.111
 6189SOL     OW19465   5.556   5.196   3.492
 6189SOL    HW119466   5.520   5.219   3.401
 6189SOL    HW219467   5.601   5.276   3.531
 6190SOL     OW19468   5.429   2.439   6.954
 6190SOL    HW119469   5.471   2.516   6.905
 6190SOL    HW219470   5.490   2.360   6.949
 6191SOL     OW19471   5.868   1.728   6.966
 6191SOL    HW119472   5.770   1.738   6.978
 6191SOL    HW219473   5.916   1.758   0.026
 6192SOL     OW19474   2.563   2.857   6.760
 6192SOL    HW119475   2.608   2.940   6.728
 6192SOL    HW219476   2.600   2.831   6.850
 6193SOL     OW19477   5.255   0.467   1.799
 6193SOL    HW119478   5.204   0.381   1.788
 6193SOL    HW219479   5.192   0.540   1.823
 6194SOL     OW19480   2.967   0.924   0.815
 6194SOL    HW119481   2.954   0.886   0.723
 6194SOL    HW219482   2.888   0.901   0.872
 6195SOL     OW19483   3.347   0.227   6.360
 6195SOL    HW119484   3.406   0.225   6.279
 6195SOL    HW219485   3.290   0.145   6.362
 6196SOL     OW19486   0.851   2.152   6.181
 6196SOL    HW119487   0.805   2.094   6.114
 6196SOL    HW219488   0.916   2.097   6.234
 6197SOL     OW19489   2.260   3.953   0.644
 6197SOL    HW119490   2.288   4.041   0.605
 6197SOL    HW219491   2.281   3.880   0.580
 6198SOL     OW19492   3.676   4.946   2.538
 6198SOL    HW119493   3.672   4.936   2.438
 6198SOL    HW219494   3.610   5.015   2.567
 6199SOL     OW19495   1.669   6.631   0.082
 6199SOL    HW119496   1.618   6.598   0.161
 6199SOL    HW219497   1.647   6.727   0.065
 6200SOL     OW19498   4.106   0.918   6.313
 6200SOL    HW119499   4.102   0.949   6.408
 6200SOL    HW219500   4.195   0.876   6.296
 6201SOL     OW19501   2.038   3.707   5.566
 6201SOL    HW119502   2.122   3.667   5.529
 6201SOL    HW219503   1.966   3.704   5.496
 6202SOL     OW19504   3.192   2.262   0.864
 6202SOL    HW119505   3.235   2.283   0.776
 6202SOL    HW219506   3.183   2.163   0.875
 6203SOL     OW19507   4.951   1.021   4.259
 6203SOL    HW119508   4.975   1.074   4.340
 6203SOL    HW219509   4.858   0.987   4.268
 6204SOL     OW19510   2.521   6.322   5.532
 6204SOL    HW119511   2.426   6.322   5.500
 6204SOL    HW219512   2.580   6.356   5.459
 6205SOL     OW19513   5.149   5.870   0.088
 6205SOL    HW119514   5.105   5.955   0.060
 6205SOL    HW219515   5.247   5.877   0.072
 6206SOL     OW19516   5.712   0.632   2.845
 6206SOL    HW119517   5.617   0.602   2.848
 6206SOL    HW219518   5.767   0.576   2.908
 6207SOL     OW19519   1.519   4.178   4.907
 6207SOL    HW119520   1.581   4.131   4.970
 6207SOL    HW219521   1.539   4.151   4.813
 6208SOL     OW19522   5.922   6.563   6.311
 6208SOL    HW119523   6.015   6.590   6.337
 6208SOL    HW219524   5.872   6.643   6.277
 6209SOL     OW19525   4.324   6.490   0.379
 6209SOL    HW119526   4.417   6.459   0.399
 6209SOL    HW219527   4.260   6.452   0.445
 6210SOL     OW19528   5.564   4.219   3.635
 6210SOL    HW119529   5.506   4.275   3.575
 6210SOL    HW219530   5.628   4.166   3.579
 6211SOL     OW19531   2.891   6.904   4.701
 6211SOL    HW119532   2.951   6.953   4.764
 6211SOL    HW219533   2.801   6.947   4.700
 6212SOL     OW19534   6.732   6.206   4.010
 6212SOL    HW119535   6.722   6.142   4.086
 6212SOL    HW219536   6.738   6.300   4.045
 6213SOL     OW19537   6.319   0.711   6.255
 6213SOL    HW119538   6.269   0.701   6.341
 6213SOL    HW219539   6.331   0.808   6.234
 6214SOL     OW19540   6.685   4.410   2.825
 6214SOL    HW119541   6.687   4.488   2.762
 6214SOL    HW219542   6.608   4.350   2.802
 6215SOL     OW19543   2.843   3.256   0.946
 6215SOL    HW119544   2.897   3.247   1.030
 6215SOL    HW219545   2.813   3.166   0.915
 6216SOL     OW19546   5.479   2.091   2.033
 6216SOL    HW119547   5.544   2.047   2.095
 6216SOL    HW219548   5.520   2.097   1.942
 6217SOL     OW19549   4.514   2.421   1.059
 6217SOL    HW119550   4.501   2.339   1.003
 6217SOL    HW219551   4.607   2.422   1.097
 6218SOL     OW19552   2.691   5.143   4.473
 6218SOL    HW119553   2.786   5.148   4.506
 6218SOL    HW219554   2.634   5.102   4.544
 6219SOL     OW19555   0.970   2.343   5.167
 6219SOL    HW119556   0.985   2.419   5.103
 6219SOL    HW219557   0.903   2.370   5.236
 6220SOL     OW19558   2.179   4.707   5.204
 6220SOL    HW119559   2.265   4.702   5.255
 6220SOL    HW219560   2.108   4.659   5.255
 6221SOL     OW19561   3.679   4.939   4.351
 6221SOL    HW119562   3.712   4.898   4.436
 6221SOL    HW219563   3.717   5.031   4.341
 6222SOL     OW19564   6.601   0.134   1.827
 6222SOL    HW119565   6.541   0.055   1.840
 6222SOL    HW219566   6.636   0.134   1.733
 6223SOL     OW19567   5.776   2.954   4.870
 6223SOL    HW119568   5.870   2.949   4.836
 6223SOL    HW219569   5.765   2.893   4.949
 6224SOL     OW19570   2.636   1.640   5.640
 6224SOL    HW119571   2.676   1.722   5.598
 6224SOL    HW219572   2.690   1.615   5.720
 6225SOL     OW19573   3.269   3.188   0.586
 6225SOL    HW119574   3.223   3.112   0.540
 6225SOL    HW219575   3.353   3.155   0.629
 6226SOL     OW19576   5.719   0.497   4.156
 6226SOL    HW119577   5.622   0.495   4.180
 6226SOL    HW219578   5.737   0.577   4.098
 6227SOL     OW19579   3.688   4.607   5.855
 6227SOL    HW119580   3.756   4.537   5.832
 6227SOL    HW219581   3.618   4.568   5.913
 6228SOL     OW19582   0.299   1.234   3.192
 6228SOL    HW119583   0.199   1.229   3.181
 6228SOL    HW219584   0.329   1.329   3.181
 6229SOL     OW19585   2.363   2.713   2.718
 6229SOL    HW119586   2.364   2.797   2.773
 6229SOL    HW219587   2.285   2.656   2.747
 6230SOL     OW19588   2.291   2.327   4.048
 6230SOL    HW119589   2.357   2.253   4.059
 6230SOL    HW219590   2.340   2.414   4.041
 6231SOL     OW19591   0.029   5.281   1.288
 6231SOL    HW119592   0.029   5.234   1.376
 6231SOL    HW219593   6.998   5.228   1.222
 6232SOL     OW19594   0.230   0.681   0.196
 6232SOL    HW119595   0.240   0.723   0.106
 6232SOL    HW219596   0.180   0.743   0.257
 6233SOL     OW19597   4.638   2.431   6.499
 6233SOL    HW119598   4.666   2.447   6.594
 6233SOL    HW219599   4.690   2.490   6.438
 6234SOL     OW19600   1.690   1.861   4.583
 6234SOL    HW119601   1.742   1.784   4.619
 6234SOL    HW219602   1.740   1.946   4.600
 6235SOL     OW19603   1.747   0.282   2.423
 6235SOL    HW119604   1.779   0.213   2.358
 6235SOL    HW219605   1.695   0.352   2.374
 6236SOL     OW19606   6.946   4.018   0.953
 6236SOL    HW119607   6.990   3.943   1.003
 6236SOL    HW219608   7.010   4.095   0.947
 6237SOL     OW19609   4.196   6.681   1.017
 6237SOL    HW119610   4.234   6.698   1.107
 6237SOL    HW219611   4.236   6.744   0.951
 6238SOL     OW19612   4.973   5.418   1.208
 6238SOL    HW119613   5.057   5.372   1.238
 6238SOL    HW219614   4.895   5.384   1.261
 6239SOL     OW19615   2.213   6.654   2.638
 6239SOL    HW119616   2.276   6.610   2.573
 6239SOL    HW219617   2.207   6.752   2.616
 6240SOL     OW19618   1.492   3.217   0.413
 6240SOL    HW119619   1.565   3.149   0.407
 6240SOL    HW219620   1.452   3.216   0.504
 6241SOL     OW19621   3.067   0.114   1.352
 6241SOL    HW119622   3.097   0.024   1.321
 6241SOL    HW219623   3.057   0.112   1.452
 6242SOL     OW19624   5.111   2.285   4.032
 6242SOL    HW119625   5.193   2.229   4.028
 6242SOL    HW219626   5.120   2.362   3.968
 6243SOL     OW19627   5.554   6.076   4.132
 6243SOL    HW119628   5.573   6.088   4.230
 6243SOL    HW219629   5.641   6.059   4.084
 6244SOL     OW19630   2.728   2.007   2.298
 6244SOL    HW119631   2.735   2.106   2.312
 6244SOL    HW219632   2.771   1.982   2.211
 6245SOL     OW19633   3.151   4.916   1.509
 6245SOL    HW119634   3.114   4.982   1.575
 6245SOL    HW219635   3.228   4.957   1.460
 6246SOL     OW19636   2.726   2.204   5.658
 6246SOL    HW119637   2.724   2.212   5.558
 6246SOL    HW219638   2.738   2.294   5.698
 6247SOL     OW19639   0.409   6.513   3.216
 6247SOL    HW119640   0.456   6.437   3.261
 6247SOL    HW219641   0.418   6.504   3.117
 6248SOL     OW19642   0.852   4.736   1.310
 6248SOL    HW119643   0.771   4.787   1.282
 6248SOL    HW219644   0.914   4.796   1.361
 6249SOL     OW19645   0.043   4.027   0.302
 6249SOL    HW119646   6.989   4.088   0.320
 6249SOL    HW219647   0.112   4.040   0.373
 6250SOL     OW19648   5.951   6.410   0.100
 6250SOL    HW119649   5.974   6.465   0.180
 6250SOL    HW219650   5.880   6.456   0.047
 6251SOL     OW19651   4.309   1.740   0.592
 6251SOL    HW119652   4.213   1.737   0.620
 6251SOL    HW219653   4.366   1.762   0.671
 6252SOL     OW19654   3.130   5.922   4.955
 6252SOL    HW119655   3.107   5.831   4.988
 6252SOL    HW219656   3.059   5.954   4.892
 6253SOL     OW19657   2.313   3.867   1.664
 6253SOL    HW119658   2.292   3.898   1.756
 6253SOL    HW219659   2.410   3.884   1.644
 6254SOL     OW19660   5.837   0.056   0.402
 6254SOL    HW119661   5.773   0.075   0.476
 6254SOL    HW219662   5.902   0.131   0.394
 6255SOL     OW19663   0.408   1.366   2.738
 6255SOL    HW119664   0.343   1.422   2.686
 6255SOL    HW219665   0.487   1.344   2.679
 6256SOL     OW19666   3.765   4.878   2.808
 6256SOL    HW119667   3.797   4.973   2.810
 6256SOL    HW219668   3.713   4.863   2.724
 6257SOL     OW19669   5.497   2.710   0.235
 6257SOL    HW119670   5.414   2.764   0.228
 6257SOL    HW219671   5.549   2.740   0.315
 6258SOL     OW19672   4.478   2.039   2.151
 6258SOL    HW119673   4.390   2.073   2.185
 6258SOL    HW219674   4.531   2.115   2.114
 6259SOL     OW19675   3.070   2.197   1.870
 6259SOL    HW119676   3.108   2.118   1.919
 6259SOL    HW219677   2.998   2.239   1.926
 6260SOL     OW19678   3.336   4.059   0.017
 6260SOL    HW119679   3.387   4.089   6.958
 6260SOL    HW219680   3.396   4.065   0.097
 6261SOL     OW19681   4.199   1.342   0.238
 6261SOL    HW119682   4.135   1.400   0.187
 6261SOL    HW219683   4.284   1.393   0.255
 6262SOL     OW19684   1.181   4.695   6.540
 6262SOL    HW119685   1.226   4.663   6.457
 6262SOL    HW219686   1.240   4.759   6.588
 6263SOL     OW19687   6.988   6.700   0.630
 6263SOL    HW119688   7.022   6.785   0.589
 6263SOL    HW219689   7.021   6.622   0.577
 6264SOL     OW19690   2.582   2.046   0.146
 6264SOL    HW119691   2.520   2.037   0.225
 6264SOL    HW219692   2.651   1.974   0.150
 6265SOL     OW19693   3.983   3.803   1.126
 6265SOL    HW119694   4.024   3.860   1.197
 6265SOL    HW219695   4.033   3.815   1.040
 6266SOL     OW19696   3.479   0.942   3.119
 6266SOL    HW119697   3.508   0.996   3.040
 6266SOL    HW219698   3.504   0.846   3.104
 6267SOL     OW19699   3.438   0.148   6.623
 6267SOL    HW119700   3.404   0.163   6.530
 6267SOL    HW219701   3.387   0.205   6.687
 6268SOL     OW19702   3.237   4.897   3.024
 6268SOL    HW119703   3.309   4.870   3.087
 6268SOL    HW219704   3.268   4.975   2.969
 6269SOL     OW19705   5.786   5.507   1.460
 6269SOL    HW119706   5.860   5.534   1.398
 6269SOL    HW219707   5.759   5.586   1.515
 6270SOL     OW19708   1.034   0.255   4.851
 6270SOL    HW119709   1.071   0.325   4.911
 6270SOL    HW219710   0.958   0.293   4.798
 6271SOL     OW19711   0.115   1.479   0.479
 6271SOL    HW119712   0.171   1.410   0.432
 6271SOL    HW219713   0.175   1.543   0.528
 6272SOL     OW19714   2.177   2.580   3.900
 6272SOL    HW119715   2.258   2.618   3.855
 6272SOL    HW219716   2.202   2.494   3.946
 6273SOL     OW19717   2.824   1.197   1.280
 6273SOL    HW119718   2.815   1.245   1.368
 6273SOL    HW219719   2.883   1.118   1.291
 6274SOL     OW19720   3.514   6.507   5.945
 6274SOL    HW119721   3.560   6.461   5.869
 6274SOL    HW219722   3.566   6.493   6.029
 6275SOL     OW19723   1.819   0.236   4.586
 6275SOL    HW119724   1.828   0.286   4.672
 6275SOL    HW219725   1.732   0.259   4.543
 6276SOL     OW19726   1.318   5.620   3.797
 6276SOL    HW119727   1.417   5.628   3.805
 6276SOL    HW219728   1.289   5.530   3.830
 6277SOL     OW19729   5.078   2.994   2.699
 6277SOL    HW119730   5.102   2.926   2.630
 6277SOL    HW219731   5.005   2.958   2.757
 6278SOL     OW19732   5.140   0.373   3.992
 6278SOL    HW119733   5.061   0.397   4.048
 6278SOL    HW219734   5.119   0.294   3.935
 6279SOL     OW19735   4.098   2.050   0.540
 6279SOL    HW119736   4.077   1.954   0.554
 6279SOL    HW219737   4.157   2.060   0.460
 6280SOL     OW19738   0.110   4.180   5.592
 6280SOL    HW119739   0.031   4.242   5.603
 6280SOL    HW219740   0.122   4.159   5.496
 6281SOL     OW19741   2.397   0.487   5.461
 6281SOL    HW119742   2.399   0.389   5.477
 6281SOL    HW219743   2.371   0.505   5.366
 6282SOL     OW19744   2.426   0.002   4.573
 6282SOL    HW119745   2.382   0.089   4.551
 6282SOL    HW219746   2.444   6.975   4.488
 6283SOL     OW19747   6.794   2.496   5.299
 6283SOL    HW119748   6.703   2.481   5.338
 6283SOL    HW219749   6.811   2.429   5.227
 6284SOL     OW19750   0.996   4.705   5.339
 6284SOL    HW119751   1.004   4.607   5.356
 6284SOL    HW219752   1.003   4.723   5.241
 6285SOL     OW19753   1.734   3.210   3.357
 6285SOL    HW119754   1.758   3.217   3.260
 6285SOL    HW219755   1.708   3.116   3.378
 6286SOL     OW19756   5.781   1.441   3.516
 6286SOL    HW119757   5.720   1.400   3.584
 6286SOL    HW219758   5.782   1.385   3.434
 6287SOL     OW19759   4.901   4.103   1.568
 6287SOL    HW119760   4.956   4.077   1.489
 6287SOL    HW219761   4.958   4.104   1.650
 6288SOL     OW19762   5.409   3.610   0.241
 6288SOL    HW119763   5.488   3.593   0.301
 6288SOL    HW219764   5.433   3.587   0.147
 6289SOL     OW19765   1.715   1.649   3.742
 6289SOL    HW119766   1.764   1.644   3.829
 6289SOL    HW219767   1.658   1.731   3.740
 6290SOL     OW19768   4.801   3.972   3.500
 6290SOL    HW119769   4.754   4.049   3.544
 6290SOL    HW219770   4.828   3.999   3.407
 6291SOL     OW19771   3.507   4.103   3.539
 6291SOL    HW119772   3.479   4.118   3.634
 6291SOL    HW219773   3.603   4.074   3.537
 6292SOL     OW19774   1.363   1.442   2.218
 6292SOL    HW119775   1.264   1.449   2.231
 6292SOL    HW219776   1.383   1.375   2.147
 6293SOL     OW19777   4.737   6.802   0.305
 6293SOL    HW119778   4.713   6.729   0.242
 6293SOL    HW219779   4.717   6.890   0.264
 6294SOL     OW19780   4.061   5.205   3.106
 6294SOL    HW119781   4.142   5.228   3.052
 6294SOL    HW219782   4.025   5.288   3.149
 6295SOL     OW19783   5.810   6.080   6.334
 6295SOL    HW119784   5.884   6.036   6.386
 6295SOL    HW219785   5.829   6.179   6.327
 6296SOL     OW19786   6.420   1.037   3.087
 6296SOL    HW119787   6.392   1.110   3.025
 6296SOL    HW219788   6.362   1.037   3.168
 6297SOL     OW19789   5.504   6.227   5.904
 6297SOL    HW119790   5.454   6.276   5.975
 6297SOL    HW219791   5.468   6.253   5.814
 6298SOL     OW19792   0.520   3.070   5.057
 6298SOL    HW119793   0.564   3.013   5.126
 6298SOL    HW219794   0.463   3.013   4.998
 6299SOL     OW19795   6.734   3.084   6.534
 6299SOL    HW119796   6.652   3.050   6.489
 6299SOL    HW219797   6.815   3.051   6.485
 6300SOL     OW19798   4.823   0.924   3.428
 6300SOL    HW119799   4.920   0.914   3.451
 6300SOL    HW219800   4.809   0.898   3.332
 6301SOL     OW19801   3.364   6.920   0.695
 6301SOL    HW119802   3.349   6.982   0.771
 6301SOL    HW219803   3.276   6.886   0.662
 6302SOL     OW19804   1.809   1.126   3.601
 6302SOL    HW119805   1.758   1.051   3.644
 6302SOL    HW219806   1.756   1.211   3.610
 6303SOL     OW19807   1.395   6.179   4.983
 6303SOL    HW119808   1.482   6.137   5.007
 6303SOL    HW219809   1.406   6.238   4.903
 6304SOL     OW19810   2.828   1.324   0.073
 6304SOL    HW119811   2.837   1.417   0.109
 6304SOL    HW219812   2.890   1.312   7.018
 6305SOL     OW19813   6.909   6.807   1.316
 6305SOL    HW119814   6.848   6.882   1.293
 6305SOL    HW219815   6.890   6.729   1.256
 6306SOL     OW19816   6.816   3.031   3.776
 6306SOL    HW119817   6.781   2.943   3.810
 6306SOL    HW219818   6.863   3.017   3.689
 6307SOL     OW19819   1.924   5.144   0.111
 6307SOL    HW119820   1.847   5.086   0.140
 6307SOL    HW219821   2.001   5.086   0.084
 6308SOL     OW19822   2.934   1.840   5.233
 6308SOL    HW119823   3.019   1.805   5.273
 6308SOL    HW219824   2.953   1.925   5.183
 6309SOL     OW19825   5.552   2.009   3.810
 6309SOL    HW119826   5.615   1.967   3.745
 6309SOL    HW219827   5.601   2.032   3.894
 6310SOL     OW19828   1.211   4.510   4.589
 6310SOL    HW119829   1.308   4.529   4.575
 6310SOL    HW219830   1.199   4.463   4.676
 6311SOL     OW19831   6.012   0.360   4.551
 6311SOL    HW119832   5.919   0.392   4.531
 6311SOL    HW219833   6.016   0.261   4.544
 6312SOL     OW19834   4.425   5.054   5.906
 6312SOL    HW119835   4.444   4.965   5.947
 6312SOL    HW219836   4.510   5.103   5.892
 6313SOL     OW19837   2.558   5.882   3.482
 6313SOL    HW119838   2.489   5.810   3.490
 6313SOL    HW219839   2.620   5.877   3.560
 6314SOL     OW19840   2.763   6.176   2.524
 6314SOL    HW119841   2.690   6.163   2.591
 6314SOL    HW219842   2.725   6.214   2.440
 6315SOL     OW19843   2.975   3.855   0.256
 6315SOL    HW119844   3.008   3.868   0.163
 6315SOL    HW219845   2.933   3.765   0.264
 6316SOL     OW19846   4.342   2.635   5.753
 6316SOL    HW119847   4.253   2.590   5.748
 6316SOL    HW219848   4.407   2.575   5.800
 6317SOL     OW19849   5.299   6.972   3.834
 6317SOL    HW119850   5.271   6.920   3.753
 6317SOL    HW219851   5.395   6.954   3.853
 6318SOL     OW19852   2.363   2.473   5.253
 6318SOL    HW119853   2.380   2.469   5.155
 6318SOL    HW219854   2.440   2.518   5.298
 6319SOL     OW19855   0.944   1.655   3.501
 6319SOL    HW119856   1.002   1.737   3.499
 6319SOL    HW219857   0.864   1.672   3.558
 6320SOL     OW19858   5.656   3.866   3.161
 6320SOL    HW119859   5.622   3.840   3.071
 6320SOL    HW219860   5.690   3.785   3.209
 6321SOL     OW19861   2.630   4.807   0.659
 6321SOL    HW119862   2.556   4.786   0.595
 6321SOL    HW219863   2.681   4.886   0.625
 6322SOL     OW19864   1.119   0.934   6.756
 6322SOL    HW119865   1.120   0.964   6.661
 6322SOL    HW219866   1.025   0.931   6.789
 6323SOL     OW19867   3.597   2.800   0.707
 6323SOL    HW119868   3.592   2.817   0.609
 6323SOL    HW219869   3.662   2.726   0.725
 6324SOL     OW19870   3.994   1.393   6.103
 6324SOL    HW119871   3.929   1.428   6.170
 6324SOL    HW219872   4.029   1.305   6.133
 6325SOL     OW19873   0.709   2.255   2.561
 6325SOL    HW119874   0.764   2.269   2.643
 6325SOL    HW219875   0.660   2.340   2.540
 6326SOL     OW19876   5.411   5.911   1.460
 6326SOL    HW119877   5.368   6.001   1.446
 6326SOL    HW219878   5.405   5.858   1.375
 6327SOL     OW19879   5.991   5.611   5.556
 6327SOL    HW119880   6.063   5.610   5.625
 6327SOL    HW219881   5.928   5.534   5.574
 6328SOL     OW19882   2.794   4.077   6.569
 6328SOL    HW119883   2.874   4.109   6.518
 6328SOL    HW219884   2.717   4.065   6.507
 6329SOL     OW19885   1.124   1.496   3.183
 6329SOL    HW119886   1.095   1.568   3.247
 6329SOL    HW219887   1.043   1.449   3.148
 6330SOL     OW19888   4.115   1.398   0.502
 6330SOL    HW119889   4.151   1.368   0.413
 6330SOL    HW219890   4.029   1.447   0.488
 6331SOL     OW19891   6.530   2.218   1.576
 6331SOL    HW119892   6.584   2.290   1.531
 6331SOL    HW219893   6.461   2.184   1.513
 6332SOL     OW19894   6.087   5.263   1.368
 6332SOL    HW119895   6.050   5.345   1.411
 6332SOL    HW219896   6.183   5.253   1.392
 6333SOL     OW19897   3.309   4.921   3.432
 6333SOL    HW119898   3.397   4.966   3.413
 6333SOL    HW219899   3.323   4.849   3.499
 6334SOL     OW19900   2.448   0.911   2.315
 6334SOL    HW119901   2.537   0.865   2.316
 6334SOL    HW219902   2.410   0.907   2.222
 6335SOL     OW19903   6.513   1.286   6.268
 6335SOL    HW119904   6.454   1.242   6.335
 6335SOL    HW219905   6.556   1.216   6.211
 6336SOL     OW19906   6.750   2.357   4.443
 6336SOL    HW119907   6.725   2.271   4.489
 6336SOL    HW219908   6.694   2.370   4.362
 6337SOL     OW19909   6.029   4.260   5.665
 6337SOL    HW119910   6.023   4.220   5.574
 6337SOL    HW219911   6.123   4.292   5.682
 6338SOL     OW19912   3.789   1.405   2.858
 6338SOL    HW119913   3.836   1.457   2.929
 6338SOL    HW219914   3.846   1.328   2.830
 6339SOL     OW19915   0.496   1.815   4.067
 6339SOL    HW119916   0.468   1.724   4.101
 6339SOL    HW219917   0.578   1.844   4.115
 6340SOL     OW19918   2.739   5.677   4.055
 6340SOL    HW119919   2.690   5.668   3.969
 6340SOL    HW219920   2.711   5.603   4.117
 6341SOL     OW19921   0.060   4.250   3.643
 6341SOL    HW119922   0.074   4.216   3.550
 6341SOL    HW219923   0.049   4.350   3.641
 6342SOL     OW19924   1.322   1.979   1.262
 6342SOL    HW119925   1.269   2.064   1.263
 6342SOL    HW219926   1.361   1.966   1.171
 6343SOL     OW19927   3.564   1.290   6.861
 6343SOL    HW119928   3.499   1.226   6.903
 6343SOL    HW219929   3.602   1.250   6.778
 6344SOL     OW19930   0.656   4.097   4.828
 6344SOL    HW119931   0.725   4.169   4.839
 6344SOL    HW219932   0.591   4.101   4.904
 6345SOL     OW19933   3.929   1.274   2.298
 6345SOL    HW119934   4.022   1.279   2.264
 6345SOL    HW219935   3.888   1.366   2.296
 6346SOL     OW19936   0.504   3.948   3.421
 6346SOL    HW119937   0.591   3.915   3.458
 6346SOL    HW219938   0.469   3.881   3.355
 6347SOL     OW19939   3.008   0.005   0.462
 6347SOL    HW119940   2.917   7.003   0.495
 6347SOL    HW219941   3.005   0.095   0.419
 6348SOL     OW19942   0.681   2.874   3.908
 6348SOL    HW119943   0.597   2.915   3.871
 6348SOL    HW219944   0.662   2.779   3.933
 6349SOL     OW19945   2.813   1.185   0.825
 6349SOL    HW119946   2.879   1.109   0.835
 6349SOL    HW219947   2.846   1.264   0.877
 6350SOL     OW19948   1.699   5.771   2.519
 6350SOL    HW119949   1.644   5.829   2.578
 6350SOL    HW219950   1.782   5.819   2.492
 6351SOL     OW19951   0.202   1.460   2.597
 6351SOL    HW119952   0.161   1.538   2.643
 6351SOL    HW219953   0.269   1.492   2.530
 6352SOL     OW19954   1.034   5.520   2.263
 6352SOL    HW119955   1.061   5.434   2.306
 6352SOL    HW219956   0.952   5.556   2.308
 6353SOL     OW19957   0.537   0.102   0.818
 6353SOL    HW119958   0.580   0.025   0.865
 6353SOL    HW219959   0.599   0.138   0.748
 6354SOL     OW19960   0.789   6.660   2.969
 6354SOL    HW119961   0.746   6.709   3.044
 6354SOL    HW219962   0.889   6.672   2.974
 6355SOL     OW19963   1.703   2.637   2.966
 6355SOL    HW119964   1.797   2.658   2.941
 6355SOL    HW219965   1.646   2.718   2.954
 6356SOL     OW19966   3.615   4.112   1.156
 6356SOL    HW119967   3.646   4.090   1.249
 6356SOL    HW219968   3.529   4.066   1.138
 6357SOL     OW19969   4.118   2.065   0.028
 6357SOL    HW119970   4.088   2.007   0.103
 6357SOL    HW219971   4.038   2.109   7.009
 6358SOL     OW19972   0.443   2.028   3.419
 6358SOL    HW119973   0.513   2.096   3.398
 6358SOL    HW219974   0.447   2.005   3.516
 6359SOL     OW19975   6.836   0.578   6.440
 6359SOL    HW119976   6.877   0.489   6.421
 6359SOL    HW219977   6.752   0.588   6.387
 6360SOL     OW19978   3.046   5.375   3.842
 6360SOL    HW119979   3.125   5.355   3.784
 6360SOL    HW219980   2.967   5.324   3.810
 6361SOL     OW19981   4.362   6.096   6.047
 6361SOL    HW119982   4.267   6.129   6.044
 6361SOL    HW219983   4.406   6.115   5.959
 6362SOL     OW19984   6.179   5.193   6.584
 6362SOL    HW119985   6.208   5.269   6.642
 6362SOL    HW219986   6.159   5.227   6.492
 6363SOL     OW19987   1.727   5.792   4.229
 6363SOL    HW119988   1.772   5.782   4.140
 6363SOL    HW219989   1.701   5.887   4.243
 6364SOL     OW19990   2.321   2.640   6.040
 6364SOL    HW119991   2.313   2.739   6.032
 6364SOL    HW219992   2.236   2.602   6.076
 6365SOL     OW19993   5.027   6.883   3.212
 6365SOL    HW119994   5.064   6.927   3.130
 6365SOL    HW219995   4.935   6.849   3.193
 6366SOL     OW19996   0.574   5.686   5.388
 6366SOL    HW119997   0.574   5.704   5.486
 6366SOL    HW219998   0.503   5.740   5.343
 6367SOL     OW19999   5.225   6.439   4.150
 6367SOL    HW120000   5.221   6.425   4.249
 6367SOL    HW220001   5.170   6.519   4.125
 6368SOL     OW20002   3.251   6.783   4.585
 6368SOL    HW120003   3.168   6.727   4.579
 6368SOL    HW220004   3.315   6.757   4.513
 6369SOL     OW20005   2.596   4.993   4.271
 6369SOL    HW120006   2.656   5.048   4.330
 6369SOL    HW220007   2.596   4.898   4.302
 6370SOL     OW20008   5.877   2.179   1.214
 6370SOL    HW120009   5.807   2.221   1.272
 6370SOL    HW220010   5.940   2.126   1.271
 6371SOL     OW20011   4.682   2.253   2.341
 6371SOL    HW120012   4.602   2.260   2.281
 6371SOL    HW220013   4.717   2.160   2.340
 6372SOL     OW20014   3.353   6.049   2.299
 6372SOL    HW120015   3.380   6.014   2.389
 6372SOL    HW220016   3.268   6.101   2.307
 6373SOL     OW20017   4.327   3.988   6.419
 6373SOL    HW120018   4.341   3.928   6.340
 6373SOL    HW220019   4.233   3.977   6.452
 6374SOL     OW20020   3.080   3.221   2.732
 6374SOL    HW120021   3.170   3.204   2.772
 6374SOL    HW220022   3.017   3.248   2.805
 6375SOL     OW20023   1.629   6.362   3.031
 6375SOL    HW120024   1.618   6.364   2.931
 6375SOL    HW220025   1.542   6.336   3.073
 6376SOL     OW20026   6.606   2.215   5.142
 6376SOL    HW120027   6.519   2.248   5.106
 6376SOL    HW220028   6.676   2.285   5.131
 6377SOL     OW20029   0.568   1.262   4.339
 6377SOL    HW120030   0.575   1.163   4.326
 6377SOL    HW220031   0.659   1.301   4.350
 6378SOL     OW20032   4.722   4.488   4.216
 6378SOL    HW120033   4.670   4.558   4.264
 6378SOL    HW220034   4.666   4.449   4.142
 6379SOL     OW20035   2.334   4.362   3.499
 6379SOL    HW120036   2.388   4.316   3.429
 6379SOL    HW220037   2.248   4.393   3.459
 6380SOL     OW20038   0.460   0.580   6.212
 6380SOL    HW120039   0.529   0.611   6.147
 6380SOL    HW220040   0.494   0.501   6.263
 6381SOL     OW20041   2.976   3.890   3.054
 6381SOL    HW120042   3.007   3.907   2.961
 6381SOL    HW220043   3.035   3.940   3.118
 6382SOL     OW20044   1.217   3.548   5.944
 6382SOL    HW120045   1.299   3.491   5.947
 6382SOL    HW220046   1.137   3.491   5.926
 6383SOL     OW20047   2.415   1.847   4.120
 6383SOL    HW120048   2.320   1.819   4.133
 6383SOL    HW220049   2.475   1.793   4.179
 6384SOL     OW20050   6.954   4.433   2.727
 6384SOL    HW120051   6.987   4.370   2.656
 6384SOL    HW220052   6.862   4.405   2.756
 6385SOL     OW20053   0.668   4.983   4.664
 6385SOL    HW120054   0.634   5.004   4.572
 6385SOL    HW220055   0.767   4.978   4.662
 6386SOL     OW20056   2.862   5.102   1.023
 6386SOL    HW120057   2.885   5.115   0.926
 6386SOL    HW220058   2.775   5.054   1.030
 6387SOL     OW20059   6.384   1.080   5.241
 6387SOL    HW120060   6.410   1.045   5.151
 6387SOL    HW220061   6.285   1.083   5.249
 6388SOL     OW20062   3.096   4.869   2.229
 6388SOL    HW120063   3.179   4.863   2.284
 6388SOL    HW220064   3.019   4.833   2.281
 6389SOL     OW20065   1.389   5.475   3.421
 6389SOL    HW120066   1.480   5.513   3.439
 6389SOL    HW220067   1.391   5.424   3.334
 6390SOL     OW20068   0.906   2.724   3.801
 6390SOL    HW120069   0.828   2.771   3.842
 6390SOL    HW220070   0.940   2.655   3.864
 6391SOL     OW20071   2.698   1.799   0.212
 6391SOL    HW120072   2.686   1.700   0.205
 6391SOL    HW220073   2.736   1.822   0.302
 6392SOL     OW20074   1.791   6.243   3.615
 6392SOL    HW120075   1.853   6.290   3.677
 6392SOL    HW220076   1.704   6.291   3.610
 6393SOL     OW20077   6.307   6.134   0.291
 6393SOL    HW120078   6.292   6.227   0.326
 6393SOL    HW220079   6.350   6.078   0.361
 6394SOL     OW20080   2.075   4.880   0.281
 6394SOL    HW120081   1.986   4.836   0.292
 6394SOL    HW220082   2.136   4.820   0.230
 6395SOL     OW20083   6.201   1.072   0.621
 6395SOL    HW120084   6.207   1.101   0.717
 6395SOL    HW220085   6.251   1.136   0.563
 6396SOL     OW20086   4.907   4.272   5.621
 6396SOL    HW120087   4.979   4.300   5.557
 6396SOL    HW220088   4.949   4.224   5.699
 6397SOL     OW20089   6.974   1.307   0.691
 6397SOL    HW120090   7.011   1.225   0.645
 6397SOL    HW220091   6.919   1.359   0.626
 6398SOL     OW20092   3.268   1.523   1.394
 6398SOL    HW120093   3.313   1.591   1.451
 6398SOL    HW220094   3.326   1.442   1.385
 6399SOL     OW20095   1.993   5.610   6.487
 6399SOL    HW120096   1.996   5.649   6.579
 6399SOL    HW220097   2.069   5.645   6.433
 6400SOL     OW20098   2.715   5.890   3.713
 6400SOL    HW120099   2.701   5.821   3.785
 6400SOL    HW220100   2.786   5.954   3.742
 6401SOL     OW20101   0.467   4.500   3.710
 6401SOL    HW120102   0.421   4.580   3.749
 6401SOL    HW220103   0.542   4.472   3.770
 6402SOL     OW20104   2.255   1.003   3.339
 6402SOL    HW120105   2.176   1.064   3.344
 6402SOL    HW220106   2.247   0.945   3.258
 6403SOL     OW20107   1.018   5.123   6.723
 6403SOL    HW120108   1.077   5.102   6.800
 6403SOL    HW220109   1.041   5.214   6.687
 6404SOL     OW20110   5.055   1.690   3.196
 6404SOL    HW120111   5.007   1.774   3.171
 6404SOL    HW220112   5.151   1.711   3.216
 6405SOL     OW20113   2.649   1.486   2.467
 6405SOL    HW120114   2.685   1.574   2.497
 6405SOL    HW220115   2.722   1.417   2.472
 6406SOL     OW20116   2.590   1.292   4.062
 6406SOL    HW120117   2.522   1.225   4.032
 6406SOL    HW220118   2.573   1.316   4.158
 6407SOL     OW20119   3.496   5.391   5.727
 6407SOL    HW120120   3.558   5.314   5.742
 6407SOL    HW220121   3.411   5.376   5.777
 6408SOL     OW20122   5.409   1.694   6.462
 6408SOL    HW120123   5.330   1.754   6.450
 6408SOL    HW220124   5.492   1.749   6.470
 6409SOL     OW20125   0.028   3.844   2.768
 6409SOL    HW120126   0.064   3.904   2.839
 6409SOL    HW220127   0.073   3.755   2.774
 6410SOL     OW20128   1.687   1.521   0.450
 6410SOL    HW120129   1.683   1.606   0.504
 6410SOL    HW220130   1.680   1.543   0.353
 6411SOL     OW20131   0.789   1.053   3.684
 6411SOL    HW120132   0.754   1.110   3.759
 6411SOL    HW220133   0.889   1.058   3.682
 6412SOL     OW20134   0.240   2.480   5.542
 6412SOL    HW120135   0.305   2.462   5.616
 6412SOL    HW220136   0.271   2.558   5.488
 6413SOL     OW20137   6.710   4.424   0.689
 6413SOL    HW120138   6.685   4.460   0.599
 6413SOL    HW220139   6.716   4.324   0.684
 6414SOL     OW20140   6.470   6.832   2.411
 6414SOL    HW120141   6.520   6.759   2.458
 6414SOL    HW220142   6.385   6.851   2.459
 6415SOL     OW20143   2.076   1.566   1.586
 6415SOL    HW120144   2.160   1.614   1.563
 6415SOL    HW220145   2.001   1.631   1.598
 6416SOL     OW20146   1.516   0.709   6.655
 6416SOL    HW120147   1.537   0.611   6.663
 6416SOL    HW220148   1.492   0.746   6.745
 6417SOL     OW20149   1.150   6.987   3.525
 6417SOL    HW120150   1.213   6.976   3.601
 6417SOL    HW220151   1.064   6.939   3.545
 6418SOL     OW20152   0.140   6.361   2.258
 6418SOL    HW120153   0.193   6.349   2.175
 6418SOL    HW220154   0.163   6.449   2.300
 6419SOL     OW20155   3.595   4.895   1.565
 6419SOL    HW120156   3.594   4.958   1.643
 6419SOL    HW220157   3.670   4.921   1.504
 6420SOL     OW20158   2.184   4.382   6.120
 6420SOL    HW120159   2.245   4.453   6.155
 6420SOL    HW220160   2.090   4.404   6.147
 6421SOL     OW20161   5.946   1.172   1.588
 6421SOL    HW120162   5.865   1.122   1.557
 6421SOL    HW220163   6.024   1.109   1.595
 6422SOL     OW20164   6.366   1.613   3.512
 6422SOL    HW120165   6.339   1.656   3.426
 6422SOL    HW220166   6.429   1.673   3.561
 6423SOL     OW20167   4.875   3.636   0.846
 6423SOL    HW120168   4.890   3.716   0.788
 6423SOL    HW220169   4.932   3.643   0.928
 6424SOL     OW20170   6.866   4.036   5.881
 6424SOL    HW120171   6.893   4.129   5.907
 6424SOL    HW220172   6.771   4.019   5.910
 6425SOL     OW20173   0.757   4.541   2.378
 6425SOL    HW120174   0.822   4.499   2.314
 6425SOL    HW220175   0.689   4.594   2.327
 6426SOL     OW20176   0.931   2.335   3.580
 6426SOL    HW120177   0.958   2.431   3.587
 6426SOL    HW220178   0.834   2.328   3.560
 6427SOL     OW20179   1.545   3.379   5.465
 6427SOL    HW120180   1.596   3.438   5.528
 6427SOL    HW220181   1.505   3.302   5.516
 6428SOL     OW20182   6.911   3.439   2.117
 6428SOL    HW120183   6.873   3.374   2.052
 6428SOL    HW220184   6.986   3.397   2.167
 6429SOL     OW20185   1.397   7.014   4.095
 6429SOL    HW120186   1.303   0.021   4.080
 6429SOL    HW220187   1.414   6.930   4.044
 6430SOL     OW20188   5.806   2.297   0.982
 6430SOL    HW120189   5.826   2.390   1.013
 6430SOL    HW220190   5.803   2.235   1.060
 6431SOL     OW20191   5.314   6.597   2.778
 6431SOL    HW120192   5.276   6.663   2.714
 6431SOL    HW220193   5.281   6.617   2.870
 6432SOL     OW20194   4.666   3.499   0.939
 6432SOL    HW120195   4.728   3.570   0.906
 6432SOL    HW220196   4.678   3.417   0.883
 6433SOL     OW20197   3.049   4.363   1.361
 6433SOL    HW120198   3.031   4.290   1.427
 6433SOL    HW220199   2.997   4.347   1.278
 6434SOL     OW20200   1.196   3.777   0.456
 6434SOL    HW120201   1.284   3.753   0.498
 6434SOL    HW220202   1.212   3.807   0.361
 6435SOL     OW20203   4.501   4.297   6.590
 6435SOL    HW120204   4.434   4.309   6.663
 6435SOL    HW220205   4.580   4.357   6.606
 6436SOL     OW20206   1.583   2.980   3.691
 6436SOL    HW120207   1.541   3.045   3.755
 6436SOL    HW220208   1.512   2.940   3.633
 6437SOL     OW20209   1.580   0.209   6.551
 6437SOL    HW120210   1.546   0.179   6.462
 6437SOL    HW220211   1.658   0.152   6.578
 6438SOL     OW20212   1.006   3.869   3.797
 6438SOL    HW120213   0.977   3.808   3.724
 6438SOL    HW220214   1.104   3.858   3.813
 6439SOL     OW20215   1.177   0.085   1.300
 6439SOL    HW120216   1.089   0.048   1.330
 6439SOL    HW220217   1.220   0.020   1.237
 6440SOL     OW20218   1.476   1.498   2.733
 6440SOL    HW120219   1.510   1.556   2.807
 6440SOL    HW220220   1.461   1.553   2.652
 6441SOL     OW20221   2.055   1.248   4.020
 6441SOL    HW120222   2.073   1.243   3.921
 6441SOL    HW220223   1.979   1.310   4.037
 6442SOL     OW20224   2.569   2.171   4.352
 6442SOL    HW120225   2.521   2.091   4.388
 6442SOL    HW220226   2.530   2.197   4.264
 6443SOL     OW20227   2.629   2.277   0.301
 6443SOL    HW120228   2.654   2.217   0.224
 6443SOL    HW220229   2.545   2.243   0.343
 6444SOL     OW20230   0.528   1.314   3.012
 6444SOL    HW120231   0.503   1.356   2.924
 6444SOL    HW220232   0.502   1.218   3.012
 6445SOL     OW20233   4.048   3.004   5.292
 6445SOL    HW120234   4.134   3.046   5.321
 6445SOL    HW220235   3.974   3.035   5.351
 6446SOL     OW20236   6.029   1.153   6.872
 6446SOL    HW120237   6.081   1.115   6.795
 6446SOL    HW220238   6.048   1.251   6.880
 6447SOL     OW20239   1.788   0.555   2.028
 6447SOL    HW120240   1.771   0.462   2.060
 6447SOL    HW220241   1.703   0.608   2.034
 6448SOL     OW20242   5.626   2.617   3.154
 6448SOL    HW120243   5.621   2.694   3.090
 6448SOL    HW220244   5.720   2.581   3.154
 6449SOL     OW20245   3.153   3.524   1.154
 6449SOL    HW120246   3.092   3.526   1.076
 6449SOL    HW220247   3.244   3.495   1.125
 6450SOL     OW20248   5.706   3.723   0.918
 6450SOL    HW120249   5.672   3.633   0.942
 6450SOL    HW220250   5.800   3.734   0.953
 6451SOL     OW20251   2.633   5.806   5.174
 6451SOL    HW120252   2.682   5.875   5.120
 6451SOL    HW220253   2.689   5.722   5.179
 6452SOL     OW20254   3.534   6.449   4.109
 6452SOL    HW120255   3.528   6.362   4.061
 6452SOL    HW220256   3.509   6.437   4.205
 6453SOL     OW20257   1.730   6.276   6.395
 6453SOL    HW120258   1.818   6.310   6.428
 6453SOL    HW220259   1.677   6.239   6.471
 6454SOL     OW20260   3.336   1.474   4.534
 6454SOL    HW120261   3.378   1.455   4.623
 6454SOL    HW220262   3.237   1.482   4.545
 6455SOL     OW20263   6.112   2.697   5.241
 6455SOL    HW120264   6.044   2.767   5.263
 6455SOL    HW220265   6.149   2.659   5.325
 6456SOL     OW20266   0.698   0.625   3.202
 6456SOL    HW120267   0.778   0.647   3.257
 6456SOL    HW220268   0.689   0.526   3.192
 6457SOL     OW20269   6.525   2.241   1.139
 6457SOL    HW120270   6.622   2.264   1.141
 6457SOL    HW220271   6.513   2.144   1.118
 6458SOL     OW20272   1.613   5.599   3.506
 6458SOL    HW120273   1.582   5.671   3.568
 6458SOL    HW220274   1.707   5.574   3.529
 6459SOL     OW20275   5.388   4.556   6.811
 6459SOL    HW120276   5.295   4.578   6.783
 6459SOL    HW220277   5.410   4.604   6.896
 6460SOL     OW20278   3.424   4.774   6.265
 6460SOL    HW120279   3.352   4.811   6.323
 6460SOL    HW220280   3.383   4.721   6.190
 6461SOL     OW20281   3.860   5.030   5.355
 6461SOL    HW120282   3.792   4.967   5.316
 6461SOL    HW220283   3.824   5.069   5.440
 6462SOL     OW20284   2.151   3.490   5.187
 6462SOL    HW120285   2.199   3.577   5.198
 6462SOL    HW220286   2.134   3.450   5.278
 6463SOL     OW20287   1.731   4.459   6.113
 6463SOL    HW120288   1.738   4.397   6.035
 6463SOL    HW220289   1.771   4.417   6.194
 6464SOL     OW20290   0.417   5.227   3.028
 6464SOL    HW120291   0.373   5.144   2.995
 6464SOL    HW220292   0.384   5.305   2.975
 6465SOL     OW20293   6.427   1.939   3.344
 6465SOL    HW120294   6.374   1.955   3.427
 6465SOL    HW220295   6.502   2.005   3.339
 6466SOL     OW20296   0.458   2.313   5.477
 6466SOL    HW120297   0.522   2.379   5.518
 6466SOL    HW220298   0.370   2.358   5.460
 6467SOL     OW20299   2.385   1.012   6.459
 6467SOL    HW120300   2.360   1.053   6.548
 6467SOL    HW220301   2.484   1.016   6.448
 6468SOL     OW20302   5.102   5.996   1.118
 6468SOL    HW120303   5.189   5.951   1.099
 6468SOL    HW220304   5.117   6.092   1.139
 6469SOL     OW20305   6.546   1.113   5.612
 6469SOL    HW120306   6.595   1.095   5.526
 6469SOL    HW220307   6.610   1.113   5.688
 6470SOL     OW20308   6.176   6.874   5.810
 6470SOL    HW120309   6.265   6.908   5.841
 6470SOL    HW220310   6.188   6.827   5.722
 6471SOL     OW20311   6.323   4.772   6.641
 6471SOL    HW120312   6.402   4.757   6.582
 6471SOL    HW220313   6.288   4.684   6.674
 6472SOL     OW20314   0.800   6.388   2.071
 6472SOL    HW120315   0.838   6.326   2.140
 6472SOL    HW220316   0.867   6.460   2.052
 6473SOL     OW20317   1.946   1.823   6.169
 6473SOL    HW120318   1.935   1.744   6.229
 6473SOL    HW220319   1.870   1.887   6.183
 6474SOL     OW20320   1.555   3.336   4.932
 6474SOL    HW120321   1.620   3.269   4.969
 6474SOL    HW220322   1.601   3.424   4.922
 6475SOL     OW20323   4.330   6.108   4.008
 6475SOL    HW120324   4.332   6.208   4.011
 6475SOL    HW220325   4.268   6.078   3.936
 6476SOL     OW20326   4.784   4.646   2.588
 6476SOL    HW120327   4.834   4.659   2.502
 6476SOL    HW220328   4.710   4.581   2.575
 6477SOL     OW20329   6.332   5.518   0.551
 6477SOL    HW120330   6.397   5.564   0.491
 6477SOL    HW220331   6.381   5.472   0.625
 6478SOL     OW20332   5.289   6.655   2.067
 6478SOL    HW120333   5.321   6.564   2.040
 6478SOL    HW220334   5.355   6.696   2.129
 6479SOL     OW20335   4.050   5.080   2.259
 6479SOL    HW120336   3.989   5.156   2.235
 6479SOL    HW220337   4.017   5.036   2.342
 6480SOL     OW20338   2.982   2.483   0.115
 6480SOL    HW120339   2.882   2.480   0.103
 6480SOL    HW220340   3.006   2.563   0.170
 6481SOL     OW20341   4.016   1.158   1.585
 6481SOL    HW120342   3.985   1.158   1.490
 6481SOL    HW220343   4.098   1.214   1.594
 6482SOL     OW20344   0.017   0.277   6.597
 6482SOL    HW120345   0.031   0.178   6.592
 6482SOL    HW220346   0.104   0.322   6.617
 6483SOL     OW20347   1.311   6.783   2.486
 6483SOL    HW120348   1.399   6.737   2.471
 6483SOL    HW220349   1.292   6.786   2.584
 6484SOL     OW20350   4.388   0.272   3.383
 6484SOL    HW120351   4.389   0.322   3.469
 6484SOL    HW220352   4.477   0.229   3.368
 6485SOL     OW20353   1.722   2.285   3.234
 6485SOL    HW120354   1.666   2.365   3.213
 6485SOL    HW220355   1.790   2.272   3.162
 6486SOL     OW20356   1.451   3.759   4.075
 6486SOL    HW120357   1.361   3.802   4.065
 6486SOL    HW220358   1.470   3.702   3.995
 6487SOL     OW20359   6.051   6.452   4.419
 6487SOL    HW120360   6.139   6.498   4.431
 6487SOL    HW220361   6.005   6.489   4.339
 6488SOL     OW20362   3.208   5.075   5.598
 6488SOL    HW120363   3.166   5.116   5.679
 6488SOL    HW220364   3.136   5.036   5.540
 6489SOL     OW20365   2.210   1.643   5.090
 6489SOL    HW120366   2.244   1.595   5.171
 6489SOL    HW220367   2.277   1.711   5.061
 6490SOL     OW20368   3.643   1.484   0.547
 6490SOL    HW120369   3.586   1.564   0.566
 6490SOL    HW220370   3.594   1.401   0.574
 6491SOL     OW20371   4.708   2.013   6.319
 6491SOL    HW120372   4.696   2.103   6.277
 6491SOL    HW220373   4.679   2.017   6.415
 6492SOL     OW20374   5.820   6.112   0.076
 6492SOL    HW120375   5.887   6.077   0.141
 6492SOL    HW220376   5.836   6.210   0.061
 6493SOL     OW20377   1.545   6.418   5.964
 6493SOL    HW120378   1.568   6.441   6.058
 6493SOL    HW220379   1.619   6.448   5.904
 6494SOL     OW20380   1.119   0.574   3.428
 6494SOL    HW120381   1.048   0.620   3.481
 6494SOL    HW220382   1.142   0.487   3.472
 6495SOL     OW20383   5.542   5.067   3.109
 6495SOL    HW120384   5.509   5.142   3.165
 6495SOL    HW220385   5.467   5.030   3.055
 6496SOL     OW20386   0.687   6.724   2.718
 6496SOL    HW120387   0.596   6.754   2.745
 6496SOL    HW220388   0.743   6.710   2.800
 6497SOL     OW20389   1.492   4.280   0.447
 6497SOL    HW120390   1.436   4.206   0.484
 6497SOL    HW220391   1.579   4.242   0.414
 6498SOL     OW20392   2.299   4.341   3.786
 6498SOL    HW120393   2.277   4.244   3.795
 6498SOL    HW220394   2.296   4.367   3.689
 6499SOL     OW20395   5.300   1.551   3.466
 6499SOL    HW120396   5.257   1.483   3.407
 6499SOL    HW220397   5.375   1.596   3.416
 6500SOL     OW20398   4.687   4.820   3.749
 6500SOL    HW120399   4.745   4.896   3.778
 6500SOL    HW220400   4.740   4.757   3.692
 6501SOL     OW20401   6.478   3.977   1.503
 6501SOL    HW120402   6.479   4.064   1.553
 6501SOL    HW220403   6.569   3.936   1.508
 6502SOL     OW20404   1.035   4.868   3.089
 6502SOL    HW120405   0.999   4.941   3.031
 6502SOL    HW220406   0.962   4.804   3.111
 6503SOL     OW20407   4.558   6.668   4.611
 6503SOL    HW120408   4.471   6.714   4.590
 6503SOL    HW220409   4.621   6.734   4.653
 6504SOL     OW20410   3.342   0.816   0.650
 6504SOL    HW120411   3.277   0.741   0.664
 6504SOL    HW220412   3.316   0.868   0.569
 6505SOL     OW20413   5.787   4.890   1.250
 6505SOL    HW120414   5.866   4.946   1.227
 6505SOL    HW220415   5.814   4.819   1.315
 6506SOL     OW20416   1.811   2.855   1.077
 6506SOL    HW120417   1.721   2.856   1.033
 6506SOL    HW220418   1.803   2.892   1.169
 6507SOL     OW20419   2.458   6.737   1.475
 6507SOL    HW120420   2.519   6.686   1.415
 6507SOL    HW220421   2.363   6.721   1.449
 6508SOL     OW20422   2.169   2.097   3.370
 6508SOL    HW120423   2.249   2.043   3.396
 6508SOL    HW220424   2.185   2.139   3.281
 6509SOL     OW20425   0.954   2.711   4.586
 6509SOL    HW120426   1.032   2.675   4.637
 6509SOL    HW220427   0.984   2.742   4.496
 6510SOL     OW20428   6.095   4.942   6.526
 6510SOL    HW120429   6.172   4.898   6.573
 6510SOL    HW220430   6.101   5.041   6.539
 6511SOL     OW20431   6.577   6.442   6.445
 6511SOL    HW120432   6.619   6.389   6.372
 6511SOL    HW220433   6.619   6.418   6.533
 6512SOL     OW20434   5.587   6.949   3.494
 6512SOL    HW120435   5.544   0.009   3.457
 6512SOL    HW220436   5.539   6.868   3.461
 6513SOL     OW20437   3.914   6.572   2.679
 6513SOL    HW120438   3.993   6.631   2.691
 6513SOL    HW220439   3.898   6.559   2.581
 6514SOL     OW20440   4.250   0.181   4.078
 6514SOL    HW120441   4.298   0.128   4.008
 6514SOL    HW220442   4.245   0.277   4.050
 6515SOL     OW20443   0.762   6.833   4.994
 6515SOL    HW120444   0.775   6.908   5.058
 6515SOL    HW220445   0.719   6.867   4.911
 6516SOL     OW20446   0.740   1.790   5.349
 6516SOL    HW120447   0.701   1.746   5.268
 6516SOL    HW220448   0.789   1.873   5.322
 6517SOL     OW20449   0.660   1.420   0.302
 6517SOL    HW120450   0.702   1.508   0.326
 6517SOL    HW220451   0.674   1.356   0.377
 6518SOL     OW20452   6.789   6.235   1.283
 6518SOL    HW120453   6.788   6.333   1.261
 6518SOL    HW220454   6.802   6.182   1.199
 6519SOL     OW20455   1.951   1.950   4.292
 6519SOL    HW120456   1.892   2.018   4.334
 6519SOL    HW220457   1.943   1.954   4.192
 6520SOL     OW20458   6.210   5.507   1.556
 6520SOL    HW120459   6.171   5.528   1.466
 6520SOL    HW220460   6.166   5.564   1.625
 6521SOL     OW20461   6.924   1.825   5.022
 6521SOL    HW120462   6.874   1.908   5.047
 6521SOL    HW220463   6.858   1.755   4.994
 6522SOL     OW20464   2.614   5.277   6.404
 6522SOL    HW120465   2.531   5.243   6.447
 6522SOL    HW220466   2.615   5.251   6.307
 6523SOL     OW20467   1.950   1.628   5.978
 6523SOL    HW120468   2.049   1.614   5.978
 6523SOL    HW220469   1.929   1.721   6.009
 6524SOL     OW20470   3.984   3.277   3.389
 6524SOL    HW120471   4.029   3.205   3.337
 6524SOL    HW220472   3.955   3.240   3.478
 6525SOL     OW20473   0.354   2.971   3.550
 6525SOL    HW120474   0.408   2.907   3.496
 6525SOL    HW220475   0.405   3.056   3.562
 6526SOL     OW20476   1.885   6.235   5.266
 6526SOL    HW120477   1.849   6.189   5.185
 6526SOL    HW220478   1.811   6.287   5.310
 6527SOL     OW20479   1.347   6.961   5.024
 6527SOL    HW120480   1.400   6.968   5.108
 6527SOL    HW220481   1.250   6.949   5.046
 6528SOL     OW20482   0.222   1.631   4.514
 6528SOL    HW120483   0.237   1.605   4.610
 6528SOL    HW220484   0.250   1.557   4.454
 6529SOL     OW20485   6.849   1.331   1.752
 6529SOL    HW120486   6.842   1.330   1.852
 6529SOL    HW220487   6.766   1.292   1.712
 6530SOL     OW20488   6.861   1.937   0.321
 6530SOL    HW120489   6.762   1.950   0.311
 6530SOL    HW220490   6.908   1.987   0.249
 6531SOL     OW20491   5.198   2.979   3.894
 6531SOL    HW120492   5.231   2.884   3.896
 6531SOL    HW220493   5.098   2.979   3.901
 6532SOL     OW20494   6.495   1.573   6.354
 6532SOL    HW120495   6.560   1.607   6.286
 6532SOL    HW220496   6.463   1.482   6.328
 6533SOL     OW20497   4.730   0.185   1.281
 6533SOL    HW120498   4.640   0.180   1.238
 6533SOL    HW220499   4.765   0.092   1.295
 6534SOL     OW20500   2.333   4.555   1.250
 6534SOL    HW120501   2.387   4.492   1.306
 6534SOL    HW220502   2.375   4.563   1.160
 6535SOL     OW20503   0.246   3.577   5.223
 6535SOL    HW120504   0.311   3.652   5.240
 6535SOL    HW220505   0.179   3.606   5.155
 6536SOL     OW20506   6.066   1.940   6.848
 6536SOL    HW120507   6.006   1.885   6.905
 6536SOL    HW220508   6.158   1.902   6.850
 6537SOL     OW20509   0.653   6.857   0.180
 6537SOL    HW120510   0.631   6.954   0.191
 6537SOL    HW220511   0.573   6.801   0.201
 6538SOL     OW20512   3.070   3.449   6.945
 6538SOL    HW120513   3.070   3.392   6.863
 6538SOL    HW220514   3.164   3.473   6.969
 6539SOL     OW20515   2.610   1.563   6.709
 6539SOL    HW120516   2.566   1.628   6.646
 6539SOL    HW220517   2.618   1.605   6.799
 6540SOL     OW20518   2.818   1.515   4.709
 6540SOL    HW120519   2.788   1.497   4.615
 6540SOL    HW220520   2.914   1.544   4.709
 6541SOL     OW20521   2.524   2.481   6.150
 6541SOL    HW120522   2.483   2.425   6.222
 6541SOL    HW220523   2.453   2.533   6.104
 6542SOL     OW20524   6.322   4.203   3.842
 6542SOL    HW120525   6.416   4.216   3.811
 6542SOL    HW220526   6.259   4.220   3.765
 6543SOL     OW20527   6.563   6.043   6.556
 6543SOL    HW120528   6.594   6.036   6.461
 6543SOL    HW220529   6.574   6.137   6.588
 6544SOL     OW20530   6.403   6.517   4.230
 6544SOL    HW120531   6.501   6.534   4.239
 6544SOL    HW220532   6.366   6.570   4.154
 6545SOL     OW20533   4.969   1.771   5.278
 6545SOL    HW120534   5.021   1.719   5.209
 6545SOL    HW220535   5.000   1.745   5.369
 6546SOL     OW20536   3.097   4.859   5.832
 6546SOL    HW120537   3.065   4.939   5.884
 6546SOL    HW220538   3.177   4.884   5.779
 6547SOL     OW20539   4.944   2.359   6.571
 6547SOL    HW120540   4.972   2.288   6.507
 6547SOL    HW220541   5.025   2.402   6.611
 6548SOL     OW20542   6.897   4.499   5.883
 6548SOL    HW120543   6.974   4.440   5.909
 6548SOL    HW220544   6.883   4.567   5.955
 6549SOL     OW20545   3.273   2.377   0.605
 6549SOL    HW120546   3.357   2.393   0.658
 6549SOL    HW220547   3.249   2.461   0.556
 6550SOL     OW20548   0.555   5.674   3.318
 6550SOL    HW120549   0.618   5.674   3.241
 6550SOL    HW220550   0.538   5.580   3.348
 6551SOL     OW20551   1.879   4.638   1.692
 6551SOL    HW120552   1.833   4.693   1.623
 6551SOL    HW220553   1.818   4.625   1.770
 6552SOL     OW20554   3.026   4.976   5.427
 6552SOL    HW120555   3.049   4.916   5.350
 6552SOL    HW220556   2.984   5.060   5.392
 6553SOL     OW20557   1.063   3.132   2.742
 6553SOL    HW120558   1.017   3.182   2.816
 6553SOL    HW220559   1.003   3.130   2.662
 6554SOL     OW20560   6.330   2.407   5.576
 6554SOL    HW120561   6.318   2.418   5.675
 6554SOL    HW220562   6.262   2.343   5.540
 6555SOL     OW20563   0.967   1.560   1.496
 6555SOL    HW120564   0.919   1.485   1.449
 6555SOL    HW220565   0.927   1.647   1.468
 6556SOL     OW20566   3.566   5.944   4.366
 6556SOL    HW120567   3.643   5.955   4.303
 6556SOL    HW220568   3.597   5.961   4.460
 6557SOL     OW20569   6.020   5.047   1.218
 6557SOL    HW120570   6.037   5.141   1.247
 6557SOL    HW220571   6.059   4.984   1.286
 6558SOL     OW20572   6.650   5.579   6.557
 6558SOL    HW120573   6.658   5.665   6.607
 6558SOL    HW220574   6.569   5.582   6.498
 6559SOL     OW20575   3.995   3.910   0.713
 6559SOL    HW120576   4.059   3.858   0.769
 6559SOL    HW220577   3.901   3.890   0.741
 6560SOL     OW20578   3.817   2.279   0.157
 6560SOL    HW120579   3.792   2.191   0.195
 6560SOL    HW220580   3.773   2.352   0.209
 6561SOL     OW20581   4.052   3.336   3.002
 6561SOL    HW120582   3.956   3.361   2.991
 6561SOL    HW220583   4.059   3.253   3.058
 6562SOL     OW20584   6.180   4.403   6.079
 6562SOL    HW120585   6.220   4.392   6.170
 6562SOL    HW220586   6.081   4.395   6.085
 6563SOL     OW20587   1.223   5.350   1.917
 6563SOL    HW120588   1.144   5.411   1.919
 6563SOL    HW220589   1.248   5.330   1.822
 6564SOL     OW20590   1.338   4.631   1.854
 6564SOL    HW120591   1.334   4.547   1.801
 6564SOL    HW220592   1.320   4.709   1.794
 6565SOL     OW20593   6.593   2.777   5.305
 6565SOL    HW120594   6.530   2.849   5.333
 6565SOL    HW220595   6.566   2.690   5.347
 6566SOL     OW20596   3.570   6.930   1.125
 6566SOL    HW120597   3.584   6.851   1.184
 6566SOL    HW220598   3.552   7.011   1.181
 6567SOL     OW20599   5.020   2.651   0.966
 6567SOL    HW120600   5.049   2.574   0.909
 6567SOL    HW220601   4.921   2.663   0.959
 6568SOL     OW20602   4.306   4.267   1.508
 6568SOL    HW120603   4.263   4.208   1.576
 6568SOL    HW220604   4.282   4.235   1.416
 6569SOL     OW20605   1.113   4.482   6.769
 6569SOL    HW120606   1.132   4.580   6.771
 6569SOL    HW220607   1.099   4.453   6.674
 6570SOL     OW20608   5.615   2.154   1.807
 6570SOL    HW120609   5.623   2.055   1.795
 6570SOL    HW220610   5.702   2.191   1.841
 6571SOL     OW20611   2.899   6.013   3.413
 6571SOL    HW120612   2.799   6.015   3.416
 6571SOL    HW220613   2.933   5.959   3.490
 6572SOL     OW20614   0.331   4.245   5.766
 6572SOL    HW120615   0.418   4.213   5.727
 6572SOL    HW220616   0.257   4.230   5.700
 6573SOL     OW20617   2.431   1.358   2.388
 6573SOL    HW120618   2.386   1.425   2.328
 6573SOL    HW220619   2.521   1.393   2.414
 6574SOL     OW20620   2.989   4.845   2.911
 6574SOL    HW120621   2.953   4.923   2.860
 6574SOL    HW220622   3.083   4.866   2.940
 6575SOL     OW20623   1.444   1.800   2.230
 6575SOL    HW120624   1.345   1.807   2.236
 6575SOL    HW220625   1.486   1.845   2.308
 6576SOL     OW20626   1.358   6.275   6.492
 6576SOL    HW120627   1.323   6.362   6.528
 6576SOL    HW220628   1.333   6.267   6.396
 6577SOL     OW20629   0.028   1.908   3.886
 6577SOL    HW120630   0.082   1.984   3.849
 6577SOL    HW220631   6.953   1.929   3.876
 6578SOL     OW20632   6.189   5.139   3.840
 6578SOL    HW120633   6.112   5.124   3.902
 6578SOL    HW220634   6.260   5.193   3.887
 6579SOL     OW20635   6.816   4.098   3.273
 6579SOL    HW120636   6.719   4.121   3.277
 6579SOL    HW220637   6.826   3.999   3.279
 6580SOL     OW20638   5.826   1.828   2.251
 6580SOL    HW120639   5.904   1.889   2.266
 6580SOL    HW220640   5.845   1.740   2.295
 6581SOL     OW20641   2.943   1.771   6.725
 6581SOL    HW120642   2.938   1.702   6.653
 6581SOL    HW220643   2.881   1.847   6.703
 6582SOL     OW20644   6.577   0.395   2.786
 6582SOL    HW120645   6.649   0.420   2.851
 6582SOL    HW220646   6.609   0.411   2.693
 6583SOL     OW20647   5.150   1.573   5.724
 6583SOL    HW120648   5.168   1.587   5.822
 6583SOL    HW220649   5.213   1.505   5.688
 6584SOL     OW20650   6.048   1.730   6.502
 6584SOL    HW120651   6.039   1.815   6.450
 6584SOL    HW220652   6.139   1.690   6.486
 6585SOL     OW20653   1.050   1.888   6.717
 6585SOL    HW120654   1.085   1.848   6.632
 6585SOL    HW220655   0.973   1.834   6.749
 6586SOL     OW20656   6.292   2.099   6.022
 6586SOL    HW120657   6.389   2.104   5.998
 6586SOL    HW220658   6.261   2.004   6.017
 6587SOL     OW20659   2.311   6.470   3.030
 6587SOL    HW120660   2.313   6.569   3.017
 6587SOL    HW220661   2.252   6.428   2.960
 6588SOL     OW20662   1.572   2.846   6.786
 6588SOL    HW120663   1.570   2.747   6.791
 6588SOL    HW220664   1.482   2.880   6.758
 6589SOL     OW20665   4.491   1.608   5.381
 6589SOL    HW120666   4.507   1.509   5.380
 6589SOL    HW220667   4.577   1.656   5.360
 6590SOL     OW20668   0.581   1.528   5.434
 6590SOL    HW120669   0.673   1.566   5.436
 6590SOL    HW220670   0.519   1.592   5.389
 6591SOL     OW20671   6.057   0.860   3.228
 6591SOL    HW120672   6.088   0.817   3.143
 6591SOL    HW220673   6.134   0.909   3.270
 6592SOL     OW20674   4.685   5.511   4.723
 6592SOL    HW120675   4.746   5.547   4.793
 6592SOL    HW220676   4.683   5.573   4.644
 6593SOL     OW20677   3.450   1.680   2.742
 6593SOL    HW120678   3.520   1.731   2.792
 6593SOL    HW220679   3.406   1.740   2.676
 6594SOL     OW20680   5.595   0.287   6.901
 6594SOL    HW120681   5.579   0.265   6.805
 6594SOL    HW220682   5.678   0.241   6.933
 6595SOL     OW20683   1.667   3.825   1.260
 6595SOL    HW120684   1.689   3.738   1.215
 6595SOL    HW220685   1.751   3.872   1.285
 6596SOL     OW20686   4.593   6.974   4.982
 6596SOL    HW120687   4.515   6.918   5.008
 6596SOL    HW220688   4.678   6.926   5.004
 6597SOL     OW20689   0.430   5.786   4.857
 6597SOL    HW120690   0.344   5.811   4.812
 6597SOL    HW220691   0.504   5.845   4.824
 6598SOL     OW20692   1.878   5.656   5.179
 6598SOL    HW120693   1.844   5.739   5.223
 6598SOL    HW220694   1.827   5.577   5.211
 6599SOL     OW20695   4.293   4.716   6.143
 6599SOL    HW120696   4.251   4.726   6.053
 6599SOL    HW220697   4.248   4.779   6.207
 6600SOL     OW20698   4.689   6.056   3.925
 6600SOL    HW120699   4.632   6.064   4.007
 6600SOL    HW220700   4.774   6.009   3.947
 6601SOL     OW20701   0.537   0.106   0.134
 6601SOL    HW120702   0.440   0.120   0.113
 6601SOL    HW220703   0.558   0.144   0.224
 6602SOL     OW20704   6.767   1.402   1.412
 6602SOL    HW120705   6.782   1.305   1.397
 6602SOL    HW220706   6.713   1.415   1.496
 6603SOL     OW20707   2.138   3.675   3.197
 6603SOL    HW120708   2.080   3.714   3.268
 6603SOL    HW220709   2.175   3.748   3.139
 6604SOL     OW20710   3.388   5.470   2.428
 6604SOL    HW120711   3.462   5.439   2.369
 6604SOL    HW220712   3.412   5.558   2.470
 6605SOL     OW20713   5.639   5.920   0.026
 6605SOL    HW120714   5.680   5.857   6.982
 6605SOL    HW220715   5.707   5.989   0.053
 6606SOL     OW20716   5.236   1.358   2.562
 6606SOL    HW120717   5.287   1.440   2.586
 6606SOL    HW220718   5.175   1.379   2.485
 6607SOL     OW20719   2.004   1.339   2.186
 6607SOL    HW120720   2.086   1.283   2.192
 6607SOL    HW220721   2.019   1.427   2.232
 6608SOL     OW20722   5.888   3.993   3.714
 6608SOL    HW120723   5.793   3.966   3.698
 6608SOL    HW220724   5.895   4.093   3.711
 6609SOL     OW20725   5.603   1.232   5.889
 6609SOL    HW120726   5.693   1.223   5.845
 6609SOL    HW220727   5.615   1.267   5.981
 6610SOL     OW20728   2.273   0.619   0.088
 6610SOL    HW120729   2.234   0.555   0.022
 6610SOL    HW220730   2.209   0.694   0.102
 6611SOL     OW20731   5.653   2.341   2.597
 6611SOL    HW120732   5.558   2.348   2.567
 6611SOL    HW220733   5.712   2.325   2.519
 6612SOL     OW20734   1.436   6.583   6.810
 6612SOL    HW120735   1.393   6.533   6.735
 6612SOL    HW220736   1.454   6.520   6.886
 6613SOL     OW20737   4.627   5.286   2.199
 6613SOL    HW120738   4.685   5.355   2.155
 6613SOL    HW220739   4.531   5.303   2.175
 6614SOL     OW20740   4.834   5.826   6.201
 6614SOL    HW120741   4.741   5.861   6.188
 6614SOL    HW220742   4.893   5.900   6.232
 6615SOL     OW20743   0.907   3.846   5.172
 6615SOL    HW120744   1.001   3.864   5.200
 6615SOL    HW220745   0.889   3.891   5.084
 6616SOL     OW20746   5.145   0.702   4.529
 6616SOL    HW120747   5.078   0.709   4.455
 6616SOL    HW220748   5.134   0.614   4.575
 6617SOL     OW20749   4.021   6.880   5.263
 6617SOL    HW120750   3.956   6.928   5.204
 6617SOL    HW220751   4.107   6.931   5.267
 6618SOL     OW20752   0.851   4.452   1.781
 6618SOL    HW120753   0.835   4.531   1.840
 6618SOL    HW220754   0.864   4.483   1.687
 6619SOL     OW20755   4.692   5.773   2.398
 6619SOL    HW120756   4.601   5.733   2.383
 6619SOL    HW220757   4.707   5.785   2.496
 6620SOL     OW20758   1.686   2.757   5.755
 6620SOL    HW120759   1.588   2.742   5.760
 6620SOL    HW220760   1.711   2.838   5.808
 6621SOL     OW20761   2.760   4.357   0.235
 6621SOL    HW120762   2.825   4.416   0.188
 6621SOL    HW220763   2.809   4.287   0.286
 6622SOL     OW20764   6.931   6.112   0.436
 6622SOL    HW120765   6.900   6.207   0.429
 6622SOL    HW220766   6.972   6.097   0.526
 6623SOL     OW20767   3.271   3.426   2.455
 6623SOL    HW120768   3.268   3.444   2.357
 6623SOL    HW220769   3.304   3.507   2.503
 6624SOL     OW20770   4.134   4.957   4.308
 6624SOL    HW120771   4.110   5.001   4.395
 6624SOL    HW220772   4.219   4.905   4.320
 6625SOL     OW20773   6.418   0.636   6.842
 6625SOL    HW120774   6.369   0.670   6.762
 6625SOL    HW220775   6.492   0.576   6.813
 6626SOL     OW20776   3.826   5.143   3.475
 6626SOL    HW120777   3.814   5.044   3.466
 6626SOL    HW220778   3.801   5.171   3.568
 6627SOL     OW20779   1.880   0.158   0.605
 6627SOL    HW120780   1.970   0.133   0.641
 6627SOL    HW220781   1.863   0.255   0.623
 6628SOL     OW20782   4.221   5.805   3.314
 6628SOL    HW120783   4.137   5.781   3.267
 6628SOL    HW220784   4.246   5.899   3.294
 6629SOL     OW20785   2.913   5.141   0.749
 6629SOL    HW120786   2.931   5.080   0.672
 6629SOL    HW220787   2.895   5.233   0.715
 6630SOL     OW20788   3.348   1.849   0.118
 6630SOL    HW120789   3.325   1.753   0.136
 6630SOL    HW220790   3.264   1.903   0.113
 6631SOL     OW20791   5.151   0.682   2.435
 6631SOL    HW120792   5.068   0.689   2.381
 6631SOL    HW220793   5.223   0.638   2.381
 6632SOL     OW20794   0.035   0.937   1.452
 6632SOL    HW120795   0.115   0.900   1.405
 6632SOL    HW220796   6.982   0.947   1.388
 6633SOL     OW20797   1.755   6.774   1.210
 6633SOL    HW120798   1.694   6.723   1.148
 6633SOL    HW220799   1.705   6.850   1.250
 6634SOL     OW20800   6.769   2.513   6.404
 6634SOL    HW120801   6.867   2.493   6.415
 6634SOL    HW220802   6.758   2.611   6.384
 6635SOL     OW20803   4.412   4.570   3.388
 6635SOL    HW120804   4.322   4.573   3.345
 6635SOL    HW220805   4.457   4.659   3.377
 6636SOL     OW20806   2.414   2.594   4.052
 6636SOL    HW120807   2.410   2.580   4.151
 6636SOL    HW220808   2.422   2.692   4.032
 6637SOL     OW20809   0.148   0.110   0.967
 6637SOL    HW120810   0.150   0.039   1.038
 6637SOL    HW220811   0.215   0.181   0.989
 6638SOL     OW20812   2.502   5.918   5.733
 6638SOL    HW120813   2.407   5.948   5.730
 6638SOL    HW220814   2.562   5.992   5.702
 6639SOL     OW20815   5.811   5.366   6.763
 6639SOL    HW120816   5.755   5.432   6.714
 6639SOL    HW220817   5.900   5.406   6.783
 6640SOL     OW20818   6.573   2.379   3.503
 6640SOL    HW120819   6.611   2.300   3.552
 6640SOL    HW220820   6.642   2.450   3.496
 6641SOL     OW20821   1.857   4.280   5.939
 6641SOL    HW120822   1.801   4.278   5.857
 6641SOL    HW220823   1.954   4.281   5.914
 6642SOL     OW20824   0.602   5.775   6.739
 6642SOL    HW120825   0.539   5.728   6.803
 6642SOL    HW220826   0.695   5.741   6.753
 6643SOL     OW20827   5.172   4.811   6.620
 6643SOL    HW120828   5.265   4.834   6.590
 6643SOL    HW220829   5.164   4.828   6.718
 6644SOL     OW20830   2.803   4.743   2.196
 6644SOL    HW120831   2.718   4.795   2.204
 6644SOL    HW220832   2.798   4.682   2.117
 6645SOL     OW20833   0.122   4.975   5.588
 6645SOL    HW120834   0.135   4.989   5.490
 6645SOL    HW220835   0.202   4.930   5.627
 6646SOL     OW20836   2.565   5.682   3.863
 6646SOL    HW120837   2.611   5.601   3.827
 6646SOL    HW220838   2.466   5.668   3.860
 6647SOL     OW20839   3.260   1.499   1.883
 6647SOL    HW120840   3.220   1.467   1.798
 6647SOL    HW220841   3.351   1.459   1.895
 6648SOL     OW20842   5.006   5.721   2.328
 6648SOL    HW120843   4.908   5.711   2.309
 6648SOL    HW220844   5.035   5.814   2.306
 6649SOL     OW20845   4.139   2.235   6.518
 6649SOL    HW120846   4.188   2.197   6.596
 6649SOL    HW220847   4.196   2.303   6.472
 6650SOL     OW20848   3.938   1.835   3.484
 6650SOL    HW120849   3.917   1.932   3.488
 6650SOL    HW220850   3.921   1.793   3.574
 6651SOL     OW20851   0.584   2.828   6.775
 6651SOL    HW120852   0.595   2.928   6.771
 6651SOL    HW220853   0.517   2.799   6.707
 6652SOL     OW20854   0.005   5.970   2.240
 6652SOL    HW120855   6.931   5.982   2.262
 6652SOL    HW220856   0.019   5.882   2.196
 6653SOL     OW20857   3.758   4.105   3.829
 6653SOL    HW120858   3.662   4.099   3.855
 6653SOL    HW220859   3.803   4.175   3.885
 6654SOL     OW20860   2.283   3.282   1.654
 6654SOL    HW120861   2.329   3.347   1.714
 6654SOL    HW220862   2.343   3.203   1.639
 6655SOL     OW20863   2.761   6.485   1.961
 6655SOL    HW120864   2.693   6.497   1.888
 6655SOL    HW220865   2.853   6.500   1.924
 6656SOL     OW20866   6.303   2.153   1.328
 6656SOL    HW120867   6.337   2.130   1.237
 6656SOL    HW220868   6.206   2.134   1.334
 6657SOL     OW20869   3.326   6.304   6.500
 6657SOL    HW120870   3.255   6.373   6.492
 6657SOL    HW220871   3.415   6.345   6.480
 6658SOL     OW20872   5.598   1.299   5.057
 6658SOL    HW120873   5.681   1.331   5.012
 6658SOL    HW220874   5.589   1.343   5.146
 6659SOL     OW20875   2.098   3.143   0.477
 6659SOL    HW120876   2.027   3.143   0.548
 6659SOL    HW220877   2.090   3.226   0.422
 6660SOL     OW20878   6.625   6.650   2.815
 6660SOL    HW120879   6.648   6.747   2.829
 6660SOL    HW220880   6.529   6.642   2.788
 6661SOL     OW20881   0.486   5.823   3.619
 6661SOL    HW120882   0.387   5.834   3.607
 6661SOL    HW220883   0.533   5.907   3.594
 6662SOL     OW20884   1.382   2.205   0.302
 6662SOL    HW120885   1.328   2.284   0.331
 6662SOL    HW220886   1.321   2.127   0.287
 6663SOL     OW20887   0.100   5.691   2.364
 6663SOL    HW120888   0.172   5.721   2.428
 6663SOL    HW220889   0.139   5.683   2.272
 6664SOL     OW20890   1.489   0.841   2.556
 6664SOL    HW120891   1.449   0.749   2.559
 6664SOL    HW220892   1.429   0.904   2.604
 6665SOL     OW20893   2.082   6.613   2.881
 6665SOL    HW120894   2.145   6.628   2.805
 6665SOL    HW220895   2.015   6.543   2.856
 6666SOL     OW20896   5.866   0.690   6.095
 6666SOL    HW120897   5.920   0.626   6.040
 6666SOL    HW220898   5.863   0.658   6.189
 6667SOL     OW20899   6.742   4.881   5.061
 6667SOL    HW120900   6.715   4.967   5.104
 6667SOL    HW220901   6.833   4.890   5.021
 6668SOL     OW20902   1.231   4.396   1.690
 6668SOL    HW120903   1.211   4.330   1.617
 6668SOL    HW220904   1.214   4.489   1.656
 6669SOL     OW20905   1.954   5.797   2.828
 6669SOL    HW120906   1.915   5.706   2.844
 6669SOL    HW220907   1.992   5.833   2.914
 6670SOL     OW20908   3.496   4.967   0.249
 6670SOL    HW120909   3.549   5.042   0.209
 6670SOL    HW220910   3.404   4.999   0.271
 6671SOL     OW20911   6.348   3.263   4.919
 6671SOL    HW120912   6.279   3.220   4.977
 6671SOL    HW220913   6.439   3.240   4.953
 6672SOL     OW20914   1.091   0.983   5.848
 6672SOL    HW120915   1.008   1.015   5.895
 6672SOL    HW220916   1.131   1.057   5.796
 6673SOL     OW20917   4.590   4.796   1.449
 6673SOL    HW120918   4.594   4.759   1.542
 6673SOL    HW220919   4.683   4.811   1.415
 6674SOL     OW20920   1.032   6.360   4.622
 6674SOL    HW120921   0.990   6.420   4.554
 6674SOL    HW220922   0.963   6.331   4.688
 6675SOL     OW20923   5.756   4.904   0.259
 6675SOL    HW120924   5.837   4.916   0.201
 6675SOL    HW220925   5.676   4.890   0.201
 6676SOL     OW20926   0.646   2.296   5.799
 6676SOL    HW120927   0.735   2.324   5.834
 6676SOL    HW220928   0.643   2.196   5.789
 6677SOL     OW20929   0.714   3.281   0.412
 6677SOL    HW120930   0.646   3.211   0.432
 6677SOL    HW220931   0.669   3.371   0.408
 6678SOL     OW20932   0.718   2.956   5.771
 6678SOL    HW120933   0.796   2.894   5.758
 6678SOL    HW220934   0.653   2.944   5.696
 6679SOL     OW20935   1.770   2.189   4.973
 6679SOL    HW120936   1.821   2.267   4.936
 6679SOL    HW220937   1.805   2.104   4.932
 6680SOL     OW20938   3.247   6.733   6.497
 6680SOL    HW120939   3.281   6.676   6.422
 6680SOL    HW220940   3.321   6.791   6.532
 6681SOL     OW20941   5.159   5.328   0.797
 6681SOL    HW120942   5.228   5.374   0.741
 6681SOL    HW220943   5.069   5.363   0.775
 6682SOL     OW20944   0.762   5.388   1.854
 6682SOL    HW120945   0.823   5.337   1.794
 6682SOL    HW220946   0.811   5.416   1.937
 6683SOL     OW20947   5.127   1.802   4.628
 6683SOL    HW120948   5.078   1.738   4.687
 6683SOL    HW220949   5.092   1.795   4.534
 6684SOL     OW20950   1.579   6.924   2.765
 6684SOL    HW120951   1.671   6.959   2.786
 6684SOL    HW220952   1.579   6.824   2.771
 6685SOL     OW20953   4.986   3.295   6.467
 6685SOL    HW120954   5.021   3.228   6.533
 6685SOL    HW220955   5.054   3.367   6.452
 6686SOL     OW20956   6.391   3.923   2.946
 6686SOL    HW120957   6.375   3.832   2.906
 6686SOL    HW220958   6.305   3.973   2.949
 6687SOL     OW20959   0.920   1.653   0.747
 6687SOL    HW120960   0.950   1.691   0.835
 6687SOL    HW220961   0.871   1.723   0.695
 6688SOL     OW20962   0.770   4.277   2.504
 6688SOL    HW120963   0.764   4.355   2.442
 6688SOL    HW220964   0.731   4.196   2.459
 6689SOL     OW20965   4.804   4.711   0.148
 6689SOL    HW120966   4.812   4.741   0.243
 6689SOL    HW220967   4.756   4.781   0.095
 6690SOL     OW20968   2.103   2.636   0.603
 6690SOL    HW120969   2.065   2.611   0.692
 6690SOL    HW220970   2.196   2.669   0.615
 6691SOL     OW20971   2.742   4.882   1.448
 6691SOL    HW120972   2.805   4.887   1.526
 6691SOL    HW220973   2.704   4.973   1.431
 6692SOL     OW20974   3.328   4.247   5.312
 6692SOL    HW120975   3.400   4.220   5.376
 6692SOL    HW220976   3.307   4.344   5.324
 6693SOL     OW20977   4.312   3.431   5.249
 6693SOL    HW120978   4.293   3.462   5.156
 6693SOL    HW220979   4.379   3.492   5.291
 6694SOL     OW20980   3.929   5.935   0.963
 6694SOL    HW120981   3.928   5.934   1.063
 6694SOL    HW220982   3.850   5.884   0.929
 6695SOL     OW20983   1.208   1.492   6.916
 6695SOL    HW120984   1.206   1.396   6.887
 6695SOL    HW220985   1.289   1.536   6.877
 6696SOL     OW20986   1.973   3.088   1.985
 6696SOL    HW120987   1.907   3.034   1.933
 6696SOL    HW220988   1.983   3.178   1.944
 6697SOL     OW20989   4.609   1.408   3.248
 6697SOL    HW120990   4.659   1.452   3.323
 6697SOL    HW220991   4.658   1.325   3.221
 6698SOL     OW20992   3.746   3.554   0.277
 6698SOL    HW120993   3.797   3.640   0.273
 6698SOL    HW220994   3.810   3.478   0.272
 6699SOL     OW20995   1.851   4.134   0.141
 6699SOL    HW120996   1.837   4.107   0.046
 6699SOL    HW220997   1.920   4.075   0.183
 6700SOL     OW20998   0.000   5.724   0.906
 6700SOL    HW120999   0.049   5.723   0.993
 6700SOL    HW221000   6.952   5.654   0.907
 6701SOL     OW21001   0.191   1.700   0.962
 6701SOL    HW121002   0.170   1.757   1.041
 6701SOL    HW221003   0.184   1.604   0.987
 6702SOL     OW21004   2.687   1.495   1.512
 6702SOL    HW121005   2.673   1.542   1.599
 6702SOL    HW221006   2.686   1.562   1.437
 6703SOL     OW21007   6.851   1.116   6.923
 6703SOL    HW121008   6.869   1.047   6.852
 6703SOL    HW221009   6.933   1.129   6.979
 6704SOL     OW21010   5.125   1.855   2.382
 6704SOL    HW121011   5.219   1.889   2.388
 6704SOL    HW221012   5.063   1.931   2.360
 6705SOL     OW21013   5.654   1.797   0.448
 6705SOL    HW121014   5.660   1.810   0.546
 6705SOL    HW221015   5.737   1.829   0.404
 6706SOL     OW21016   0.525   4.280   6.164
 6706SOL    HW121017   0.466   4.199   6.168
 6706SOL    HW221018   0.599   4.270   6.230
 6707SOL     OW21019   0.944   5.806   2.837
 6707SOL    HW121020   0.983   5.895   2.859
 6707SOL    HW221021   0.988   5.770   2.755
 6708SOL     OW21022   2.031   6.048   1.982
 6708SOL    HW121023   1.951   5.990   1.997
 6708SOL    HW221024   2.027   6.127   2.043
 6709SOL     OW21025   4.746   1.547   2.254
 6709SOL    HW121026   4.768   1.451   2.236
 6709SOL    HW221027   4.661   1.554   2.305
 6710SOL     OW21028   3.024   2.576   0.458
 6710SOL    HW121029   2.977   2.663   0.470
 6710SOL    HW221030   3.109   2.590   0.408
 6711SOL     OW21031   4.044   4.375   0.011
 6711SOL    HW121032   4.074   4.284   0.041
 6711SOL    HW221033   4.034   4.375   6.934
 6712SOL     OW21034   4.074   6.142   6.706
 6712SOL    HW121035   4.054   6.238   6.720
 6712SOL    HW221036   3.999   6.099   6.655
 6713SOL     OW21037   2.141   2.306   1.490
 6713SOL    HW121038   2.194   2.301   1.406
 6713SOL    HW221039   2.083   2.224   1.498
 6714SOL     OW21040   6.113   0.647   4.458
 6714SOL    HW121041   6.048   0.582   4.497
 6714SOL    HW221042   6.161   0.695   4.531
 6715SOL     OW21043   0.599   0.990   0.891
 6715SOL    HW121044   0.664   1.065   0.880
 6715SOL    HW221045   0.579   0.950   0.801
 6716SOL     OW21046   2.012   5.911   1.356
 6716SOL    HW121047   1.985   5.820   1.324
 6716SOL    HW221048   2.005   5.977   1.282
 6717SOL     OW21049   4.163   1.835   6.844
 6717SOL    HW121050   4.083   1.792   6.802
 6717SOL    HW221051   4.138   1.927   6.875
 6718SOL     OW21052   3.142   0.568   0.592
 6718SOL    HW121053   3.109   0.553   0.499
 6718SOL    HW221054   3.207   0.496   0.616
 6719SOL     OW21055   6.307   6.851   5.280
 6719SOL    HW121056   6.258   6.854   5.366
 6719SOL    HW221057   6.399   6.816   5.295
 6720SOL     OW21058   1.858   4.941   1.334
 6720SOL    HW121059   1.885   5.032   1.303
 6720SOL    HW221060   1.809   4.893   1.261
 6721SOL     OW21061   5.361   6.354   3.537
 6721SOL    HW121062   5.277   6.348   3.591
 6721SOL    HW221063   5.413   6.269   3.545
 6722SOL     OW21064   4.504   3.312   6.612
 6722SOL    HW121065   4.581   3.376   6.604
 6722SOL    HW221066   4.500   3.277   6.705
 6723SOL     OW21067   4.508   6.613   2.733
 6723SOL    HW121068   4.465   6.700   2.707
 6723SOL    HW221069   4.601   6.629   2.765
 6724SOL     OW21070   3.485   5.122   4.988
 6724SOL    HW121071   3.553   5.096   5.056
 6724SOL    HW221072   3.397   5.080   5.011
 6725SOL     OW21073   0.242   4.710   2.646
 6725SOL    HW121074   0.280   4.642   2.708
 6725SOL    HW221075   0.144   4.719   2.662
 6726SOL     OW21076   2.639   2.157   3.505
 6726SOL    HW121077   2.711   2.173   3.438
 6726SOL    HW221078   2.553   2.137   3.457
 6727SOL     OW21079   3.621   3.572   6.597
 6727SOL    HW121080   3.542   3.535   6.645
 6727SOL    HW221081   3.620   3.672   6.602
 6728SOL     OW21082   4.243   1.691   3.677
 6728SOL    HW121083   4.334   1.675   3.715
 6728SOL    HW221084   4.249   1.759   3.604
 6729SOL     OW21085   5.833   0.802   2.693
 6729SOL    HW121086   5.791   0.735   2.754
 6729SOL    HW221087   5.853   0.886   2.745
 6730SOL     OW21088   2.396   1.093   0.053
 6730SOL    HW121089   2.416   1.176   0.002
 6730SOL    HW221090   2.456   1.087   0.133
 6731SOL     OW21091   2.549   4.764   1.747
 6731SOL    HW121092   2.532   4.755   1.845
 6731SOL    HW221093   2.647   4.758   1.729
 6732SOL     OW21094   2.402   5.084   1.029
 6732SOL    HW121095   2.426   5.161   1.089
 6732SOL    HW221096   2.338   5.024   1.077
 6733SOL     OW21097   5.061   6.086   5.407
 6733SOL    HW121098   5.158   6.066   5.396
 6733SOL    HW221099   5.048   6.184   5.421
 6734SOL     OW21100   2.416   3.649   5.623
 6734SOL    HW121101   2.440   3.581   5.553
 6734SOL    HW221102   2.454   3.620   5.711
 6735SOL     OW21103   0.188   5.153   6.299
 6735SOL    HW121104   0.109   5.199   6.259
 6735SOL    HW221105   0.221   5.084   6.234
 6736SOL     OW21106   2.093   3.346   2.230
 6736SOL    HW121107   2.101   3.247   2.235
 6736SOL    HW221108   2.152   3.380   2.157
 6737SOL     OW21109   2.899   0.717   1.271
 6737SOL    HW121110   2.897   0.795   1.208
 6737SOL    HW221111   2.871   0.747   1.362
 6738SOL     OW21112   3.220   1.086   2.509
 6738SOL    HW121113   3.144   1.096   2.446
 6738SOL    HW221114   3.237   1.172   2.556
 6739SOL     OW21115   3.703   6.434   4.428
 6739SOL    HW121116   3.605   6.451   4.411
 6739SOL    HW221117   3.736   6.365   4.364
 6740SOL     OW21118   0.001   2.316   4.364
 6740SOL    HW121119   0.075   2.370   4.404
 6740SOL    HW221120   6.936   2.357   4.385
 6741SOL     OW21121   6.398   6.973   6.225
 6741SOL    HW121122   6.329   0.018   6.251
 6741SOL    HW221123   6.458   6.955   6.302
 6742SOL     OW21124   6.249   5.832   6.117
 6742SOL    HW121125   6.282   5.858   6.026
 6742SOL    HW221126   6.193   5.750   6.110
 6743SOL     OW21127   4.668   3.142   0.939
 6743SOL    HW121128   4.757   3.161   0.982
 6743SOL    HW221129   4.597   3.143   1.010
 6744SOL     OW21130   4.770   4.620   5.603
 6744SOL    HW121131   4.714   4.602   5.522
 6744SOL    HW221132   4.854   4.566   5.599
 6745SOL     OW21133   0.352   4.261   3.663
 6745SOL    HW121134   0.260   4.247   3.700
 6745SOL    HW221135   0.384   4.353   3.684
 6746SOL     OW21136   0.403   1.211   0.687
 6746SOL    HW121137   0.340   1.146   0.645
 6746SOL    HW221138   0.400   1.200   0.786
 6747SOL     OW21139   5.323   6.091   5.465
 6747SOL    HW121140   5.386   6.126   5.395
 6747SOL    HW221141   5.358   6.114   5.555
 6748SOL     OW21142   0.295   0.277   2.170
 6748SOL    HW121143   0.239   0.354   2.200
 6748SOL    HW221144   0.253   0.191   2.200
 6749SOL     OW21145   4.199   6.181   1.176
 6749SOL    HW121146   4.186   6.279   1.195
 6749SOL    HW221147   4.116   6.131   1.204
 6750SOL     OW21148   2.564   3.201   5.348
 6750SOL    HW121149   2.634   3.148   5.395
 6750SOL    HW221150   2.512   3.142   5.287
 6751SOL     OW21151   3.151   2.116   5.556
 6751SOL    HW121152   3.240   2.103   5.600
 6751SOL    HW221153   3.165   2.140   5.459
 6752SOL     OW21154   6.220   1.384   0.088
 6752SOL    HW121155   6.237   1.310   0.153
 6752SOL    HW221156   6.301   1.398   0.031
 6753SOL     OW21157   5.095   1.916   6.670
 6753SOL    HW121158   5.088   1.898   6.768
 6753SOL    HW221159   5.159   1.992   6.655
 6754SOL     OW21160   5.835   0.751   0.149
 6754SOL    HW121161   5.788   0.749   0.237
 6754SOL    HW221162   5.859   0.846   0.126
 6755SOL     OW21163   4.675   1.990   3.540
 6755SOL    HW121164   4.639   1.971   3.631
 6755SOL    HW221165   4.681   1.904   3.488
 6756SOL     OW21166   5.317   4.456   4.622
 6756SOL    HW121167   5.291   4.430   4.529
 6756SOL    HW221168   5.319   4.375   4.680
 6757SOL     OW21169   5.533   5.375   1.792
 6757SOL    HW121170   5.547   5.338   1.700
 6757SOL    HW221171   5.448   5.340   1.830
 6758SOL     OW21172   5.268   2.631   2.608
 6758SOL    HW121173   5.230   2.706   2.555
 6758SOL    HW221174   5.365   2.649   2.626
 6759SOL     OW21175   7.019   4.524   3.636
 6759SOL    HW121176   0.064   4.598   3.635
 6759SOL    HW221177   6.927   4.563   3.641
 6760SOL     OW21178   6.653   3.738   4.905
 6760SOL    HW121179   6.611   3.722   4.816
 6760SOL    HW221180   6.618   3.673   4.972
 6761SOL     OW21181   5.220   3.472   6.528
 6761SOL    HW121182   5.233   3.433   6.619
 6761SOL    HW221183   5.191   3.567   6.537
 6762SOL     OW21184   5.989   4.779   4.184
 6762SOL    HW121185   5.912   4.827   4.226
 6762SOL    HW221186   6.008   4.819   4.095
 6763SOL     OW21187   5.349   6.419   6.100
 6763SOL    HW121188   5.254   6.438   6.123
 6763SOL    HW221189   5.376   6.475   6.021
 6764SOL     OW21190   2.373   4.114   6.621
 6764SOL    HW121191   2.446   4.126   6.688
 6764SOL    HW221192   2.310   4.043   6.652
 6765SOL     OW21193   5.790   4.944   3.001
 6765SOL    HW121194   5.719   4.990   3.055
 6765SOL    HW221195   5.807   4.996   2.918
 6766SOL     OW21196   1.431   0.703   5.565
 6766SOL    HW121197   1.529   0.696   5.578
 6766SOL    HW221198   1.408   0.792   5.524
 6767SOL     OW21199   0.285   2.450   6.608
 6767SOL    HW121200   0.268   2.408   6.698
 6767SOL    HW221201   0.336   2.386   6.551
 6768SOL     OW21202   0.366   0.257   5.368
 6768SOL    HW121203   0.283   0.201   5.363
 6768SOL    HW221204   0.342   0.353   5.357
 6769SOL     OW21205   2.237   3.410   6.222
 6769SOL    HW121206   2.150   3.362   6.219
 6769SOL    HW221207   2.309   3.352   6.183
 6770SOL     OW21208   0.424   1.456   3.316
 6770SOL    HW121209   0.346   1.514   3.339
 6770SOL    HW221210   0.472   1.430   3.400
 6771SOL     OW21211   4.227   1.498   2.673
 6771SOL    HW121212   4.130   1.501   2.646
 6771SOL    HW221213   4.248   1.408   2.711
 6772SOL     OW21214   0.758   0.646   2.167
 6772SOL    HW121215   0.667   0.607   2.159
 6772SOL    HW221216   0.762   0.706   2.247
 6773SOL     OW21217   1.074   6.924   0.967
 6773SOL    HW121218   1.115   6.915   1.058
 6773SOL    HW221219   1.026   6.840   0.944
 6774SOL     OW21220   2.725   2.423   5.975
 6774SOL    HW121221   2.644   2.425   6.034
 6774SOL    HW221222   2.764   2.331   5.976
 6775SOL     OW21223   0.482   2.311   4.571
 6775SOL    HW121224   0.538   2.272   4.498
 6775SOL    HW221225   0.458   2.405   4.549
 6776SOL     OW21226   3.794   3.673   3.129
 6776SOL    HW121227   3.869   3.740   3.129
 6776SOL    HW221228   3.787   3.632   3.220
 6777SOL     OW21229   6.835   6.074   6.276
 6777SOL    HW121230   6.789   5.988   6.296
 6777SOL    HW221231   6.770   6.150   6.282
 6778SOL     OW21232   5.741   6.154   1.959
 6778SOL    HW121233   5.779   6.245   1.942
 6778SOL    HW221234   5.805   6.102   2.015
 6779SOL     OW21235   5.105   4.015   6.467
 6779SOL    HW121236   5.126   4.079   6.393
 6779SOL    HW221237   5.145   4.049   6.552
 6780SOL     OW21238   3.782   2.115   2.737
 6780SOL    HW121239   3.749   2.165   2.657
 6780SOL    HW221240   3.858   2.056   2.710
 6781SOL     OW21241   6.620   2.003   3.048
 6781SOL    HW121242   6.678   1.928   3.080
 6781SOL    HW221243   6.627   2.079   3.113
 6782SOL     OW21244   0.065   2.073   3.300
 6782SOL    HW121245   0.059   1.976   3.275
 6782SOL    HW221246   6.998   2.107   3.325
 6783SOL     OW21247   0.394   5.321   6.070
 6783SOL    HW121248   0.368   5.238   6.021
 6783SOL    HW221249   0.487   5.310   6.105
 6784SOL     OW21250   2.259   3.842   1.333
 6784SOL    HW121251   2.295   3.934   1.349
 6784SOL    HW221252   2.218   3.838   1.242
 6785SOL     OW21253   5.730   5.198   4.294
 6785SOL    HW121254   5.736   5.291   4.258
 6785SOL    HW221255   5.634   5.170   4.299
 6786SOL     OW21256   5.636   1.955   5.876
 6786SOL    HW121257   5.640   1.996   5.785
 6786SOL    HW221258   5.615   1.858   5.867
 6787SOL     OW21259   3.136   2.009   0.111
 6787SOL    HW121260   3.054   1.978   0.063
 6787SOL    HW221261   3.113   2.088   0.168
 6788SOL     OW21262   0.356   4.236   2.033
 6788SOL    HW121263   0.276   4.220   2.091
 6788SOL    HW221264   0.423   4.162   2.047
 6789SOL     OW21265   5.341   4.633   3.169
 6789SOL    HW121266   5.260   4.580   3.195
 6789SOL    HW221267   5.343   4.643   3.070
 6790SOL     OW21268   0.913   4.643   6.474
 6790SOL    HW121269   1.000   4.689   6.484
 6790SOL    HW221270   0.843   4.708   6.445
 6791SOL     OW21271   2.488   0.008   2.873
 6791SOL    HW121272   2.485   0.095   2.823
 6791SOL    HW221273   2.469   6.956   2.811
 6792SOL     OW21274   4.446   0.125   5.841
 6792SOL    HW121275   4.526   0.072   5.813
 6792SOL    HW221276   4.397   0.156   5.759
 6793SOL     OW21277   2.246   3.486   5.810
 6793SOL    HW121278   2.312   3.420   5.848
 6793SOL    HW221279   2.293   3.549   5.750
 6794SOL     OW21280   5.919   2.450   5.331
 6794SOL    HW121281   5.979   2.525   5.304
 6794SOL    HW221282   5.827   2.486   5.348
 6795SOL     OW21283   1.261   0.965   1.489
 6795SOL    HW121284   1.275   0.907   1.569
 6795SOL    HW221285   1.350   0.995   1.453
 6796SOL     OW21286   6.599   1.774   2.449
 6796SOL    HW121287   6.617   1.864   2.488
 6796SOL    HW221288   6.645   1.704   2.504
 6797SOL     OW21289   0.887   3.189   1.520
 6797SOL    HW121290   0.789   3.196   1.540
 6797SOL    HW221291   0.901   3.194   1.421
 6798SOL     OW21292   5.116   0.737   1.819
 6798SOL    HW121293   5.177   0.769   1.891
 6798SOL    HW221294   5.133   0.788   1.735
 6799SOL     OW21295   6.148   7.011   3.522
 6799SOL    HW121296   6.202   6.967   3.450
 6799SOL    HW221297   6.148   6.953   3.603
 6800SOL     OW21298   6.496   3.234   1.717
 6800SOL    HW121299   6.407   3.204   1.684
 6800SOL    HW221300   6.510   3.330   1.692
 6801SOL     OW21301   0.719   6.478   6.929
 6801SOL    HW121302   0.673   6.446   6.846
 6801SOL    HW221303   0.807   6.519   6.904
 6802SOL     OW21304   3.047   4.770   1.967
 6802SOL    HW121305   2.972   4.709   1.991
 6802SOL    HW221306   3.074   4.823   2.048
 6803SOL     OW21307   5.514   5.116   6.030
 6803SOL    HW121308   5.574   5.133   6.107
 6803SOL    HW221309   5.420   5.143   6.054
 6804SOL     OW21310   3.561   5.450   2.735
 6804SOL    HW121311   3.576   5.493   2.646
 6804SOL    HW221312   3.463   5.448   2.754
 6805SOL     OW21313   0.302   4.311   4.273
 6805SOL    HW121314   0.396   4.319   4.305
 6805SOL    HW221315   0.292   4.228   4.218
 6806SOL     OW21316   6.199   2.899   1.488
 6806SOL    HW121317   6.198   2.952   1.403
 6806SOL    HW221318   6.105   2.880   1.517
 6807SOL     OW21319   3.117   3.798   2.102
 6807SOL    HW121320   3.059   3.774   2.180
 6807SOL    HW221321   3.068   3.777   2.017
 6808SOL     OW21322   3.516   0.965   4.165
 6808SOL    HW121323   3.502   0.905   4.087
 6808SOL    HW221324   3.430   0.975   4.215
 6809SOL     OW21325   6.197   3.111   6.429
 6809SOL    HW121326   6.222   3.108   6.526
 6809SOL    HW221327   6.130   3.184   6.415
 6810SOL     OW21328   2.780   0.919   4.542
 6810SOL    HW121329   2.799   0.967   4.457
 6810SOL    HW221330   2.734   0.833   4.522
 6811SOL     OW21331   6.028   0.979   0.250
 6811SOL    HW121332   5.977   1.017   0.327
 6811SOL    HW221333   5.987   1.009   0.164
 6812SOL     OW21334   3.578   4.145   5.409
 6812SOL    HW121335   3.627   4.231   5.418
 6812SOL    HW221336   3.593   4.107   5.317
 6813SOL     OW21337   0.148   3.352   2.581
 6813SOL    HW121338   0.236   3.395   2.561
 6813SOL    HW221339   0.135   3.346   2.680
 6814SOL     OW21340   5.737   0.716   0.379
 6814SOL    HW121341   5.747   0.618   0.392
 6814SOL    HW221342   5.647   0.745   0.413
 6815SOL     OW21343   1.095   5.335   6.171
 6815SOL    HW121344   1.063   5.312   6.263
 6815SOL    HW221345   1.178   5.390   6.178
 6816SOL     OW21346   6.992   0.336   3.605
 6816SOL    HW121347   6.956   0.429   3.601
 6816SOL    HW221348   0.017   0.322   3.691
 6817SOL     OW21349   4.127   2.054   1.355
 6817SOL    HW121350   4.093   2.055   1.262
 6817SOL    HW221351   4.086   2.129   1.407
 6818SOL     OW21352   1.345   6.495   5.259
 6818SOL    HW121353   1.287   6.434   5.205
 6818SOL    HW221354   1.409   6.542   5.198
 6819SOL     OW21355   4.552   4.532   1.908
 6819SOL    HW121356   4.486   4.581   1.966
 6819SOL    HW221357   4.517   4.441   1.887
 6820SOL     OW21358   2.813   5.094   1.707
 6820SOL    HW121359   2.773   5.186   1.706
 6820SOL    HW221360   2.741   5.026   1.716
 6821SOL     OW21361   3.699   2.871   5.286
 6821SOL    HW121362   3.609   2.834   5.261
 6821SOL    HW221363   3.770   2.815   5.244
 6822SOL     OW21364   6.002   3.368   5.404
 6822SOL    HW121365   5.956   3.449   5.367
 6822SOL    HW221366   6.014   3.379   5.502
 6823SOL     OW21367   6.947   2.664   5.493
 6823SOL    HW121368   6.944   2.600   5.570
 6823SOL    HW221369   6.893   2.628   5.417
 6824SOL     OW21370   0.631   6.907   5.623
 6824SOL    HW121371   0.567   6.893   5.699
 6824SOL    HW221372   0.618   6.834   5.556
 6825SOL     OW21373   4.271   4.346   0.691
 6825SOL    HW121374   4.297   4.403   0.768
 6825SOL    HW221375   4.187   4.296   0.713
 6826SOL     OW21376   6.422   6.769   3.777
 6826SOL    HW121377   6.518   6.794   3.774
 6826SOL    HW221378   6.373   6.814   3.702
 6827SOL     OW21379   5.092   5.848   4.987
 6827SOL    HW121380   5.168   5.811   5.039
 6827SOL    HW221381   5.026   5.776   4.968
 6828SOL     OW21382   3.400   2.017   2.327
 6828SOL    HW121383   3.307   2.051   2.313
 6828SOL    HW221384   3.453   2.028   2.242
 6829SOL     OW21385   3.889   0.120   3.061
 6829SOL    HW121386   3.791   0.125   3.080
 6829SOL    HW221387   3.926   0.212   3.052
 6830SOL     OW21388   4.537   4.895   2.828
 6830SOL    HW121389   4.609   4.829   2.848
 6830SOL    HW221390   4.528   4.905   2.729
 6831SOL     OW21391   1.677   1.950   6.072
 6831SOL    HW121392   1.703   1.869   6.020
 6831SOL    HW221393   1.580   1.970   6.058
 6832SOL     OW21394   2.101   2.271   6.466
 6832SOL    HW121395   2.174   2.306   6.525
 6832SOL    HW221396   2.059   2.191   6.509
 6833SOL     OW21397   3.847   5.584   5.937
 6833SOL    HW121398   3.805   5.500   5.970
 6833SOL    HW221399   3.895   5.566   5.851
 6834SOL     OW21400   6.755   6.494   6.783
 6834SOL    HW121401   6.732   6.494   6.881
 6834SOL    HW221402   6.715   6.414   6.740
 6835SOL     OW21403   2.596   1.155   4.796
 6835SOL    HW121404   2.633   1.194   4.712
 6835SOL    HW221405   2.570   1.228   4.859
 6836SOL     OW21406   1.625   4.794   6.622
 6836SOL    HW121407   1.643   4.866   6.690
 6836SOL    HW221408   1.563   4.726   6.661
 6837SOL     OW21409   6.341   0.776   2.810
 6837SOL    HW121410   6.405   0.853   2.817
 6837SOL    HW221411   6.332   0.750   2.714
 6838SOL     OW21412   2.869   4.093   5.298
 6838SOL    HW121413   2.923   4.018   5.260
 6838SOL    HW221414   2.788   4.055   5.343
 6839SOL     OW21415   6.365   3.323   4.444
 6839SOL    HW121416   6.314   3.247   4.483
 6839SOL    HW221417   6.448   3.289   4.399
 6840SOL     OW21418   2.768   6.518   5.001
 6840SOL    HW121419   2.738   6.425   4.980
 6840SOL    HW221420   2.784   6.568   4.915
 6841SOL     OW21421   5.287   6.576   1.300
 6841SOL    HW121422   5.346   6.560   1.379
 6841SOL    HW221423   5.341   6.611   1.224
 6842SOL     OW21424   0.212   3.569   4.633
 6842SOL    HW121425   0.265   3.485   4.647
 6842SOL    HW221426   0.269   3.637   4.587
 6843SOL     OW21427   4.078   2.262   1.554
 6843SOL    HW121428   4.151   2.284   1.619
 6843SOL    HW221429   3.990   2.288   1.593
 6844SOL     OW21430   3.612   5.239   4.615
 6844SOL    HW121431   3.526   5.283   4.591
 6844SOL    HW221432   3.599   5.140   4.621
 6845SOL     OW21433   4.317   4.517   0.883
 6845SOL    HW121434   4.398   4.528   0.941
 6845SOL    HW221435   4.262   4.600   0.885
 6846SOL     OW21436   3.153   3.005   2.522
 6846SOL    HW121437   3.176   3.093   2.563
 6846SOL    HW221438   3.089   3.019   2.446
 6847SOL     OW21439   6.170   3.540   2.094
 6847SOL    HW121440   6.100   3.611   2.081
 6847SOL    HW221441   6.153   3.492   2.179
 6848SOL     OW21442   6.894   6.679   3.424
 6848SOL    HW121443   6.850   6.652   3.509
 6848SOL    HW221444   6.931   6.598   3.378
 6849SOL     OW21445   3.451   6.661   3.956
 6849SOL    HW121446   3.455   6.595   4.031
 6849SOL    HW221447   3.485   6.749   3.986
 6850SOL     OW21448   5.514   3.399   1.170
 6850SOL    HW121449   5.455   3.323   1.144
 6850SOL    HW221450   5.501   3.419   1.267
 6851SOL     OW21451   2.097   5.879   5.409
 6851SOL    HW121452   2.172   5.946   5.405
 6851SOL    HW221453   2.112   5.809   5.339
 6852SOL     OW21454   0.386   4.519   2.071
 6852SOL    HW121455   0.372   4.462   1.990
 6852SOL    HW221456   0.475   4.498   2.112
 6853SOL     OW21457   6.610   3.973   5.955
 6853SOL    HW121458   6.585   3.878   5.969
 6853SOL    HW221459   6.538   4.033   5.989
 6854SOL     OW21460   0.375   1.703   6.379
 6854SOL    HW121461   0.321   1.765   6.435
 6854SOL    HW221462   0.361   1.724   6.283
 6855SOL     OW21463   3.393   6.110   1.551
 6855SOL    HW121464   3.343   6.063   1.623
 6855SOL    HW221465   3.492   6.096   1.563
 6856SOL     OW21466   6.818   4.138   5.569
 6856SOL    HW121467   6.860   4.224   5.539
 6856SOL    HW221468   6.743   4.158   5.632
 6857SOL     OW21469   4.641   1.327   5.903
 6857SOL    HW121470   4.613   1.328   5.999
 6857SOL    HW221471   4.568   1.367   5.847
 6858SOL     OW21472   3.746   3.181   5.169
 6858SOL    HW121473   3.689   3.190   5.251
 6858SOL    HW221474   3.831   3.134   5.193
 6859SOL     OW21475   3.504   0.361   0.210
 6859SOL    HW121476   3.533   0.282   0.263
 6859SOL    HW221477   3.556   0.441   0.239
 6860SOL     OW21478   4.824   4.709   0.415
 6860SOL    HW121479   4.813   4.754   0.504
 6860SOL    HW221480   4.910   4.658   0.415
 6861SOL     OW21481   5.952   4.503   0.840
 6861SOL    HW121482   5.853   4.498   0.855
 6861SOL    HW221483   5.971   4.535   0.747
 6862SOL     OW21484   3.719   5.480   3.772
 6862SOL    HW121485   3.636   5.535   3.785
 6862SOL    HW221486   3.787   5.504   3.841
 6863SOL     OW21487   6.944   2.921   4.307
 6863SOL    HW121488   6.859   2.928   4.254
 6863SOL    HW221489   6.992   3.008   4.303
 6864SOL     OW21490   4.477   5.966   5.365
 6864SOL    HW121491   4.519   5.912   5.292
 6864SOL    HW221492   4.404   6.023   5.327
 6865SOL     OW21493   6.142   3.673   4.006
 6865SOL    HW121494   6.060   3.704   3.958
 6865SOL    HW221495   6.130   3.687   4.105
 6866SOL     OW21496   0.651   3.563   2.559
 6866SOL    HW121497   0.740   3.604   2.539
 6866SOL    HW221498   0.664   3.480   2.613
 6867SOL     OW21499   2.206   4.161   2.356
 6867SOL    HW121500   2.229   4.205   2.269
 6867SOL    HW221501   2.223   4.063   2.350
 6868SOL     OW21502   2.174   5.301   5.074
 6868SOL    HW121503   2.267   5.266   5.061
 6868SOL    HW221504   2.122   5.236   5.130
 6869SOL     OW21505   5.918   3.836   5.711
 6869SOL    HW121506   6.012   3.838   5.743
 6869SOL    HW221507   5.866   3.911   5.752
 6870SOL     OW21508   5.148   4.294   2.909
 6870SOL    HW121509   5.187   4.337   2.828
 6870SOL    HW221510   5.221   4.272   2.974
 6871SOL     OW21511   5.233   0.080   2.080
 6871SOL    HW121512   5.199   0.063   2.172
 6871SOL    HW221513   5.268   7.018   2.041
 6872SOL     OW21514   2.886   3.528   6.615
 6872SOL    HW121515   2.860   3.622   6.636
 6872SOL    HW221516   2.983   3.515   6.636
 6873SOL     OW21517   4.794   4.545   5.864
 6873SOL    HW121518   4.778   4.548   5.765
 6873SOL    HW221519   4.889   4.570   5.883
 6874SOL     OW21520   0.857   2.638   5.582
 6874SOL    HW121521   0.897   2.725   5.552
 6874SOL    HW221522   0.924   2.565   5.573
 6875SOL     OW21523   2.662   2.156   3.856
 6875SOL    HW121524   2.719   2.220   3.805
 6875SOL    HW221525   2.699   2.063   3.847
 6876SOL     OW21526   3.420   5.848   6.314
 6876SOL    HW121527   3.358   5.770   6.318
 6876SOL    HW221528   3.386   5.915   6.247
 6877SOL     OW21529   2.536   4.476   6.697
 6877SOL    HW121530   2.475   4.419   6.642
 6877SOL    HW221531   2.501   4.570   6.698
 6878SOL     OW21532   1.429   1.641   5.020
 6878SOL    HW121533   1.480   1.714   4.973
 6878SOL    HW221534   1.338   1.674   5.043
 6879SOL     OW21535   1.004   1.840   5.958
 6879SOL    HW121536   0.981   1.775   5.886
 6879SOL    HW221537   0.975   1.804   6.047
 6880SOL     OW21538   1.885   4.344   4.768
 6880SOL    HW121539   1.842   4.423   4.813
 6880SOL    HW221540   1.922   4.283   4.837
 6881SOL     OW21541   6.411   4.534   1.381
 6881SOL    HW121542   6.450   4.621   1.352
 6881SOL    HW221543   6.334   4.510   1.322
 6882SOL     OW21544   2.074   6.975   5.466
 6882SOL    HW121545   2.116   0.042   5.452
 6882SOL    HW221546   2.143   6.904   5.457
 6883SOL     OW21547   3.343   5.719   1.884
 6883SOL    HW121548   3.339   5.678   1.975
 6883SOL    HW221549   3.397   5.661   1.823
 6884SOL     OW21550   2.821   4.794   3.095
 6884SOL    HW121551   2.893   4.810   3.027
 6884SOL    HW221552   2.857   4.809   3.187
 6885SOL     OW21553   3.307   5.261   4.590
 6885SOL    HW121554   3.253   5.339   4.557
 6885SOL    HW221555   3.318   5.194   4.517
 6886SOL     OW21556   5.756   2.219   2.975
 6886SOL    HW121557   5.815   2.156   3.027
 6886SOL    HW221558   5.694   2.265   3.038
 6887SOL     OW21559   5.752   0.640   4.961
 6887SOL    HW121560   5.848   0.617   4.975
 6887SOL    HW221561   5.698   0.556   4.955
 6888SOL     OW21562   5.793   5.966   4.639
 6888SOL    HW121563   5.871   5.945   4.699
 6888SOL    HW221564   5.825   5.977   4.546
 6889SOL     OW21565   1.655   3.903   5.589
 6889SOL    HW121566   1.743   3.908   5.541
 6889SOL    HW221567   1.656   3.964   5.669
 6890SOL     OW21568   2.164   0.666   0.444
 6890SOL    HW121569   2.260   0.671   0.415
 6890SOL    HW221570   2.129   0.574   0.426
 6891SOL     OW21571   3.256   5.003   3.939
 6891SOL    HW121572   3.339   5.002   3.995
 6891SOL    HW221573   3.281   5.003   3.843
 6892SOL     OW21574   4.103   0.788   3.975
 6892SOL    HW121575   4.178   0.762   4.036
 6892SOL    HW221576   4.040   0.711   3.966
 6893SOL     OW21577   5.561   6.435   2.239
 6893SOL    HW121578   5.510   6.438   2.325
 6893SOL    HW221579   5.511   6.379   2.173
 6894SOL     OW21580   6.141   4.625   6.402
 6894SOL    HW121581   6.131   4.724   6.390
 6894SOL    HW221582   6.165   4.606   6.497
 6895SOL     OW21583   4.347   5.785   6.273
 6895SOL    HW121584   4.279   5.799   6.202
 6895SOL    HW221585   4.316   5.714   6.336
 6896SOL     OW21586   4.606   0.246   2.897
 6896SOL    HW121587   4.586   0.342   2.880
 6896SOL    HW221588   4.661   0.237   2.980
 6897SOL     OW21589   3.439   2.136   0.283
 6897SOL    HW121590   3.398   2.051   0.248
 6897SOL    HW221591   3.399   2.158   0.371
 6898SOL     OW21592   4.189   1.792   2.572
 6898SOL    HW121593   4.275   1.762   2.613
 6898SOL    HW221594   4.167   1.732   2.495
 6899SOL     OW21595   5.343   6.176   0.301
 6899SOL    HW121596   5.308   6.270   0.297
 6899SOL    HW221597   5.367   6.145   0.209
 6900SOL     OW21598   4.114   1.269   5.542
 6900SOL    HW121599   4.157   1.359   5.536
 6900SOL    HW221600   4.018   1.279   5.569
 6901SOL     OW21601   1.388   0.664   0.236
 6901SOL    HW121602   1.439   0.749   0.227
 6901SOL    HW221603   1.296   0.676   0.198
 6902SOL     OW21604   6.386   5.307   0.990
 6902SOL    HW121605   6.480   5.276   0.998
 6902SOL    HW221606   6.325   5.229   0.981
 6903SOL     OW21607   4.296   3.601   1.267
 6903SOL    HW121608   4.219   3.556   1.223
 6903SOL    HW221609   4.309   3.692   1.227
 6904SOL     OW21610   0.376   1.938   2.867
 6904SOL    HW121611   0.424   1.855   2.839
 6904SOL    HW221612   0.398   1.960   2.962
 6905SOL     OW21613   4.554   5.309   0.957
 6905SOL    HW121614   4.603   5.383   1.002
 6905SOL    HW221615   4.467   5.344   0.921
 6906SOL     OW21616   4.622   6.820   3.413
 6906SOL    HW121617   4.671   6.760   3.476
 6906SOL    HW221618   4.531   6.839   3.451
 6907SOL     OW21619   3.513   1.904   1.581
 6907SOL    HW121620   3.544   1.977   1.642
 6907SOL    HW221621   3.538   1.927   1.487
 6908SOL     OW21622   0.833   6.707   6.493
 6908SOL    HW121623   0.872   6.682   6.404
 6908SOL    HW221624   0.792   6.626   6.535
 6909SOL     OW21625   4.862   3.498   6.875
 6909SOL    HW121626   4.810   3.470   6.794
 6909SOL    HW221627   4.907   3.585   6.857
 6910SOL     OW21628   6.997   1.282   2.257
 6910SOL    HW121629   0.037   1.359   2.267
 6910SOL    HW221630   6.975   1.244   2.347
 6911SOL     OW21631   3.963   0.861   4.941
 6911SOL    HW121632   4.033   0.813   4.889
 6911SOL    HW221633   3.895   0.796   4.974
 6912SOL     OW21634   4.909   5.437   0.784
 6912SOL    HW121635   4.833   5.380   0.754
 6912SOL    HW221636   4.874   5.528   0.809
 6913SOL     OW21637   5.803   5.263   5.251
 6913SOL    HW121638   5.745   5.261   5.333
 6913SOL    HW221639   5.770   5.333   5.188
 6914SOL     OW21640   5.923   4.944   0.515
 6914SOL    HW121641   5.877   5.027   0.547
 6914SOL    HW221642   5.879   4.913   0.431
 6915SOL     OW21643   0.705   5.584   0.879
 6915SOL    HW121644   0.751   5.541   0.957
 6915SOL    HW221645   0.692   5.682   0.898
 6916SOL     OW21646   6.384   1.147   6.960
 6916SOL    HW121647   6.375   1.072   0.003
 6916SOL    HW221648   6.356   1.114   6.869
 6917SOL     OW21649   4.575   6.862   6.300
 6917SOL    HW121650   4.528   6.947   6.277
 6917SOL    HW221651   4.535   6.823   6.384
 6918SOL     OW21652   1.898   2.854   3.296
 6918SOL    HW121653   1.855   2.886   3.381
 6918SOL    HW221654   1.987   2.899   3.284
 6919SOL     OW21655   1.940   6.634   3.566
 6919SOL    HW121656   1.907   6.673   3.480
 6919SOL    HW221657   1.864   6.627   3.631
 6920SOL     OW21658   5.205   6.069   4.907
 6920SOL    HW121659   5.155   5.983   4.909
 6920SOL    HW221660   5.213   6.105   5.000
 6921SOL     OW21661   0.426   0.165   3.153
 6921SOL    HW121662   0.432   0.134   3.058
 6921SOL    HW221663   0.512   0.210   3.178
 6922SOL     OW21664   1.914   5.935   0.624
 6922SOL    HW121665   2.013   5.938   0.608
 6922SOL    HW221666   1.885   5.841   0.642
 6923SOL     OW21667   4.557   6.851   4.167
 6923SOL    HW121668   4.582   6.943   4.138
 6923SOL    HW221669   4.487   6.856   4.239
 6924SOL     OW21670   0.110   5.721   1.169
 6924SOL    HW121671   0.201   5.739   1.205
 6924SOL    HW221672   0.098   5.623   1.153
 6925SOL     OW21673   5.754   6.080   2.328
 6925SOL    HW121674   5.727   6.173   2.352
 6925SOL    HW221675   5.699   6.047   2.252
 6926SOL     OW21676   2.925   3.546   5.027
 6926SOL    HW121677   2.908   3.462   5.079
 6926SOL    HW221678   2.886   3.623   5.076
 6927SOL     OW21679   4.412   3.775   5.718
 6927SOL    HW121680   4.452   3.691   5.755
 6927SOL    HW221681   4.485   3.835   5.685
 6928SOL     OW21682   5.934   0.179   6.481
 6928SOL    HW121683   5.888   0.113   6.540
 6928SOL    HW221684   5.997   0.234   6.536
 6929SOL     OW21685   3.236   5.038   0.332
 6929SOL    HW121686   3.167   5.072   0.269
 6929SOL    HW221687   3.192   4.991   0.408
 6930SOL     OW21688   0.850   6.113   3.156
 6930SOL    HW121689   0.880   6.173   3.231
 6930SOL    HW221690   0.807   6.168   3.084
 6931SOL     OW21691   1.593   1.407   1.291
 6931SOL    HW121692   1.555   1.384   1.381
 6931SOL    HW221693   1.585   1.505   1.276
 6932SOL     OW21694   2.737   3.020   0.847
 6932SOL    HW121695   2.716   2.923   0.836
 6932SOL    HW221696   2.654   3.073   0.835
 6933SOL     OW21697   3.639   6.714   6.354
 6933SOL    HW121698   3.613   6.811   6.360
 6933SOL    HW221699   3.716   6.696   6.415
 6934SOL     OW21700   5.717   3.671   6.215
 6934SOL    HW121701   5.769   3.595   6.178
 6934SOL    HW221702   5.754   3.698   6.304
 6935SOL     OW21703   4.416   5.336   3.227
 6935SOL    HW121704   4.484   5.278   3.273
 6935SOL    HW221705   4.450   5.363   3.137
 6936SOL     OW21706   1.526   4.380   1.077
 6936SOL    HW121707   1.611   4.327   1.078
 6936SOL    HW221708   1.508   4.410   0.983
 6937SOL     OW21709   4.775   6.817   5.440
 6937SOL    HW121710   4.869   6.825   5.408
 6937SOL    HW221711   4.713   6.847   5.367
 6938SOL     OW21712   4.813   2.253   5.048
 6938SOL    HW121713   4.839   2.158   5.031
 6938SOL    HW221714   4.819   2.273   5.146
 6939SOL     OW21715   1.171   4.024   2.501
 6939SOL    HW121716   1.118   4.094   2.549
 6939SOL    HW221717   1.124   3.998   2.417
 6940SOL     OW21718   4.229   0.673   5.089
 6940SOL    HW121719   4.319   0.717   5.096
 6940SOL    HW221720   4.200   0.641   5.179
 6941SOL     OW21721   3.723   2.926   3.110
 6941SOL    HW121722   3.701   2.896   3.202
 6941SOL    HW221723   3.642   2.920   3.052
 6942SOL     OW21724   6.582   1.807   0.150
 6942SOL    HW121725   6.582   1.890   0.206
 6942SOL    HW221726   6.573   1.833   0.053
 6943SOL     OW21727   4.856   6.153   6.410
 6943SOL    HW121728   4.939   6.209   6.402
 6943SOL    HW221729   4.791   6.179   6.339
 6944SOL     OW21730   1.817   6.494   5.818
 6944SOL    HW121731   1.880   6.454   5.753
 6944SOL    HW221732   1.860   6.500   5.908
 6945SOL     OW21733   5.320   2.868   6.073
 6945SOL    HW121734   5.403   2.920   6.052
 6945SOL    HW221735   5.277   2.837   5.988
 6946SOL     OW21736   6.171   4.280   3.393
 6946SOL    HW121737   6.074   4.267   3.372
 6946SOL    HW221738   6.226   4.243   3.318
 6947SOL     OW21739   3.362   6.825   2.843
 6947SOL    HW121740   3.276   6.873   2.856
 6947SOL    HW221741   3.415   6.826   2.928
 6948SOL     OW21742   4.274   1.519   5.518
 6948SOL    HW121743   4.195   1.579   5.506
 6948SOL    HW221744   4.353   1.557   5.469
 6949SOL     OW21745   5.500   0.581   2.534
 6949SOL    HW121746   5.472   0.629   2.617
 6949SOL    HW221747   5.599   0.565   2.536
 6950SOL     OW21748   1.830   0.928   3.384
 6950SOL    HW121749   1.820   0.888   3.475
 6950SOL    HW221750   1.809   1.026   3.388
 6951SOL     OW21751   6.049   4.960   5.771
 6951SOL    HW121752   6.095   4.903   5.839
 6951SOL    HW221753   5.959   4.922   5.751
 6952SOL     OW21754   0.286   4.919   4.477
 6952SOL    HW121755   0.212   4.889   4.417
 6952SOL    HW221756   0.345   4.841   4.499
 6953SOL     OW21757   5.129   1.380   4.933
 6953SOL    HW121758   5.222   1.417   4.938
 6953SOL    HW221759   5.126   1.308   4.864
 6954SOL     OW21760   0.964   4.255   2.930
 6954SOL    HW121761   0.994   4.349   2.912
 6954SOL    HW221762   0.871   4.257   2.966
 6955SOL     OW21763   6.481   5.947   2.141
 6955SOL    HW121764   6.406   6.011   2.159
 6955SOL    HW221765   6.510   5.956   2.046
 6956SOL     OW21766   3.274   4.778   1.783
 6956SOL    HW121767   3.360   4.776   1.833
 6956SOL    HW221768   3.198   4.789   1.848
 6957SOL     OW21769   0.666   4.481   0.183
 6957SOL    HW121770   0.583   4.538   0.185
 6957SOL    HW221771   0.664   4.422   0.102
 6958SOL     OW21772   2.451   3.954   6.242
 6958SOL    HW121773   2.380   3.911   6.299
 6958SOL    HW221774   2.416   4.039   6.204
 6959SOL     OW21775   3.095   1.165   4.340
 6959SOL    HW121776   3.096   1.182   4.438
 6959SOL    HW221777   3.020   1.217   4.298
 6960SOL     OW21778   0.238   5.044   0.062
 6960SOL    HW121779   0.224   5.071   6.990
 6960SOL    HW221780   0.152   5.056   0.113
 6961SOL     OW21781   6.872   1.489   2.876
 6961SOL    HW121782   6.912   1.579   2.893
 6961SOL    HW221783   6.902   1.455   2.786
 6962SOL     OW21784   4.024   3.914   0.435
 6962SOL    HW121785   4.043   3.901   0.533
 6962SOL    HW221786   4.098   3.875   0.381
 6963SOL     OW21787   6.742   5.759   1.870
 6963SOL    HW121788   6.646   5.781   1.887
 6963SOL    HW221789   6.752   5.720   1.778
 6964SOL     OW21790   4.078   6.440   4.981
 6964SOL    HW121791   4.080   6.519   5.043
 6964SOL    HW221792   4.016   6.371   5.017
 6965SOL     OW21793   6.536   2.610   5.839
 6965SOL    HW121794   6.489   2.618   5.926
 6965SOL    HW221795   6.634   2.597   5.855
 6966SOL     OW21796   4.784   2.749   4.235
 6966SOL    HW121797   4.864   2.690   4.243
 6966SOL    HW221798   4.757   2.757   4.139
 6967SOL     OW21799   2.246   0.991   6.227
 6967SOL    HW121800   2.306   0.953   6.157
 6967SOL    HW221801   2.301   1.017   6.307
 6968SOL     OW21802   5.270   6.747   2.361
 6968SOL    HW121803   5.214   6.824   2.329
 6968SOL    HW221804   5.289   6.758   2.459
 6969SOL     OW21805   3.456   2.002   1.014
 6969SOL    HW121806   3.452   2.085   1.071
 6969SOL    HW221807   3.364   1.979   0.982
 6970SOL     OW21808   4.821   4.279   0.456
 6970SOL    HW121809   4.920   4.283   0.471
 6970SOL    HW221810   4.790   4.185   0.466
 6971SOL     OW21811   5.284   0.836   2.031
 6971SOL    HW121812   5.355   0.888   2.078
 6971SOL    HW221813   5.204   0.894   2.017
 6972SOL     OW21814   6.212   4.653   4.434
 6972SOL    HW121815   6.251   4.745   4.424
 6972SOL    HW221816   6.248   4.594   4.362
 6973SOL     OW21817   2.150   4.785   3.281
 6973SOL    HW121818   2.199   4.834   3.353
 6973SOL    HW221819   2.167   4.829   3.193
 6974SOL     OW21820   3.387   4.108   4.601
 6974SOL    HW121821   3.317   4.041   4.577
 6974SOL    HW221822   3.382   4.130   4.698
 6975SOL     OW21823   3.607   1.454   5.703
 6975SOL    HW121824   3.582   1.357   5.706
 6975SOL    HW221825   3.652   1.479   5.789
 6976SOL     OW21826   2.367   4.937   6.163
 6976SOL    HW121827   2.355   5.020   6.109
 6976SOL    HW221828   2.453   4.941   6.213
 6977SOL     OW21829   4.000   2.142   2.949
 6977SOL    HW121830   3.949   2.132   2.864
 6977SOL    HW221831   3.955   2.088   3.021
 6978SOL     OW21832   6.302   0.298   2.886
 6978SOL    HW121833   6.331   0.203   2.892
 6978SOL    HW221834   6.371   0.351   2.836
 6979SOL     OW21835   0.593   4.376   2.722
 6979SOL    HW121836   0.664   4.326   2.672
 6979SOL    HW221837   0.631   4.462   2.756
 6980SOL     OW21838   3.458   0.908   4.596
 6980SOL    HW121839   3.496   0.933   4.507
 6980SOL    HW221840   3.408   0.985   4.634
 6981SOL     OW21841   2.871   5.200   6.393
 6981SOL    HW121842   2.784   5.246   6.409
 6981SOL    HW221843   2.929   5.209   6.474
 6982SOL     OW21844   0.308   6.939   4.533
 6982SOL    HW121845   0.395   6.938   4.582
 6982SOL    HW221846   0.319   6.894   4.445
 6983SOL     OW21847   6.328   0.666   3.775
 6983SOL    HW121848   6.238   0.637   3.809
 6983SOL    HW221849   6.398   0.640   3.842
 6984SOL     OW21850   1.661   1.210   6.141
 6984SOL    HW121851   1.690   1.298   6.102
 6984SOL    HW221852   1.647   1.144   6.067
 6985SOL     OW21853   5.656   5.850   1.579
 6985SOL    HW121854   5.622   5.815   1.666
 6985SOL    HW221855   5.581   5.890   1.527
 6986SOL     OW21856   2.086   7.014   5.013
 6986SOL    HW121857   2.015   6.984   4.949
 6986SOL    HW221858   2.042   0.030   5.094
 6987SOL     OW21859   0.173   3.344   6.379
 6987SOL    HW121860   0.144   3.427   6.427
 6987SOL    HW221861   0.220   3.369   6.295
 6988SOL     OW21862   5.427   0.664   3.991
 6988SOL    HW121863   5.440   0.758   4.021
 6988SOL    HW221864   5.393   0.664   3.897
 6989SOL     OW21865   1.688   2.463   3.844
 6989SOL    HW121866   1.627   2.385   3.858
 6989SOL    HW221867   1.765   2.457   3.908
 6990SOL     OW21868   3.735   3.169   0.569
 6990SOL    HW121869   3.763   3.208   0.481
 6990SOL    HW221870   3.811   3.118   0.609
 6991SOL     OW21871   4.010   4.457   5.463
 6991SOL    HW121872   4.012   4.536   5.525
 6991SOL    HW221873   3.963   4.381   5.508
 6992SOL     OW21874   5.441   6.285   4.562
 6992SOL    HW121875   5.440   6.256   4.658
 6992SOL    HW221876   5.506   6.360   4.551
 6993SOL     OW21877   0.622   0.339   3.197
 6993SOL    HW121878   0.678   0.297   3.126
 6993SOL    HW221879   0.662   0.320   3.287
 6994SOL     OW21880   1.275   2.893   6.661
 6994SOL    HW121881   1.224   2.845   6.590
 6994SOL    HW221882   1.301   2.984   6.629
 6995SOL     OW21883   0.235   5.573   3.114
 6995SOL    HW121884   0.269   5.519   3.037
 6995SOL    HW221885   0.309   5.627   3.153
 6996SOL     OW21886   2.495   6.964   5.856
 6996SOL    HW121887   2.406   6.927   5.831
 6996SOL    HW221888   2.486   0.038   5.879
 6997SOL     OW21889   5.161   0.188   4.819
 6997SOL    HW121890   5.141   0.253   4.893
 6997SOL    HW221891   5.111   0.103   4.835
 6998SOL     OW21892   1.258   2.619   3.277
 6998SOL    HW121893   1.237   2.575   3.190
 6998SOL    HW221894   1.357   2.626   3.288
 6999SOL     OW21895   3.713   1.964   6.327
 6999SOL    HW121896   3.615   1.978   6.313
 6999SOL    HW221897   3.732   1.956   6.425
 7000SOL     OW21898   0.335   6.257   2.044
 7000SOL    HW121899   0.266   6.280   1.976
 7000SOL    HW221900   0.374   6.167   2.023
 7001SOL     OW21901   2.833   2.900   6.000
 7001SOL    HW121902   2.858   2.950   6.083
 7001SOL    HW221903   2.908   2.905   5.935
 7002SOL     OW21904   1.272   4.669   3.116
 7002SOL    HW121905   1.244   4.735   3.046
 7002SOL    HW221906   1.192   4.624   3.154
 7003SOL     OW21907   2.444   5.976   0.541
 7003SOL    HW121908   2.418   5.916   0.617
 7003SOL    HW221909   2.533   6.017   0.560
 7004SOL     OW21910   1.360   4.306   0.858
 7004SOL    HW121911   1.344   4.212   0.829
 7004SOL    HW221912   1.284   4.338   0.914
 7005SOL     OW21913   5.229   6.380   5.685
 7005SOL    HW121914   5.175   6.460   5.712
 7005SOL    HW221915   5.296   6.407   5.615
 7006SOL     OW21916   4.246   4.773   4.947
 7006SOL    HW121917   4.254   4.682   4.988
 7006SOL    HW221918   4.291   4.773   4.858
 7007SOL     OW21919   4.833   5.058   2.534
 7007SOL    HW121920   4.859   5.109   2.616
 7007SOL    HW221921   4.734   5.040   2.536
 7008SOL     OW21922   0.695   5.137   3.949
 7008SOL    HW121923   0.688   5.156   4.047
 7008SOL    HW221924   0.765   5.068   3.934
 7009SOL     OW21925   0.559   4.719   2.273
 7009SOL    HW121926   0.580   4.816   2.289
 7009SOL    HW221927   0.465   4.700   2.301
 7010SOL     OW21928   4.150   5.423   6.245
 7010SOL    HW121929   4.060   5.382   6.259
 7010SOL    HW221930   4.148   5.519   6.273
 7011SOL     OW21931   3.021   0.856   4.951
 7011SOL    HW121932   2.943   0.885   4.895
 7011SOL    HW221933   3.106   0.878   4.902
 7012SOL     OW21934   0.989   0.766   2.074
 7012SOL    HW121935   0.908   0.729   2.120
 7012SOL    HW221936   0.975   0.863   2.053
 7013SOL     OW21937   0.994   0.446   2.105
 7013SOL    HW121938   1.039   0.475   2.020
 7013SOL    HW221939   0.944   0.522   2.145
 7014SOL     OW21940   2.409   4.571   1.577
 7014SOL    HW121941   2.455   4.513   1.510
 7014SOL    HW221942   2.478   4.621   1.630
 7015SOL     OW21943   5.175   2.843   2.481
 7015SOL    HW121944   5.109   2.790   2.428
 7015SOL    HW221945   5.164   2.940   2.462
 7016SOL     OW21946   3.736   5.196   1.447
 7016SOL    HW121947   3.639   5.217   1.440
 7016SOL    HW221948   3.752   5.102   1.418
 7017SOL     OW21949   3.580   1.128   3.870
 7017SOL    HW121950   3.607   1.173   3.956
 7017SOL    HW221951   3.482   1.111   3.871
 7018SOL     OW21952   0.617   5.220   4.464
 7018SOL    HW121953   0.557   5.220   4.385
 7018SOL    HW221954   0.562   5.210   4.547
 7019SOL     OW21955   2.049   6.069   0.142
 7019SOL    HW121956   2.101   6.025   0.069
 7019SOL    HW221957   1.953   6.044   0.134
 7020SOL     OW21958   6.299   6.298   6.258
 7020SOL    HW121959   6.231   6.236   6.219
 7020SOL    HW221960   6.280   6.310   6.355
 7021SOL     OW21961   2.821   1.451   6.007
 7021SOL    HW121962   2.842   1.539   5.964
 7021SOL    HW221963   2.724   1.447   6.031
 7022SOL     OW21964   5.026   5.063   0.083
 7022SOL    HW121965   5.102   5.128   0.093
 7022SOL    HW221966   4.950   5.091   0.141
 7023SOL     OW21967   6.277   3.881   2.558
 7023SOL    HW121968   6.203   3.821   2.589
 7023SOL    HW221969   6.358   3.826   2.537
 7024SOL     OW21970   0.573   5.873   0.501
 7024SOL    HW121971   0.620   5.874   0.413
 7024SOL    HW221972   0.482   5.834   0.490
 7025SOL     OW21973   2.382   1.179   5.665
 7025SOL    HW121974   2.364   1.097   5.611
 7025SOL    HW221975   2.299   1.205   5.715
 7026SOL     OW21976   4.296   2.270   0.895
 7026SOL    HW121977   4.353   2.188   0.906
 7026SOL    HW221978   4.296   2.321   0.981
 7027SOL     OW21979   4.289   6.844   4.283
 7027SOL    HW121980   4.201   6.816   4.322
 7027SOL    HW221981   4.286   6.833   4.183
 7028SOL     OW21982   3.590   0.494   4.617
 7028SOL    HW121983   3.547   0.407   4.591
 7028SOL    HW221984   3.522   0.552   4.661
 7029SOL     OW21985   3.463   0.882   5.779
 7029SOL    HW121986   3.375   0.886   5.826
 7029SOL    HW221987   3.521   0.956   5.812
 7030SOL     OW21988   1.729   3.973   4.676
 7030SOL    HW121989   1.644   4.026   4.665
 7030SOL    HW221990   1.760   3.942   4.586
 7031SOL     OW21991   2.460   5.914   4.394
 7031SOL    HW121992   2.513   5.953   4.319
 7031SOL    HW221993   2.383   5.974   4.415
 7032SOL     OW21994   6.275   1.552   2.156
 7032SOL    HW121995   6.366   1.572   2.192
 7032SOL    HW221996   6.276   1.562   2.057
 7033SOL     OW21997   6.857   0.664   3.952
 7033SOL    HW121998   6.824   0.641   4.044
 7033SOL    HW221999   6.816   0.603   3.885
 7034SOL     OW22000   6.056   6.383   2.931
 7034SOL    HW122001   6.014   6.356   2.845
 7034SOL    HW222002   6.012   6.335   3.007
 7035SOL     OW22003   6.754   5.288   1.415
 7035SOL    HW122004   6.746   5.321   1.321
 7035SOL    HW222005   6.826   5.337   1.462
 7036SOL     OW22006   6.425   4.646   1.914
 7036SOL    HW122007   6.450   4.732   1.868
 7036SOL    HW222008   6.332   4.653   1.948
 7037SOL     OW22009   1.324   6.630   6.173
 7037SOL    HW122010   1.272   6.590   6.097
 7037SOL    HW222011   1.395   6.566   6.201
 7038SOL     OW22012   1.050   4.289   4.041
 7038SOL    HW122013   1.017   4.257   4.130
 7038SOL    HW222014   1.125   4.230   4.011
 7039SOL     OW22015   4.037   1.512   0.062
 7039SOL    HW122016   3.978   1.448   0.011
 7039SOL    HW222017   4.109   1.545   0.002
 7040SOL     OW22018   4.501   2.642   6.229
 7040SOL    HW122019   4.460   2.551   6.225
 7040SOL    HW222020   4.597   2.634   6.258
 7041SOL     OW22021   2.306   2.248   2.326
 7041SOL    HW122022   2.356   2.216   2.246
 7041SOL    HW222023   2.355   2.324   2.369
 7042SOL     OW22024   2.402   0.429   6.600
 7042SOL    HW122025   2.448   0.391   6.520
 7042SOL    HW222026   2.304   0.435   6.582
 7043SOL     OW22027   1.417   1.814   3.023
 7043SOL    HW122028   1.364   1.894   3.053
 7043SOL    HW222029   1.490   1.843   2.962
 7044SOL     OW22030   4.713   5.777   2.706
 7044SOL    HW122031   4.651   5.856   2.706
 7044SOL    HW222032   4.789   5.794   2.769
 7045SOL     OW22033   5.388   5.496   0.996
 7045SOL    HW122034   5.419   5.428   1.063
 7045SOL    HW222035   5.290   5.484   0.980
 7046SOL     OW22036   3.113   0.358   5.085
 7046SOL    HW122037   3.089   0.429   5.019
 7046SOL    HW222038   3.074   0.381   5.174
 7047SOL     OW22039   1.748   0.999   4.293
 7047SOL    HW122040   1.709   0.912   4.325
 7047SOL    HW222041   1.782   1.050   4.372
 7048SOL     OW22042   6.700   6.777   0.032
 7048SOL    HW122043   6.620   6.741   7.007
 7048SOL    HW222044   6.701   6.743   0.126
 7049SOL     OW22045   2.529   1.172   0.776
 7049SOL    HW122046   2.628   1.180   0.792
 7049SOL    HW222047   2.480   1.219   0.850
 7050SOL     OW22048   4.010   3.872   4.644
 7050SOL    HW122049   3.922   3.884   4.599
 7050SOL    HW222050   4.077   3.933   4.601
 7051SOL     OW22051   6.628   6.600   1.980
 7051SOL    HW122052   6.605   6.594   2.077
 7051SOL    HW222053   6.711   6.654   1.968
 7052SOL     OW22054   0.075   2.461   3.588
 7052SOL    HW122055   0.111   2.395   3.521
 7052SOL    HW222056   0.142   2.473   3.661
 7053SOL     OW22057   0.616   5.004   6.970
 7053SOL    HW122058   0.714   5.002   6.989
 7053SOL    HW222059   0.567   5.035   0.030
 7054SOL     OW22060   6.933   6.769   1.693
 7054SOL    HW122061   6.936   6.681   1.647
 7054SOL    HW222062   7.003   6.829   1.654
 7055SOL     OW22063   3.665   0.213   4.876
 7055SOL    HW122064   3.665   0.299   4.928
 7055SOL    HW222065   3.759   0.184   4.861
 7056SOL     OW22066   5.434   5.214   3.776
 7056SOL    HW122067   5.453   5.198   3.679
 7056SOL    HW222068   5.504   5.168   3.831
 7057SOL     OW22069   0.361   5.863   3.256
 7057SOL    HW122070   0.378   5.862   3.157
 7057SOL    HW222071   0.434   5.812   3.302
 7058SOL     OW22072   1.136   5.622   5.615
 7058SOL    HW122073   1.138   5.527   5.583
 7058SOL    HW222074   1.042   5.655   5.618
 7059SOL     OW22075   1.511   0.404   2.334
 7059SOL    HW122076   1.449   0.464   2.385
 7059SOL    HW222077   1.503   0.310   2.369
 7060SOL     OW22078   3.182   6.498   1.209
 7060SOL    HW122079   3.223   6.442   1.281
 7060SOL    HW222080   3.200   6.455   1.120
 7061SOL     OW22081   0.770   1.114   2.546
 7061SOL    HW122082   0.836   1.076   2.610
 7061SOL    HW222083   0.784   1.075   2.455
 7062SOL     OW22084   5.584   1.994   4.681
 7062SOL    HW122085   5.612   1.933   4.606
 7062SOL    HW222086   5.499   2.039   4.657
 7063SOL     OW22087   3.784   6.565   0.981
 7063SOL    HW122088   3.816   6.594   1.071
 7063SOL    HW222089   3.755   6.469   0.986
 7064SOL     OW22090   3.726   2.474   0.318
 7064SOL    HW122091   3.789   2.456   0.394
 7064SOL    HW222092   3.748   2.563   0.277
 7065SOL     OW22093   4.187   3.498   1.506
 7065SOL    HW122094   4.243   3.551   1.442
 7065SOL    HW222095   4.238   3.416   1.534
 7066SOL     OW22096   3.468   6.550   0.517
 7066SOL    HW122097   3.459   6.521   0.422
 7066SOL    HW222098   3.539   6.495   0.561
 7067SOL     OW22099   0.088   4.135   5.317
 7067SOL    HW122100   0.130   4.211   5.269
 7067SOL    HW222101   7.014   4.129   5.292
 7068SOL     OW22102   1.491   0.833   3.728
 7068SOL    HW122103   1.576   0.827   3.780
 7068SOL    HW222104   1.511   0.824   3.630
 7069SOL     OW22105   1.445   4.426   4.810
 7069SOL    HW122106   1.485   4.505   4.855
 7069SOL    HW222107   1.490   4.342   4.841
 7070SOL     OW22108   6.085   4.924   4.428
 7070SOL    HW122109   6.060   4.896   4.521
 7070SOL    HW222110   6.072   4.846   4.366
 7071SOL     OW22111   1.333   6.440   5.578
 7071SOL    HW122112   1.283   6.509   5.525
 7071SOL    HW222113   1.430   6.467   5.584
 7072SOL     OW22114   0.443   6.494   6.510
 7072SOL    HW122115   0.463   6.398   6.491
 7072SOL    HW222116   0.439   6.507   6.609
 7073SOL     OW22117   0.855   0.589   6.084
 7073SOL    HW122118   0.841   0.491   6.077
 7073SOL    HW222119   0.768   0.636   6.071
 7074SOL     OW22120   3.522   2.182   1.490
 7074SOL    HW122121   3.505   2.191   1.588
 7074SOL    HW222122   3.438   2.156   1.443
 7075SOL     OW22123   1.727   5.828   3.097
 7075SOL    HW122124   1.651   5.788   3.046
 7075SOL    HW222125   1.755   5.913   3.053
 7076SOL     OW22126   2.354   2.545   6.909
 7076SOL    HW122127   2.426   2.548   6.840
 7076SOL    HW222128   2.388   2.585   6.994
 7077SOL     OW22129   2.286   5.605   5.676
 7077SOL    HW122130   2.204   5.660   5.691
 7077SOL    HW222131   2.336   5.640   5.597
 7078SOL     OW22132   6.010   0.988   3.492
 7078SOL    HW122133   6.026   0.927   3.570
 7078SOL    HW222134   5.993   0.934   3.410
 7079SOL     OW22135   5.957   6.454   6.055
 7079SOL    HW122136   5.984   6.534   6.002
 7079SOL    HW222137   5.941   6.481   6.150
 7080SOL     OW22138   4.545   0.649   3.835
 7080SOL    HW122139   4.493   0.636   3.918
 7080SOL    HW222140   4.620   0.582   3.831
 7081SOL     OW22141   3.935   1.280   4.708
 7081SOL    HW122142   3.922   1.201   4.648
 7081SOL    HW222143   4.032   1.287   4.733
 7082SOL     OW22144   5.262   0.616   5.926
 7082SOL    HW122145   5.320   0.577   5.854
 7082SOL    HW222146   5.173   0.571   5.925
 7083SOL     OW22147   3.598   0.156   6.139
 7083SOL    HW122148   3.569   0.190   6.050
 7083SOL    HW222149   3.620   0.234   6.199
 7084SOL     OW22150   6.874   6.469   5.911
 7084SOL    HW122151   6.933   6.531   5.858
 7084SOL    HW222152   6.897   6.375   5.887
 7085SOL     OW22153   2.689   2.354   1.378
 7085SOL    HW122154   2.669   2.442   1.422
 7085SOL    HW222155   2.774   2.317   1.415
 7086SOL     OW22156   6.192   0.098   6.333
 7086SOL    HW122157   6.185   0.190   6.371
 7086SOL    HW222158   6.106   0.074   6.287
 7087SOL     OW22159   1.176   3.587   4.089
 7087SOL    HW122160   1.102   3.547   4.036
 7087SOL    HW222161   1.252   3.523   4.094
 7088SOL     OW22162   5.968   2.883   5.719
 7088SOL    HW122163   5.968   2.860   5.816
 7088SOL    HW222164   6.063   2.895   5.688
 7089SOL     OW22165   2.528   1.568   0.258
 7089SOL    HW122166   2.436   1.551   0.293
 7089SOL    HW222167   2.596   1.535   0.323
 7090SOL     OW22168   2.601   2.599   5.305
 7090SOL    HW122169   2.697   2.586   5.330
 7090SOL    HW222170   2.567   2.684   5.346
 7091SOL     OW22171   6.881   6.123   6.697
 7091SOL    HW122172   6.954   6.175   6.743
 7091SOL    HW222173   6.919   6.079   6.615
 7092SOL     OW22174   3.351   3.776   0.915
 7092SOL    HW122175   3.350   3.846   0.844
 7092SOL    HW222176   3.282   3.707   0.895
 7093SOL     OW22177   3.238   3.678   4.790
 7093SOL    HW122178   3.205   3.584   4.796
 7093SOL    HW222179   3.249   3.703   4.694
 7094SOL     OW22180   0.762   0.333   5.964
 7094SOL    HW122181   0.852   0.290   5.971
 7094SOL    HW222182   0.715   0.298   5.882
 7095SOL     OW22183   0.618   3.090   6.784
 7095SOL    HW122184   0.532   3.135   6.804
 7095SOL    HW222185   0.691   3.157   6.778
 7096SOL     OW22186   4.538   1.752   2.924
 7096SOL    HW122187   4.510   1.742   2.829
 7096SOL    HW222188   4.460   1.782   2.979
 7097SOL     OW22189   0.650   0.552   1.768
 7097SOL    HW122190   0.566   0.497   1.765
 7097SOL    HW222191   0.709   0.518   1.841
 7098SOL     OW22192   1.883   6.799   5.786
 7098SOL    HW122193   1.872   6.781   5.689
 7098SOL    HW222194   1.845   6.723   5.838
 7099SOL     OW22195   0.285   0.918   6.500
 7099SOL    HW122196   0.250   0.977   6.426
 7099SOL    HW222197   0.306   0.828   6.463
 7100SOL     OW22198   5.910   3.011   1.274
 7100SOL    HW122199   5.967   2.978   1.199
 7100SOL    HW222200   5.854   3.087   1.243
 7101SOL     OW22201   2.688   0.409   5.203
 7101SOL    HW122202   2.728   0.439   5.290
 7101SOL    HW222203   2.754   0.355   5.153
 7102SOL     OW22204   4.477   2.110   0.621
 7102SOL    HW122205   4.489   2.201   0.581
 7102SOL    HW222206   4.474   2.042   0.548
 7103SOL     OW22207   3.777   6.751   6.766
 7103SOL    HW122208   3.858   6.702   6.735
 7103SOL    HW222209   3.718   6.690   6.820
 7104SOL     OW22210   1.077   2.310   3.125
 7104SOL    HW122211   1.164   2.357   3.109
 7104SOL    HW222212   1.051   2.259   3.042
 7105SOL     OW22213   3.430   3.936   5.094
 7105SOL    HW122214   3.348   3.992   5.092
 7105SOL    HW222215   3.429   3.872   5.016
 7106SOL     OW22216   3.146   2.800   5.326
 7106SOL    HW122217   3.154   2.826   5.230
 7106SOL    HW222218   3.237   2.803   5.369
 7107SOL     OW22219   3.076   1.890   0.465
 7107SOL    HW122220   3.100   1.971   0.412
 7107SOL    HW222221   2.983   1.861   0.441
 7108SOL     OW22222   4.921   0.164   1.570
 7108SOL    HW122223   4.854   0.221   1.617
 7108SOL    HW222224   4.981   0.121   1.637
 7109SOL     OW22225   3.640   6.991   6.404
 7109SOL    HW122226   3.690   0.032   6.462
 7109SOL    HW222227   3.641   0.002   6.310
 7110SOL     OW22228   4.559   5.145   3.429
 7110SOL    HW122229   4.572   5.170   3.525
 7110SOL    HW222230   4.462   5.126   3.413
 7111SOL     OW22231   2.121   3.439   4.378
 7111SOL    HW122232   2.122   3.464   4.282
 7111SOL    HW222233   2.038   3.474   4.422
 7112SOL     OW22234   0.930   6.247   3.368
 7112SOL    HW122235   1.009   6.195   3.399
 7112SOL    HW222236   0.848   6.216   3.416
 7113SOL     OW22237   4.101   3.418   4.273
 7113SOL    HW122238   4.106   3.451   4.367
 7113SOL    HW222239   4.179   3.452   4.221
 7114SOL     OW22240   3.994   1.221   1.060
 7114SOL    HW122241   3.924   1.225   0.989
 7114SOL    HW222242   4.075   1.271   1.029
 7115SOL     OW22243   4.691   1.475   1.055
 7115SOL    HW122244   4.681   1.482   1.154
 7115SOL    HW222245   4.757   1.403   1.033
 7116SOL     OW22246   5.602   4.475   2.985
 7116SOL    HW122247   5.524   4.504   2.929
 7116SOL    HW222248   5.600   4.525   3.072
 7117SOL     OW22249   6.208   6.773   1.735
 7117SOL    HW122250   6.208   6.697   1.670
 7117SOL    HW222251   6.264   6.750   1.814
 7118SOL     OW22252   6.504   2.929   0.741
 7118SOL    HW122253   6.564   2.850   0.749
 7118SOL    HW222254   6.508   2.982   0.826
 7119SOL     OW22255   6.960   1.869   3.521
 7119SOL    HW122256   6.927   1.960   3.544
 7119SOL    HW222257   0.033   1.859   3.551
 7120SOL     OW22258   5.092   1.240   3.341
 7120SOL    HW122259   5.161   1.173   3.315
 7120SOL    HW222260   5.050   1.279   3.259
 7121SOL     OW22261   3.208   6.743   3.195
 7121SOL    HW122262   3.131   6.710   3.250
 7121SOL    HW222263   3.259   6.664   3.159
 7122SOL     OW22264   5.987   0.635   6.709
 7122SOL    HW122265   6.015   0.635   6.613
 7122SOL    HW222266   5.898   0.591   6.718
 7123SOL     OW22267   2.894   5.257   1.242
 7123SOL    HW122268   2.882   5.177   1.184
 7123SOL    HW222269   2.946   5.327   1.192
 7124SOL     OW22270   0.313   4.901   0.537
 7124SOL    HW122271   0.377   4.823   0.538
 7124SOL    HW222272   0.357   4.980   0.494
 7125SOL     OW22273   6.160   6.815   2.378
 7125SOL    HW122274   6.101   6.842   2.454
 7125SOL    HW222275   6.149   6.880   2.303
 7126SOL     OW22276   1.224   4.527   0.149
 7126SOL    HW122277   1.298   4.544   0.213
 7126SOL    HW222278   1.199   4.430   0.152
 7127SOL     OW22279   3.934   6.602   4.309
 7127SOL    HW122280   3.934   6.533   4.382
 7127SOL    HW222281   3.841   6.612   4.273
 7128SOL     OW22282   3.119   3.845   1.206
 7128SOL    HW122283   3.022   3.865   1.194
 7128SOL    HW222284   3.141   3.757   1.164
 7129SOL     OW22285   2.342   6.982   1.583
 7129SOL    HW122286   2.359   6.895   1.537
 7129SOL    HW222287   2.419   0.021   1.569
 7130SOL     OW22288   1.972   4.369   3.296
 7130SOL    HW122289   1.928   4.458   3.285
 7130SOL    HW222290   2.066   4.373   3.264
 7131SOL     OW22291   2.649   1.035   2.830
 7131SOL    HW122292   2.616   0.949   2.790
 7131SOL    HW222293   2.572   1.098   2.840
 7132SOL     OW22294   3.350   3.958   3.405
 7132SOL    HW122295   3.424   4.009   3.447
 7132SOL    HW222296   3.262   3.992   3.438
 7133SOL     OW22297   5.340   5.008   2.927
 7133SOL    HW122298   5.397   4.943   2.876
 7133SOL    HW222299   5.254   4.964   2.953
 7134SOL     OW22300   5.697   4.357   4.372
 7134SOL    HW122301   5.625   4.354   4.302
 7134SOL    HW222302   5.764   4.427   4.347
 7135SOL     OW22303   0.827   2.004   4.817
 7135SOL    HW122304   0.780   2.053   4.890
 7135SOL    HW222305   0.926   2.011   4.830
 7136SOL     OW22306   1.688   1.564   0.181
 7136SOL    HW122307   1.638   1.573   0.095
 7136SOL    HW222308   1.760   1.496   0.172
 7137SOL     OW22309   4.262   0.564   4.631
 7137SOL    HW122310   4.235   0.471   4.607
 7137SOL    HW222311   4.247   0.625   4.553
 7138SOL     OW22312   2.142   4.175   0.962
 7138SOL    HW122313   2.241   4.186   0.964
 7138SOL    HW222314   2.119   4.087   0.919
 7139SOL     OW22315   3.555   2.412   1.203
 7139SOL    HW122316   3.611   2.354   1.261
 7139SOL    HW222317   3.602   2.499   1.187
 7140SOL     OW22318   6.016   3.707   5.220
 7140SOL    HW122319   6.033   3.805   5.211
 7140SOL    HW222320   6.007   3.683   5.317
 7141SOL     OW22321   2.824   7.001   0.207
 7141SOL    HW122322   2.816   6.905   0.178
 7141SOL    HW222323   2.781   7.012   0.297
 7142SOL     OW22324   3.972   5.843   4.113
 7142SOL    HW122325   4.071   5.841   4.126
 7142SOL    HW222326   3.950   5.834   4.016
 7143SOL     OW22327   1.844   3.789   5.377
 7143SOL    HW122328   1.778   3.730   5.330
 7143SOL    HW222329   1.873   3.862   5.315
 7144SOL     OW22330   0.736   2.347   3.786
 7144SOL    HW122331   0.660   2.319   3.727
 7144SOL    HW222332   0.758   2.274   3.850
 7145SOL     OW22333   4.651   0.030   6.915
 7145SOL    HW122334   4.703   0.113   6.935
 7145SOL    HW222335   4.677   7.018   6.826
 7146SOL     OW22336   3.619   5.187   0.139
 7146SOL    HW122337   3.718   5.173   0.138
 7146SOL    HW222338   3.583   5.176   0.047
 7147SOL     OW22339   0.344   0.387   3.555
 7147SOL    HW122340   0.384   0.302   3.520
 7147SOL    HW222341   0.398   0.465   3.523
 7148SOL     OW22342   1.001   0.814   1.677
 7148SOL    HW122343   0.951   0.901   1.681
 7148SOL    HW222344   1.086   0.822   1.729
 7149SOL     OW22345   6.457   1.802   3.106
 7149SOL    HW122346   6.507   1.870   3.053
 7149SOL    HW222347   6.440   1.837   3.198
 7150SOL     OW22348   6.362   3.121   0.152
 7150SOL    HW122349   6.430   3.132   0.225
 7150SOL    HW222350   6.328   3.211   0.125
 7151SOL     OW22351   2.534   6.030   1.692
 7151SOL    HW122352   2.498   5.957   1.633
 7151SOL    HW222353   2.460   6.089   1.722
 7152SOL     OW22354   1.563   2.628   3.663
 7152SOL    HW122355   1.600   2.597   3.751
 7152SOL    HW222356   1.467   2.654   3.675
 7153SOL     OW22357   3.895   1.481   3.975
 7153SOL    HW122358   3.977   1.493   4.031
 7153SOL    HW222359   3.824   1.437   4.030
 7154SOL     OW22360   4.870   5.667   4.083
 7154SOL    HW122361   4.774   5.658   4.056
 7154SOL    HW222362   4.907   5.577   4.103
 7155SOL     OW22363   2.743   0.161   0.919
 7155SOL    HW122364   2.840   0.138   0.914
 7155SOL    HW222365   2.694   0.117   0.844
 7156SOL     OW22366   0.247   5.869   4.618
 7156SOL    HW122367   0.207   5.809   4.688
 7156SOL    HW222368   0.216   5.839   4.528
 7157SOL     OW22369   4.661   4.416   1.004
 7157SOL    HW122370   4.653   4.485   0.932
 7157SOL    HW222371   4.675   4.462   1.092
 7158SOL     OW22372   6.757   6.543   3.645
 7158SOL    HW122373   6.662   6.513   3.636
 7158SOL    HW222374   6.759   6.634   3.686
 7159SOL     OW22375   1.112   5.266   0.546
 7159SOL    HW122376   1.087   5.357   0.513
 7159SOL    HW222377   1.207   5.246   0.523
 7160SOL     OW22378   5.522   0.415   1.793
 7160SOL    HW122379   5.503   0.319   1.771
 7160SOL    HW222380   5.436   0.466   1.794
 7161SOL     OW22381   3.728   3.318   4.001
 7161SOL    HW122382   3.809   3.364   4.037
 7161SOL    HW222383   3.728   3.324   3.901
 7162SOL     OW22384   3.291   5.081   3.672
 7162SOL    HW122385   3.381   5.041   3.657
 7162SOL    HW222386   3.223   5.030   3.620
 7163SOL     OW22387   2.512   0.464   3.114
 7163SOL    HW122388   2.540   0.556   3.144
 7163SOL    HW222389   2.586   0.423   3.060
 7164SOL     OW22390   2.024   1.176   3.239
 7164SOL    HW122391   2.030   1.276   3.246
 7164SOL    HW222392   1.953   1.151   3.174
 7165SOL     OW22393   5.091   1.156   1.091
 7165SOL    HW122394   5.101   1.253   1.068
 7165SOL    HW222395   5.173   1.125   1.140
 7166SOL     OW22396   5.023   4.616   1.154
 7166SOL    HW122397   4.979   4.704   1.171
 7166SOL    HW222398   5.092   4.599   1.225
 7167SOL     OW22399   4.858   3.160   5.116
 7167SOL    HW122400   4.877   3.247   5.162
 7167SOL    HW222401   4.793   3.108   5.171
 7168SOL     OW22402   1.034   0.417   3.763
 7168SOL    HW122403   1.113   0.428   3.703
 7168SOL    HW222404   0.956   0.467   3.724
 7169SOL     OW22405   1.513   2.456   5.209
 7169SOL    HW122406   1.571   2.376   5.198
 7169SOL    HW222407   1.487   2.466   5.305
 7170SOL     OW22408   6.434   4.831   4.408
 7170SOL    HW122409   6.460   4.827   4.312
 7170SOL    HW222410   6.430   4.738   4.445
 7171SOL     OW22411   4.276   3.173   5.335
 7171SOL    HW122412   4.358   3.138   5.382
 7171SOL    HW222413   4.286   3.272   5.322
 7172SOL     OW22414   1.178   0.446   0.653
 7172SOL    HW122415   1.221   0.464   0.564
 7172SOL    HW222416   1.151   0.532   0.695
 7173SOL     OW22417   6.952   6.077   5.830
 7173SOL    HW122418   0.004   6.099   5.768
 7173SOL    HW222419   6.968   6.121   5.919
 7174SOL     OW22420   1.891   5.289   0.350
 7174SOL    HW122421   1.908   5.259   0.256
 7174SOL    HW222422   1.973   5.274   0.405
 7175SOL     OW22423   6.384   4.180   6.063
 7175SOL    HW122424   6.467   4.213   6.109
 7175SOL    HW222425   6.328   4.258   6.036
 7176SOL     OW22426   5.973   3.931   1.357
 7176SOL    HW122427   5.875   3.946   1.349
 7176SOL    HW222428   6.014   4.004   1.412
 7177SOL     OW22429   0.447   5.696   2.426
 7177SOL    HW122430   0.453   5.645   2.340
 7177SOL    HW222431   0.521   5.764   2.430
 7178SOL     OW22432   0.562   2.473   6.054
 7178SOL    HW122433   0.646   2.436   6.092
 7178SOL    HW222434   0.583   2.554   5.998
 7179SOL     OW22435   2.836   3.615   5.966
 7179SOL    HW122436   2.918   3.579   6.010
 7179SOL    HW222437   2.757   3.558   5.990
 7180SOL     OW22438   0.486   6.006   1.972
 7180SOL    HW122439   0.417   5.984   1.903
 7180SOL    HW222440   0.467   5.956   2.056
 7181SOL     OW22441   5.341   0.689   1.249
 7181SOL    HW122442   5.296   0.660   1.165
 7181SOL    HW222443   5.273   0.697   1.322
 7182SOL     OW22444   2.896   4.349   5.610
 7182SOL    HW122445   2.933   4.337   5.518
 7182SOL    HW222446   2.797   4.338   5.608
 7183SOL     OW22447   1.030   5.361   2.564
 7183SOL    HW122448   1.076   5.330   2.646
 7183SOL    HW222449   0.932   5.340   2.571
 7184SOL     OW22450   2.272   6.547   4.019
 7184SOL    HW122451   2.305   6.634   3.982
 7184SOL    HW222452   2.281   6.476   3.948
 7185SOL     OW22453   4.747   2.511   6.807
 7185SOL    HW122454   4.826   2.568   6.826
 7185SOL    HW222455   4.760   2.421   6.847
 7186SOL     OW22456   0.710   6.242   5.133
 7186SOL    HW122457   0.767   6.324   5.130
 7186SOL    HW222458   0.617   6.268   5.162
 7187SOL     OW22459   2.076   4.139   1.381
 7187SOL    HW122460   2.056   4.210   1.314
 7187SOL    HW222461   2.174   4.119   1.381
 7188SOL     OW22462   5.236   1.415   1.574
 7188SOL    HW122463   5.267   1.352   1.503
 7188SOL    HW222464   5.315   1.456   1.619
 7189SOL     OW22465   6.270   1.318   4.949
 7189SOL    HW122466   6.354   1.317   5.004
 7189SOL    HW222467   6.285   1.269   4.864
 7190SOL     OW22468   4.807   4.655   3.568
 7190SOL    HW122469   4.897   4.629   3.532
 7190SOL    HW222470   4.746   4.575   3.565
 7191SOL     OW22471   1.781   3.393   1.881
 7191SOL    HW122472   1.863   3.340   1.859
 7191SOL    HW222473   1.729   3.409   1.797
 7192SOL     OW22474   3.017   4.602   5.836
 7192SOL    HW122475   3.061   4.546   5.766
 7192SOL    HW222476   3.019   4.697   5.808
 7193SOL     OW22477   4.253   2.346   3.823
 7193SOL    HW122478   4.291   2.425   3.774
 7193SOL    HW222479   4.161   2.327   3.790
 7194SOL     OW22480   2.594   1.590   2.210
 7194SOL    HW122481   2.636   1.543   2.288
 7194SOL    HW222482   2.663   1.645   2.163
 7195SOL     OW22483   1.077   5.623   1.117
 7195SOL    HW122484   1.080   5.593   1.021
 7195SOL    HW222485   1.154   5.584   1.167
 7196SOL     OW22486   2.948   3.246   2.185
 7196SOL    HW122487   2.990   3.337   2.180
 7196SOL    HW222488   2.898   3.238   2.272
 7197SOL     OW22489   6.865   1.904   6.104
 7197SOL    HW122490   6.904   1.874   6.191
 7197SOL    HW222491   6.876   2.003   6.095
 7198SOL     OW22492   1.006   6.337   6.733
 7198SOL    HW122493   1.017   6.242   6.765
 7198SOL    HW222494   0.938   6.340   6.660
 7199SOL     OW22495   6.368   6.578   2.690
 7199SOL    HW122496   6.327   6.500   2.737
 7199SOL    HW222497   6.319   6.596   2.605
 7200SOL     OW22498   1.895   1.229   1.081
 7200SOL    HW122499   1.984   1.261   1.110
 7200SOL    HW222500   1.845   1.302   1.035
 7201SOL     OW22501   2.105   4.518   3.864
 7201SOL    HW122502   2.159   4.440   3.834
 7201SOL    HW222503   2.123   4.596   3.804
 7202SOL     OW22504   4.097   0.931   6.603
 7202SOL    HW122505   4.168   0.933   6.674
 7202SOL    HW222506   4.028   0.863   6.627
 7203SOL     OW22507   5.308   1.026   0.058
 7203SOL    HW122508   5.248   0.987   7.011
 7203SOL    HW222509   5.289   1.123   0.069
 7204SOL     OW22510   5.936   1.712   3.062
 7204SOL    HW122511   5.919   1.759   2.975
 7204SOL    HW222512   6.030   1.678   3.064
 7205SOL     OW22513   1.793   4.675   2.388
 7205SOL    HW122514   1.828   4.625   2.468
 7205SOL    HW222515   1.694   4.680   2.393
 7206SOL     OW22516   6.355   0.930   1.774
 7206SOL    HW122517   6.280   0.871   1.743
 7206SOL    HW222518   6.417   0.877   1.832
 7207SOL     OW22519   3.876   6.934   1.878
 7207SOL    HW122520   3.924   7.005   1.827
 7207SOL    HW222521   3.900   6.844   1.841
 7208SOL     OW22522   3.252   0.473   5.685
 7208SOL    HW122523   3.292   0.384   5.664
 7208SOL    HW222524   3.211   0.470   5.776
 7209SOL     OW22525   3.859   3.511   4.831
 7209SOL    HW122526   3.809   3.561   4.760
 7209SOL    HW222527   3.938   3.565   4.860
 7210SOL     OW22528   4.611   1.339   4.039
 7210SOL    HW122529   4.606   1.438   4.052
 7210SOL    HW222530   4.622   1.294   4.127
 7211SOL     OW22531   1.723   5.387   3.290
 7211SOL    HW122532   1.646   5.374   3.228
 7211SOL    HW222533   1.752   5.483   3.288
 7212SOL     OW22534   6.015   6.166   4.180
 7212SOL    HW122535   5.956   6.231   4.131
 7212SOL    HW222536   6.101   6.211   4.203
 7213SOL     OW22537   5.676   1.167   5.340
 7213SOL    HW122538   5.581   1.141   5.351
 7213SOL    HW222539   5.721   1.105   5.276
 7214SOL     OW22540   1.716   4.906   4.849
 7214SOL    HW122541   1.697   4.950   4.762
 7214SOL    HW222542   1.643   4.840   4.869
 7215SOL     OW22543   1.201   3.837   3.989
 7215SOL    HW122544   1.184   3.740   4.000
 7215SOL    HW222545   1.115   3.887   3.982
 7216SOL     OW22546   2.480   0.716   1.187
 7216SOL    HW122547   2.559   0.717   1.126
 7216SOL    HW222548   2.407   0.661   1.147
 7217SOL     OW22549   1.182   2.965   2.352
 7217SOL    HW122550   1.178   2.960   2.452
 7217SOL    HW222551   1.092   2.987   2.316
 7218SOL     OW22552   5.245   2.725   5.575
 7218SOL    HW122553   5.321   2.791   5.575
 7218SOL    HW222554   5.282   2.632   5.570
 7219SOL     OW22555   3.739   0.801   2.433
 7219SOL    HW122556   3.832   0.780   2.400
 7219SOL    HW222557   3.675   0.735   2.394
 7220SOL     OW22558   6.942   0.967   2.670
 7220SOL    HW122559   6.923   0.869   2.673
 7220SOL    HW222560   0.018   0.981   2.663
 7221SOL     OW22561   5.421   5.447   6.105
 7221SOL    HW122562   5.323   5.466   6.115
 7221SOL    HW222563   5.472   5.533   6.102
 7222SOL     OW22564   0.289   6.067   1.287
 7222SOL    HW122565   0.204   6.041   1.334
 7222SOL    HW222566   0.357   5.994   1.299
 7223SOL     OW22567   3.565   0.874   5.418
 7223SOL    HW122568   3.498   0.915   5.356
 7223SOL    HW222569   3.520   0.804   5.474
 7224SOL     OW22570   5.155   6.851   4.502
 7224SOL    HW122571   5.060   6.832   4.526
 7224SOL    HW222572   5.216   6.797   4.560
 7225SOL     OW22573   2.288   6.470   6.680
 7225SOL    HW122574   2.199   6.424   6.688
 7225SOL    HW222575   2.275   6.569   6.685
 7226SOL     OW22576   6.899   6.693   0.888
 7226SOL    HW122577   6.886   6.711   0.790
 7226SOL    HW222578   6.978   6.745   0.921
 7227SOL     OW22579   6.900   2.201   6.857
 7227SOL    HW122580   6.951   2.194   6.942
 7227SOL    HW222581   6.842   2.283   6.859
 7228SOL     OW22582   1.418   0.581   2.807
 7228SOL    HW122583   1.380   0.636   2.882
 7228SOL    HW222584   1.354   0.579   2.731
 7229SOL     OW22585   0.694   0.426   3.497
 7229SOL    HW122586   0.743   0.360   3.440
 7229SOL    HW222587   0.750   0.507   3.511
 7230SOL     OW22588   5.139   4.182   3.241
 7230SOL    HW122589   5.212   4.193   3.174
 7230SOL    HW222590   5.177   4.147   3.327
 7231SOL     OW22591   5.564   0.736   6.334
 7231SOL    HW122592   5.582   0.832   6.312
 7231SOL    HW222593   5.482   0.728   6.390
 7232SOL     OW22594   3.929   4.660   1.212
 7232SOL    HW122595   3.957   4.753   1.235
 7232SOL    HW222596   4.000   4.596   1.241
 7233SOL     OW22597   6.412   2.181   6.483
 7233SOL    HW122598   6.457   2.101   6.524
 7233SOL    HW222599   6.425   2.260   6.543
 7234SOL     OW22600   6.031   1.936   1.937
 7234SOL    HW122601   6.030   1.915   2.035
 7234SOL    HW222602   6.023   1.851   1.885
 7235SOL     OW22603   5.735   3.843   5.487
 7235SOL    HW122604   5.798   3.827   5.564
 7235SOL    HW222605   5.665   3.909   5.514
 7236SOL     OW22606   2.972   0.708   3.100
 7236SOL    HW122607   2.933   0.712   3.008
 7236SOL    HW222608   3.028   0.790   3.116
 7237SOL     OW22609   5.809   5.624   5.917
 7237SOL    HW122610   5.883   5.562   5.943
 7237SOL    HW222611   5.843   5.718   5.914
 7238SOL     OW22612   1.630   1.571   1.003
 7238SOL    HW122613   1.628   1.640   1.076
 7238SOL    HW222614   1.576   1.603   0.925
 7239SOL     OW22615   3.999   1.592   1.731
 7239SOL    HW122616   4.079   1.619   1.678
 7239SOL    HW222617   4.027   1.572   1.825
 7240SOL     OW22618   2.761   4.696   0.056
 7240SOL    HW122619   2.676   4.689   0.107
 7240SOL    HW222620   2.825   4.627   0.087
 7241SOL     OW22621   3.679   0.393   5.106
 7241SOL    HW122622   3.731   0.396   5.191
 7241SOL    HW222623   3.588   0.433   5.120
 7242SOL     OW22624   5.063   4.869   6.878
 7242SOL    HW122625   5.040   4.937   6.947
 7242SOL    HW222626   5.073   4.779   6.922
 7243SOL     OW22627   0.667   5.604   0.371
 7243SOL    HW122628   0.735   5.675   0.387
 7243SOL    HW222629   0.653   5.592   0.273
 7244SOL     OW22630   6.050   0.834   1.335
 7244SOL    HW122631   6.116   0.871   1.401
 7244SOL    HW222632   5.967   0.805   1.382
 7245SOL     OW22633   0.493   1.962   3.682
 7245SOL    HW122634   0.491   1.862   3.687
 7245SOL    HW222635   0.456   2.000   3.766
 7246SOL     OW22636   0.424   6.075   5.977
 7246SOL    HW122637   0.478   5.996   5.947
 7246SOL    HW222638   0.419   6.142   5.903
 7247SOL     OW22639   3.370   5.739   2.760
 7247SOL    HW122640   3.350   5.675   2.835
 7247SOL    HW222641   3.464   5.773   2.770
 7248SOL     OW22642   3.288   0.395   4.735
 7248SOL    HW122643   3.296   0.409   4.834
 7248SOL    HW222644   3.227   0.465   4.696
 7249SOL     OW22645   6.288   5.892   6.741
 7249SOL    HW122646   6.260   5.982   6.709
 7249SOL    HW222647   6.358   5.902   6.812
 7250SOL     OW22648   2.994   4.368   6.557
 7250SOL    HW122649   3.009   4.290   6.495
 7250SOL    HW222650   2.904   4.408   6.539
 7251SOL     OW22651   5.754   0.134   4.948
 7251SOL    HW122652   5.790   0.214   4.901
 7251SOL    HW222653   5.705   0.163   5.031
 7252SOL     OW22654   3.795   3.746   5.075
 7252SOL    HW122655   3.814   3.807   4.998
 7252SOL    HW222656   3.881   3.710   5.111
 7253SOL     OW22657   5.484   6.223   1.495
 7253SOL    HW122658   5.527   6.161   1.561
 7253SOL    HW222659   5.386   6.226   1.512
 7254SOL     OW22660   4.879   5.956   5.175
 7254SOL    HW122661   4.965   5.934   5.129
 7254SOL    HW222662   4.871   5.903   5.259
 7255SOL     OW22663   3.572   3.811   2.320
 7255SOL    HW122664   3.535   3.827   2.411
 7255SOL    HW222665   3.557   3.892   2.263
 7256SOL     OW22666   4.620   4.808   4.081
 7256SOL    HW122667   4.593   4.728   4.134
 7256SOL    HW222668   4.539   4.863   4.060
 7257SOL     OW22669   5.838   4.031   3.023
 7257SOL    HW122670   5.771   3.973   3.070
 7257SOL    HW222671   5.824   4.126   3.050
 7258SOL     OW22672   3.642   6.967   4.765
 7258SOL    HW122673   3.586   6.981   4.683
 7258SOL    HW222674   3.640   0.028   4.821
 7259SOL     OW22675   2.524   5.661   5.781
 7259SOL    HW122676   2.431   5.638   5.753
 7259SOL    HW222677   2.542   5.758   5.761
 7260SOL     OW22678   3.659   2.035   1.766
 7260SOL    HW122679   3.739   1.976   1.774
 7260SOL    HW222680   3.673   2.118   1.821
 7261SOL     OW22681   1.708   3.937   2.062
 7261SOL    HW122682   1.617   3.977   2.068
 7261SOL    HW222683   1.703   3.848   2.016
 7262SOL     OW22684   6.312   2.079   5.456
 7262SOL    HW122685   6.406   2.078   5.421
 7262SOL    HW222686   6.271   1.988   5.444
 7263SOL     OW22687   4.113   6.274   2.065
 7263SOL    HW122688   4.170   6.236   2.138
 7263SOL    HW222689   4.128   6.222   1.981
 7264SOL     OW22690   1.016   6.420   5.626
 7264SOL    HW122691   1.067   6.466   5.553
 7264SOL    HW222692   1.020   6.321   5.612
 7265SOL     OW22693   4.213   4.372   5.724
 7265SOL    HW122694   4.115   4.357   5.708
 7265SOL    HW222695   4.234   4.469   5.714
 7266SOL     OW22696   5.686   1.635   2.043
 7266SOL    HW122697   5.727   1.705   2.101
 7266SOL    HW222698   5.612   1.589   2.092
 7267SOL     OW22699   0.359   3.919   4.301
 7267SOL    HW122700   0.320   3.880   4.218
 7267SOL    HW222701   0.295   3.986   4.340
 7268SOL     OW22702   3.163   6.931   1.245
 7268SOL    HW122703   3.205   6.855   1.295
 7268SOL    HW222704   3.141   6.903   1.152
 7269SOL     OW22705   1.407   6.828   1.587
 7269SOL    HW122706   1.388   6.815   1.490
 7269SOL    HW222707   1.340   6.776   1.641
 7270SOL     OW22708   3.237   1.562   2.528
 7270SOL    HW122709   3.248   1.482   2.587
 7270SOL    HW222710   3.298   1.635   2.560
 7271SOL     OW22711   6.248   3.706   3.587
 7271SOL    HW122712   6.344   3.684   3.606
 7271SOL    HW222713   6.216   3.774   3.653
 7272SOL     OW22714   5.666   2.259   1.362
 7272SOL    HW122715   5.570   2.232   1.362
 7272SOL    HW222716   5.675   2.349   1.406
 7273SOL     OW22717   5.660   5.543   6.588
 7273SOL    HW122718   5.574   5.495   6.600
 7273SOL    HW222719   5.643   5.642   6.586
 7274SOL     OW22720   6.779   4.746   5.334
 7274SOL    HW122721   6.710   4.767   5.264
 7274SOL    HW222722   6.863   4.796   5.312
 7275SOL     OW22723   6.037   0.135   1.187
 7275SOL    HW122724   6.020   0.233   1.193
 7275SOL    HW222725   6.082   0.104   1.271
 7276SOL     OW22726   3.051   1.947   3.784
 7276SOL    HW122727   3.003   1.944   3.697
 7276SOL    HW222728   3.103   2.033   3.790
 7277SOL     OW22729   5.490   1.540   4.289
 7277SOL    HW122730   5.553   1.494   4.352
 7277SOL    HW222731   5.437   1.608   4.338
 7278SOL     OW22732   2.569   1.596   3.049
 7278SOL    HW122733   2.619   1.682   3.062
 7278SOL    HW222734   2.628   1.530   3.002
 7279SOL     OW22735   4.326   4.015   0.936
 7279SOL    HW122736   4.390   3.974   0.871
 7279SOL    HW222737   4.259   4.070   0.886
 7280SOL     OW22738   6.131   2.182   5.610
 7280SOL    HW122739   6.192   2.137   5.544
 7280SOL    HW222740   6.154   2.152   5.702
 7281SOL     OW22741   4.217   5.057   1.813
 7281SOL    HW122742   4.168   5.129   1.862
 7281SOL    HW222743   4.172   4.969   1.830
 7282SOL     OW22744   5.791   3.616   2.353
 7282SOL    HW122745   5.793   3.570   2.442
 7282SOL    HW222746   5.849   3.697   2.356
 7283SOL     OW22747   4.412   5.036   3.029
 7283SOL    HW122748   4.473   4.999   2.958
 7283SOL    HW222749   4.405   4.971   3.104
 7284SOL     OW22750   0.191   2.101   2.767
 7284SOL    HW122751   0.267   2.046   2.802
 7284SOL    HW222752   0.108   2.044   2.763
 7285SOL     OW22753   4.753   3.091   1.586
 7285SOL    HW122754   4.712   3.094   1.494
 7285SOL    HW222755   4.681   3.080   1.654
 7286SOL     OW22756   0.227   1.753   3.140
 7286SOL    HW122757   0.156   1.758   3.070
 7286SOL    HW222758   0.198   1.691   3.213
 7287SOL     OW22759   2.214   2.216   3.126
 7287SOL    HW122760   2.182   2.304   3.161
 7287SOL    HW222761   2.312   2.220   3.110
 7288SOL     OW22762   2.383   1.669   2.649
 7288SOL    HW122763   2.470   1.697   2.689
 7288SOL    HW222764   2.308   1.696   2.710
 7289SOL     OW22765   6.614   1.506   1.167
 7289SOL    HW122766   6.703   1.527   1.207
 7289SOL    HW222767   6.553   1.585   1.179
 7290SOL     OW22768   3.754   1.171   4.957
 7290SOL    HW122769   3.707   1.088   4.987
 7290SOL    HW222770   3.686   1.238   4.928
 7291SOL     OW22771   2.909   1.400   0.578
 7291SOL    HW122772   2.905   1.305   0.546
 7291SOL    HW222773   2.969   1.406   0.657
 7292SOL     OW22774   2.495   0.560   2.383
 7292SOL    HW122775   2.527   0.469   2.356
 7292SOL    HW222776   2.569   0.610   2.427
 7293SOL     OW22777   0.032   1.373   3.956
 7293SOL    HW122778   0.085   1.408   4.034
 7293SOL    HW222779   0.054   1.276   3.942
 7294SOL     OW22780   3.375   6.390   2.281
 7294SOL    HW122781   3.298   6.410   2.221
 7294SOL    HW222782   3.394   6.292   2.279
 7295SOL     OW22783   6.479   4.899   1.798
 7295SOL    HW122784   6.430   4.973   1.843
 7295SOL    HW222785   6.450   4.892   1.702
 7296SOL     OW22786   4.849   5.113   2.089
 7296SOL    HW122787   4.866   5.038   2.153
 7296SOL    HW222788   4.761   5.156   2.110
 7297SOL     OW22789   4.178   0.046   1.255
 7297SOL    HW122790   4.239   0.113   1.298
 7297SOL    HW222791   4.187   0.051   1.156
 7298SOL     OW22792   3.942   4.972   6.936
 7298SOL    HW122793   3.860   4.947   6.884
 7298SOL    HW222794   3.937   4.933   0.005
 7299SOL     OW22795   1.146   2.754   6.150
 7299SOL    HW122796   1.135   2.656   6.166
 7299SOL    HW222797   1.147   2.771   6.051
 7300SOL     OW22798   0.308   4.699   2.377
 7300SOL    HW122799   0.245   4.755   2.323
 7300SOL    HW222800   0.291   4.714   2.475
 7301SOL     OW22801   4.670   1.701   5.748
 7301SOL    HW122802   4.750   1.650   5.778
 7301SOL    HW222803   4.610   1.718   5.826
 7302SOL     OW22804   5.552   1.973   6.141
 7302SOL    HW122805   5.583   1.972   6.046
 7302SOL    HW222806   5.555   1.880   6.178
 7303SOL     OW22807   2.587   1.738   1.939
 7303SOL    HW122808   2.523   1.813   1.955
 7303SOL    HW222809   2.662   1.743   2.006
 7304SOL     OW22810   2.601   5.938   1.011
 7304SOL    HW122811   2.674   5.949   0.943
 7304SOL    HW222812   2.585   6.026   1.057
 7305SOL     OW22813   6.256   1.199   0.278
 7305SOL    HW122814   6.205   1.113   0.278
 7305SOL    HW222815   6.324   1.197   0.351
 7306SOL     OW22816   0.617   2.745   1.683
 7306SOL    HW122817   0.590   2.783   1.594
 7306SOL    HW222818   0.543   2.688   1.719
 7307SOL     OW22819   2.145   0.542   0.723
 7307SOL    HW122820   2.056   0.530   0.768
 7307SOL    HW222821   2.134   0.534   0.624
 7308SOL     OW22822   4.639   1.047   2.712
 7308SOL    HW122823   4.626   1.145   2.723
 7308SOL    HW222824   4.662   1.027   2.617
 7309SOL     OW22825   2.656   5.088   3.334
 7309SOL    HW122826   2.641   5.066   3.237
 7309SOL    HW222827   2.754   5.085   3.354
 7310SOL     OW22828   2.290   3.118   5.900
 7310SOL    HW122829   2.335   3.037   5.936
 7310SOL    HW222830   2.191   3.104   5.901
 7311SOL     OW22831   0.379   5.887   6.290
 7311SOL    HW122832   0.331   5.865   6.205
 7311SOL    HW222833   0.473   5.915   6.269
 7312SOL     OW22834   6.856   2.164   3.958
 7312SOL    HW122835   6.858   2.135   4.053
 7312SOL    HW222836   6.914   2.245   3.946
 7313SOL     OW22837   2.533   0.869   2.639
 7313SOL    HW122838   2.450   0.813   2.647
 7313SOL    HW222839   2.513   0.949   2.582
 7314SOL     OW22840   0.394   4.507   6.154
 7314SOL    HW122841   0.425   4.415   6.177
 7314SOL    HW222842   0.468   4.558   6.110
 7315SOL     OW22843   1.942   4.907   2.420
 7315SOL    HW122844   1.909   4.913   2.514
 7315SOL    HW222845   1.926   4.814   2.385
 7316SOL     OW22846   3.338   2.250   1.157
 7316SOL    HW122847   3.271   2.281   1.090
 7316SOL    HW222848   3.417   2.311   1.157
 7317SOL     OW22849   3.686   2.064   0.283
 7317SOL    HW122850   3.720   2.069   0.377
 7317SOL    HW222851   3.593   2.099   0.279
 7318SOL     OW22852   5.526   5.883   0.909
 7318SOL    HW122853   5.615   5.907   0.946
 7318SOL    HW222854   5.476   5.827   0.975
 7319SOL     OW22855   5.646   5.810   6.578
 7319SOL    HW122856   5.619   5.894   6.625
 7319SOL    HW222857   5.587   5.795   6.499
 7320SOL     OW22858   0.359   2.132   1.413
 7320SOL    HW122859   0.385   2.073   1.337
 7320SOL    HW222860   0.312   2.078   1.483
 7321SOL     OW22861   1.283   1.134   0.065
 7321SOL    HW122862   1.257   1.185   0.147
 7321SOL    HW222863   1.350   1.186   0.013
 7322SOL     OW22864   1.478   3.197   3.150
 7322SOL    HW122865   1.467   3.288   3.190
 7322SOL    HW222866   1.487   3.130   3.224
 7323SOL     OW22867   0.893   3.021   0.765
 7323SOL    HW122868   0.929   2.930   0.746
 7323SOL    HW222869   0.897   3.038   0.864
 7324SOL     OW22870   5.543   4.345   3.923
 7324SOL    HW122871   5.567   4.275   3.855
 7324SOL    HW222872   5.562   4.436   3.884
 7325SOL     OW22873   4.347   0.967   5.835
 7325SOL    HW122874   4.393   1.003   5.917
 7325SOL    HW222875   4.308   1.042   5.783
 7326SOL     OW22876   3.592   0.696   0.587
 7326SOL    HW122877   3.646   0.705   0.671
 7326SOL    HW222878   3.498   0.726   0.605
 7327SOL     OW22879   1.105   4.286   3.175
 7327SOL    HW122880   1.060   4.254   3.092
 7327SOL    HW222881   1.196   4.244   3.182
 7328SOL     OW22882   4.632   4.887   4.553
 7328SOL    HW122883   4.610   4.929   4.641
 7328SOL    HW222884   4.610   4.951   4.479
 7329SOL     OW22885   3.153   3.569   1.419
 7329SOL    HW122886   3.164   3.481   1.465
 7329SOL    HW222887   3.148   3.554   1.320
 7330SOL     OW22888   2.715   3.159   1.712
 7330SOL    HW122889   2.780   3.108   1.656
 7330SOL    HW222890   2.689   3.243   1.666
 7331SOL     OW22891   5.496   3.010   2.091
 7331SOL    HW122892   5.513   3.079   2.020
 7331SOL    HW222893   5.512   3.050   2.181
 7332SOL     OW22894   3.269   6.000   6.138
 7332SOL    HW122895   3.256   5.948   6.054
 7332SOL    HW222896   3.235   5.948   6.215
 7333SOL     OW22897   0.885   0.879   0.696
 7333SOL    HW122898   0.826   0.955   0.667
 7333SOL    HW222899   0.902   0.886   0.795
 7334SOL     OW22900   2.759   6.256   4.179
 7334SOL    HW122901   2.844   6.236   4.130
 7334SOL    HW222902   2.767   6.346   4.222
 7335SOL     OW22903   6.892   3.170   2.009
 7335SOL    HW122904   6.865   3.137   1.919
 7335SOL    HW222905   6.956   3.106   2.050
 7336SOL     OW22906   2.070   6.317   2.095
 7336SOL    HW122907   1.998   6.356   2.152
 7336SOL    HW222908   2.148   6.380   2.093
 7337SOL     OW22909   2.620   1.676   3.296
 7337SOL    HW122910   2.576   1.604   3.243
 7337SOL    HW222911   2.566   1.693   3.379
 7338SOL     OW22912   5.191   3.287   1.196
 7338SOL    HW122913   5.164   3.207   1.251
 7338SOL    HW222914   5.121   3.359   1.205
 7339SOL     OW22915   6.868   5.916   4.586
 7339SOL    HW122916   6.790   5.970   4.553
 7339SOL    HW222917   6.930   5.897   4.510
 7340SOL     OW22918   2.630   6.940   0.709
 7340SOL    HW122919   2.544   6.890   0.720
 7340SOL    HW222920   2.704   6.889   0.754
 7341SOL     OW22921   6.519   5.538   4.707
 7341SOL    HW122922   6.519   5.458   4.646
 7341SOL    HW222923   6.425   5.562   4.731
 7342SOL     OW22924   1.132   5.257   1.219
 7342SOL    HW122925   1.040   5.287   1.194
 7342SOL    HW222926   1.155   5.174   1.168
 7343SOL     OW22927   5.231   3.222   2.773
 7343SOL    HW122928   5.202   3.138   2.726
 7343SOL    HW222929   5.261   3.199   2.865
 7344SOL     OW22930   2.176   1.262   0.088
 7344SOL    HW122931   2.231   1.179   0.087
 7344SOL    HW222932   2.235   1.342   0.074
 7345SOL     OW22933   3.713   5.382   0.377
 7345SOL    HW122934   3.636   5.439   0.348
 7345SOL    HW222935   3.738   5.319   0.304
 7346SOL     OW22936   3.848   4.749   1.716
 7346SOL    HW122937   3.908   4.672   1.738
 7346SOL    HW222938   3.859   4.821   1.785
 7347SOL     OW22939   6.121   2.992   2.655
 7347SOL    HW122940   6.195   2.937   2.694
 7347SOL    HW222941   6.051   2.932   2.617
 7348SOL     OW22942   0.693   2.131   5.081
 7348SOL    HW122943   0.613   2.074   5.099
 7348SOL    HW222944   0.672   2.226   5.102
 7349SOL     OW22945   3.915   1.582   0.496
 7349SOL    HW122946   3.926   1.598   0.398
 7349SOL    HW222947   3.822   1.549   0.514
 7350SOL     OW22948   2.190   1.079   2.977
 7350SOL    HW122949   2.163   1.106   3.070
 7350SOL    HW222950   2.203   0.980   2.973
 7351SOL     OW22951   4.069   4.639   6.767
 7351SOL    HW122952   4.060   4.545   6.734
 7351SOL    HW222953   4.143   4.644   6.834
 7352SOL     OW22954   0.031   1.087   3.406
 7352SOL    HW122955   0.064   1.100   3.313
 7352SOL    HW222956   7.014   1.172   3.439
 7353SOL     OW22957   4.999   2.516   5.121
 7353SOL    HW122958   5.033   2.448   5.055
 7353SOL    HW222959   4.950   2.588   5.072
 7354SOL     OW22960   6.259   4.126   5.295
 7354SOL    HW122961   6.344   4.107   5.344
 7354SOL    HW222962   6.240   4.224   5.298
 7355SOL     OW22963   1.280   4.563   2.107
 7355SOL    HW122964   1.303   4.582   2.012
 7355SOL    HW222965   1.181   4.552   2.116
 7356SOL     OW22966   5.972   1.676   5.574
 7356SOL    HW122967   6.007   1.618   5.647
 7356SOL    HW222968   5.872   1.675   5.576
 7357SOL     OW22969   6.567   1.567   0.513
 7357SOL    HW122970   6.488   1.527   0.468
 7357SOL    HW222971   6.596   1.508   0.589
 7358SOL     OW22972   3.124   0.734   4.083
 7358SOL    HW122973   3.197   0.676   4.048
 7358SOL    HW222974   3.124   0.822   4.034
 7359SOL     OW22975   3.487   2.955   2.966
 7359SOL    HW122976   3.532   3.033   2.923
 7359SOL    HW222977   3.414   2.921   2.906
 7360SOL     OW22978   0.273   2.647   5.837
 7360SOL    HW122979   0.310   2.715   5.901
 7360SOL    HW222980   0.316   2.558   5.855
 7361SOL     OW22981   5.596   6.909   2.451
 7361SOL    HW122982   5.551   6.941   2.535
 7361SOL    HW222983   5.640   6.821   2.468
 7362SOL     OW22984   2.037   6.392   5.678
 7362SOL    HW122985   2.063   6.374   5.583
 7362SOL    HW222986   2.086   6.473   5.711
 7363SOL     OW22987   5.199   2.616   6.531
 7363SOL    HW122988   5.187   2.524   6.569
 7363SOL    HW222989   5.251   2.610   6.446
 7364SOL     OW22990   5.517   0.925   1.740
 7364SOL    HW122991   5.488   0.997   1.802
 7364SOL    HW222992   5.573   0.858   1.790
 7365SOL     OW22993   3.100   0.558   2.160
 7365SOL    HW122994   3.127   0.610   2.079
 7365SOL    HW222995   3.179   0.508   2.195
 7366SOL     OW22996   0.957   5.644   0.583
 7366SOL    HW122997   0.918   5.552   0.581
 7366SOL    HW222998   1.056   5.638   0.596
 7367SOL     OW22999   4.896   3.564   0.118
 7367SOL    HW123000   4.954   3.640   0.089
 7367SOL    HW223001   4.874   3.506   0.039
 7368SOL     OW23002   3.400   3.813   3.716
 7368SOL    HW123003   3.387   3.811   3.815
 7368SOL    HW223004   3.360   3.896   3.678
 7369SOL     OW23005   4.299   2.348   6.775
 7369SOL    HW123006   4.203   2.366   6.753
 7369SOL    HW223007   4.347   2.434   6.789
 7370SOL     OW23008   1.810   6.030   1.519
 7370SOL    HW123009   1.871   6.085   1.576
 7370SOL    HW223010   1.788   6.081   1.435
 7371SOL     OW23011   2.505   5.054   4.658
 7371SOL    HW123012   2.466   4.972   4.618
 7371SOL    HW223013   2.432   5.113   4.692
 7372SOL     OW23014   3.199   6.939   6.035
 7372SOL    HW123015   3.145   6.889   6.103
 7372SOL    HW223016   3.278   6.884   6.009
 7373SOL     OW23017   3.836   0.899   1.447
 7373SOL    HW123018   3.848   0.861   1.539
 7373SOL    HW223019   3.859   0.829   1.379
 7374SOL     OW23020   1.741   3.264   6.116
 7374SOL    HW123021   1.670   3.223   6.173
 7374SOL    HW223022   1.705   3.276   6.023
 7375SOL     OW23023   0.649   0.023   2.961
 7375SOL    HW123024   0.688   6.987   3.031
 7375SOL    HW223025   0.698   0.110   2.960
 7376SOL     OW23026   3.040   4.049   5.717
 7376SOL    HW123027   2.981   3.977   5.754
 7376SOL    HW223028   2.986   4.112   5.661
 7377SOL     OW23029   4.713   4.520   1.250
 7377SOL    HW123030   4.641   4.484   1.308
 7377SOL    HW223031   4.770   4.583   1.304
 7378SOL     OW23032   6.461   1.681   5.343
 7378SOL    HW123033   6.423   1.610   5.283
 7378SOL    HW223034   6.479   1.764   5.290
 7379SOL     OW23035   3.465   1.654   1.534
 7379SOL    HW123036   3.503   1.638   1.443
 7379SOL    HW223037   3.490   1.746   1.564
 7380SOL     OW23038   6.736   3.098   5.211
 7380SOL    HW123039   6.774   3.050   5.291
 7380SOL    HW223040   6.639   3.074   5.201
 7381SOL     OW23041   5.646   2.219   0.280
 7381SOL    HW123042   5.583   2.285   0.238
 7381SOL    HW223043   5.669   2.149   0.213
 7382SOL     OW23044   0.255   6.232   3.514
 7382SOL    HW123045   0.252   6.210   3.417
 7382SOL    HW223046   0.244   6.147   3.568
 7383SOL     OW23047   0.046   6.124   3.319
 7383SOL    HW123048   0.046   6.074   3.233
 7383SOL    HW223049   0.029   6.221   3.301
 7384SOL     OW23050   5.882   1.414   2.532
 7384SOL    HW123051   5.830   1.352   2.591
 7384SOL    HW223052   5.907   1.496   2.584
 7385SOL     OW23053   4.764   6.930   1.844
 7385SOL    HW123054   4.687   6.868   1.832
 7385SOL    HW223055   4.843   6.894   1.794
 7386SOL     OW23056   0.225   2.170   5.763
 7386SOL    HW123057   0.188   2.080   5.786
 7386SOL    HW223058   0.181   2.204   5.680
 7387SOL     OW23059   3.908   5.760   3.276
 7387SOL    HW123060   3.924   5.852   3.239
 7387SOL    HW223061   3.854   5.767   3.360
 7388SOL     OW23062   6.618   5.086   4.336
 7388SOL    HW123063   6.564   5.035   4.402
 7388SOL    HW223064   6.706   5.110   4.377
 7389SOL     OW23065   1.233   4.079   5.826
 7389SOL    HW123066   1.309   4.133   5.861
 7389SOL    HW223067   1.243   3.983   5.855
 7390SOL     OW23068   2.233   6.730   5.454
 7390SOL    HW123069   2.188   6.695   5.372
 7390SOL    HW223070   2.237   6.657   5.523
 7391SOL     OW23071   6.794   3.174   0.366
 7391SOL    HW123072   6.851   3.206   0.291
 7391SOL    HW223073   6.819   3.080   0.389
 7392SOL     OW23074   2.603   4.596   3.127
 7392SOL    HW123075   2.555   4.603   3.214
 7392SOL    HW223076   2.692   4.639   3.133
 7393SOL     OW23077   0.684   3.547   1.598
 7393SOL    HW123078   0.643   3.502   1.678
 7393SOL    HW223079   0.671   3.645   1.604
 7394SOL     OW23080   2.797   3.706   6.405
 7394SOL    HW123081   2.875   3.730   6.348
 7394SOL    HW223082   2.810   3.613   6.442
 7395SOL     OW23083   1.422   6.206   0.553
 7395SOL    HW123084   1.342   6.259   0.525
 7395SOL    HW223085   1.393   6.115   0.583
 7396SOL     OW23086   0.896   0.096   0.480
 7396SOL    HW123087   0.815   0.040   0.496
 7396SOL    HW223088   0.920   0.145   0.563
 7397SOL     OW23089   6.563   5.425   4.938
 7397SOL    HW123090   6.545   5.472   4.852
 7397SOL    HW223091   6.661   5.405   4.946
 7398SOL     OW23092   4.213   5.328   3.420
 7398SOL    HW123093   4.297   5.329   3.364
 7398SOL    HW223094   4.137   5.365   3.366
 7399SOL     OW23095   4.746   4.010   5.049
 7399SOL    HW123096   4.722   4.077   4.979
 7399SOL    HW223097   4.835   3.969   5.026
 7400SOL     OW23098   1.998   5.211   6.744
 7400SOL    HW123099   2.020   5.119   6.712
 7400SOL    HW223100   2.045   5.279   6.687
 7401SOL     OW23101   6.292   1.917   4.609
 7401SOL    HW123102   6.388   1.936   4.626
 7401SOL    HW223103   6.283   1.852   4.534
 7402SOL     OW23104   2.333   0.099   3.683
 7402SOL    HW123105   2.428   0.069   3.674
 7402SOL    HW223106   2.271   0.022   3.667
 7403SOL     OW23107   1.672   3.372   1.604
 7403SOL    HW123108   1.675   3.272   1.613
 7403SOL    HW223109   1.577   3.402   1.598
 7404SOL     OW23110   1.315   1.156   2.324
 7404SOL    HW123111   1.320   1.217   2.403
 7404SOL    HW223112   1.402   1.108   2.313
 7405SOL     OW23113   2.630   4.819   6.173
 7405SOL    HW123114   2.713   4.860   6.211
 7405SOL    HW223115   2.653   4.730   6.133
 7406SOL     OW23116   0.325   5.592   1.599
 7406SOL    HW123117   0.424   5.582   1.596
 7406SOL    HW223118   0.283   5.521   1.543
 7407SOL     OW23119   1.984   0.172   6.224
 7407SOL    HW123120   1.952   0.220   6.305
 7407SOL    HW223121   2.000   0.076   6.246
 7408SOL     OW23122   0.899   3.740   5.688
 7408SOL    HW123123   0.835   3.676   5.646
 7408SOL    HW223124   0.978   3.753   5.627
 7409SOL     OW23125   3.085   5.696   5.777
 7409SOL    HW123126   3.124   5.666   5.690
 7409SOL    HW223127   3.016   5.766   5.760
 7410SOL     OW23128   5.938   5.111   0.955
 7410SOL    HW123129   5.968   5.081   1.046
 7410SOL    HW223130   5.973   5.048   0.886
 7411SOL     OW23131   4.734   5.799   5.657
 7411SOL    HW123132   4.703   5.704   5.662
 7411SOL    HW223133   4.814   5.805   5.598
 7412SOL     OW23134   0.986   2.348   0.160
 7412SOL    HW123135   0.973   2.274   0.227
 7412SOL    HW223136   0.943   2.323   0.073
 7413SOL     OW23137   6.577   3.355   4.637
 7413SOL    HW123138   6.628   3.380   4.720
 7413SOL    HW223139   6.479   3.365   4.655
 7414SOL     OW23140   6.758   5.724   3.139
 7414SOL    HW123141   6.756   5.644   3.199
 7414SOL    HW223142   6.725   5.804   3.190
 7415SOL     OW23143   2.106   2.198   2.809
 7415SOL    HW123144   2.200   2.212   2.777
 7415SOL    HW223145   2.042   2.235   2.742
 7416SOL     OW23146   4.788   6.723   4.202
 7416SOL    HW123147   4.869   6.697   4.151
 7416SOL    HW223148   4.718   6.758   4.139
 7417SOL     OW23149   0.576   6.135   0.587
 7417SOL    HW123150   0.593   6.045   0.547
 7417SOL    HW223151   0.573   6.203   0.514
 7418SOL     OW23152   1.598   3.483   0.395
 7418SOL    HW123153   1.577   3.389   0.420
 7418SOL    HW223154   1.587   3.494   0.296
 7419SOL     OW23155   6.263   1.206   4.715
 7419SOL    HW123156   6.326   1.195   4.639
 7419SOL    HW223157   6.172   1.173   4.688
 7420SOL     OW23158   0.002   5.150   2.127
 7420SOL    HW123159   0.096   5.134   2.097
 7420SOL    HW223160   6.981   5.063   2.148
 7421SOL     OW23161   3.921   2.987   1.190
 7421SOL    HW123162   3.876   2.927   1.256
 7421SOL    HW223163   3.957   2.932   1.114
 7422SOL     OW23164   0.888   2.887   1.041
 7422SOL    HW123165   0.952   2.811   1.053
 7422SOL    HW223166   0.796   2.851   1.028
 7423SOL     OW23167   2.024   6.006   6.803
 7423SOL    HW123168   2.103   6.010   6.864
 7423SOL    HW223169   1.963   6.084   6.822
 7424SOL     OW23170   6.170   1.403   4.294
 7424SOL    HW123171   6.171   1.411   4.195
 7424SOL    HW223172   6.118   1.321   4.320
 7425SOL     OW23173   3.868   6.028   5.903
 7425SOL    HW123174   3.830   5.936   5.912
 7425SOL    HW223175   3.953   6.024   5.850
 7426SOL     OW23176   0.798   0.988   6.788
 7426SOL    HW123177   0.773   0.962   6.881
 7426SOL    HW223178   0.716   0.987   6.730
 7427SOL     OW23179   4.666   5.506   3.950
 7427SOL    HW123180   4.683   5.410   3.973
 7427SOL    HW223181   4.712   5.528   3.864
 7428SOL     OW23182   3.467   2.038   6.295
 7428SOL    HW123183   3.481   2.085   6.208
 7428SOL    HW223184   3.375   2.058   6.330
 7429SOL     OW23185   6.301   6.907   3.335
 7429SOL    HW123186   6.332   6.833   3.276
 7429SOL    HW223187   6.327   6.995   3.295
 7430SOL     OW23188   6.860   3.914   4.916
 7430SOL    HW123189   6.926   3.882   4.848
 7430SOL    HW223190   6.789   3.845   4.928
 7431SOL     OW23191   0.676   4.443   2.096
 7431SOL    HW123192   0.617   4.413   2.171
 7431SOL    HW223193   0.707   4.363   2.045
 7432SOL     OW23194   0.937   6.408   5.114
 7432SOL    HW123195   0.958   6.503   5.090
 7432SOL    HW223196   1.021   6.354   5.111
 7433SOL     OW23197   6.199   5.699   0.939
 7433SOL    HW123198   6.243   5.627   0.886
 7433SOL    HW223199   6.268   5.749   0.992
 7434SOL     OW23200   4.728   0.891   6.524
 7434SOL    HW123201   4.720   0.898   6.623
 7434SOL    HW223202   4.785   0.966   6.490
 7435SOL     OW23203   2.057   6.206   0.372
 7435SOL    HW123204   1.984   6.275   0.378
 7435SOL    HW223205   2.046   6.154   0.288
 7436SOL     OW23206   5.133   2.657   0.266
 7436SOL    HW123207   5.145   2.597   0.187
 7436SOL    HW223208   5.150   2.605   0.350
 7437SOL     OW23209   0.479   5.811   5.923
 7437SOL    HW123210   0.501   5.767   5.836
 7437SOL    HW223211   0.495   5.747   5.998
 7438SOL     OW23212   6.112   4.381   2.106
 7438SOL    HW123213   6.159   4.376   2.195
 7438SOL    HW223214   6.173   4.349   2.034
 7439SOL     OW23215   1.559   6.386   3.612
 7439SOL    HW123216   1.603   6.438   3.539
 7439SOL    HW223217   1.463   6.372   3.590
 7440SOL     OW23218   0.955   2.017   4.315
 7440SOL    HW123219   1.019   2.063   4.254
 7440SOL    HW223220   0.968   2.049   4.409
 7441SOL     OW23221   5.132   6.927   4.034
 7441SOL    HW123222   5.169   6.949   4.125
 7441SOL    HW223223   5.202   6.945   3.965
 7442SOL     OW23224   1.673   1.362   6.763
 7442SOL    HW123225   1.760   1.314   6.752
 7442SOL    HW223226   1.691   1.458   6.784
 7443SOL     OW23227   0.105   0.595   0.901
 7443SOL    HW123228   0.033   0.538   0.863
 7443SOL    HW223229   0.083   0.617   0.996
 7444SOL     OW23230   0.086   2.500   6.149
 7444SOL    HW123231   0.080   2.434   6.074
 7444SOL    HW223232   0.031   2.581   6.126
 7445SOL     OW23233   5.381   2.775   2.125
 7445SOL    HW123234   5.345   2.762   2.032
 7445SOL    HW223235   5.431   2.862   2.129
 7446SOL     OW23236   0.044   3.046   1.347
 7446SOL    HW123237   6.993   2.999   1.396
 7446SOL    HW223238   0.018   3.060   1.252
 7447SOL     OW23239   0.616   4.185   5.890
 7447SOL    HW123240   0.599   4.114   5.822
 7447SOL    HW223241   0.699   4.163   5.942
 7448SOL     OW23242   6.934   6.632   6.128
 7448SOL    HW123243   0.004   6.666   6.120
 7448SOL    HW223244   6.905   6.592   6.041
 7449SOL     OW23245   4.689   2.310   2.677
 7449SOL    HW123246   4.628   2.359   2.738
 7449SOL    HW223247   4.717   2.371   2.602
 7450SOL     OW23248   3.433   0.731   2.786
 7450SOL    HW123249   3.371   0.810   2.788
 7450SOL    HW223250   3.403   0.667   2.716
 7451SOL     OW23251   1.768   0.904   3.860
 7451SOL    HW123252   1.836   0.857   3.917
 7451SOL    HW223253   1.749   0.994   3.898
 7452SOL     OW23254   1.763   6.804   5.112
 7452SOL    HW123255   1.803   6.793   5.021
 7452SOL    HW223256   1.831   6.845   5.173
 7453SOL     OW23257   6.365   5.929   5.037
 7453SOL    HW123258   6.338   5.854   5.096
 7453SOL    HW223259   6.403   6.003   5.092
 7454SOL     OW23260   0.232   3.626   0.802
 7454SOL    HW123261   0.330   3.609   0.813
 7454SOL    HW223262   0.189   3.548   0.755
 7455SOL     OW23263   4.879   2.027   0.079
 7455SOL    HW123264   4.883   2.092   0.155
 7455SOL    HW223265   4.784   2.008   0.056
 7456SOL     OW23266   1.986   3.349   4.897
 7456SOL    HW123267   2.044   3.333   4.977
 7456SOL    HW223268   2.039   3.397   4.827
 7457SOL     OW23269   5.852   0.982   5.758
 7457SOL    HW123270   5.850   0.976   5.858
 7457SOL    HW223271   5.784   1.048   5.727
 7458SOL     OW23272   2.603   1.139   0.219
 7458SOL    HW123273   2.652   1.187   0.146
 7458SOL    HW223274   2.618   1.186   0.306
 7459SOL     OW23275   4.325   0.766   4.410
 7459SOL    HW123276   4.415   0.733   4.435
 7459SOL    HW223277   4.334   0.852   4.358
 7460SOL     OW23278   0.314   4.569   6.807
 7460SOL    HW123279   0.319   4.508   6.886
 7460SOL    HW223280   0.346   4.660   6.833
 7461SOL     OW23281   4.806   0.805   4.025
 7461SOL    HW123282   4.836   0.771   3.935
 7461SOL    HW223283   4.763   0.895   4.013
 7462SOL     OW23284   2.328   1.608   2.197
 7462SOL    HW123285   2.427   1.591   2.201
 7462SOL    HW223286   2.301   1.629   2.104
 7463SOL     OW23287   3.809   3.527   2.901
 7463SOL    HW123288   3.802   3.567   2.992
 7463SOL    HW223289   3.903   3.537   2.868
 7464SOL     OW23290   5.643   6.034   0.539
 7464SOL    HW123291   5.717   6.021   0.604
 7464SOL    HW223292   5.658   5.975   0.459
 7465SOL     OW23293   2.944   0.394   1.535
 7465SOL    HW123294   3.042   0.381   1.549
 7465SOL    HW223295   2.924   0.398   1.437
 7466SOL     OW23296   0.946   0.327   6.908
 7466SOL    HW123297   1.009   0.369   6.842
 7466SOL    HW223298   0.969   0.231   6.919
 7467SOL     OW23299   6.953   1.358   1.201
 7467SOL    HW123300   6.905   1.438   1.238
 7467SOL    HW223301   7.009   1.317   1.272
 7468SOL     OW23302   6.423   3.371   3.015
 7468SOL    HW123303   6.374   3.284   3.028
 7468SOL    HW223304   6.406   3.430   3.094
 7469SOL     OW23305   0.274   1.265   2.042
 7469SOL    HW123306   0.342   1.263   1.969
 7469SOL    HW223307   0.281   1.353   2.091
 7470SOL     OW23308   6.840   2.449   2.343
 7470SOL    HW123309   6.871   2.542   2.359
 7470SOL    HW223310   6.824   2.403   2.431
 7471SOL     OW23311   5.999   6.138   5.963
 7471SOL    HW123312   6.078   6.141   5.901
 7471SOL    HW223313   5.924   6.191   5.924
 7472SOL     OW23314   3.347   6.520   3.075
 7472SOL    HW123315   3.323   6.467   2.995
 7472SOL    HW223316   3.446   6.513   3.091
 7473SOL     OW23317   6.738   3.434   4.827
 7473SOL    HW123318   6.733   3.470   4.920
 7473SOL    HW223319   6.824   3.384   4.814
 7474SOL     OW23320   3.727   1.115   3.025
 7474SOL    HW123321   3.735   1.150   3.119
 7474SOL    HW223322   3.810   1.066   3.001
 7475SOL     OW23323   4.303   1.593   0.237
 7475SOL    HW123324   4.393   1.623   0.205
 7475SOL    HW223325   4.286   1.633   0.328
 7476SOL     OW23326   4.015   6.859   4.892
 7476SOL    HW123327   3.949   6.892   4.959
 7476SOL    HW223328   3.969   6.800   4.826
 7477SOL     OW23329   4.704   2.209   3.967
 7477SOL    HW123330   4.645   2.216   4.047
 7477SOL    HW223331   4.749   2.120   3.967
 7478SOL     OW23332   1.557   5.301   0.982
 7478SOL    HW123333   1.469   5.282   0.940
 7478SOL    HW223334   1.576   5.233   1.053
 7479SOL     OW23335   4.917   0.461   6.747
 7479SOL    HW123336   4.929   0.508   6.659
 7479SOL    HW223337   4.827   0.419   6.750
 7480SOL     OW23338   6.876   5.000   0.852
 7480SOL    HW123339   6.848   4.919   0.800
 7480SOL    HW223340   6.972   4.990   0.880
 7481SOL     OW23341   6.025   5.284   0.759
 7481SOL    HW123342   6.046   5.269   0.662
 7481SOL    HW223343   6.054   5.204   0.812
 7482SOL     OW23344   4.999   0.724   4.306
 7482SOL    HW123345   4.948   0.797   4.259
 7482SOL    HW223346   5.088   0.713   4.263
 7483SOL     OW23347   3.381   0.843   6.199
 7483SOL    HW123348   3.322   0.899   6.141
 7483SOL    HW223349   3.477   0.862   6.179
 7484SOL     OW23350   1.952   0.093   2.242
 7484SOL    HW123351   2.044   0.101   2.203
 7484SOL    HW223352   1.884   0.119   2.173
 7485SOL     OW23353   1.824   6.578   6.890
 7485SOL    HW123354   1.775   6.525   6.821
 7485SOL    HW223355   1.769   6.584   6.973
 7486SOL     OW23356   2.372   6.961   5.513
 7486SOL    HW123357   2.448   6.976   5.449
 7486SOL    HW223358   2.316   6.885   5.481
 7487SOL     OW23359   3.926   5.655   3.625
 7487SOL    HW123360   3.855   5.586   3.615
 7487SOL    HW223361   3.915   5.703   3.712
 7488SOL     OW23362   3.608   1.163   5.918
 7488SOL    HW123363   3.573   1.256   5.917
 7488SOL    HW223364   3.589   1.121   6.007
 7489SOL     OW23365   5.364   3.505   3.036
 7489SOL    HW123366   5.461   3.526   3.033
 7489SOL    HW223367   5.319   3.563   3.103
 7490SOL     OW23368   5.853   1.495   1.891
 7490SOL    HW123369   5.807   1.542   1.966
 7490SOL    HW223370   5.798   1.417   1.863
 7491SOL     OW23371   6.744   5.534   6.261
 7491SOL    HW123372   6.750   5.582   6.349
 7491SOL    HW223373   6.814   5.571   6.199
 7492SOL     OW23374   1.773   2.633   4.479
 7492SOL    HW123375   1.782   2.628   4.578
 7492SOL    HW223376   1.712   2.561   4.447
 7493SOL     OW23377   5.172   3.668   0.087
 7493SOL    HW123378   5.193   3.653   7.014
 7493SOL    HW223379   5.237   3.618   0.144
 7494SOL     OW23380   5.718   1.301   1.716
 7494SOL    HW123381   5.751   1.212   1.684
 7494SOL    HW223382   5.693   1.358   1.638
 7495SOL     OW23383   0.939   1.944   1.982
 7495SOL    HW123384   1.003   2.001   1.930
 7495SOL    HW223385   0.864   2.001   2.016
 7496SOL     OW23386   1.085   4.715   5.751
 7496SOL    HW123387   1.050   4.634   5.704
 7496SOL    HW223388   1.107   4.693   5.845
 7497SOL     OW23389   2.109   4.479   1.649
 7497SOL    HW123390   2.171   4.548   1.612
 7497SOL    HW223391   2.017   4.517   1.655
 7498SOL     OW23392   4.019   1.968   4.216
 7498SOL    HW123393   4.025   1.891   4.153
 7498SOL    HW223394   4.068   1.946   4.300
 7499SOL     OW23395   5.146   5.832   4.132
 7499SOL    HW123396   5.097   5.775   4.197
 7499SOL    HW223397   5.084   5.859   4.058
 7500SOL     OW23398   4.946   4.357   1.257
 7500SOL    HW123399   4.916   4.407   1.339
 7500SOL    HW223400   4.954   4.421   1.181
 7501SOL     OW23401   0.376   4.188   3.988
 7501SOL    HW123402   0.445   4.236   4.043
 7501SOL    HW223403   0.398   4.091   3.984
 7502SOL     OW23404   1.728   1.628   4.856
 7502SOL    HW123405   1.754   1.535   4.884
 7502SOL    HW223406   1.630   1.641   4.870
 7503SOL     OW23407   2.567   1.942   6.389
 7503SOL    HW123408   2.502   1.875   6.423
 7503SOL    HW223409   2.518   2.022   6.354
 7504SOL     OW23410   4.132   6.479   3.374
 7504SOL    HW123411   4.216   6.534   3.377
 7504SOL    HW223412   4.156   6.382   3.384
 7505SOL     OW23413   1.848   1.964   4.871
 7505SOL    HW123414   1.784   1.894   4.840
 7505SOL    HW223415   1.917   1.924   4.931
 7506SOL     OW23416   3.363   1.698   3.134
 7506SOL    HW123417   3.306   1.742   3.065
 7506SOL    HW223418   3.344   1.737   3.224
 7507SOL     OW23419   1.216   5.969   6.248
 7507SOL    HW123420   1.119   5.994   6.251
 7507SOL    HW223421   1.231   5.887   6.304
 7508SOL     OW23422   5.335   0.091   3.518
 7508SOL    HW123423   5.247   0.097   3.565
 7508SOL    HW223424   5.390   0.172   3.539
 7509SOL     OW23425   4.527   4.035   6.074
 7509SOL    HW123426   4.482   3.952   6.105
 7509SOL    HW223427   4.497   4.057   5.981
 7510SOL     OW23428   3.404   4.155   4.889
 7510SOL    HW123429   3.449   4.243   4.906
 7510SOL    HW223430   3.342   4.134   4.964
 7511SOL     OW23431   1.210   0.551   2.355
 7511SOL    HW123432   1.222   0.644   2.319
 7511SOL    HW223433   1.191   0.488   2.279
 7512SOL     OW23434   1.719   2.625   1.690
 7512SOL    HW123435   1.699   2.673   1.775
 7512SOL    HW223436   1.638   2.624   1.632
 7513SOL     OW23437   0.925   2.825   6.804
 7513SOL    HW123438   0.893   2.754   6.741
 7513SOL    HW223439   0.852   2.892   6.818
 7514SOL     OW23440   2.641   5.952   2.975
 7514SOL    HW123441   2.643   5.852   2.967
 7514SOL    HW223442   2.617   5.977   3.068
 7515SOL     OW23443   6.114   5.795   2.456
 7515SOL    HW123444   6.210   5.776   2.478
 7515SOL    HW223445   6.108   5.879   2.403
 7516SOL     OW23446   0.395   1.078   2.996
 7516SOL    HW123447   0.343   1.142   3.052
 7516SOL    HW223448   0.346   0.991   2.990
 7517SOL     OW23449   0.634   4.098   1.665
 7517SOL    HW123450   0.550   4.106   1.719
 7517SOL    HW223451   0.643   4.179   1.608
 7518SOL     OW23452   5.018   5.524   3.605
 7518SOL    HW123453   4.995   5.448   3.543
 7518SOL    HW223454   5.111   5.513   3.638
 7519SOL     OW23455   2.481   5.929   3.959
 7519SOL    HW123456   2.553   5.987   3.921
 7519SOL    HW223457   2.491   5.836   3.923
 7520SOL     OW23458   1.865   6.140   4.162
 7520SOL    HW123459   1.875   6.101   4.070
 7520SOL    HW223460   1.952   6.181   4.190
 7521SOL     OW23461   4.660   4.344   5.696
 7521SOL    HW123462   4.760   4.346   5.699
 7521SOL    HW223463   4.626   4.272   5.756
 7522SOL     OW23464   1.915   0.943   1.425
 7522SOL    HW123465   1.843   0.896   1.477
 7522SOL    HW223466   1.907   1.042   1.440
 7523SOL     OW23467   5.882   6.934   6.579
 7523SOL    HW123468   5.824   6.861   6.543
 7523SOL    HW223469   5.880   6.932   6.679
 7524SOL     OW23470   0.364   1.517   5.059
 7524SOL    HW123471   0.276   1.470   5.062
 7524SOL    HW223472   0.356   1.601   5.005
 7525SOL     OW23473   1.597   0.247   0.901
 7525SOL    HW123474   1.499   0.243   0.884
 7525SOL    HW223475   1.632   0.337   0.875
 7526SOL     OW23476   3.541   3.029   5.006
 7526SOL    HW123477   3.516   2.975   5.087
 7526SOL    HW223478   3.640   3.043   5.005
 7527SOL     OW23479   5.212   5.383   3.388
 7527SOL    HW123480   5.114   5.361   3.385
 7527SOL    HW223481   5.240   5.394   3.483
 7528SOL     OW23482   6.592   3.546   6.548
 7528SOL    HW123483   6.662   3.475   6.538
 7528SOL    HW223484   6.586   3.573   6.645
 7529SOL     OW23485   3.305   1.253   5.851
 7529SOL    HW123486   3.368   1.243   5.774
 7529SOL    HW223487   3.234   1.319   5.828
 7530SOL     OW23488   0.448   3.674   2.729
 7530SOL    HW123489   0.528   3.641   2.678
 7530SOL    HW223490   0.377   3.704   2.665
 7531SOL     OW23491   4.040   2.206   3.707
 7531SOL    HW123492   3.956   2.194   3.655
 7531SOL    HW223493   4.080   2.117   3.727
 7532SOL     OW23494   5.262   5.247   2.653
 7532SOL    HW123495   5.164   5.267   2.663
 7532SOL    HW223496   5.306   5.254   2.743
 7533SOL     OW23497   3.781   0.581   4.237
 7533SOL    HW123498   3.729   0.613   4.316
 7533SOL    HW223499   3.869   0.543   4.268
 7534SOL     OW23500   5.106   6.459   4.889
 7534SOL    HW123501   5.184   6.520   4.872
 7534SOL    HW223502   5.128   6.398   4.965
 7535SOL     OW23503   3.193   3.101   6.250
 7535SOL    HW123504   3.172   3.198   6.248
 7535SOL    HW223505   3.223   3.071   6.159
 7536SOL     OW23506   3.975   6.318   3.916
 7536SOL    HW123507   4.058   6.374   3.922
 7536SOL    HW223508   3.897   6.377   3.897
 7537SOL     OW23509   2.060   4.947   5.780
 7537SOL    HW123510   1.979   4.895   5.750
 7537SOL    HW223511   2.142   4.891   5.767
 7538SOL     OW23512   2.865   3.489   2.457
 7538SOL    HW123513   2.820   3.523   2.540
 7538SOL    HW223514   2.912   3.403   2.478
 7539SOL     OW23515   1.971   2.861   4.658
 7539SOL    HW123516   1.907   2.792   4.624
 7539SOL    HW223517   1.953   2.949   4.613
 7540SOL     OW23518   1.924   1.295   6.831
 7540SOL    HW123519   1.897   1.242   6.911
 7540SOL    HW223520   1.970   1.379   6.860
 7541SOL     OW23521   6.515   2.295   5.892
 7541SOL    HW123522   6.439   2.359   5.881
 7541SOL    HW223523   6.508   2.223   5.823
 7542SOL     OW23524   1.526   6.807   6.663
 7542SOL    HW123525   1.487   6.740   6.725
 7542SOL    HW223526   1.456   6.839   6.599
 7543SOL     OW23527   3.798   3.035   0.093
 7543SOL    HW123528   3.787   3.133   0.076
 7543SOL    HW223529   3.895   3.012   0.099
 7544SOL     OW23530   2.002   1.928   2.366
 7544SOL    HW123531   2.084   1.909   2.419
 7544SOL    HW223532   1.936   1.977   2.423
 7545SOL     OW23533   5.535   6.083   4.394
 7545SOL    HW123534   5.509   5.993   4.429
 7545SOL    HW223535   5.510   6.153   4.461
 7546SOL     OW23536   5.064   0.833   6.555
 7546SOL    HW123537   5.025   0.884   6.632
 7546SOL    HW223538   5.051   0.735   6.570
 7547SOL     OW23539   3.281   0.479   0.106
 7547SOL    HW123540   3.221   0.425   0.047
 7547SOL    HW223541   3.350   0.420   0.146
 7548SOL     OW23542   1.749   2.394   1.465
 7548SOL    HW123543   1.770   2.486   1.431
 7548SOL    HW223544   1.650   2.380   1.466
 7549SOL     OW23545   5.656   2.422   2.315
 7549SOL    HW123546   5.731   2.488   2.313
 7549SOL    HW223547   5.572   2.466   2.282
 7550SOL     OW23548   2.238   5.563   1.620
 7550SOL    HW123549   2.203   5.471   1.604
 7550SOL    HW223550   2.165   5.629   1.602
 7551SOL     OW23551   5.071   3.695   6.589
 7551SOL    HW123552   5.037   3.734   6.503
 7551SOL    HW223553   5.127   3.762   6.636
 7552SOL     OW23554   3.558   5.253   3.514
 7552SOL    HW123555   3.539   5.317   3.440
 7552SOL    HW223556   3.575   5.304   3.598
 7553SOL     OW23557   4.217   5.106   5.741
 7553SOL    HW123558   4.297   5.056   5.774
 7553SOL    HW223559   4.212   5.195   5.785
 7554SOL     OW23560   6.436   0.776   1.019
 7554SOL    HW123561   6.513   0.834   1.048
 7554SOL    HW223562   6.445   0.686   1.061
 7555SOL     OW23563   1.508   5.871   5.477
 7555SOL    HW123564   1.496   5.930   5.557
 7555SOL    HW223565   1.419   5.838   5.446
 7556SOL     OW23566   0.615   2.716   5.419
 7556SOL    HW123567   0.641   2.788   5.355
 7556SOL    HW223568   0.693   2.656   5.436
 7557SOL     OW23569   4.627   3.713   0.105
 7557SOL    HW123570   4.557   3.753   0.045
 7557SOL    HW223571   4.717   3.742   0.073
 7558SOL     OW23572   1.564   3.425   3.416
 7558SOL    HW123573   1.610   3.491   3.356
 7558SOL    HW223574   1.612   3.337   3.412
 7559SOL     OW23575   0.867   4.103   1.172
 7559SOL    HW123576   0.810   4.026   1.142
 7559SOL    HW223577   0.865   4.175   1.103
 7560SOL     OW23578   4.558   6.925   0.124
 7560SOL    HW123579   4.603   6.969   0.046
 7560SOL    HW223580   4.574   6.826   0.121
 7561SOL     OW23581   0.167   2.934   0.863
 7561SOL    HW123582   0.124   3.018   0.895
 7561SOL    HW223583   0.159   2.929   0.763
 7562SOL     OW23584   5.691   5.794   5.289
 7562SOL    HW123585   5.678   5.697   5.307
 7562SOL    HW223586   5.724   5.839   5.372
 7563SOL     OW23587   2.489   0.599   2.078
 7563SOL    HW123588   2.525   0.585   2.170
 7563SOL    HW223589   2.403   0.549   2.067
 7564SOL     OW23590   4.917   5.894   3.975
 7564SOL    HW123591   4.904   5.821   4.042
 7564SOL    HW223592   4.907   5.857   3.883
 7565SOL     OW23593   4.689   4.593   0.783
 7565SOL    HW123594   4.640   4.523   0.731
 7565SOL    HW223595   4.721   4.664   0.721
 7566SOL     OW23596   1.482   5.916   4.042
 7566SOL    HW123597   1.432   5.844   4.090
 7566SOL    HW223598   1.553   5.875   3.984
 7567SOL     OW23599   2.852   4.082   0.332
 7567SOL    HW123600   2.916   4.009   0.305
 7567SOL    HW223601   2.768   4.040   0.367
 7568SOL     OW23602   4.767   4.835   3.167
 7568SOL    HW123603   4.758   4.785   3.081
 7568SOL    HW223604   4.822   4.917   3.152
 7569SOL     OW23605   4.634   0.245   0.853
 7569SOL    HW123606   4.572   0.231   0.930
 7569SOL    HW223607   4.723   0.274   0.887
 7570SOL     OW23608   6.245   5.036   4.210
 7570SOL    HW123609   6.154   5.077   4.200
 7570SOL    HW223610   6.268   5.029   4.307
 7571SOL     OW23611   5.065   4.784   2.153
 7571SOL    HW123612   5.021   4.776   2.064
 7571SOL    HW223613   5.150   4.732   2.153
 7572SOL     OW23614   2.654   1.817   4.922
 7572SOL    HW123615   2.650   1.718   4.938
 7572SOL    HW223616   2.750   1.846   4.920
 7573SOL     OW23617   2.259   5.724   4.310
 7573SOL    HW123618   2.342   5.777   4.327
 7573SOL    HW223619   2.193   5.780   4.261
 7574SOL     OW23620   5.026   6.471   2.984
 7574SOL    HW123621   5.066   6.553   2.941
 7574SOL    HW223622   4.998   6.407   2.913
 7575SOL     OW23623   3.583   2.081   4.838
 7575SOL    HW123624   3.680   2.102   4.826
 7575SOL    HW223625   3.570   1.983   4.852
 7576SOL     OW23626   6.246   2.573   0.581
 7576SOL    HW123627   6.205   2.538   0.666
 7576SOL    HW223628   6.227   2.510   0.506
 7577SOL     OW23629   5.582   0.391   4.979
 7577SOL    HW123630   5.508   0.448   4.944
 7577SOL    HW223631   5.553   0.295   4.978
 7578SOL     OW23632   2.374   4.828   4.609
 7578SOL    HW123633   2.283   4.802   4.575
 7578SOL    HW223634   2.388   4.788   4.700
 7579SOL     OW23635   3.960   1.558   3.046
 7579SOL    HW123636   3.893   1.618   3.090
 7579SOL    HW223637   4.017   1.612   2.983
 7580SOL     OW23638   1.844   3.887   2.753
 7580SOL    HW123639   1.925   3.836   2.721
 7580SOL    HW223640   1.764   3.859   2.699
 7581SOL     OW23641   6.131   0.645   1.153
 7581SOL    HW123642   6.104   0.710   1.223
 7581SOL    HW223643   6.230   0.648   1.140
 7582SOL     OW23644   3.347   1.140   0.863
 7582SOL    HW123645   3.266   1.128   0.806
 7582SOL    HW223646   3.326   1.203   0.939
 7583SOL     OW23647   6.722   3.054   2.338
 7583SOL    HW123648   6.718   2.999   2.255
 7583SOL    HW223649   6.678   3.143   2.322
 7584SOL     OW23650   2.417   0.414   1.069
 7584SOL    HW123651   2.353   0.337   1.076
 7584SOL    HW223652   2.370   0.493   1.031
 7585SOL     OW23653   1.803   4.919   6.416
 7585SOL    HW123654   1.866   4.890   6.344
 7585SOL    HW223655   1.777   4.840   6.472
 7586SOL     OW23656   2.711   1.024   2.410
 7586SOL    HW123657   2.625   1.013   2.459
 7586SOL    HW223658   2.714   0.960   2.333
 7587SOL     OW23659   1.429   1.226   5.563
 7587SOL    HW123660   1.494   1.183   5.500
 7587SOL    HW223661   1.437   1.182   5.653
 7588SOL     OW23662   0.386   4.112   1.791
 7588SOL    HW123663   0.348   4.171   1.862
 7588SOL    HW223664   0.354   4.143   1.701
 7589SOL     OW23665   5.527   5.706   0.667
 7589SOL    HW123666   5.550   5.619   0.711
 7589SOL    HW223667   5.535   5.780   0.733
 7590SOL     OW23668   1.773   0.777   5.896
 7590SOL    HW123669   1.843   0.793   5.966
 7590SOL    HW223670   1.686   0.753   5.941
 7591SOL     OW23671   6.664   4.812   0.696
 7591SOL    HW123672   6.755   4.769   0.699
 7591SOL    HW223673   6.595   4.745   0.723
 7592SOL     OW23674   5.364   5.708   0.446
 7592SOL    HW123675   5.302   5.786   0.438
 7592SOL    HW223676   5.409   5.710   0.536
 7593SOL     OW23677   6.149   2.138   6.568
 7593SOL    HW123678   6.151   2.050   6.615
 7593SOL    HW223679   6.241   2.160   6.535
 7594SOL     OW23680   1.272   6.029   3.883
 7594SOL    HW123681   1.269   5.976   3.799
 7594SOL    HW223682   1.358   6.011   3.931
 7595SOL     OW23683   6.071   2.783   6.907
 7595SOL    HW123684   6.079   2.691   6.946
 7595SOL    HW223685   6.151   2.837   6.933
 7596SOL     OW23686   5.570   4.219   2.264
 7596SOL    HW123687   5.570   4.125   2.230
 7596SOL    HW223688   5.517   4.224   2.349
 7597SOL     OW23689   3.416   5.261   1.634
 7597SOL    HW123690   3.427   5.276   1.536
 7597SOL    HW223691   3.502   5.224   1.671
 7598SOL     OW23692   6.814   1.122   3.704
 7598SOL    HW123693   6.847   1.032   3.732
 7598SOL    HW223694   6.893   1.182   3.685
 7599SOL     OW23695   6.606   2.278   2.639
 7599SOL    HW123696   6.633   2.205   2.577
 7599SOL    HW223697   6.687   2.322   2.677
 7600SOL     OW23698   2.292   1.892   1.282
 7600SOL    HW123699   2.294   1.850   1.191
 7600SOL    HW223700   2.254   1.984   1.275
 7601SOL     OW23701   1.801   6.515   4.733
 7601SOL    HW123702   1.886   6.541   4.778
 7601SOL    HW223703   1.784   6.575   4.655
 7602SOL     OW23704   0.581   3.745   4.809
 7602SOL    HW123705   0.652   3.695   4.759
 7602SOL    HW223706   0.535   3.681   4.872
 7603SOL     OW23707   1.055   6.719   1.320
 7603SOL    HW123708   0.982   6.660   1.353
 7603SOL    HW223709   1.028   6.814   1.329
 7604SOL     OW23710   5.275   6.121   5.742
 7604SOL    HW123711   5.194   6.075   5.779
 7604SOL    HW223712   5.259   6.220   5.738
 7605SOL     OW23713   6.190   4.528   6.680
 7605SOL    HW123714   6.265   4.491   6.734
 7605SOL    HW223715   6.103   4.496   6.717
 7606SOL     OW23716   6.099   1.963   2.665
 7606SOL    HW123717   6.030   2.034   2.656
 7606SOL    HW223718   6.160   1.986   2.741
 7607SOL     OW23719   4.641   6.944   6.640
 7607SOL    HW123720   4.623   0.001   6.583
 7607SOL    HW223721   4.579   6.870   6.613
 7608SOL     OW23722   3.300   3.387   3.353
 7608SOL    HW123723   3.269   3.433   3.437
 7608SOL    HW223724   3.400   3.381   3.354
 7609SOL     OW23725   1.361   3.395   4.391
 7609SOL    HW123726   1.440   3.388   4.330
 7609SOL    HW223727   1.343   3.491   4.411
 7610SOL     OW23728   5.304   0.156   1.288
 7610SOL    HW123729   5.334   0.095   1.362
 7610SOL    HW223730   5.211   0.189   1.307
 7611SOL     OW23731   1.597   2.007   0.417
 7611SOL    HW123732   1.520   2.009   0.353
 7611SOL    HW223733   1.661   1.935   0.390
 7612SOL     OW23734   3.885   1.977   3.149
 7612SOL    HW123735   3.826   2.014   3.220
 7612SOL    HW223736   3.980   1.983   3.178
 7613SOL     OW23737   4.794   0.945   1.977
 7613SOL    HW123738   4.786   0.861   2.031
 7613SOL    HW223739   4.747   1.020   2.024
 7614SOL     OW23740   4.284   2.368   0.436
 7614SOL    HW123741   4.381   2.380   0.454
 7614SOL    HW223742   4.244   2.456   0.407
 7615SOL     OW23743   3.568   5.132   5.809
 7615SOL    HW123744   3.549   5.178   5.895
 7615SOL    HW223745   3.519   5.044   5.807
 7616SOL     OW23746   6.416   3.988   3.594
 7616SOL    HW123747   6.349   3.961   3.663
 7616SOL    HW223748   6.448   4.081   3.612
 7617SOL     OW23749   2.970   5.476   2.573
 7617SOL    HW123750   3.023   5.556   2.603
 7617SOL    HW223751   3.024   5.423   2.508
 7618SOL     OW23752   1.754   2.564   6.933
 7618SOL    HW123753   1.749   2.475   6.980
 7618SOL    HW223754   1.691   2.563   6.854
 7619SOL     OW23755   5.028   3.433   5.938
 7619SOL    HW123756   5.081   3.386   6.008
 7619SOL    HW223757   4.931   3.434   5.965
 7620SOL     OW23758   3.176   6.840   1.674
 7620SOL    HW123759   3.211   6.823   1.766
 7620SOL    HW223760   3.250   6.876   1.617
 7621SOL     OW23761   2.685   0.576   1.622
 7621SOL    HW123762   2.624   0.519   1.567
 7621SOL    HW223763   2.769   0.596   1.570
 7622SOL     OW23764   4.232   2.538   0.068
 7622SOL    HW123765   4.236   2.442   0.040
 7622SOL    HW223766   4.251   2.545   0.167
 7623SOL     OW23767   4.609   0.629   5.778
 7623SOL    HW123768   4.583   0.569   5.854
 7623SOL    HW223769   4.551   0.609   5.699
 7624SOL     OW23770   0.518   1.020   3.608
 7624SOL    HW123771   0.482   0.978   3.691
 7624SOL    HW223772   0.613   1.049   3.624
 7625SOL     OW23773   4.889   0.404   1.362
 7625SOL    HW123774   4.825   0.340   1.320
 7625SOL    HW223775   4.890   0.391   1.461
 7626SOL     OW23776   1.811   5.809   4.841
 7626SOL    HW123777   1.893   5.795   4.897
 7626SOL    HW223778   1.836   5.816   4.745
 7627SOL     OW23779   0.019   2.345   0.760
 7627SOL    HW123780   6.946   2.330   0.734
 7627SOL    HW223781   0.070   2.260   0.752
 7628SOL     OW23782   3.180   2.006   0.908
 7628SOL    HW123783   3.100   1.979   0.962
 7628SOL    HW223784   3.196   1.938   0.836
 7629SOL     OW23785   0.059   6.046   3.051
 7629SOL    HW123786   0.101   6.086   2.970
 7629SOL    HW223787   0.087   5.950   3.058
 7630SOL     OW23788   6.330   1.256   2.937
 7630SOL    HW123789   6.356   1.344   2.897
 7630SOL    HW223790   6.231   1.244   2.932
 7631SOL     OW23791   0.383   2.473   3.540
 7631SOL    HW123792   0.380   2.398   3.474
 7631SOL    HW223793   0.387   2.435   3.633
 7632SOL     OW23794   4.558   1.361   0.223
 7632SOL    HW123795   4.515   1.283   0.269
 7632SOL    HW223796   4.591   1.426   0.291
 7633SOL     OW23797   5.491   3.904   6.959
 7633SOL    HW123798   5.396   3.875   6.949
 7633SOL    HW223799   5.513   3.971   6.888
 7634SOL     OW23800   1.427   1.260   2.014
 7634SOL    HW123801   1.461   1.166   2.011
 7634SOL    HW223802   1.480   1.317   1.952
 7635SOL     OW23803   3.123   4.483   5.604
 7635SOL    HW123804   3.029   4.450   5.600
 7635SOL    HW223805   3.180   4.429   5.543
 7636SOL     OW23806   0.823   0.400   3.982
 7636SOL    HW123807   0.919   0.389   3.955
 7636SOL    HW223808   0.764   0.370   3.907
 7637SOL     OW23809   2.131   6.108   4.467
 7637SOL    HW123810   2.039   6.114   4.506
 7637SOL    HW223811   2.172   6.021   4.492
 7638SOL     OW23812   5.317   5.097   2.110
 7638SOL    HW123813   5.334   5.035   2.187
 7638SOL    HW223814   5.226   5.138   2.120
 7639SOL     OW23815   0.890   1.989   5.210
 7639SOL    HW123816   0.835   2.053   5.156
 7639SOL    HW223817   0.964   2.039   5.256
 7640SOL     OW23818   2.284   1.680   6.844
 7640SOL    HW123819   2.352   1.742   6.804
 7640SOL    HW223820   2.303   1.670   6.942
 7641SOL     OW23821   5.514   3.713   2.105
 7641SOL    HW123822   5.524   3.766   2.021
 7641SOL    HW223823   5.524   3.772   2.184
 7642SOL     OW23824   2.860   2.278   2.462
 7642SOL    HW123825   2.778   2.241   2.507
 7642SOL    HW223826   2.833   2.338   2.387
 7643SOL     OW23827   4.837   3.096   3.421
 7643SOL    HW123828   4.821   3.192   3.395
 7643SOL    HW223829   4.830   3.087   3.520
 7644SOL     OW23830   6.818   3.190   2.653
 7644SOL    HW123831   6.837   3.236   2.740
 7644SOL    HW223832   6.786   3.097   2.670
 7645SOL     OW23833   4.411   3.628   6.635
 7645SOL    HW123834   4.357   3.561   6.584
 7645SOL    HW223835   4.485   3.662   6.577
 7646SOL     OW23836   2.152   1.856   1.762
 7646SOL    HW123837   2.220   1.928   1.764
 7646SOL    HW223838   2.152   1.812   1.672
 7647SOL     OW23839   2.558   3.947   1.610
 7647SOL    HW123840   2.545   4.034   1.657
 7647SOL    HW223841   2.641   3.902   1.644
 7648SOL     OW23842   4.225   0.814   3.707
 7648SOL    HW123843   4.225   0.904   3.666
 7648SOL    HW223844   4.175   0.817   3.794
 7649SOL     OW23845   3.127   0.729   1.639
 7649SOL    HW123846   3.142   0.630   1.646
 7649SOL    HW223847   3.202   0.770   1.588
 7650SOL     OW23848   6.241   4.388   2.364
 7650SOL    HW123849   6.243   4.440   2.450
 7650SOL    HW223850   6.249   4.290   2.384
 7651SOL     OW23851   3.754   1.145   6.419
 7651SOL    HW123852   3.697   1.094   6.483
 7651SOL    HW223853   3.699   1.215   6.374
 7652SOL     OW23854   0.746   3.684   2.225
 7652SOL    HW123855   0.793   3.679   2.313
 7652SOL    HW223856   0.807   3.725   2.157
 7653SOL     OW23857   2.902   2.212   1.562
 7653SOL    HW123858   2.966   2.194   1.637
 7653SOL    HW223859   2.948   2.194   1.474
 7654SOL     OW23860   4.869   3.968   3.772
 7654SOL    HW123861   4.881   3.884   3.824
 7654SOL    HW223862   4.847   3.945   3.677
 7655SOL     OW23863   4.166   6.254   5.374
 7655SOL    HW123864   4.133   6.178   5.317
 7655SOL    HW223865   4.236   6.305   5.324
 7656SOL     OW23866   0.854   6.604   5.464
 7656SOL    HW123867   0.932   6.563   5.511
 7656SOL    HW223868   0.883   6.687   5.416
 7657SOL     OW23869   3.595   1.405   3.731
 7657SOL    HW123870   3.532   1.381   3.657
 7657SOL    HW223871   3.593   1.334   3.800
 7658SOL     OW23872   4.132   0.839   5.656
 7658SOL    HW123873   4.127   0.906   5.582
 7658SOL    HW223874   4.225   0.838   5.693
 7659SOL     OW23875   5.702   0.100   0.953
 7659SOL    HW123876   5.678   0.042   0.876
 7659SOL    HW223877   5.792   0.141   0.937
 7660SOL     OW23878   5.956   5.105   4.031
 7660SOL    HW123879   5.949   5.124   4.129
 7660SOL    HW223880   5.870   5.067   3.999
 7661SOL     OW23881   6.482   2.580   3.796
 7661SOL    HW123882   6.526   2.648   3.736
 7661SOL    HW223883   6.429   2.516   3.741
 7662SOL     OW23884   6.942   4.840   2.112
 7662SOL    HW123885   6.860   4.884   2.074
 7662SOL    HW223886   6.922   4.745   2.135
 7663SOL     OW23887   0.244   5.266   6.838
 7663SOL    HW123888   0.252   5.351   6.787
 7663SOL    HW223889   0.196   5.198   6.783
 7664SOL     OW23890   2.608   5.134   3.827
 7664SOL    HW123891   2.580   5.111   3.734
 7664SOL    HW223892   2.541   5.196   3.868
 7665SOL     OW23893   3.209   6.492   5.034
 7665SOL    HW123894   3.269   6.465   5.110
 7665SOL    HW223895   3.248   6.572   4.988
 7666SOL     OW23896   1.187   0.880   1.200
 7666SOL    HW123897   1.285   0.865   1.214
 7666SOL    HW223898   1.137   0.850   1.281
 7667SOL     OW23899   3.914   6.373   6.254
 7667SOL    HW123900   3.875   6.314   6.182
 7667SOL    HW223901   3.992   6.326   6.296
 7668SOL     OW23902   3.329   3.934   1.379
 7668SOL    HW123903   3.354   3.838   1.390
 7668SOL    HW223904   3.243   3.942   1.330
 7669SOL     OW23905   4.653   6.362   4.412
 7669SOL    HW123906   4.715   6.386   4.486
 7669SOL    HW223907   4.699   6.375   4.324
 7670SOL     OW23908   1.433   5.088   0.505
 7670SOL    HW123909   1.531   5.069   0.497
 7670SOL    HW223910   1.407   5.087   0.601
 7671SOL     OW23911   5.846   3.011   4.512
 7671SOL    HW123912   5.821   3.052   4.424
 7671SOL    HW223913   5.769   2.956   4.545
 7672SOL     OW23914   5.817   1.074   2.923
 7672SOL    HW123915   5.727   1.087   2.880
 7672SOL    HW223916   5.810   1.007   2.997
 7673SOL     OW23917   0.883   4.590   0.866
 7673SOL    HW123918   0.886   4.568   0.963
 7673SOL    HW223919   0.806   4.542   0.823
 7674SOL     OW23920   5.812   1.658   4.736
 7674SOL    HW123921   5.851   1.749   4.729
 7674SOL    HW223922   5.781   1.627   4.646
 7675SOL     OW23923   4.265   6.788   3.299
 7675SOL    HW123924   4.322   6.744   3.368
 7675SOL    HW223925   4.291   6.884   3.289
 7676SOL     OW23926   1.920   0.526   0.875
 7676SOL    HW123927   1.865   0.574   0.943
 7676SOL    HW223928   1.913   0.428   0.890
 7677SOL     OW23929   1.927   2.818   2.547
 7677SOL    HW123930   2.027   2.808   2.540
 7677SOL    HW223931   1.891   2.854   2.461
 7678SOL     OW23932   6.290   6.387   0.596
 7678SOL    HW123933   6.271   6.292   0.622
 7678SOL    HW223934   6.233   6.448   0.651
 7679SOL     OW23935   0.692   5.225   5.314
 7679SOL    HW123936   0.674   5.136   5.273
 7679SOL    HW223937   0.778   5.223   5.364
 7680SOL     OW23938   3.834   2.959   0.391
 7680SOL    HW123939   3.919   3.005   0.416
 7680SOL    HW223940   3.823   2.963   0.292
 7681SOL     OW23941   2.853   1.615   0.085
 7681SOL    HW123942   2.894   1.598   0.175
 7681SOL    HW223943   2.918   1.588   0.014
 7682SOL     OW23944   3.058   0.092   1.641
 7682SOL    HW123945   3.086   7.020   1.658
 7682SOL    HW223946   3.116   0.154   1.693
 7683SOL     OW23947   5.442   2.026   3.474
 7683SOL    HW123948   5.392   2.081   3.407
 7683SOL    HW223949   5.381   2.001   3.549
 7684SOL     OW23950   4.490   1.738   5.951
 7684SOL    HW123951   4.405   1.787   5.931
 7684SOL    HW223952   4.470   1.660   6.011
 7685SOL     OW23953   3.267   3.048   0.963
 7685SOL    HW123954   3.238   3.098   1.044
 7685SOL    HW223955   3.188   3.035   0.902
 7686SOL     OW23956   3.772   6.783   3.810
 7686SOL    HW123957   3.687   6.825   3.840
 7686SOL    HW223958   3.850   6.830   3.851
 7687SOL     OW23959   5.274   5.066   5.754
 7687SOL    HW123960   5.264   5.044   5.657
 7687SOL    HW223961   5.350   5.015   5.793
 7688SOL     OW23962   0.307   6.623   4.553
 7688SOL    HW123963   0.345   6.687   4.620
 7688SOL    HW223964   0.308   6.530   4.591
 7689SOL     OW23965   4.226   6.171   4.880
 7689SOL    HW123966   4.299   6.152   4.945
 7689SOL    HW223967   4.139   6.182   4.929
 7690SOL     OW23968   0.119   5.045   3.574
 7690SOL    HW123969   0.086   4.998   3.656
 7690SOL    HW223970   0.090   5.141   3.576
 7691SOL     OW23971   4.948   3.253   4.859
 7691SOL    HW123972   4.910   3.254   4.952
 7691SOL    HW223973   4.960   3.159   4.829
 7692SOL     OW23974   1.836   6.350   2.278
 7692SOL    HW123975   1.759   6.396   2.322
 7692SOL    HW223976   1.842   6.256   2.311
 7693SOL     OW23977   4.898   1.478   6.402
 7693SOL    HW123978   4.916   1.420   6.322
 7693SOL    HW223979   4.974   1.469   6.467
 7694SOL     OW23980   0.266   5.448   4.542
 7694SOL    HW123981   0.175   5.489   4.536
 7694SOL    HW223982   0.307   5.471   4.630
 7695SOL     OW23983   3.856   7.010   0.608
 7695SOL    HW123984   3.821   6.928   0.654
 7695SOL    HW223985   3.797   0.065   0.630
 7696SOL     OW23986   0.147   2.782   5.591
 7696SOL    HW123987   0.169   2.722   5.667
 7696SOL    HW223988   0.083   2.736   5.529
 7697SOL     OW23989   3.585   1.793   2.378
 7697SOL    HW123990   3.499   1.841   2.360
 7697SOL    HW223991   3.598   1.721   2.310
 7698SOL     OW23992   6.778   3.264   5.896
 7698SOL    HW123993   6.872   3.288   5.871
 7698SOL    HW223994   6.775   3.173   5.936
 7699SOL     OW23995   2.296   4.990   6.595
 7699SOL    HW123996   2.362   4.916   6.577
 7699SOL    HW223997   2.332   5.050   6.667
 7700SOL     OW23998   4.940   6.330   4.514
 7700SOL    HW123999   4.959   6.256   4.449
 7700SOL    HW224000   4.992   6.314   4.598
 7701SOL     OW24001   6.552   2.077   4.496
 7701SOL    HW124002   6.598   1.990   4.517
 7701SOL    HW224003   6.524   2.077   4.400
 7702SOL     OW24004   3.074   6.661   5.838
 7702SOL    HW124005   3.022   6.629   5.759
 7702SOL    HW224006   3.089   6.585   5.901
 7703SOL     OW24007   0.758   1.140   5.711
 7703SOL    HW124008   0.806   1.168   5.794
 7703SOL    HW224009   0.693   1.211   5.684
 7704SOL     OW24010   4.304   4.306   6.810
 7704SOL    HW124011   4.343   4.225   6.855
 7704SOL    HW224012   4.341   4.388   6.853
 7705SOL     OW24013   3.761   5.183   5.106
 7705SOL    HW124014   3.753   5.096   5.058
 7705SOL    HW224015   3.835   5.177   5.173
 7706SOL     OW24016   0.278   0.888   4.907
 7706SOL    HW124017   0.259   0.968   4.965
 7706SOL    HW224018   0.208   0.819   4.923
 7707SOL     OW24019   0.223   4.834   6.263
 7707SOL    HW124020   0.163   4.830   6.343
 7707SOL    HW224021   0.175   4.878   6.188
 7708SOL     OW24022   4.244   6.600   4.591
 7708SOL    HW124023   4.150   6.568   4.603
 7708SOL    HW224024   4.295   6.534   4.535
 7709SOL     OW24025   4.278   2.146   2.305
 7709SOL    HW124026   4.216   2.074   2.336
 7709SOL    HW224027   4.290   2.214   2.378
 7710SOL     OW24028   1.838   1.071   0.325
 7710SOL    HW124029   1.878   0.979   0.321
 7710SOL    HW224030   1.910   1.139   0.310
 7711SOL     OW24031   5.383   6.534   5.493
 7711SOL    HW124032   5.459   6.526   5.557
 7711SOL    HW224033   5.372   6.630   5.466
 7712SOL     OW24034   5.417   5.268   1.158
 7712SOL    HW124035   5.480   5.205   1.204
 7712SOL    HW224036   5.384   5.226   1.074
 7713SOL     OW24037   1.300   4.220   6.231
 7713SOL    HW124038   1.245   4.141   6.257
 7713SOL    HW224039   1.246   4.304   6.245
 7714SOL     OW24040   5.507   4.305   4.172
 7714SOL    HW124041   5.532   4.338   4.081
 7714SOL    HW224042   5.460   4.217   4.164
 7715SOL     OW24043   4.722   0.937   1.278
 7715SOL    HW124044   4.732   0.878   1.198
 7715SOL    HW224045   4.680   1.024   1.251
 7716SOL     OW24046   4.421   2.084   3.217
 7716SOL    HW124047   4.339   2.141   3.225
 7716SOL    HW224048   4.483   2.105   3.293
 7717SOL     OW24049   3.066   1.722   5.628
 7717SOL    HW124050   3.124   1.756   5.554
 7717SOL    HW224051   2.978   1.770   5.627
 7718SOL     OW24052   2.974   6.306   4.012
 7718SOL    HW124053   2.943   6.330   3.920
 7718SOL    HW224054   3.034   6.378   4.046
 7719SOL     OW24055   6.596   2.044   4.866
 7719SOL    HW124056   6.688   2.048   4.827
 7719SOL    HW224057   6.537   2.109   4.818
 7720SOL     OW24058   6.090   5.626   1.779
 7720SOL    HW124059   6.117   5.607   1.873
 7720SOL    HW224060   5.995   5.596   1.764
 7721SOL     OW24061   2.138   4.622   2.272
 7721SOL    HW124062   2.133   4.615   2.371
 7721SOL    HW224063   2.048   4.602   2.232
 7722SOL     OW24064   6.827   5.454   3.864
 7722SOL    HW124065   6.888   5.377   3.880
 7722SOL    HW224066   6.735   5.430   3.895
 7723SOL     OW24067   6.535   3.133   0.345
 7723SOL    HW124068   6.503   3.088   0.429
 7723SOL    HW224069   6.633   3.150   0.351
 7724SOL     OW24070   1.323   4.579   1.146
 7724SOL    HW124071   1.319   4.646   1.220
 7724SOL    HW224072   1.342   4.488   1.183
 7725SOL     OW24073   5.707   3.142   4.301
 7725SOL    HW124074   5.709   3.217   4.236
 7725SOL    HW224075   5.628   3.152   4.362
 7726SOL     OW24076   0.391   4.547   3.117
 7726SOL    HW124077   0.416   4.598   3.035
 7726SOL    HW224078   0.475   4.512   3.160
 7727SOL     OW24079   6.274   2.510   2.197
 7727SOL    HW124080   6.355   2.452   2.205
 7727SOL    HW224081   6.277   2.560   2.111
 7728SOL     OW24082   2.091   2.464   3.151
 7728SOL    HW124083   2.045   2.521   3.219
 7728SOL    HW224084   2.024   2.412   3.099
 7729SOL     OW24085   4.897   2.181   0.330
 7729SOL    HW124086   4.890   2.164   0.428
 7729SOL    HW224087   4.850   2.266   0.307
 7730SOL     OW24088   5.886   0.760   2.429
 7730SOL    HW124089   5.858   0.781   2.522
 7730SOL    HW224090   5.806   0.742   2.372
 7731SOL     OW24091   5.841   0.874   6.764
 7731SOL    HW124092   5.885   0.920   6.840
 7731SOL    HW224093   5.881   0.784   6.751
 7732SOL     OW24094   4.210   5.654   0.609
 7732SOL    HW124095   4.243   5.748   0.616
 7732SOL    HW224096   4.266   5.604   0.543
 7733SOL     OW24097   3.532   0.269   2.397
 7733SOL    HW124098   3.576   0.314   2.475
 7733SOL    HW224099   3.432   0.279   2.405
 7734SOL     OW24100   1.914   2.315   3.006
 7734SOL    HW124101   1.979   2.253   2.962
 7734SOL    HW224102   1.855   2.357   2.937
 7735SOL     OW24103   4.598   4.488   0.093
 7735SOL    HW124104   4.669   4.559   0.101
 7735SOL    HW224105   4.549   4.481   0.180
 7736SOL     OW24106   6.378   4.988   6.831
 7736SOL    HW124107   6.469   4.962   6.863
 7736SOL    HW224108   6.330   4.907   6.798
 7737SOL     OW24109   4.812   1.472   0.663
 7737SOL    HW124110   4.912   1.472   0.667
 7737SOL    HW224111   4.776   1.538   0.729
 7738SOL     OW24112   3.324   5.269   6.912
 7738SOL    HW124113   3.300   5.215   6.832
 7738SOL    HW224114   3.343   5.364   6.884
 7739SOL     OW24115   6.060   2.560   0.842
 7739SOL    HW124116   6.050   2.516   0.932
 7739SOL    HW224117   5.974   2.550   0.791
 7740SOL     OW24118   0.706   6.864   3.158
 7740SOL    HW124119   0.606   6.864   3.168
 7740SOL    HW224120   0.747   6.841   3.246
 7741SOL     OW24121   2.438   5.445   4.563
 7741SOL    HW124122   2.506   5.402   4.623
 7741SOL    HW224123   2.448   5.544   4.566
 7742SOL     OW24124   6.845   1.657   3.880
 7742SOL    HW124125   6.837   1.689   3.786
 7742SOL    HW224126   6.809   1.563   3.887
 7743SOL     OW24127   4.482   2.533   3.986
 7743SOL    HW124128   4.388   2.518   4.017
 7743SOL    HW224129   4.497   2.485   3.900
 7744SOL     OW24130   6.767   0.566   4.189
 7744SOL    HW124131   6.689   0.510   4.162
 7744SOL    HW224132   6.755   0.596   4.284
 7745SOL     OW24133   4.243   3.377   6.138
 7745SOL    HW124134   4.243   3.294   6.194
 7745SOL    HW224135   4.261   3.352   6.042
 7746SOL     OW24136   1.426   0.703   0.747
 7746SOL    HW124137   1.335   0.669   0.721
 7746SOL    HW224138   1.416   0.788   0.798
 7747SOL     OW24139   5.101   5.901   0.831
 7747SOL    HW124140   5.133   5.891   0.926
 7747SOL    HW224141   5.128   5.990   0.796
 7748SOL     OW24142   2.928   4.411   6.840
 7748SOL    HW124143   2.976   4.393   6.754
 7748SOL    HW224144   2.879   4.498   6.832
 7749SOL     OW24145   5.321   3.219   5.858
 7749SOL    HW124146   5.232   3.178   5.877
 7749SOL    HW224147   5.386   3.148   5.831
 7750SOL     OW24148   6.297   5.222   2.467
 7750SOL    HW124149   6.393   5.248   2.468
 7750SOL    HW224150   6.242   5.297   2.503
 7751SOL     OW24151   0.901   2.738   2.331
 7751SOL    HW124152   0.944   2.811   2.385
 7751SOL    HW224153   0.970   2.695   2.273
 7752SOL     OW24154   4.469   1.963   3.733
 7752SOL    HW124155   4.452   2.027   3.808
 7752SOL    HW224156   4.405   1.979   3.659
 7753SOL     OW24157   3.092   1.526   4.604
 7753SOL    HW124158   3.082   1.594   4.532
 7753SOL    HW224159   3.114   1.572   4.690
 7754SOL     OW24160   5.106   6.526   2.253
 7754SOL    HW124161   5.040   6.544   2.181
 7754SOL    HW224162   5.170   6.602   2.260
 7755SOL     OW24163   6.941   4.383   5.519
 7755SOL    HW124164   6.943   4.478   5.549
 7755SOL    HW224165   6.985   4.375   5.429
 7756SOL     OW24166   2.524   5.073   2.039
 7756SOL    HW124167   2.486   5.007   2.103
 7756SOL    HW224168   2.624   5.071   2.046
 7757SOL     OW24169   0.081   3.918   2.269
 7757SOL    HW124170   0.111   3.973   2.190
 7757SOL    HW224171   0.011   3.853   2.239
 7758SOL     OW24172   1.513   1.847   4.834
 7758SOL    HW124173   1.564   1.895   4.762
 7758SOL    HW224174   1.415   1.860   4.820
 7759SOL     OW24175   2.279   2.362   0.291
 7759SOL    HW124176   2.257   2.458   0.276
 7759SOL    HW224177   2.251   2.335   0.383
 7760SOL     OW24178   4.235   2.791   7.010
 7760SOL    HW124179   4.237   2.694   0.011
 7760SOL    HW224180   4.197   2.843   0.064
 7761SOL     OW24181   4.948   5.444   4.175
 7761SOL    HW124182   4.877   5.389   4.132
 7761SOL    HW224183   5.033   5.437   4.122
 7762SOL     OW24184   6.162   1.747   2.508
 7762SOL    HW124185   6.133   1.828   2.559
 7762SOL    HW224186   6.249   1.765   2.463
 7763SOL     OW24187   2.528   6.892   4.363
 7763SOL    HW124188   2.604   6.828   4.352
 7763SOL    HW224189   2.543   6.972   4.304
 7764SOL     OW24190   2.622   4.102   5.699
 7764SOL    HW124191   2.625   4.032   5.628
 7764SOL    HW224192   2.649   4.062   5.787
 7765SOL     OW24193   6.161   3.148   5.606
 7765SOL    HW124194   6.066   3.178   5.593
 7765SOL    HW224195   6.220   3.228   5.615
 7766SOL     OW24196   5.683   3.994   6.481
 7766SOL    HW124197   5.778   3.972   6.461
 7766SOL    HW224198   5.627   3.974   6.400
 7767SOL     OW24199   3.598   6.923   4.059
 7767SOL    HW124200   3.684   6.974   4.062
 7767SOL    HW224201   3.533   6.963   4.123
 7768SOL     OW24202   4.849   5.084   3.380
 7768SOL    HW124203   4.895   4.996   3.382
 7768SOL    HW224204   4.753   5.072   3.404
 7769SOL     OW24205   3.578   3.195   5.439
 7769SOL    HW124206   3.503   3.142   5.478
 7769SOL    HW224207   3.545   3.284   5.410
 7770SOL     OW24208   1.910   3.535   4.537
 7770SOL    HW124209   1.961   3.507   4.618
 7770SOL    HW224210   1.816   3.502   4.544
 7771SOL     OW24211   2.365   2.896   6.048
 7771SOL    HW124212   2.400   2.890   6.141
 7771SOL    HW224213   2.442   2.895   5.983
 7772SOL     OW24214   5.196   6.857   1.908
 7772SOL    HW124215   5.209   6.771   1.958
 7772SOL    HW224216   5.285   6.893   1.880
 7773SOL     OW24217   3.001   6.212   6.724
 7773SOL    HW124218   3.008   6.243   6.629
 7773SOL    HW224219   3.092   6.203   6.763
 7774SOL     OW24220   4.910   1.321   2.480
 7774SOL    HW124221   4.939   1.389   2.548
 7774SOL    HW224222   4.811   1.329   2.467
 7775SOL     OW24223   2.424   2.069   0.424
 7775SOL    HW124224   2.332   2.045   0.396
 7775SOL    HW224225   2.456   2.004   0.494
 7776SOL     OW24226   1.545   1.419   4.667
 7776SOL    HW124227   1.488   1.501   4.664
 7776SOL    HW224228   1.575   1.402   4.760
 7777SOL     OW24229   6.126   5.352   4.289
 7777SOL    HW124230   6.190   5.354   4.366
 7777SOL    HW224231   6.065   5.273   4.298
 7778SOL     OW24232   6.975   4.609   2.927
 7778SOL    HW124233   7.014   4.567   3.009
 7778SOL    HW224234   6.956   4.538   2.859
 7779SOL     OW24235   4.446   6.029   2.180
 7779SOL    HW124236   4.493   5.943   2.164
 7779SOL    HW224237   4.475   6.096   2.111
 7780SOL     OW24238   6.292   6.505   4.961
 7780SOL    HW124239   6.217   6.516   4.894
 7780SOL    HW224240   6.355   6.435   4.929
 7781SOL     OW24241   1.299   2.595   1.048
 7781SOL    HW124242   1.204   2.602   1.078
 7781SOL    HW224243   1.305   2.625   0.952
 7782SOL     OW24244   6.089   2.647   4.092
 7782SOL    HW124245   6.032   2.720   4.052
 7782SOL    HW224246   6.060   2.632   4.187
 7783SOL     OW24247   1.552   6.615   5.129
 7783SOL    HW124248   1.630   6.676   5.145
 7783SOL    HW224249   1.554   6.582   5.034
 7784SOL     OW24250   1.955   2.101   1.531
 7784SOL    HW124251   1.946   2.002   1.519
 7784SOL    HW224252   1.889   2.133   1.599
 7785SOL     OW24253   0.402   0.102   3.498
 7785SOL    HW124254   0.462   0.027   3.527
 7785SOL    HW224255   0.316   0.098   3.549
 7786SOL     OW24256   3.883   1.225   5.205
 7786SOL    HW124257   3.879   1.255   5.109
 7786SOL    HW224258   3.914   1.130   5.209
 7787SOL     OW24259   2.453   2.648   1.874
 7787SOL    HW124260   2.438   2.637   1.973
 7787SOL    HW224261   2.528   2.588   1.846
 7788SOL     OW24262   6.870   4.351   1.360
 7788SOL    HW124263   6.853   4.438   1.314
 7788SOL    HW224264   6.803   4.339   1.434
 7789SOL     OW24265   3.082   1.901   5.930
 7789SOL    HW124266   3.056   1.962   5.855
 7789SOL    HW224267   3.180   1.884   5.927
 7790SOL     OW24268   4.289   4.455   1.735
 7790SOL    HW124269   4.266   4.414   1.647
 7790SOL    HW224270   4.356   4.398   1.782
 7791SOL     OW24271   2.590   5.257   2.533
 7791SOL    HW124272   2.656   5.201   2.483
 7791SOL    HW224273   2.529   5.198   2.586
 7792SOL     OW24274   0.737   1.757   2.462
 7792SOL    HW124275   0.818   1.809   2.488
 7792SOL    HW224276   0.764   1.679   2.406
 7793SOL     OW24277   5.138   0.649   6.797
 7793SOL    HW124278   5.061   0.605   6.843
 7793SOL    HW224279   5.214   0.586   6.791
 7794SOL     OW24280   0.890   6.645   3.406
 7794SOL    HW124281   0.982   6.622   3.439
 7794SOL    HW224282   0.863   6.578   3.336
 7795SOL     OW24283   3.041   5.546   0.077
 7795SOL    HW124284   2.967   5.481   0.060
 7795SOL    HW224285   3.126   5.496   0.095
 7796SOL     OW24286   3.245   3.730   0.091
 7796SOL    HW124287   3.336   3.771   0.082
 7796SOL    HW224288   3.188   3.790   0.147
 7797SOL     OW24289   0.741   6.216   2.931
 7797SOL    HW124290   0.722   6.124   2.895
 7797SOL    HW224291   0.672   6.280   2.897
 7798SOL     OW24292   1.139   3.335   0.753
 7798SOL    HW124293   1.052   3.301   0.718
 7798SOL    HW224294   1.127   3.427   0.789
 7799SOL     OW24295   2.669   6.289   3.412
 7799SOL    HW124296   2.754   6.236   3.416
 7799SOL    HW224297   2.670   6.359   3.484
 7800SOL     OW24298   0.187   6.670   2.106
 7800SOL    HW124299   0.217   6.651   2.200
 7800SOL    HW224300   0.229   6.755   2.074
 7801SOL     OW24301   1.861   1.686   1.688
 7801SOL    HW124302   1.870   1.636   1.775
 7801SOL    HW224303   1.854   1.784   1.707
 7802SOL     OW24304   6.684   3.781   4.449
 7802SOL    HW124305   6.705   3.862   4.504
 7802SOL    HW224306   6.736   3.784   4.363
 7803SOL     OW24307   3.369   2.715   5.527
 7803SOL    HW124308   3.323   2.696   5.613
 7803SOL    HW224309   3.379   2.629   5.475
 7804SOL     OW24310   3.326   1.843   5.184
 7804SOL    HW124311   3.322   1.926   5.129
 7804SOL    HW224312   3.379   1.773   5.134
 7805SOL     OW24313   4.590   3.508   0.506
 7805SOL    HW124314   4.667   3.480   0.448
 7805SOL    HW224315   4.587   3.450   0.588
 7806SOL     OW24316   6.378   1.314   5.815
 7806SOL    HW124317   6.383   1.256   5.733
 7806SOL    HW224318   6.470   1.336   5.847
 7807SOL     OW24319   1.675   4.845   6.114
 7807SOL    HW124320   1.671   4.938   6.151
 7807SOL    HW224321   1.583   4.804   6.117
 7808SOL     OW24322   6.035   3.764   2.658
 7808SOL    HW124323   5.989   3.682   2.625
 7808SOL    HW224324   5.967   3.835   2.677
 7809SOL     OW24325   4.827   5.375   2.401
 7809SOL    HW124326   4.792   5.283   2.383
 7809SOL    HW224327   4.752   5.441   2.392
 7810SOL     OW24328   3.347   6.609   6.272
 7810SOL    HW124329   3.373   6.676   6.203
 7810SOL    HW224330   3.325   6.522   6.228
 7811SOL     OW24331   1.935   6.085   2.848
 7811SOL    HW124332   1.864   6.078   2.917
 7811SOL    HW224333   1.944   5.997   2.801
 7812SOL     OW24334   3.343   1.793   6.276
 7812SOL    HW124335   3.247   1.777   6.296
 7812SOL    HW224336   3.368   1.887   6.301
 7813SOL     OW24337   5.615   0.187   0.588
 7813SOL    HW124338   5.533   0.200   0.534
 7813SOL    HW224339   5.641   0.274   0.632
 7814SOL     OW24340   6.867   2.786   1.749
 7814SOL    HW124341   6.802   2.713   1.729
 7814SOL    HW224342   6.879   2.794   1.848
 7815SOL     OW24343   5.557   4.041   5.517
 7815SOL    HW124344   5.466   4.005   5.495
 7815SOL    HW224345   5.570   4.130   5.474
 7816SOL     OW24346   0.737   0.903   5.593
 7816SOL    HW124347   0.647   0.882   5.630
 7816SOL    HW224348   0.766   0.993   5.624
 7817SOL     OW24349   3.247   2.765   6.882
 7817SOL    HW124350   3.222   2.860   6.902
 7817SOL    HW224351   3.339   2.763   6.844
 7818SOL     OW24352   5.721   0.196   4.186
 7818SOL    HW124353   5.746   0.293   4.184
 7818SOL    HW224354   5.632   0.185   4.231
 7819SOL     OW24355   1.094   3.326   4.346
 7819SOL    HW124356   1.087   3.284   4.256
 7819SOL    HW224357   1.190   3.335   4.372
 7820SOL     OW24358   1.140   6.584   5.419
 7820SOL    HW124359   1.214   6.554   5.359
 7820SOL    HW224360   1.123   6.682   5.405
 7821SOL     OW24361   4.622   6.637   0.126
 7821SOL    HW124362   4.630   6.554   0.181
 7821SOL    HW224363   4.618   6.612   0.029
 7822SOL     OW24364   0.617   1.409   5.049
 7822SOL    HW124365   0.615   1.311   5.069
 7822SOL    HW224366   0.523   1.442   5.036
 7823SOL     OW24367   2.412   3.438   5.420
 7823SOL    HW124368   2.315   3.414   5.417
 7823SOL    HW224369   2.466   3.360   5.389
 7824SOL     OW24370   5.301   3.060   3.018
 7824SOL    HW124371   5.232   3.113   3.067
 7824SOL    HW224372   5.268   2.966   3.005
 7825SOL     OW24373   3.773   3.617   2.308
 7825SOL    HW124374   3.849   3.631   2.245
 7825SOL    HW224375   3.711   3.695   2.304
 7826SOL     OW24376   6.364   6.878   1.508
 7826SOL    HW124377   6.329   6.839   1.423
 7826SOL    HW224378   6.309   6.845   1.585
 7827SOL     OW24379   4.741   4.015   0.512
 7827SOL    HW124380   4.789   3.952   0.451
 7827SOL    HW224381   4.643   4.007   0.497
 7828SOL     OW24382   0.796   5.837   0.647
 7828SOL    HW124383   0.842   5.754   0.615
 7828SOL    HW224384   0.707   5.844   0.601
 7829SOL     OW24385   4.046   3.196   2.493
 7829SOL    HW124386   4.001   3.285   2.494
 7829SOL    HW224387   4.083   3.177   2.584
 7830SOL     OW24388   5.877   2.956   7.006
 7830SOL    HW124389   5.813   2.888   0.018
 7830SOL    HW224390   5.954   2.909   6.962
 7831SOL     OW24391   1.598   2.559   6.706
 7831SOL    HW124392   1.662   2.624   6.663
 7831SOL    HW224393   1.606   2.471   6.660
 7832SOL     OW24394   2.825   2.668   5.648
 7832SOL    HW124395   2.791   2.603   5.717
 7832SOL    HW224396   2.910   2.709   5.680
 7833SOL     OW24397   1.447   0.020   0.565
 7833SOL    HW124398   1.359   0.032   0.519
 7833SOL    HW224399   1.492   0.109   0.575
 7834SOL     OW24400   0.432   0.377   1.704
 7834SOL    HW124401   0.398   0.420   1.621
 7834SOL    HW224402   0.356   0.332   1.752
 7835SOL     OW24403   2.122   2.462   4.880
 7835SOL    HW124404   2.133   2.456   4.781
 7835SOL    HW224405   2.210   2.454   4.925
 7836SOL     OW24406   2.196   0.470   6.906
 7836SOL    HW124407   2.193   0.475   6.806
 7836SOL    HW224408   2.146   0.390   6.937
 7837SOL     OW24409   5.951   0.151   3.435
 7837SOL    HW124410   6.034   0.101   3.460
 7837SOL    HW224411   5.966   0.249   3.449
 7838SOL     OW24412   3.515   6.722   3.652
 7838SOL    HW124413   3.500   6.706   3.749
 7838SOL    HW224414   3.498   6.818   3.630
 7839SOL     OW24415   6.854   5.219   4.450
 7839SOL    HW124416   6.854   5.240   4.547
 7839SOL    HW224417   6.944   5.237   4.412
 7840SOL     OW24418   5.216   3.265   6.125
 7840SOL    HW124419   5.292   3.227   6.072
 7840SOL    HW224420   5.234   3.252   6.222
 7841SOL     OW24421   1.165   1.903   6.456
 7841SOL    HW124422   1.234   1.859   6.514
 7841SOL    HW224423   1.191   1.893   6.360
 7842SOL     OW24424   2.852   1.326   2.394
 7842SOL    HW124425   2.887   1.401   2.339
 7842SOL    HW224426   2.887   1.239   2.358
 7843SOL     OW24427   6.257   3.842   1.354
 7843SOL    HW124428   6.304   3.922   1.391
 7843SOL    HW224429   6.159   3.859   1.351
 7844SOL     OW24430   4.234   1.413   4.364
 7844SOL    HW124431   4.309   1.365   4.411
 7844SOL    HW224432   4.190   1.350   4.301
 7845SOL     OW24433   0.736   1.045   4.037
 7845SOL    HW124434   0.835   1.056   4.047
 7845SOL    HW224435   0.700   1.122   3.983
 7846SOL     OW24436   3.947   0.243   2.072
 7846SOL    HW124437   4.014   0.237   2.145
 7846SOL    HW224438   3.866   0.190   2.097
 7847SOL     OW24439   6.832   0.662   0.265
 7847SOL    HW124440   6.906   0.707   0.315
 7847SOL    HW224441   6.744   0.692   0.302
 7848SOL     OW24442   4.640   4.392   0.613
 7848SOL    HW124443   4.609   4.306   0.653
 7848SOL    HW224444   4.717   4.374   0.551
 7849SOL     OW24445   5.632   4.261   5.381
 7849SOL    HW124446   5.693   4.244   5.303
 7849SOL    HW224447   5.680   4.318   5.449
 7850SOL     OW24448   0.896   0.802   4.274
 7850SOL    HW124449   0.911   0.900   4.281
 7850SOL    HW224450   0.806   0.779   4.312
 7851SOL     OW24451   4.992   6.633   0.279
 7851SOL    HW124452   4.966   6.715   0.330
 7851SOL    HW224453   4.968   6.552   0.332
 7852SOL     OW24454   2.557   6.384   6.323
 7852SOL    HW124455   2.607   6.307   6.284
 7852SOL    HW224456   2.556   6.376   6.423
 7853SOL     OW24457   2.376   2.745   0.653
 7853SOL    HW124458   2.406   2.708   0.741
 7853SOL    HW224459   2.359   2.843   0.662
 7854SOL     OW24460   3.526   4.055   2.751
 7854SOL    HW124461   3.606   4.038   2.808
 7854SOL    HW224462   3.460   4.110   2.801
 7855SOL     OW24463   3.528   0.010   5.785
 7855SOL    HW124464   3.492   0.103   5.787
 7855SOL    HW224465   3.477   6.976   5.850
 7856SOL     OW24466   4.886   3.231   6.210
 7856SOL    HW124467   4.877   3.134   6.186
 7856SOL    HW224468   4.921   3.240   6.303
 7857SOL     OW24469   0.392   1.861   4.701
 7857SOL    HW124470   0.327   1.825   4.635
 7857SOL    HW224471   0.475   1.890   4.654
 7858SOL     OW24472   6.142   4.246   3.643
 7858SOL    HW124473   6.044   4.267   3.648
 7858SOL    HW224474   6.174   4.261   3.549
 7859SOL     OW24475   0.852   5.670   6.820
 7859SOL    HW124476   0.897   5.670   6.909
 7859SOL    HW224477   0.919   5.651   6.749
 7860SOL     OW24478   3.392   0.375   2.083
 7860SOL    HW124479   3.446   0.346   2.161
 7860SOL    HW224480   3.321   0.308   2.064
 7861SOL     OW24481   5.504   3.954   0.584
 7861SOL    HW124482   5.584   3.920   0.633
 7861SOL    HW224483   5.432   3.885   0.585
 7862SOL     OW24484   3.215   4.516   1.652
 7862SOL    HW124485   3.231   4.588   1.719
 7862SOL    HW224486   3.140   4.543   1.592
 7863SOL     OW24487   6.953   6.243   1.980
 7863SOL    HW124488   6.887   6.238   2.055
 7863SOL    HW224489   0.009   6.298   2.009
 7864SOL     OW24490   0.745   5.201   4.216
 7864SOL    HW124491   0.740   5.101   4.213
 7864SOL    HW224492   0.725   5.232   4.309
 7865SOL     OW24493   2.877   0.684   2.391
 7865SOL    HW124494   2.970   0.686   2.428
 7865SOL    HW224495   2.812   0.667   2.466
 7866SOL     OW24496   2.435   2.594   4.319
 7866SOL    HW124497   2.395   2.632   4.403
 7866SOL    HW224498   2.526   2.559   4.339
 7867SOL     OW24499   5.475   4.814   2.720
 7867SOL    HW124500   5.440   4.896   2.676
 7867SOL    HW224501   5.573   4.807   2.706
 7868SOL     OW24502   5.501   0.263   0.901
 7868SOL    HW124503   5.498   0.293   0.996
 7868SOL    HW224504   5.549   0.175   0.896
 7869SOL     OW24505   0.640   2.790   2.633
 7869SOL    HW124506   0.557   2.833   2.596
 7869SOL    HW224507   0.682   2.851   2.700
 7870SOL     OW24508   0.051   6.434   3.356
 7870SOL    HW124509   0.109   6.515   3.343
 7870SOL    HW224510   0.092   6.376   3.427
 7871SOL     OW24511   5.130   3.359   3.829
 7871SOL    HW124512   5.151   3.457   3.832
 7871SOL    HW224513   5.202   3.311   3.779
 7872SOL     OW24514   6.464   2.929   3.905
 7872SOL    HW124515   6.494   3.025   3.910
 7872SOL    HW224516   6.516   2.882   3.833
 7873SOL     OW24517   6.916   5.210   5.207
 7873SOL    HW124518   6.971   5.150   5.265
 7873SOL    HW224519   6.819   5.188   5.217
 7874SOL     OW24520   6.053   0.623   0.487
 7874SOL    HW124521   6.057   0.615   0.387
 7874SOL    HW224522   6.065   0.719   0.513
 7875SOL     OW24523   4.468   3.474   6.864
 7875SOL    HW124524   4.383   3.492   6.913
 7875SOL    HW224525   4.472   3.531   6.783
 7876SOL     OW24526   6.758   0.031   4.108
 7876SOL    HW124527   6.703   0.006   4.188
 7876SOL    HW224528   6.855   0.026   4.132
 7877SOL     OW24529   6.861   2.164   1.749
 7877SOL    HW124530   6.910   2.162   1.837
 7877SOL    HW224531   6.786   2.098   1.751
 7878SOL     OW24532   4.598   4.256   1.674
 7878SOL    HW124533   4.530   4.257   1.747
 7878SOL    HW224534   4.686   4.285   1.709
 7879SOL     OW24535   5.348   0.555   4.930
 7879SOL    HW124536   5.375   0.537   5.024
 7879SOL    HW224537   5.249   0.563   4.925
 7880SOL     OW24538   1.158   6.608   6.386
 7880SOL    HW124539   1.074   6.593   6.333
 7880SOL    HW224540   1.231   6.637   6.325
 7881SOL     OW24541   0.473   5.244   3.861
 7881SOL    HW124542   0.461   5.248   3.762
 7881SOL    HW224543   0.551   5.185   3.883
 7882SOL     OW24544   0.301   3.895   2.466
 7882SOL    HW124545   0.380   3.877   2.406
 7882SOL    HW224546   0.221   3.913   2.410
 7883SOL     OW24547   3.547   1.421   4.369
 7883SOL    HW124548   3.478   1.421   4.442
 7883SOL    HW224549   3.517   1.360   4.296
 7884SOL     OW24550   0.725   3.419   4.496
 7884SOL    HW124551   0.766   3.453   4.412
 7884SOL    HW224552   0.737   3.487   4.569
 7885SOL     OW24553   5.888   5.413   3.849
 7885SOL    HW124554   5.972   5.467   3.844
 7885SOL    HW224555   5.900   5.329   3.797
 7886SOL     OW24556   4.891   3.518   3.656
 7886SOL    HW124557   4.836   3.578   3.598
 7886SOL    HW224558   4.986   3.549   3.656
 7887SOL     OW24559   2.278   3.011   0.640
 7887SOL    HW124560   2.239   3.077   0.576
 7887SOL    HW224561   2.242   3.028   0.732
 7888SOL     OW24562   6.243   2.180   4.574
 7888SOL    HW124563   6.225   2.085   4.600
 7888SOL    HW224564   6.290   2.226   4.649
 7889SOL     OW24565   5.376   5.032   0.351
 7889SOL    HW124566   5.452   5.081   0.309
 7889SOL    HW224567   5.326   4.981   0.281
 7890SOL     OW24568   1.595   3.652   4.283
 7890SOL    HW124569   1.544   3.695   4.209
 7890SOL    HW224570   1.654   3.720   4.327
 7891SOL     OW24571   6.983   1.895   4.173
 7891SOL    HW124572   0.008   1.860   4.092
 7891SOL    HW224573   7.017   1.849   4.255
 7892SOL     OW24574   0.175   1.568   5.693
 7892SOL    HW124575   0.259   1.583   5.641
 7892SOL    HW224576   0.132   1.656   5.712
 7893SOL     OW24577   6.143   6.940   0.699
 7893SOL    HW124578   6.050   6.912   0.722
 7893SOL    HW224579   6.202   6.929   0.779
 7894SOL     OW24580   3.610   1.374   6.354
 7894SOL    HW124581   3.627   1.434   6.432
 7894SOL    HW224582   3.518   1.392   6.318
 7895SOL     OW24583   5.012   6.439   3.298
 7895SOL    HW124584   5.016   6.419   3.200
 7895SOL    HW224585   4.964   6.365   3.345
 7896SOL     OW24586   2.734   2.912   1.132
 7896SOL    HW124587   2.734   2.876   1.038
 7896SOL    HW224588   2.640   2.927   1.162
 7897SOL     OW24589   3.272   3.376   0.390
 7897SOL    HW124590   3.301   3.319   0.314
 7897SOL    HW224591   3.303   3.335   0.476
 7898SOL     OW24592   5.933   6.752   3.403
 7898SOL    HW124593   5.914   6.694   3.324
 7898SOL    HW224594   5.923   6.848   3.376
 7899SOL     OW24595   6.041   5.102   3.431
 7899SOL    HW124596   6.006   5.047   3.356
 7899SOL    HW224597   6.044   5.198   3.403
 7900SOL     OW24598   0.654   4.345   1.572
 7900SOL    HW124599   0.695   4.416   1.514
 7900SOL    HW224600   0.694   4.351   1.663
 7901SOL     OW24601   6.630   1.033   6.501
 7901SOL    HW124602   6.625   0.996   6.594
 7901SOL    HW224603   6.538   1.062   6.472
 7902SOL     OW24604   0.885   6.466   2.431
 7902SOL    HW124605   0.964   6.520   2.458
 7902SOL    HW224606   0.831   6.516   2.363
 7903SOL     OW24607   2.924   2.255   4.872
 7903SOL    HW124608   3.008   2.257   4.926
 7903SOL    HW224609   2.848   2.228   4.930
 7904SOL     OW24610   5.060   0.999   1.994
 7904SOL    HW124611   4.969   0.973   1.961
 7904SOL    HW224612   5.063   1.098   2.006
 7905SOL     OW24613   5.729   0.988   1.548
 7905SOL    HW124614   5.668   0.993   1.627
 7905SOL    HW224615   5.737   0.893   1.518
 7906SOL     OW24616   1.827   5.306   0.609
 7906SOL    HW124617   1.730   5.292   0.589
 7906SOL    HW224618   1.871   5.351   0.531
 7907SOL     OW24619   6.726   0.115   2.944
 7907SOL    HW124620   6.735   0.210   2.914
 7907SOL    HW224621   6.650   0.108   3.009
 7908SOL     OW24622   0.775   0.289   6.534
 7908SOL    HW124623   0.703   0.267   6.468
 7908SOL    HW224624   0.762   0.234   6.617
 7909SOL     OW24625   5.924   4.536   2.009
 7909SOL    HW124626   5.860   4.471   1.968
 7909SOL    HW224627   5.998   4.486   2.054
 7910SOL     OW24628   1.096   3.691   0.159
 7910SOL    HW124629   1.165   3.764   0.162
 7910SOL    HW224630   1.138   3.607   0.126
 7911SOL     OW24631   0.666   4.097   6.897
 7911SOL    HW124632   0.572   4.072   6.920
 7911SOL    HW224633   0.723   4.015   6.893
 7912SOL     OW24634   5.812   5.428   0.502
 7912SOL    HW124635   5.723   5.432   0.455
 7912SOL    HW224636   5.819   5.342   0.552
 7913SOL     OW24637   0.860   4.498   1.119
 7913SOL    HW124638   0.838   4.525   1.212
 7913SOL    HW224639   0.790   4.434   1.086
 7914SOL     OW24640   6.651   6.095   4.959
 7914SOL    HW124641   6.598   6.160   4.905
 7914SOL    HW224642   6.728   6.061   4.905
 7915SOL     OW24643   3.984   6.180   2.653
 7915SOL    HW124644   3.985   6.080   2.659
 7915SOL    HW224645   4.028   6.208   2.568
 7916SOL     OW24646   1.476   0.171   4.517
 7916SOL    HW124647   1.439   0.163   4.610
 7916SOL    HW224648   1.433   0.102   4.458
 7917SOL     OW24649   4.132   3.724   0.887
 7917SOL    HW124650   4.136   3.641   0.943
 7917SOL    HW224651   4.223   3.743   0.849
 7918SOL     OW24652   1.997   1.661   4.415
 7918SOL    HW124653   1.969   1.756   4.400
 7918SOL    HW224654   1.979   1.636   4.510
 7919SOL     OW24655   2.124   6.266   4.221
 7919SOL    HW124656   2.150   6.225   4.309
 7919SOL    HW224657   2.180   6.226   4.148
 7920SOL     OW24658   5.018   0.248   0.807
 7920SOL    HW124659   5.116   0.225   0.805
 7920SOL    HW224660   5.002   0.330   0.752
 7921SOL     OW24661   5.320   2.299   1.164
 7921SOL    HW124662   5.377   2.251   1.097
 7921SOL    HW224663   5.280   2.380   1.121
 7922SOL     OW24664   1.390   5.756   1.119
 7922SOL    HW124665   1.427   5.665   1.142
 7922SOL    HW224666   1.328   5.748   1.041
 7923SOL     OW24667   5.043   1.367   0.324
 7923SOL    HW124668   5.049   1.406   0.416
 7923SOL    HW224669   4.973   1.295   0.323
 7924SOL     OW24670   6.172   6.155   0.674
 7924SOL    HW124671   6.128   6.092   0.610
 7924SOL    HW224672   6.119   6.158   0.759
 7925SOL     OW24673   1.612   6.269   6.676
 7925SOL    HW124674   1.619   6.369   6.683
 7925SOL    HW224675   1.519   6.244   6.652
 7926SOL     OW24676   4.562   5.396   0.146
 7926SOL    HW124677   4.483   5.397   0.084
 7926SOL    HW224678   4.589   5.490   0.166
 7927SOL     OW24679   4.446   0.047   2.952
 7927SOL    HW124680   4.494   0.128   2.918
 7927SOL    HW224681   4.381   0.074   3.024
 7928SOL     OW24682   6.862   2.099   3.538
 7928SOL    HW124683   6.865   2.184   3.485
 7928SOL    HW224684   6.798   2.109   3.614
 7929SOL     OW24685   4.075   4.307   6.325
 7929SOL    HW124686   4.152   4.249   6.299
 7929SOL    HW224687   4.102   4.403   6.321
 7930SOL     OW24688   4.453   6.168   5.799
 7930SOL    HW124689   4.374   6.204   5.749
 7930SOL    HW224690   4.490   6.088   5.752
 7931SOL     OW24691   3.786   2.320   0.753
 7931SOL    HW124692   3.839   2.267   0.687
 7931SOL    HW224693   3.829   2.314   0.843
 7932SOL     OW24694   1.555   4.475   2.472
 7932SOL    HW124695   1.475   4.426   2.436
 7932SOL    HW224696   1.635   4.415   2.468
 7933SOL     OW24697   0.472   1.163   6.630
 7933SOL    HW124698   0.566   1.178   6.601
 7933SOL    HW224699   0.441   1.074   6.597
 7934SOL     OW24700   0.976   4.901   1.482
 7934SOL    HW124701   0.937   4.876   1.570
 7934SOL    HW224702   1.018   4.991   1.488
 7935SOL     OW24703   4.915   3.030   3.879
 7935SOL    HW124704   4.859   3.051   3.959
 7935SOL    HW224705   4.914   3.108   3.817
 7936SOL     OW24706   3.530   6.062   3.552
 7936SOL    HW124707   3.619   6.080   3.510
 7936SOL    HW224708   3.542   6.050   3.651
 7937SOL     OW24709   3.834   0.950   6.810
 7937SOL    HW124710   3.743   0.921   6.781
 7937SOL    HW224711   3.878   1.000   6.735
 7938SOL     OW24712   3.435   6.751   4.323
 7938SOL    HW124713   3.361   6.768   4.259
 7938SOL    HW224714   3.513   6.713   4.274
 7939SOL     OW24715   0.526   1.524   4.151
 7939SOL    HW124716   0.598   1.568   4.205
 7939SOL    HW224717   0.556   1.433   4.124
 7940SOL     OW24718   5.454   1.275   3.322
 7940SOL    HW124719   5.364   1.264   3.366
 7940SOL    HW224720   5.454   1.359   3.268
 7941SOL     OW24721   3.436   6.935   1.545
 7941SOL    HW124722   3.506   6.886   1.597
 7941SOL    HW224723   3.407   6.880   1.467
 7942SOL     OW24724   1.039   4.838   1.135
 7942SOL    HW124725   0.970   4.791   1.190
 7942SOL    HW224726   1.063   4.782   1.056
 7943SOL     OW24727   1.604   5.800   6.260
 7943SOL    HW124728   1.666   5.736   6.215
 7943SOL    HW224729   1.511   5.788   6.223
 7944SOL     OW24730   1.341   2.344   0.995
 7944SOL    HW124731   1.316   2.439   1.016
 7944SOL    HW224732   1.413   2.314   1.058
 7945SOL     OW24733   6.092   4.352   2.958
 7945SOL    HW124734   6.096   4.449   2.982
 7945SOL    HW224735   5.997   4.325   2.945
 7946SOL     OW24736   3.436   1.674   6.038
 7946SOL    HW124737   3.398   1.724   6.115
 7946SOL    HW224738   3.485   1.737   5.977
 7947SOL     OW24739   0.558   3.540   5.997
 7947SOL    HW124740   0.571   3.459   6.053
 7947SOL    HW224741   0.647   3.571   5.963
 7948SOL     OW24742   1.323   4.563   2.620
 7948SOL    HW124743   1.252   4.524   2.561
 7948SOL    HW224744   1.413   4.535   2.587
 7949SOL     OW24745   3.982   6.711   6.006
 7949SOL    HW124746   3.909   6.773   6.033
 7949SOL    HW224747   3.945   6.619   5.992
 7950SOL     OW24748   5.772   4.410   5.543
 7950SOL    HW124749   5.774   4.510   5.536
 7950SOL    HW224750   5.825   4.382   5.623
 7951SOL     OW24751   3.475   6.352   2.578
 7951SOL    HW124752   3.452   6.370   2.483
 7951SOL    HW224753   3.573   6.335   2.586
 7952SOL     OW24754   5.913   3.864   6.748
 7952SOL    HW124755   5.871   3.954   6.741
 7952SOL    HW224756   5.991   3.859   6.686
 7953SOL     OW24757   3.219   0.893   0.991
 7953SOL    HW124758   3.153   0.902   0.917
 7953SOL    HW224759   3.311   0.902   0.955
 7954SOL     OW24760   3.888   3.554   6.500
 7954SOL    HW124761   3.959   3.609   6.544
 7954SOL    HW224762   3.801   3.603   6.503
 7955SOL     OW24763   1.360   1.828   6.886
 7955SOL    HW124764   1.449   1.797   6.919
 7955SOL    HW224765   1.309   1.870   6.961
 7956SOL     OW24766   6.509   6.078   0.138
 7956SOL    HW124767   6.592   6.133   0.151
 7956SOL    HW224768   6.436   6.114   0.197
 7957SOL     OW24769   4.616   0.913   5.680
 7957SOL    HW124770   4.532   0.914   5.734
 7957SOL    HW224771   4.628   0.823   5.638
 7958SOL     OW24772   5.874   2.533   0.057
 7958SOL    HW124773   5.813   2.612   0.062
 7958SOL    HW224774   5.836   2.465   7.017
 7959SOL     OW24775   5.578   1.450   6.114
 7959SOL    HW124776   5.665   1.408   6.087
 7959SOL    HW224777   5.595   1.540   6.153
 7960SOL     OW24778   0.251   1.092   5.863
 7960SOL    HW124779   0.184   1.120   5.795
 7960SOL    HW224780   0.341   1.086   5.820
 7961SOL     OW24781   6.675   6.525   0.293
 7961SOL    HW124782   6.602   6.488   0.350
 7961SOL    HW224783   6.683   6.623   0.309
 7962SOL     OW24784   5.650   6.839   5.963
 7962SOL    HW124785   5.680   6.792   5.880
 7962SOL    HW224786   5.554   6.816   5.981
 7963SOL     OW24787   0.222   6.344   4.307
 7963SOL    HW124788   0.317   6.366   4.286
 7963SOL    HW224789   0.203   6.363   4.403
 7964SOL     OW24790   6.835   4.339   1.919
 7964SOL    HW124791   6.800   4.424   1.879
 7964SOL    HW224792   6.935   4.342   1.922
 7965SOL     OW24793   3.092   2.500   6.456
 7965SOL    HW124794   3.154   2.577   6.473
 7965SOL    HW224795   3.073   2.494   6.358
 7966SOL     OW24796   4.986   3.634   4.905
 7966SOL    HW124797   4.969   3.595   4.815
 7966SOL    HW224798   4.904   3.624   4.962
 7967SOL     OW24799   1.637   4.586   1.864
 7967SOL    HW124800   1.585   4.543   1.790
 7967SOL    HW224801   1.648   4.521   1.939
 7968SOL     OW24802   0.185   2.815   5.012
 7968SOL    HW124803   0.276   2.810   4.972
 7968SOL    HW224804   0.131   2.736   4.984
 7969SOL     OW24805   4.684   4.909   0.012
 7969SOL    HW124806   4.645   4.925   6.944
 7969SOL    HW224807   4.683   4.995   0.064
 7970SOL     OW24808   5.964   2.834   2.477
 7970SOL    HW124809   5.883   2.866   2.526
 7970SOL    HW224810   5.950   2.844   2.379
 7971SOL     OW24811   3.225   0.967   0.445
 7971SOL    HW124812   3.150   0.918   0.400
 7971SOL    HW224813   3.264   1.035   0.383
 7972SOL     OW24814   3.998   3.656   3.497
 7972SOL    HW124815   3.924   3.593   3.473
 7972SOL    HW224816   3.990   3.739   3.442
 7973SOL     OW24817   6.362   3.875   2.283
 7973SOL    HW124818   6.330   3.888   2.377
 7973SOL    HW224819   6.420   3.794   2.279
 7974SOL     OW24820   6.698   2.270   6.505
 7974SOL    HW124821   6.690   2.260   6.604
 7974SOL    HW224822   6.718   2.365   6.482
 7975SOL     OW24823   5.509   0.545   1.414
 7975SOL    HW124824   5.445   0.490   1.468
 7975SOL    HW224825   5.458   0.600   1.348
 7976SOL     OW24826   0.956   0.267   0.694
 7976SOL    HW124827   0.940   0.297   0.788
 7976SOL    HW224828   1.031   0.320   0.654
 7977SOL     OW24829   5.651   5.569   3.375
 7977SOL    HW124830   5.555   5.598   3.368
 7977SOL    HW224831   5.667   5.529   3.465
 7978SOL     OW24832   0.227   4.495   1.754
 7978SOL    HW124833   0.264   4.474   1.663
 7978SOL    HW224834   0.287   4.560   1.800
 7979SOL     OW24835   1.676   2.401   4.356
 7979SOL    HW124836   1.719   2.315   4.328
 7979SOL    HW224837   1.592   2.381   4.407
 7980SOL     OW24838   4.065   5.599   0.152
 7980SOL    HW124839   4.158   5.630   0.168
 7980SOL    HW224840   4.049   5.593   0.053
 7981SOL     OW24841   1.600   4.743   3.114
 7981SOL    HW124842   1.672   4.774   3.176
 7981SOL    HW224843   1.511   4.754   3.159
 7982SOL     OW24844   6.476   2.144   5.673
 7982SOL    HW124845   6.507   2.163   5.580
 7982SOL    HW224846   6.393   2.087   5.670
 7983SOL     OW24847   5.191   1.152   1.751
 7983SOL    HW124848   5.169   1.132   1.847
 7983SOL    HW224849   5.183   1.250   1.735
 7984SOL     OW24850   1.011   1.971   3.226
 7984SOL    HW124851   0.941   1.904   3.250
 7984SOL    HW224852   0.983   2.061   3.259
 7985SOL     OW24853   2.596   2.805   5.633
 7985SOL    HW124854   2.564   2.828   5.542
 7985SOL    HW224855   2.670   2.738   5.627
 7986SOL     OW24856   3.064   1.176   3.976
 7986SOL    HW124857   3.060   1.176   3.876
 7986SOL    HW224858   3.066   1.271   4.009
 7987SOL     OW24859   1.259   3.499   0.024
 7987SOL    HW124860   1.251   3.431   6.974
 7987SOL    HW224861   1.269   3.453   0.112
 7988SOL     OW24862   6.840   1.623   1.289
 7988SOL    HW124863   6.805   1.546   1.343
 7988SOL    HW224864   6.903   1.676   1.345
 7989SOL     OW24865   0.147   4.559   0.523
 7989SOL    HW124866   0.162   4.606   0.609
 7989SOL    HW224867   0.066   4.596   0.478
 7990SOL     OW24868   3.696   5.547   5.597
 7990SOL    HW124869   3.766   5.515   5.661
 7990SOL    HW224870   3.612   5.495   5.611
 7991SOL     OW24871   6.042   1.400   4.830
 7991SOL    HW124872   6.050   1.477   4.893
 7991SOL    HW224873   6.111   1.331   4.852
 7992SOL     OW24874   2.598   6.856   6.857
 7992SOL    HW124875   2.589   6.955   6.845
 7992SOL    HW224876   2.510   6.817   6.884
 7993SOL     OW24877   6.645   5.932   1.442
 7993SOL    HW124878   6.684   5.996   1.509
 7993SOL    HW224879   6.628   5.845   1.487
 7994SOL     OW24880   5.510   0.227   3.817
 7994SOL    HW124881   5.574   0.152   3.802
 7994SOL    HW224882   5.459   0.212   3.902
 7995SOL     OW24883   0.407   4.630   1.322
 7995SOL    HW124884   0.421   4.642   1.223
 7995SOL    HW224885   0.394   4.720   1.365
 7996SOL     OW24886   2.817   1.017   3.045
 7996SOL    HW124887   2.904   0.975   3.020
 7996SOL    HW224888   2.768   1.045   2.962
 7997SOL     OW24889   1.258   1.562   6.554
 7997SOL    HW124890   1.291   1.653   6.579
 7997SOL    HW224891   1.299   1.533   6.467
 7998SOL     OW24892   2.530   0.991   0.565
 7998SOL    HW124893   2.455   0.927   0.577
 7998SOL    HW224894   2.529   1.059   0.639
 7999SOL     OW24895   0.661   0.397   4.482
 7999SOL    HW124896   0.695   0.412   4.389
 7999SOL    HW224897   0.709   0.458   4.544
 8000SOL     OW24898   4.420   5.327   6.692
 8000SOL    HW124899   4.504   5.375   6.719
 8000SOL    HW224900   4.418   5.237   6.735
 8001SOL     OW24901   4.498   6.458   1.266
 8001SOL    HW124902   4.477   6.467   1.168
 8001SOL    HW224903   4.596   6.448   1.278
 8002SOL     OW24904   0.662   0.304   5.347
 8002SOL    HW124905   0.706   0.288   5.258
 8002SOL    HW224906   0.604   0.226   5.370
 8003SOL     OW24907   1.952   5.398   2.365
 8003SOL    HW124908   1.988   5.437   2.281
 8003SOL    HW224909   1.994   5.308   2.381
 8004SOL     OW24910   1.400   3.411   3.631
 8004SOL    HW124911   1.474   3.435   3.568
 8004SOL    HW224912   1.316   3.393   3.579
 8005SOL     OW24913   2.086   0.257   3.375
 8005SOL    HW124914   2.129   0.329   3.321
 8005SOL    HW224915   2.156   0.190   3.403
 8006SOL     OW24916   3.739   4.843   5.216
 8006SOL    HW124917   3.737   4.744   5.230
 8006SOL    HW224918   3.766   4.863   5.122
 8007SOL     OW24919   6.179   0.391   6.450
 8007SOL    HW124920   6.278   0.391   6.439
 8007SOL    HW224921   6.156   0.365   6.544
 8008SOL     OW24922   5.675   6.500   0.003
 8008SOL    HW124923   5.670   6.544   0.093
 8008SOL    HW224924   5.656   6.568   6.955
 8009SOL     OW24925   5.119   1.876   6.398
 8009SOL    HW124926   5.056   1.806   6.366
 8009SOL    HW224927   5.124   1.873   6.498
 8010SOL     OW24928   2.818   1.848   5.572
 8010SOL    HW124929   2.837   1.910   5.648
 8010SOL    HW224930   2.751   1.891   5.510
 8011SOL     OW24931   4.309   1.630   2.305
 8011SOL    HW124932   4.359   1.552   2.343
 8011SOL    HW224933   4.371   1.708   2.296
 8012SOL     OW24934   6.944   1.197   5.105
 8012SOL    HW124935   6.875   1.219   5.173
 8012SOL    HW224936   6.902   1.147   5.029
 8013SOL     OW24937   3.348   2.147   2.614
 8013SOL    HW124938   3.432   2.166   2.563
 8013SOL    HW224939   3.270   2.188   2.567
 8014SOL     OW24940   2.098   1.532   2.357
 8014SOL    HW124941   2.105   1.571   2.448
 8014SOL    HW224942   2.184   1.545   2.308
 8015SOL     OW24943   3.363   0.226   5.646
 8015SOL    HW124944   3.294   0.156   5.663
 8015SOL    HW224945   3.406   0.211   5.557
 8016SOL     OW24946   3.569   1.813   4.905
 8016SOL    HW124947   3.581   1.765   4.818
 8016SOL    HW224948   3.640   1.784   4.969
 8017SOL     OW24949   6.172   6.086   1.185
 8017SOL    HW124950   6.142   6.149   1.256
 8017SOL    HW224951   6.266   6.059   1.201
 8018SOL     OW24952   4.414   1.885   6.701
 8018SOL    HW124953   4.323   1.866   6.738
 8018SOL    HW224954   4.428   1.984   6.695
 8019SOL     OW24955   2.439   3.737   1.020
 8019SOL    HW124956   2.483   3.753   0.932
 8019SOL    HW224957   2.455   3.643   1.049
 8020SOL     OW24958   6.904   0.838   5.307
 8020SOL    HW124959   6.997   0.840   5.343
 8020SOL    HW224960   6.904   0.792   5.218
 8021SOL     OW24961   1.826   2.184   1.301
 8021SOL    HW124962   1.818   2.251   1.374
 8021SOL    HW224963   1.897   2.117   1.325
 8022SOL     OW24964   4.957   1.658   2.464
 8022SOL    HW124965   5.024   1.726   2.435
 8022SOL    HW224966   4.917   1.614   2.383
 8023SOL     OW24967   5.068   5.987   2.291
 8023SOL    HW124968   5.096   5.995   2.387
 8023SOL    HW224969   5.095   6.069   2.241
 8024SOL     OW24970   2.087   1.124   6.717
 8024SOL    HW124971   2.054   1.038   6.758
 8024SOL    HW224972   2.032   1.200   6.751
 8025SOL     OW24973   1.254   5.807   1.741
 8025SOL    HW124974   1.297   5.883   1.691
 8025SOL    HW224975   1.171   5.778   1.694
 8026SOL     OW24976   1.071   5.253   6.464
 8026SOL    HW124977   1.002   5.192   6.502
 8026SOL    HW224978   1.119   5.299   6.539
 8027SOL     OW24979   3.439   0.503   6.472
 8027SOL    HW124980   3.519   0.482   6.528
 8027SOL    HW224981   3.391   0.418   6.450
 8028SOL     OW24982   3.068   5.473   5.299
 8028SOL    HW124983   3.161   5.480   5.263
 8028SOL    HW224984   3.065   5.507   5.392
 8029SOL     OW24985   0.017   6.776   0.317
 8029SOL    HW124986   7.005   6.853   0.370
 8029SOL    HW224987   0.013   6.799   0.219
 8030SOL     OW24988   0.819   3.937   0.870
 8030SOL    HW124989   0.745   3.911   0.807
 8030SOL    HW224990   0.804   3.895   0.959
 8031SOL     OW24991   0.446   0.738   3.229
 8031SOL    HW124992   0.532   0.687   3.232
 8031SOL    HW224993   0.454   0.818   3.289
 8032SOL     OW24994   6.068   2.876   1.022
 8032SOL    HW124995   6.099   2.968   1.001
 8032SOL    HW224996   6.110   2.811   0.958
 8033SOL     OW24997   5.274   3.634   0.876
 8033SOL    HW124998   5.272   3.680   0.787
 8033SOL    HW224999   5.188   3.652   0.925
 8034SOL     OW25000   6.217   0.272   5.776
 8034SOL    HW125001   6.208   0.227   5.687
 8034SOL    HW225002   6.197   0.369   5.766
 8035SOL     OW25003   5.684   1.926   2.591
 8035SOL    HW125004   5.650   2.010   2.632
 8035SOL    HW225005   5.783   1.919   2.606
 8036SOL     OW25006   5.863   2.488   3.473
 8036SOL    HW125007   5.881   2.394   3.442
 8036SOL    HW225008   5.782   2.488   3.531
 8037SOL     OW25009   1.474   2.086   5.616
 8037SOL    HW125010   1.486   2.055   5.522
 8037SOL    HW225011   1.378   2.075   5.642
 8038SOL     OW25012   7.003   4.625   2.475
 8038SOL    HW125013   7.013   4.649   2.571
 8038SOL    HW225014   6.996   4.525   2.465
 8039SOL     OW25015   1.317   2.484   5.563
 8039SOL    HW125016   1.406   2.442   5.545
 8039SOL    HW225017   1.328   2.583   5.570
 8040SOL     OW25018   2.293   5.302   6.281
 8040SOL    HW125019   2.251   5.215   6.307
 8040SOL    HW225020   2.327   5.295   6.187
 8041SOL     OW25021   3.895   1.384   3.712
 8041SOL    HW125022   3.802   1.350   3.700
 8041SOL    HW225023   3.905   1.421   3.804
 8042SOL     OW25024   4.327   4.154   5.597
 8042SOL    HW125025   4.331   4.242   5.645
 8042SOL    HW225026   4.369   4.164   5.507
 8043SOL     OW25027   5.347   5.751   6.680
 8043SOL    HW125028   5.256   5.713   6.691
 8043SOL    HW225029   5.377   5.740   6.585
 8044SOL     OW25030   2.777   3.786   1.755
 8044SOL    HW125031   2.696   3.727   1.750
 8044SOL    HW225032   2.839   3.752   1.825
 8045SOL     OW25033   0.281   2.250   3.249
 8045SOL    HW125034   0.264   2.276   3.154
 8045SOL    HW225035   0.208   2.189   3.280
 8046SOL     OW25036   6.904   4.561   2.114
 8046SOL    HW125037   6.981   4.548   2.177
 8046SOL    HW225038   6.923   4.512   2.029
 8047SOL     OW25039   3.796   6.428   6.677
 8047SOL    HW125040   3.841   6.486   6.609
 8047SOL    HW225041   3.865   6.371   6.722
 8048SOL     OW25042   3.720   2.528   6.258
 8048SOL    HW125043   3.776   2.449   6.287
 8048SOL    HW225044   3.760   2.612   6.296
 8049SOL     OW25045   1.328   1.493   0.149
 8049SOL    HW125046   1.287   1.491   0.058
 8049SOL    HW225047   1.414   1.441   0.147
 8050SOL     OW25048   0.341   4.713   5.526
 8050SOL    HW125049   0.300   4.650   5.592
 8050SOL    HW225050   0.286   4.715   5.443
 8051SOL     OW25051   4.116   6.030   3.527
 8051SOL    HW125052   4.142   5.934   3.535
 8051SOL    HW225053   4.172   6.085   3.590
 8052SOL     OW25054   2.552   2.438   2.411
 8052SOL    HW125055   2.606   2.407   2.333
 8052SOL    HW225056   2.592   2.400   2.495
 8053SOL     OW25057   1.871   3.068   6.804
 8053SOL    HW125058   1.866   2.984   6.859
 8053SOL    HW225059   1.843   3.048   6.711
 8054SOL     OW25060   4.872   3.405   5.259
 8054SOL    HW125061   4.812   3.462   5.203
 8054SOL    HW225062   4.868   3.435   5.354
 8055SOL     OW25063   6.063   0.269   6.703
 8055SOL    HW125064   6.143   0.229   6.746
 8055SOL    HW225065   5.993   0.287   6.773
 8056SOL     OW25066   2.241   1.374   5.070
 8056SOL    HW125067   2.235   1.313   4.991
 8056SOL    HW225068   2.252   1.468   5.038
 8057SOL     OW25069   2.846   1.977   2.029
 8057SOL    HW125070   2.939   1.956   2.000
 8057SOL    HW225071   2.809   2.050   1.972
 8058SOL     OW25072   3.560   6.666   2.703
 8058SOL    HW125073   3.563   6.579   2.752
 8058SOL    HW225074   3.477   6.715   2.726
 8059SOL     OW25075   2.524   2.793   6.272
 8059SOL    HW125076   2.477   2.777   6.358
 8059SOL    HW225077   2.590   2.720   6.255
 8060SOL     OW25078   5.990   0.404   5.521
 8060SOL    HW125079   5.943   0.321   5.551
 8060SOL    HW225080   5.959   0.482   5.575
 8061SOL     OW25081   0.309   0.676   2.558
 8061SOL    HW125082   0.308   0.598   2.620
 8061SOL    HW225083   0.258   0.752   2.598
 8062SOL     OW25084   4.326   5.533   5.560
 8062SOL    HW125085   4.339   5.608   5.496
 8062SOL    HW225086   4.307   5.449   5.509
 8063SOL     OW25087   3.389   5.191   3.036
 8063SOL    HW125088   3.483   5.165   3.057
 8063SOL    HW225089   3.354   5.252   3.107
 8064SOL     OW25090   6.268   1.642   0.867
 8064SOL    HW125091   6.363   1.654   0.837
 8064SOL    HW225092   6.266   1.578   0.944
 8065SOL     OW25093   4.053   5.842   6.516
 8065SOL    HW125094   4.015   5.750   6.525
 8065SOL    HW225095   4.066   5.882   6.607
 8066SOL     OW25096   0.235   6.978   5.419
 8066SOL    HW125097   0.257   6.902   5.480
 8066SOL    HW225098   0.154   0.003   5.454
 8067SOL     OW25099   5.371   2.740   3.953
 8067SOL    HW125100   5.466   2.733   3.924
 8067SOL    HW225101   5.352   2.669   4.021
 8068SOL     OW25102   6.031   4.258   1.152
 8068SOL    HW125103   5.991   4.209   1.074
 8068SOL    HW225104   6.069   4.192   1.216
 8069SOL     OW25105   2.682   5.419   2.998
 8069SOL    HW125106   2.725   5.421   3.088
 8069SOL    HW225107   2.606   5.353   2.998
 8070SOL     OW25108   4.178   4.812   0.435
 8070SOL    HW125109   4.124   4.831   0.354
 8070SOL    HW225110   4.149   4.724   0.475
 8071SOL     OW25111   2.587   6.682   5.797
 8071SOL    HW125112   2.592   6.670   5.697
 8071SOL    HW225113   2.562   6.777   5.818
 8072SOL     OW25114   1.062   2.401   5.613
 8072SOL    HW125115   1.040   2.312   5.574
 8072SOL    HW225116   1.161   2.415   5.610
 8073SOL     OW25117   3.842   0.497   6.841
 8073SOL    HW125118   3.873   0.521   6.933
 8073SOL    HW225119   3.921   0.488   6.781
 8074SOL     OW25120   1.282   0.919   6.327
 8074SOL    HW125121   1.266   1.001   6.382
 8074SOL    HW225122   1.370   0.878   6.354
 8075SOL     OW25123   0.226   6.978   0.760
 8075SOL    HW125124   0.197   0.014   0.835
 8075SOL    HW225125   0.260   6.891   0.796
 8076SOL     OW25126   6.672   5.911   0.497
 8076SOL    HW125127   6.748   5.961   0.455
 8076SOL    HW225128   6.705   5.862   0.578
 8077SOL     OW25129   4.741   4.824   0.649
 8077SOL    HW125130   4.651   4.865   0.658
 8077SOL    HW225131   4.810   4.886   0.685
 8078SOL     OW25132   0.789   0.353   2.365
 8078SOL    HW125133   0.840   0.435   2.392
 8078SOL    HW225134   0.836   0.272   2.400
 8079SOL     OW25135   1.201   2.016   5.599
 8079SOL    HW125136   1.109   2.053   5.583
 8079SOL    HW225137   1.195   1.916   5.606
 8080SOL     OW25138   1.513   3.042   3.357
 8080SOL    HW125139   1.577   2.971   3.329
 8080SOL    HW225140   1.458   3.009   3.433
 8081SOL     OW25141   6.417   6.249   4.667
 8081SOL    HW125142   6.485   6.287   4.604
 8081SOL    HW225143   6.335   6.224   4.615
 8082SOL     OW25144   4.045   1.709   2.314
 8082SOL    HW125145   4.131   1.658   2.307
 8082SOL    HW225146   3.969   1.644   2.319
 8083SOL     OW25147   5.739   2.736   5.050
 8083SOL    HW125148   5.834   2.704   5.055
 8083SOL    HW225149   5.688   2.699   5.128
 8084SOL     OW25150   3.741   1.795   5.768
 8084SOL    HW125151   3.730   1.786   5.669
 8084SOL    HW225152   3.725   1.707   5.812
 8085SOL     OW25153   1.605   6.048   4.286
 8085SOL    HW125154   1.688   6.099   4.264
 8085SOL    HW225155   1.534   6.070   4.219
 8086SOL     OW25156   0.021   0.911   2.371
 8086SOL    HW125157   0.098   0.909   2.436
 8086SOL    HW225158   6.996   0.999   2.380
 8087SOL     OW25159   1.390   0.939   0.880
 8087SOL    HW125160   1.304   0.990   0.879
 8087SOL    HW225161   1.449   0.974   0.953
 8088SOL     OW25162   6.328   0.336   4.514
 8088SOL    HW125163   6.234   0.363   4.535
 8088SOL    HW225164   6.378   0.320   4.600
 8089SOL     OW25165   5.665   2.652   6.450
 8089SOL    HW125166   5.681   2.592   6.372
 8089SOL    HW225167   5.594   2.718   6.427
 8090SOL     OW25168   4.284   1.985   5.385
 8090SOL    HW125169   4.226   1.908   5.360
 8090SOL    HW225170   4.227   2.066   5.400
 8091SOL     OW25171   1.782   4.745   4.458
 8091SOL    HW125172   1.799   4.767   4.554
 8091SOL    HW225173   1.751   4.826   4.410
 8092SOL     OW25174   4.872   1.938   5.697
 8092SOL    HW125175   4.807   1.862   5.705
 8092SOL    HW225176   4.900   1.967   5.789
 8093SOL     OW25177   3.928   6.521   2.391
 8093SOL    HW125178   3.929   6.515   2.292
 8093SOL    HW225179   3.984   6.448   2.430
 8094SOL     OW25180   1.797   4.304   3.805
 8094SOL    HW125181   1.796   4.403   3.821
 8094SOL    HW225182   1.867   4.262   3.862
 8095SOL     OW25183   1.318   4.823   5.617
 8095SOL    HW125184   1.298   4.919   5.596
 8095SOL    HW225185   1.244   4.785   5.672
 8096SOL     OW25186   0.785   5.817   1.751
 8096SOL    HW125187   0.714   5.750   1.769
 8096SOL    HW225188   0.745   5.909   1.748
 8097SOL     OW25189   3.698   6.004   5.194
 8097SOL    HW125190   3.758   5.945   5.248
 8097SOL    HW225191   3.607   5.964   5.188
 8098SOL     OW25192   1.460   5.531   5.275
 8098SOL    HW125193   1.414   5.603   5.329
 8098SOL    HW225194   1.435   5.540   5.179
 8099SOL     OW25195   2.464   5.573   3.221
 8099SOL    HW125196   2.427   5.611   3.136
 8099SOL    HW225197   2.453   5.473   3.219
 8100SOL     OW25198   7.013   0.123   0.034
 8100SOL    HW125199   7.007   0.208   0.087
 8100SOL    HW225200   0.045   0.140   6.975
 8101SOL     OW25201   2.044   6.405   1.808
 8101SOL    HW125202   2.084   6.495   1.787
 8101SOL    HW225203   1.982   6.414   1.885
 8102SOL     OW25204   1.730   3.323   5.228
 8102SOL    HW125205   1.679   3.269   5.295
 8102SOL    HW225206   1.735   3.272   5.142
 8103SOL     OW25207   3.509   1.426   1.941
 8103SOL    HW125208   3.559   1.407   2.025
 8103SOL    HW225209   3.548   1.507   1.897
 8104SOL     OW25210   1.844   6.443   0.310
 8104SOL    HW125211   1.858   6.542   0.314
 8104SOL    HW225212   1.829   6.408   0.403
 8105SOL     OW25213   0.248   0.431   2.966
 8105SOL    HW125214   0.264   0.498   3.038
 8105SOL    HW225215   0.302   0.348   2.985
 8106SOL     OW25216   2.489   6.412   5.810
 8106SOL    HW125217   2.491   6.356   5.728
 8106SOL    HW225218   2.507   6.507   5.786
 8107SOL     OW25219   1.879   6.244   6.017
 8107SOL    HW125220   1.846   6.179   6.086
 8107SOL    HW225221   1.847   6.336   6.039
 8108SOL     OW25222   0.445   1.579   6.618
 8108SOL    HW125223   0.396   1.492   6.615
 8108SOL    HW225224   0.418   1.635   6.540
 8109SOL     OW25225   6.534   2.679   0.580
 8109SOL    HW125226   6.489   2.768   0.585
 8109SOL    HW225227   6.465   2.608   0.561
 8110SOL     OW25228   3.926   5.371   1.044
 8110SOL    HW125229   4.021   5.355   1.019
 8110SOL    HW225230   3.877   5.283   1.046
 8111SOL     OW25231   6.342   1.756   2.743
 8111SOL    HW125232   6.252   1.747   2.700
 8111SOL    HW225233   6.358   1.851   2.768
 8112SOL     OW25234   1.224   3.315   5.605
 8112SOL    HW125235   1.240   3.246   5.534
 8112SOL    HW225236   1.223   3.406   5.563
 8113SOL     OW25237   5.649   3.287   6.871
 8113SOL    HW125238   5.628   3.246   6.959
 8113SOL    HW225239   5.565   3.325   6.831
 8114SOL     OW25240   1.947   4.206   1.152
 8114SOL    HW125241   1.885   4.283   1.137
 8114SOL    HW225242   2.017   4.206   1.080
 8115SOL     OW25243   2.185   1.297   6.151
 8115SOL    HW125244   2.128   1.218   6.176
 8115SOL    HW225245   2.165   1.373   6.213
 8116SOL     OW25246   3.370   3.990   1.079
 8116SOL    HW125247   3.358   3.914   1.015
 8116SOL    HW225248   3.329   3.967   1.167
 8117SOL     OW25249   2.912   6.946   2.672
 8117SOL    HW125250   2.873   6.855   2.682
 8117SOL    HW225251   2.897   6.980   2.579
 8118SOL     OW25252   6.776   2.427   0.622
 8118SOL    HW125253   6.809   2.509   0.669
 8118SOL    HW225254   6.684   2.404   0.653
 8119SOL     OW25255   6.041   5.974   6.439
 8119SOL    HW125256   6.092   6.016   6.515
 8119SOL    HW225257   6.088   5.993   6.353
 8120SOL     OW25258   2.559   6.248   1.236
 8120SOL    HW125259   2.512   6.232   1.149
 8120SOL    HW225260   2.520   6.188   1.306
 8121SOL     OW25261   1.408   3.134   2.892
 8121SOL    HW125262   1.427   3.165   2.985
 8121SOL    HW225263   1.447   3.200   2.827
 8122SOL     OW25264   0.530   4.352   2.283
 8122SOL    HW125265   0.446   4.381   2.329
 8122SOL    HW225266   0.553   4.259   2.311
 8123SOL     OW25267   0.148   1.882   5.746
 8123SOL    HW125268   0.148   1.896   5.647
 8123SOL    HW225269   0.054   1.888   5.780
 8124SOL     OW25270   5.250   4.722   4.671
 8124SOL    HW125271   5.272   4.625   4.671
 8124SOL    HW225272   5.260   4.759   4.579
 8125SOL     OW25273   1.481   6.023   2.894
 8125SOL    HW125274   1.407   6.061   2.840
 8125SOL    HW225275   1.484   6.069   2.983
 8126SOL     OW25276   3.884   4.929   4.185
 8126SOL    HW125277   3.816   4.926   4.259
 8126SOL    HW225278   3.975   4.944   4.224
 8127SOL     OW25279   3.572   2.907   0.032
 8127SOL    HW125280   3.567   2.929   6.957
 8127SOL    HW225281   3.630   2.974   0.078
 8128SOL     OW25282   3.563   2.812   1.873
 8128SOL    HW125283   3.660   2.835   1.864
 8128SOL    HW225284   3.550   2.714   1.855
 8129SOL     OW25285   1.110   2.972   1.176
 8129SOL    HW125286   1.020   2.929   1.179
 8129SOL    HW225287   1.110   3.045   1.108
 8130SOL     OW25288   1.458   4.992   6.909
 8130SOL    HW125289   1.538   5.039   6.874
 8130SOL    HW225290   1.465   4.981   7.008
 8131SOL     OW25291   1.876   3.522   0.355
 8131SOL    HW125292   1.872   3.622   0.356
 8131SOL    HW225293   1.791   3.486   0.315
 8132SOL     OW25294   6.970   6.826   5.009
 8132SOL    HW125295   6.871   6.835   5.003
 8132SOL    HW225296   7.014   6.894   4.951
 8133SOL     OW25297   3.435   4.972   0.844
 8133SOL    HW125298   3.453   4.880   0.810
 8133SOL    HW225299   3.366   4.969   0.916
 8134SOL     OW25300   5.849   1.004   5.219
 8134SOL    HW125301   5.859   0.905   5.232
 8134SOL    HW225302   5.889   1.030   5.131
 8135SOL     OW25303   2.145   0.079   1.445
 8135SOL    HW125304   2.214   0.042   1.508
 8135SOL    HW225305   2.166   0.049   1.352
 8136SOL     OW25306   4.550   4.799   2.380
 8136SOL    HW125307   4.484   4.726   2.399
 8136SOL    HW225308   4.624   4.764   2.323
 8137SOL     OW25309   4.062   1.909   4.495
 8137SOL    HW125310   4.148   1.867   4.523
 8137SOL    HW225311   3.986   1.850   4.521
 8138SOL     OW25312   4.619   1.196   1.226
 8138SOL    HW125313   4.524   1.209   1.255
 8138SOL    HW225314   4.680   1.243   1.289
 8139SOL     OW25315   1.226   2.304   3.447
 8139SOL    HW125316   1.158   2.320   3.519
 8139SOL    HW225317   1.181   2.305   3.357
 8140SOL     OW25318   3.867   0.745   3.657
 8140SOL    HW125319   3.842   0.656   3.695
 8140SOL    HW225320   3.849   0.816   3.724
 8141SOL     OW25321   4.230   4.717   4.638
 8141SOL    HW125322   4.173   4.658   4.696
 8141SOL    HW225323   4.326   4.705   4.662
 8142SOL     OW25324   5.988   5.753   0.302
 8142SOL    HW125325   5.891   5.767   0.319
 8142SOL    HW225326   6.022   5.679   0.360
 8143SOL     OW25327   6.245   4.084   4.895
 8143SOL    HW125328   6.150   4.112   4.878
 8143SOL    HW225329   6.275   4.024   4.821
 8144SOL     OW25330   6.000   6.293   6.530
 8144SOL    HW125331   5.937   6.329   6.461
 8144SOL    HW225332   5.959   6.302   6.621
 8145SOL     OW25333   6.006   6.040   2.371
 8145SOL    HW125334   5.912   6.026   2.342
 8145SOL    HW225335   6.055   6.094   2.302
 8146SOL     OW25336   2.972   1.162   4.812
 8146SOL    HW125337   2.986   1.177   4.910
 8146SOL    HW225338   2.899   1.094   4.799
 8147SOL     OW25339   4.510   1.288   3.774
 8147SOL    HW125340   4.420   1.332   3.774
 8147SOL    HW225341   4.550   1.292   3.865
 8148SOL     OW25342   5.372   3.841   3.499
 8148SOL    HW125343   5.461   3.859   3.541
 8148SOL    HW225344   5.337   3.753   3.530
 8149SOL     OW25345   4.172   4.956   3.652
 8149SOL    HW125346   4.134   4.885   3.711
 8149SOL    HW225347   4.146   5.046   3.687
 8150SOL     OW25348   0.715   5.576   0.088
 8150SOL    HW125349   0.655   5.588   0.009
 8150SOL    HW225350   0.746   5.481   0.092
 8151SOL     OW25351   1.226   1.860   5.322
 8151SOL    HW125352   1.283   1.938   5.348
 8151SOL    HW225353   1.175   1.827   5.401
 8152SOL     OW25354   1.455   0.937   2.982
 8152SOL    HW125355   1.485   1.019   3.033
 8152SOL    HW225356   1.532   0.901   2.929
 8153SOL     OW25357   1.975   6.337   0.814
 8153SOL    HW125358   1.964   6.249   0.860
 8153SOL    HW225359   2.035   6.395   0.869
 8154SOL     OW25360   2.336   6.590   3.679
 8154SOL    HW125361   2.331   6.501   3.724
 8154SOL    HW225362   2.280   6.588   3.596
 8155SOL     OW25363   2.866   3.534   3.352
 8155SOL    HW125364   2.901   3.627   3.340
 8155SOL    HW225365   2.770   3.531   3.326
 8156SOL     OW25366   6.436   0.196   5.905
 8156SOL    HW125367   6.358   0.233   5.854
 8156SOL    HW225368   6.446   0.246   5.991
 8157SOL     OW25369   6.451   3.757   6.454
 8157SOL    HW125370   6.449   3.845   6.501
 8157SOL    HW225371   6.519   3.698   6.496
 8158SOL     OW25372   1.619   4.899   2.292
 8158SOL    HW125373   1.541   4.837   2.296
 8158SOL    HW225374   1.620   4.958   2.373
 8159SOL     OW25375   1.775   6.046   2.186
 8159SOL    HW125376   1.816   6.020   2.273
 8159SOL    HW225377   1.772   5.967   2.125
 8160SOL     OW25378   4.433   2.341   1.721
 8160SOL    HW125379   4.529   2.313   1.718
 8160SOL    HW225380   4.375   2.262   1.743
 8161SOL     OW25381   5.440   1.414   0.948
 8161SOL    HW125382   5.407   1.359   0.871
 8161SOL    HW225383   5.383   1.396   1.028
 8162SOL     OW25384   6.027   0.567   1.820
 8162SOL    HW125385   5.945   0.509   1.820
 8162SOL    HW225386   6.101   0.519   1.773
 8163SOL     OW25387   2.154   4.033   5.250
 8163SOL    HW125388   2.213   4.008   5.173
 8163SOL    HW225389   2.210   4.054   5.330
 8164SOL     OW25390   4.170   2.249   2.067
 8164SOL    HW125391   4.190   2.228   2.163
 8164SOL    HW225392   4.246   2.217   2.010
 8165SOL     OW25393   2.238   5.226   1.613
 8165SOL    HW125394   2.162   5.173   1.652
 8165SOL    HW225395   2.324   5.188   1.645
 8166SOL     OW25396   2.861   6.872   1.859
 8166SOL    HW125397   2.834   6.923   1.778
 8166SOL    HW225398   2.943   6.914   1.899
 8167SOL     OW25399   6.092   2.612   3.597
 8167SOL    HW125400   6.012   2.572   3.551
 8167SOL    HW225401   6.159   2.540   3.614
 8168SOL     OW25402   3.266   1.177   3.108
 8168SOL    HW125403   3.215   1.260   3.125
 8168SOL    HW225404   3.354   1.200   3.066
 8169SOL     OW25405   4.541   3.536   6.172
 8169SOL    HW125406   4.551   3.606   6.243
 8169SOL    HW225407   4.457   3.485   6.188
 8170SOL     OW25408   0.692   5.455   3.923
 8170SOL    HW125409   0.768   5.439   3.986
 8170SOL    HW225410   0.606   5.430   3.968
 8171SOL     OW25411   0.755   1.956   5.833
 8171SOL    HW125412   0.701   1.879   5.869
 8171SOL    HW225413   0.852   1.940   5.853
 8172SOL     OW25414   6.865   6.401   0.908
 8172SOL    HW125415   6.881   6.497   0.884
 8172SOL    HW225416   6.867   6.391   1.007
 8173SOL     OW25417   4.428   2.702   6.668
 8173SOL    HW125418   4.459   2.643   6.743
 8173SOL    HW225419   4.349   2.660   6.623
 8174SOL     OW25420   5.739   0.305   2.222
 8174SOL    HW125421   5.737   0.236   2.295
 8174SOL    HW225422   5.646   0.320   2.188
 8175SOL     OW25423   0.865   3.469   6.319
 8175SOL    HW125424   0.842   3.373   6.339
 8175SOL    HW225425   0.962   3.475   6.296
 8176SOL     OW25426   2.731   5.702   2.203
 8176SOL    HW125427   2.681   5.620   2.174
 8176SOL    HW225428   2.744   5.763   2.125
 8177SOL     OW25429   0.302   6.780   5.594
 8177SOL    HW125430   0.323   6.688   5.561
 8177SOL    HW225431   0.272   6.776   5.689
 8178SOL     OW25432   2.127   0.013   6.481
 8178SOL    HW125433   2.168   6.963   6.537
 8178SOL    HW225434   2.197   0.052   6.421
 8179SOL     OW25435   3.335   1.174   0.317
 8179SOL    HW125436   3.410   1.233   0.289
 8179SOL    HW225437   3.253   1.196   0.264
 8180SOL     OW25438   5.850   5.868   5.502
 8180SOL    HW125439   5.888   5.794   5.556
 8180SOL    HW225440   5.921   5.905   5.442
 8181SOL     OW25441   2.612   2.352   2.675
 8181SOL    HW125442   2.684   2.326   2.739
 8181SOL    HW225443   2.590   2.449   2.687
 8182SOL     OW25444   3.821   3.064   5.434
 8182SOL    HW125445   3.783   2.985   5.386
 8182SOL    HW225446   3.751   3.135   5.443
 8183SOL     OW25447   1.138   3.510   4.898
 8183SOL    HW125448   1.143   3.539   4.993
 8183SOL    HW225449   1.215   3.550   4.848
 8184SOL     OW25450   5.758   6.136   5.633
 8184SOL    HW125451   5.754   6.159   5.730
 8184SOL    HW225452   5.787   6.040   5.623
 8185SOL     OW25453   1.995   1.652   2.646
 8185SOL    HW125454   1.957   1.560   2.642
 8185SOL    HW225455   2.086   1.649   2.687
 8186SOL     OW25456   3.815   5.364   6.100
 8186SOL    HW125457   3.720   5.336   6.090
 8186SOL    HW225458   3.849   5.336   6.190
 8187SOL     OW25459   1.120   2.146   5.273
 8187SOL    HW125460   1.108   2.240   5.243
 8187SOL    HW225461   1.215   2.118   5.255
 8188SOL     OW25462   5.611   3.776   2.599
 8188SOL    HW125463   5.586   3.870   2.620
 8188SOL    HW225464   5.687   3.775   2.534
 8189SOL     OW25465   5.855   4.289   2.260
 8189SOL    HW125466   5.757   4.294   2.241
 8189SOL    HW225467   5.906   4.307   2.176
 8190SOL     OW25468   4.878   3.702   3.037
 8190SOL    HW125469   4.827   3.623   3.004
 8190SOL    HW225470   4.822   3.784   3.029
 8191SOL     OW25471   0.661   5.096   3.043
 8191SOL    HW125472   0.591   5.160   3.011
 8191SOL    HW225473   0.711   5.061   2.964
 8192SOL     OW25474   1.698   4.375   1.422
 8192SOL    HW125475   1.777   4.318   1.446
 8192SOL    HW225476   1.623   4.316   1.392
 8193SOL     OW25477   3.883   0.773   5.753
 8193SOL    HW125478   3.826   0.830   5.695
 8193SOL    HW225479   3.979   0.803   5.746
 8194SOL     OW25480   1.325   0.281   0.798
 8194SOL    HW125481   1.312   0.182   0.807
 8194SOL    HW225482   1.268   0.315   0.723
 8195SOL     OW25483   6.439   0.054   0.808
 8195SOL    HW125484   6.539   0.060   0.819
 8195SOL    HW225485   6.400   0.146   0.815
 8196SOL     OW25486   2.529   0.465   6.185
 8196SOL    HW125487   2.489   0.540   6.237
 8196SOL    HW225488   2.479   0.453   6.099
 8197SOL     OW25489   0.747   6.824   6.877
 8197SOL    HW125490   0.830   6.797   6.829
 8197SOL    HW225491   0.761   6.913   6.921
 8198SOL     OW25492   3.745   6.329   2.597
 8198SOL    HW125493   3.780   6.405   2.652
 8198SOL    HW225494   3.815   6.258   2.591
 8199SOL     OW25495   6.118   3.581   0.349
 8199SOL    HW125496   6.092   3.526   0.428
 8199SOL    HW225497   6.084   3.538   0.266
 8200SOL     OW25498   4.959   3.478   1.219
 8200SOL    HW125499   4.982   3.562   1.169
 8200SOL    HW225500   4.876   3.493   1.272
 8201SOL     OW25501   6.207   0.873   4.140
 8201SOL    HW125502   6.236   0.783   4.175
 8201SOL    HW225503   6.270   0.903   4.069
 8202SOL     OW25504   1.461   4.378   3.439
 8202SOL    HW125505   1.425   4.308   3.377
 8202SOL    HW225506   1.439   4.469   3.402
 8203SOL     OW25507   5.945   3.467   0.884
 8203SOL    HW125508   5.963   3.373   0.855
 8203SOL    HW225509   5.860   3.469   0.938
 8204SOL     OW25510   3.396   0.029   0.927
 8204SOL    HW125511   3.437   7.006   1.006
 8204SOL    HW225512   3.338   0.105   0.958
 8205SOL     OW25513   5.952   5.256   3.117
 8205SOL    HW125514   5.932   5.160   3.132
 8205SOL    HW225515   5.870   5.311   3.133
 8206SOL     OW25516   4.632   1.732   4.213
 8206SOL    HW125517   4.688   1.799   4.165
 8206SOL    HW225518   4.670   1.716   4.304
 8207SOL     OW25519   2.573   6.515   0.030
 8207SOL    HW125520   2.594   6.445   6.984
 8207SOL    HW225521   2.484   6.496   0.071
 8208SOL     OW25522   1.385   4.875   6.091
 8208SOL    HW125523   1.363   4.850   5.997
 8208SOL    HW225524   1.360   4.970   6.107
 8209SOL     OW25525   0.346   6.488   5.531
 8209SOL    HW125526   0.404   6.507   5.609
 8209SOL    HW225527   0.374   6.401   5.489
 8210SOL     OW25528   2.564   2.098   6.869
 8210SOL    HW125529   2.634   2.132   6.805
 8210SOL    HW225530   2.599   2.101   6.962
 8211SOL     OW25531   3.060   3.290   4.562
 8211SOL    HW125532   3.137   3.231   4.586
 8211SOL    HW225533   3.012   3.318   4.645
 8212SOL     OW25534   3.585   6.759   0.639
 8212SOL    HW125535   3.550   6.674   0.600
 8212SOL    HW225536   3.508   6.816   0.668
 8213SOL     OW25537   4.262   4.107   1.718
 8213SOL    HW125538   4.173   4.121   1.760
 8213SOL    HW225539   4.333   4.144   1.777
 8214SOL     OW25540   3.771   5.200   4.397
 8214SOL    HW125541   3.712   5.244   4.465
 8214SOL    HW225542   3.866   5.223   4.417
 8215SOL     OW25543   3.444   6.138   6.775
 8215SOL    HW125544   3.468   6.198   6.699
 8215SOL    HW225545   3.411   6.050   6.739
 8216SOL     OW25546   5.857   4.828   1.938
 8216SOL    HW125547   5.893   4.921   1.945
 8216SOL    HW225548   5.814   4.801   2.024
 8217SOL     OW25549   2.603   6.036   4.201
 8217SOL    HW125550   2.654   6.122   4.202
 8217SOL    HW225551   2.561   6.022   4.111
 8218SOL     OW25552   3.017   6.747   4.987
 8218SOL    HW125553   2.938   6.712   5.038
 8218SOL    HW225554   2.987   6.815   4.921
 8219SOL     OW25555   4.222   2.849   1.473
 8219SOL    HW125556   4.162   2.928   1.485
 8219SOL    HW225557   4.182   2.770   1.518
 8220SOL     OW25558   3.706   4.068   4.306
 8220SOL    HW125559   3.705   4.114   4.394
 8220SOL    HW225560   3.791   4.017   4.296
 8221SOL     OW25561   5.379   3.881   3.198
 8221SOL    HW125562   5.472   3.851   3.176
 8221SOL    HW225563   5.361   3.863   3.295
 8222SOL     OW25564   6.845   2.923   0.430
 8222SOL    HW125565   6.933   2.889   0.398
 8222SOL    HW225566   6.776   2.851   0.420
 8223SOL     OW25567   1.979   6.097   5.798
 8223SOL    HW125568   1.954   6.108   5.702
 8223SOL    HW225569   1.936   6.170   5.852
 8224SOL     OW25570   5.351   1.529   0.497
 8224SOL    HW125571   5.366   1.599   0.427
 8224SOL    HW225572   5.363   1.438   0.456
 8225SOL     OW25573   5.489   1.918   0.252
 8225SOL    HW125574   5.432   1.835   0.250
 8225SOL    HW225575   5.548   1.916   0.332
 8226SOL     OW25576   4.111   0.703   0.625
 8226SOL    HW125577   4.165   0.755   0.691
 8226SOL    HW225578   4.099   0.757   0.542
 8227SOL     OW25579   4.409   2.347   2.800
 8227SOL    HW125580   4.452   2.272   2.850
 8227SOL    HW225581   4.312   2.327   2.787
 8228SOL     OW25582   2.047   6.808   4.612
 8228SOL    HW125583   1.995   6.883   4.572
 8228SOL    HW225584   2.123   6.784   4.551
 8229SOL     OW25585   4.519   4.426   0.361
 8229SOL    HW125586   4.501   4.524   0.355
 8229SOL    HW225587   4.543   4.402   0.455
 8230SOL     OW25588   5.543   0.525   6.071
 8230SOL    HW125589   5.504   0.578   5.996
 8230SOL    HW225590   5.622   0.574   6.108
 8231SOL     OW25591   2.551   1.864   2.791
 8231SOL    HW125592   2.541   1.955   2.750
 8231SOL    HW225593   2.511   1.865   2.883
 8232SOL     OW25594   3.500   5.652   3.123
 8232SOL    HW125595   3.536   5.574   3.173
 8232SOL    HW225596   3.430   5.621   3.059
 8233SOL     OW25597   0.842   1.391   6.043
 8233SOL    HW125598   0.822   1.293   6.038
 8233SOL    HW225599   0.937   1.405   6.070
 8234SOL     OW25600   0.674   2.278   0.677
 8234SOL    HW125601   0.662   2.297   0.775
 8234SOL    HW225602   0.772   2.271   0.656
 8235SOL     OW25603   0.962   6.961   1.393
 8235SOL    HW125604   0.912   6.905   1.459
 8235SOL    HW225605   0.924   0.031   1.392
 8236SOL     OW25606   0.974   6.715   1.798
 8236SOL    HW125607   0.935   6.658   1.871
 8236SOL    HW225608   0.907   6.724   1.724
 8237SOL     OW25609   4.170   5.161   6.103
 8237SOL    HW125610   4.116   5.178   6.021
 8237SOL    HW225611   4.199   5.248   6.143
 8238SOL     OW25612   0.418   4.637   0.493
 8238SOL    HW125613   0.323   4.605   0.497
 8238SOL    HW225614   0.479   4.559   0.479
 8239SOL     OW25615   1.751   1.666   5.153
 8239SOL    HW125616   1.827   1.643   5.214
 8239SOL    HW225617   1.753   1.607   5.073
 8240SOL     OW25618   3.475   3.734   4.883
 8240SOL    HW125619   3.379   3.718   4.864
 8240SOL    HW225620   3.520   3.770   4.801
 8241SOL     OW25621   2.096   4.305   5.190
 8241SOL    HW125622   2.186   4.339   5.161
 8241SOL    HW225623   2.086   4.209   5.162
 8242SOL     OW25624   0.873   3.280   2.911
 8242SOL    HW125625   0.921   3.297   2.997
 8242SOL    HW225626   0.780   3.249   2.931
 8243SOL     OW25627   1.932   5.597   4.339
 8243SOL    HW125628   2.010   5.539   4.317
 8243SOL    HW225629   1.871   5.548   4.401
 8244SOL     OW25630   6.806   1.369   3.889
 8244SOL    HW125631   6.903   1.371   3.911
 8244SOL    HW225632   6.785   1.286   3.837
 8245SOL     OW25633   5.388   2.148   3.207
 8245SOL    HW125634   5.326   2.198   3.148
 8245SOL    HW225635   5.482   2.170   3.183
 8246SOL     OW25636   1.562   5.031   6.450
 8246SOL    HW125637   1.651   4.988   6.434
 8246SOL    HW225638   1.504   4.969   6.502
 8247SOL     OW25639   3.020   5.961   2.694
 8247SOL    HW125640   2.961   5.996   2.767
 8247SOL    HW225641   2.968   5.959   2.608
 8248SOL     OW25642   6.760   5.497   3.282
 8248SOL    HW125643   6.838   5.440   3.308
 8248SOL    HW225644   6.677   5.442   3.282
 8249SOL     OW25645   3.184   1.367   6.846
 8249SOL    HW125646   3.159   1.428   6.922
 8249SOL    HW225647   3.238   1.417   6.779
 8250SOL     OW25648   0.817   1.887   0.144
 8250SOL    HW125649   0.886   1.818   0.124
 8250SOL    HW225650   0.782   1.925   0.058
 8251SOL     OW25651   1.037   2.807   5.475
 8251SOL    HW125652   1.023   2.750   5.394
 8251SOL    HW225653   1.135   2.823   5.487
 8252SOL     OW25654   0.947   2.385   6.651
 8252SOL    HW125655   0.985   2.306   6.603
 8252SOL    HW225656   0.866   2.418   6.602
 8253SOL     OW25657   4.080   6.055   0.358
 8253SOL    HW125658   4.010   5.989   0.331
 8253SOL    HW225659   4.074   6.071   0.457
 8254SOL     OW25660   5.435   5.397   6.834
 8254SOL    HW125661   5.402   5.452   6.757
 8254SOL    HW225662   5.379   5.315   6.843
 8255SOL     OW25663   2.359   0.936   5.571
 8255SOL    HW125664   2.289   0.917   5.502
 8255SOL    HW225665   2.403   0.851   5.599
 8256SOL     OW25666   1.448   4.732   5.159
 8256SOL    HW125667   1.432   4.686   5.247
 8256SOL    HW225668   1.429   4.830   5.169
 8257SOL     OW25669   5.398   4.285   3.063
 8257SOL    HW125670   5.441   4.206   3.019
 8257SOL    HW225671   5.465   4.358   3.072
 8258SOL     OW25672   0.495   2.958   2.502
 8258SOL    HW125673   0.407   2.995   2.531
 8258SOL    HW225674   0.547   3.030   2.456
 8259SOL     OW25675   5.289   1.820   3.907
 8259SOL    HW125676   5.227   1.780   3.840
 8259SOL    HW225677   5.342   1.893   3.863
 8260SOL     OW25678   3.998   2.341   1.019
 8260SOL    HW125679   4.085   2.314   0.978
 8260SOL    HW225680   3.966   2.270   1.081
 8261SOL     OW25681   5.502   1.157   2.467
 8261SOL    HW125682   5.418   1.198   2.504
 8261SOL    HW225683   5.493   1.058   2.466
 8262SOL     OW25684   5.360   3.734   1.503
 8262SOL    HW125685   5.268   3.693   1.504
 8262SOL    HW225686   5.358   3.818   1.557
 8263SOL     OW25687   6.267   1.969   5.722
 8263SOL    HW125688   6.264   1.896   5.653
 8263SOL    HW225689   6.230   1.935   5.808
 8264SOL     OW25690   3.185   0.230   2.676
 8264SOL    HW125691   3.085   0.224   2.684
 8264SOL    HW225692   3.224   0.244   2.767
 8265SOL     OW25693   4.568   6.302   0.850
 8265SOL    HW125694   4.663   6.294   0.879
 8265SOL    HW225695   4.550   6.237   0.776
 8266SOL     OW25696   3.336   1.003   3.847
 8266SOL    HW125697   3.254   1.041   3.890
 8266SOL    HW225698   3.313   0.965   3.758
 8267SOL     OW25699   2.049   3.259   2.487
 8267SOL    HW125700   1.950   3.259   2.497
 8267SOL    HW225701   2.074   3.306   2.402
 8268SOL     OW25702   3.213   4.861   6.402
 8268SOL    HW125703   3.148   4.926   6.362
 8268SOL    HW225704   3.171   4.818   6.482
 8269SOL     OW25705   6.280   3.105   4.575
 8269SOL    HW125706   6.185   3.136   4.573
 8269SOL    HW225707   6.286   3.018   4.625
 8270SOL     OW25708   3.883   6.573   6.433
 8270SOL    HW125709   3.856   6.493   6.381
 8270SOL    HW225710   3.963   6.615   6.390
 8271SOL     OW25711   3.627   6.471   6.231
 8271SOL    HW125712   3.623   6.396   6.297
 8271SOL    HW225713   3.624   6.558   6.279
 8272SOL     OW25714   1.232   0.657   1.958
 8272SOL    HW125715   1.158   0.683   2.020
 8272SOL    HW225716   1.280   0.578   1.995
 8273SOL     OW25717   4.166   0.873   0.415
 8273SOL    HW125718   4.120   0.851   0.329
 8273SOL    HW225719   4.147   0.968   0.440
 8274SOL     OW25720   5.075   6.400   5.399
 8274SOL    HW125721   5.025   6.410   5.485
 8274SOL    HW225722   5.162   6.449   5.406
 8275SOL     OW25723   5.371   0.195   4.058
 8275SOL    HW125724   5.412   0.178   4.148
 8275SOL    HW225725   5.307   0.271   4.064
 8276SOL     OW25726   6.574   2.030   6.808
 8276SOL    HW125727   6.590   2.007   6.712
 8276SOL    HW225728   6.637   2.102   6.836
 8277SOL     OW25729   1.253   0.204   0.005
 8277SOL    HW125730   1.253   0.193   0.104
 8277SOL    HW225731   1.173   0.158   6.989
 8278SOL     OW25732   2.949   1.669   0.721
 8278SOL    HW125733   2.972   1.580   0.682
 8278SOL    HW225734   3.024   1.698   0.782
 8279SOL     OW25735   3.603   6.160   5.404
 8279SOL    HW125736   3.636   6.101   5.330
 8279SOL    HW225737   3.664   6.151   5.483
 8280SOL     OW25738   5.504   4.175   0.423
 8280SOL    HW125739   5.555   4.177   0.337
 8280SOL    HW225740   5.542   4.104   0.482
 8281SOL     OW25741   2.786   5.382   0.100
 8281SOL    HW125742   2.718   5.345   0.163
 8281SOL    HW225743   2.743   5.449   0.039
 8282SOL     OW25744   2.798   2.859   1.619
 8282SOL    HW125745   2.734   2.788   1.590
 8282SOL    HW225746   2.883   2.816   1.649
 8283SOL     OW25747   0.649   6.780   4.049
 8283SOL    HW125748   0.728   6.721   4.066
 8283SOL    HW225749   0.570   6.725   4.023
 8284SOL     OW25750   3.562   1.504   2.207
 8284SOL    HW125751   3.493   1.438   2.237
 8284SOL    HW225752   3.520   1.595   2.202
 8285SOL     OW25753   2.107   4.499   6.929
 8285SOL    HW125754   2.156   4.493   6.842
 8285SOL    HW225755   2.019   4.545   6.914
 8286SOL     OW25756   5.427   2.473   5.391
 8286SOL    HW125757   5.374   2.499   5.310
 8286SOL    HW225758   5.364   2.442   5.463
 8287SOL     OW25759   1.761   6.977   3.971
 8287SOL    HW125760   1.704   0.026   3.931
 8287SOL    HW225761   1.769   6.992   4.070
 8288SOL     OW25762   2.028   0.317   2.678
 8288SOL    HW125763   2.000   0.306   2.773
 8288SOL    HW225764   2.105   0.381   2.673
 8289SOL     OW25765   6.015   1.342   6.260
 8289SOL    HW125766   6.010   1.263   6.321
 8289SOL    HW225767   6.110   1.369   6.248
 8290SOL     OW25768   4.644   2.810   1.777
 8290SOL    HW125769   4.701   2.749   1.831
 8290SOL    HW225770   4.641   2.900   1.820
 8291SOL     OW25771   4.343   5.797   6.657
 8291SOL    HW125772   4.391   5.842   6.581
 8291SOL    HW225773   4.279   5.862   6.698
 8292SOL     OW25774   0.663   3.280   4.914
 8292SOL    HW125775   0.716   3.271   4.829
 8292SOL    HW225776   0.637   3.190   4.947
 8293SOL     OW25777   2.963   5.388   3.450
 8293SOL    HW125778   2.919   5.331   3.519
 8293SOL    HW225779   3.054   5.352   3.431
 8294SOL     OW25780   4.755   3.774   5.919
 8294SOL    HW125781   4.682   3.705   5.914
 8294SOL    HW225782   4.807   3.774   5.834
 8295SOL     OW25783   5.060   5.244   2.180
 8295SOL    HW125784   5.015   5.317   2.232
 8295SOL    HW225785   4.991   5.182   2.144
 8296SOL     OW25786   4.134   7.017   2.087
 8296SOL    HW125787   4.052   0.014   2.034
 8296SOL    HW225788   4.203   6.974   2.029
 8297SOL     OW25789   5.152   4.455   3.585
 8297SOL    HW125790   5.169   4.517   3.662
 8297SOL    HW225791   5.114   4.507   3.508
 8298SOL     OW25792   0.328   6.848   0.043
 8298SOL    HW125793   0.354   6.944   0.035
 8298SOL    HW225794   0.331   6.820   0.139
 8299SOL     OW25795   0.927   3.599   1.029
 8299SOL    HW125796   0.883   3.510   1.045
 8299SOL    HW225797   0.860   3.672   1.041
 8300SOL     OW25798   5.951   5.220   3.678
 8300SOL    HW125799   5.981   5.216   3.583
 8300SOL    HW225800   6.014   5.167   3.736
 8301SOL     OW25801   5.624   6.721   0.639
 8301SOL    HW125802   5.557   6.689   0.572
 8301SOL    HW225803   5.675   6.643   0.675
 8302SOL     OW25804   3.647   0.276   5.542
 8302SOL    HW125805   3.693   0.363   5.557
 8302SOL    HW225806   3.588   0.282   5.462
 8303SOL     OW25807   0.190   5.008   2.650
 8303SOL    HW125808   0.186   4.910   2.631
 8303SOL    HW225809   0.100   5.039   2.681
 8304SOL     OW25810   5.936   4.765   3.370
 8304SOL    HW125811   6.013   4.702   3.373
 8304SOL    HW225812   5.953   4.835   3.300
 8305SOL     OW25813   5.517   6.648   5.131
 8305SOL    HW125814   5.573   6.707   5.188
 8305SOL    HW225815   5.574   6.607   5.060
 8306SOL     OW25816   7.017   1.760   2.981
 8306SOL    HW125817   7.016   1.817   2.899
 8306SOL    HW225818   6.924   1.754   3.018
 8307SOL     OW25819   1.591   3.035   2.677
 8307SOL    HW125820   1.539   3.002   2.599
 8307SOL    HW225821   1.565   3.130   2.697
 8308SOL     OW25822   0.656   5.121   1.064
 8308SOL    HW125823   0.617   5.120   0.972
 8308SOL    HW225824   0.599   5.178   1.124
 8309SOL     OW25825   6.785   4.762   4.494
 8309SOL    HW125826   6.724   4.788   4.569
 8309SOL    HW225827   6.864   4.712   4.530
 8310SOL     OW25828   1.892   0.243   0.977
 8310SOL    HW125829   1.795   0.241   0.953
 8310SOL    HW225830   1.909   0.177   1.050
 8311SOL     OW25831   5.382   5.618   3.327
 8311SOL    HW125832   5.389   5.606   3.228
 8311SOL    HW225833   5.330   5.542   3.366
 8312SOL     OW25834   5.770   1.528   0.333
 8312SOL    HW125835   5.815   1.483   0.256
 8312SOL    HW225836   5.819   1.612   0.356
 8313SOL     OW25837   5.746   2.712   5.941
 8313SOL    HW125838   5.773   2.781   6.007
 8313SOL    HW225839   5.821   2.646   5.930
 8314SOL     OW25840   4.568   6.179   4.156
 8314SOL    HW125841   4.478   6.139   4.137
 8314SOL    HW225842   4.619   6.119   4.217
 8315SOL     OW25843   3.236   3.375   4.832
 8315SOL    HW125844   3.153   3.335   4.870
 8315SOL    HW225845   3.254   3.337   4.742
 8316SOL     OW25846   2.528   2.199   5.975
 8316SOL    HW125847   2.472   2.282   5.975
 8316SOL    HW225848   2.513   2.150   5.889
 8317SOL     OW25849   1.125   2.258   3.882
 8317SOL    HW125850   1.220   2.227   3.893
 8317SOL    HW225851   1.081   2.204   3.810
 8318SOL     OW25852   4.449   0.077   6.251
 8318SOL    HW125853   4.453   0.167   6.207
 8318SOL    HW225854   4.358   0.039   6.240
 8319SOL     OW25855   2.383   5.559   6.296
 8319SOL    HW125856   2.313   5.608   6.243
 8319SOL    HW225857   2.343   5.475   6.333
 8320SOL     OW25858   3.434   3.290   5.029
 8320SOL    HW125859   3.369   3.307   4.955
 8320SOL    HW225860   3.513   3.240   4.994
 8321SOL     OW25861   0.010   6.964   0.581
 8321SOL    HW125862   6.949   7.008   0.612
 8321SOL    HW225863   0.081   6.975   0.651
 8322SOL     OW25864   0.618   6.457   0.168
 8322SOL    HW125865   0.670   6.493   0.091
 8322SOL    HW225866   0.538   6.408   0.135
 8323SOL     OW25867   5.410   4.418   0.473
 8323SOL    HW125868   5.462   4.333   0.479
 8323SOL    HW225869   5.399   4.457   0.565
 8324SOL     OW25870   5.024   6.096   7.008
 8324SOL    HW125871   4.986   6.147   0.062
 8324SOL    HW225872   5.038   6.158   6.931
 8325SOL     OW25873   1.329   6.305   5.842
 8325SOL    HW125874   1.405   6.356   5.881
 8325SOL    HW225875   1.319   6.329   5.745
 8326SOL     OW25876   1.410   2.949   6.263
 8326SOL    HW125877   1.461   2.909   6.339
 8326SOL    HW225878   1.315   2.964   6.290
 8327SOL     OW25879   1.339   5.797   5.066
 8327SOL    HW125880   1.335   5.883   5.117
 8327SOL    HW225881   1.431   5.785   5.028
 8328SOL     OW25882   0.851   6.291   0.061
 8328SOL    HW125883   0.788   6.346   0.007
 8328SOL    HW225884   0.919   6.249   0.001
 8329SOL     OW25885   1.396   3.253   4.718
 8329SOL    HW125886   1.441   3.315   4.782
 8329SOL    HW225887   1.325   3.303   4.668
 8330SOL     OW25888   3.352   1.137   6.958
 8330SOL    HW125889   3.312   1.083   0.010
 8330SOL    HW225890   3.282   1.194   6.917
 8331SOL     OW25891   1.556   2.297   6.266
 8331SOL    HW125892   1.554   2.294   6.166
 8331SOL    HW225893   1.462   2.307   6.300
 8332SOL     OW25894   6.386   4.341   1.949
 8332SOL    HW125895   6.437   4.256   1.966
 8332SOL    HW225896   6.449   4.418   1.949
 8333SOL     OW25897   1.734   4.162   0.369
 8333SOL    HW125898   1.765   4.167   0.273
 8333SOL    HW225899   1.808   4.191   0.429
 8334SOL     OW25900   2.878   2.217   5.961
 8334SOL    HW125901   2.928   2.192   5.879
 8334SOL    HW225902   2.915   2.166   6.039
 8335SOL     OW25903   5.337   4.633   6.298
 8335SOL    HW125904   5.423   4.670   6.333
 8335SOL    HW225905   5.271   4.708   6.284
 8336SOL     OW25906   0.855   4.038   3.521
 8336SOL    HW125907   0.832   4.134   3.535
 8336SOL    HW225908   0.795   3.980   3.576
 8337SOL     OW25909   0.309   1.436   4.293
 8337SOL    HW125910   0.357   1.382   4.363
 8337SOL    HW225911   0.375   1.480   4.233
 8338SOL     OW25912   3.480   5.282   1.358
 8338SOL    HW125913   3.528   5.348   1.301
 8338SOL    HW225914   3.387   5.269   1.325
 8339SOL     OW25915   5.940   0.493   1.458
 8339SOL    HW125916   5.855   0.513   1.508
 8339SOL    HW225917   6.014   0.550   1.493
 8340SOL     OW25918   5.791   2.025   6.742
 8340SOL    HW125919   5.877   2.076   6.751
 8340SOL    HW225920   5.810   1.936   6.702
 8341SOL     OW25921   3.851   1.558   1.078
 8341SOL    HW125922   3.895   1.528   1.163
 8341SOL    HW225923   3.774   1.497   1.057
 8342SOL     OW25924   4.795   0.586   0.445
 8342SOL    HW125925   4.731   0.535   0.502
 8342SOL    HW225926   4.828   0.527   0.371
 8343SOL     OW25927   5.421   4.367   3.439
 8343SOL    HW125928   5.363   4.400   3.514
 8343SOL    HW225929   5.383   4.282   3.403
 8344SOL     OW25930   0.877   5.180   6.059
 8344SOL    HW125931   0.933   5.254   6.095
 8344SOL    HW225932   0.827   5.212   5.979
 8345SOL     OW25933   5.101   0.174   3.779
 8345SOL    HW125934   5.025   0.122   3.739
 8345SOL    HW225935   5.172   0.110   3.809
 8346SOL     OW25936   5.821   3.423   4.512
 8346SOL    HW125937   5.794   3.510   4.472
 8346SOL    HW225938   5.785   3.416   4.605
 8347SOL     OW25939   2.300   1.421   6.713
 8347SOL    HW125940   2.314   1.491   6.783
 8347SOL    HW225941   2.293   1.332   6.756
 8348SOL     OW25942   3.106   6.189   2.338
 8348SOL    HW125943   3.138   6.231   2.253
 8348SOL    HW225944   3.075   6.260   2.401
 8349SOL     OW25945   6.145   6.151   2.172
 8349SOL    HW125946   6.226   6.195   2.212
 8349SOL    HW225947   6.144   6.167   2.073
 8350SOL     OW25948   1.966   0.903   6.808
 8350SOL    HW125949   1.881   0.941   6.771
 8350SOL    HW225950   1.954   0.807   6.829
 8351SOL     OW25951   0.321   3.292   3.115
 8351SOL    HW125952   0.272   3.206   3.098
 8351SOL    HW225953   0.257   3.362   3.145
 8352SOL     OW25954   2.992   5.477   1.061
 8352SOL    HW125955   3.041   5.521   1.136
 8352SOL    HW225956   2.918   5.537   1.031
 8353SOL     OW25957   1.256   4.847   1.701
 8353SOL    HW125958   1.189   4.901   1.751
 8353SOL    HW225959   1.319   4.907   1.653
 8354SOL     OW25960   3.146   0.167   3.069
 8354SOL    HW125961   3.078   0.199   3.003
 8354SOL    HW225962   3.228   0.223   3.062
 8355SOL     OW25963   2.996   6.797   6.527
 8355SOL    HW125964   2.950   6.820   6.613
 8355SOL    HW225965   3.093   6.779   6.545
 8356SOL     OW25966   1.724   5.073   0.389
 8356SOL    HW125967   1.759   4.980   0.401
 8356SOL    HW225968   1.801   5.136   0.381
 8357SOL     OW25969   4.614   6.653   5.777
 8357SOL    HW125970   4.515   6.647   5.773
 8357SOL    HW225971   4.649   6.588   5.845
 8358SOL     OW25972   0.993   1.088   4.947
 8358SOL    HW125973   1.019   1.173   4.993
 8358SOL    HW225974   0.985   1.015   5.016
 8359SOL     OW25975   3.784   2.211   6.166
 8359SOL    HW125976   3.780   2.128   6.221
 8359SOL    HW225977   3.832   2.193   6.080
 8360SOL     OW25978   4.834   0.351   1.013
 8360SOL    HW125979   4.831   0.293   1.095
 8360SOL    HW225980   4.925   0.347   0.973
 8361SOL     OW25981   3.961   1.158   6.636
 8361SOL    HW125982   4.038   1.095   6.628
 8361SOL    HW225983   3.916   1.167   6.547
 8362SOL     OW25984   0.096   4.225   0.979
 8362SOL    HW125985   0.092   4.297   0.910
 8362SOL    HW225986   0.149   4.257   1.058
 8363SOL     OW25987   1.573   2.793   0.911
 8363SOL    HW125988   1.491   2.832   0.867
 8363SOL    HW225989   1.554   2.699   0.939
 8364SOL     OW25990   0.026   3.363   4.518
 8364SOL    HW125991   0.095   3.428   4.551
 8364SOL    HW225992   7.007   3.398   4.434
 8365SOL     OW25993   1.461   2.127   2.013
 8365SOL    HW125994   1.370   2.124   2.053
 8365SOL    HW225995   1.526   2.161   2.080
 8366SOL     OW25996   5.422   5.047   2.580
 8366SOL    HW125997   5.507   5.099   2.589
 8366SOL    HW225998   5.346   5.099   2.619
 8367SOL     OW25999   2.556   5.418   4.109
 8367SOL    HW126000   2.533   5.378   4.198
 8367SOL    HW226001   2.506   5.370   4.037
 8368SOL     OW26002   5.787   6.368   6.384
 8368SOL    HW126003   5.848   6.446   6.370
 8368SOL    HW226004   5.733   6.352   6.302
 8369SOL     OW26005   2.377   6.502   1.018
 8369SOL    HW126006   2.369   6.417   0.966
 8369SOL    HW226007   2.473   6.525   1.030
 8370SOL     OW26008   2.773   4.220   6.992
 8370SOL    HW126009   2.828   4.261   6.919
 8370SOL    HW226010   2.760   4.288   0.042
 8371SOL     OW26011   1.942   4.449   5.050
 8371SOL    HW126012   1.986   4.379   5.106
 8371SOL    HW226013   1.849   4.465   5.083
 8372SOL     OW26014   1.866   6.429   1.550
 8372SOL    HW126015   1.940   6.379   1.596
 8372SOL    HW226016   1.892   6.525   1.542
 8373SOL     OW26017   6.705   1.828   4.022
 8373SOL    HW126018   6.717   1.831   4.122
 8373SOL    HW226019   6.762   1.754   3.985
 8374SOL     OW26020   6.793   1.549   4.228
 8374SOL    HW126021   6.790   1.450   4.245
 8374SOL    HW226022   6.834   1.566   4.138
 8375SOL     OW26023   3.117   0.618   4.669
 8375SOL    HW126024   3.084   0.602   4.762
 8375SOL    HW226025   3.092   0.711   4.640
 8376SOL     OW26026   1.496   1.318   3.596
 8376SOL    HW126027   1.428   1.387   3.571
 8376SOL    HW226028   1.544   1.288   3.514
 8377SOL     OW26029   5.098   5.256   0.441
 8377SOL    HW126030   5.092   5.354   0.460
 8377SOL    HW226031   5.135   5.242   0.349
 8378SOL     OW26032   5.417   5.817   4.292
 8378SOL    HW126033   5.359   5.830   4.211
 8378SOL    HW226034   5.450   5.723   4.295
 8379SOL     OW26035   5.311   1.390   1.198
 8379SOL    HW126036   5.219   1.418   1.173
 8379SOL    HW226037   5.308   1.336   1.282
 8380SOL     OW26038   6.772   5.792   0.711
 8380SOL    HW126039   6.809   5.733   0.782
 8380SOL    HW226040   6.791   5.888   0.734
 8381SOL     OW26041   0.534   1.696   2.821
 8381SOL    HW126042   0.580   1.631   2.760
 8381SOL    HW226043   0.536   1.661   2.914
 8382SOL     OW26044   1.845   0.742   0.682
 8382SOL    HW126045   1.922   0.805   0.671
 8382SOL    HW226046   1.874   0.662   0.735
 8383SOL     OW26047   3.008   7.011   6.792
 8383SOL    HW126048   3.102   6.988   6.818
 8383SOL    HW226049   2.996   0.087   6.794
 8384SOL     OW26050   0.757   2.898   2.889
 8384SOL    HW126051   0.807   2.940   2.965
 8384SOL    HW226052   0.791   2.806   2.873
 8385SOL     OW26053   4.362   3.116   1.351
 8385SOL    HW126054   4.385   3.211   1.371
 8385SOL    HW226055   4.315   3.076   1.430
 8386SOL     OW26056   2.386   5.684   1.880
 8386SOL    HW126057   2.331   5.718   1.956
 8386SOL    HW226058   2.473   5.734   1.876
 8387SOL     OW26059   1.574   1.180   3.062
 8387SOL    HW126060   1.556   1.265   3.110
 8387SOL    HW226061   1.589   1.199   2.965
 8388SOL     OW26062   4.869   6.197   1.343
 8388SOL    HW126063   4.940   6.132   1.371
 8388SOL    HW226064   4.781   6.150   1.339
 8389SOL     OW26065   0.196   2.636   3.772
 8389SOL    HW126066   0.268   2.657   3.707
 8389SOL    HW226067   0.210   2.688   3.856
 8390SOL     OW26068   2.896   6.879   5.451
 8390SOL    HW126069   2.879   6.873   5.549
 8390SOL    HW226070   2.982   6.832   5.429
 8391SOL     OW26071   5.502   6.099   1.246
 8391SOL    HW126072   5.520   6.159   1.324
 8391SOL    HW226073   5.588   6.060   1.214
 8392SOL     OW26074   6.311   6.434   5.824
 8392SOL    HW126075   6.272   6.510   5.876
 8392SOL    HW226076   6.374   6.382   5.883
 8393SOL     OW26077   0.035   5.765   2.999
 8393SOL    HW126078   6.993   5.785   3.073
 8393SOL    HW226079   0.109   5.708   3.034
 8394SOL     OW26080   0.917   1.816   2.740
 8394SOL    HW126081   0.994   1.763   2.777
 8394SOL    HW226082   0.853   1.837   2.814
 8395SOL     OW26083   0.811   6.260   5.800
 8395SOL    HW126084   0.901   6.280   5.760
 8395SOL    HW226085   0.740   6.268   5.730
 8396SOL     OW26086   4.718   3.579   1.395
 8396SOL    HW126087   4.663   3.499   1.374
 8396SOL    HW226088   4.703   3.649   1.326
 8397SOL     OW26089   1.823   5.470   3.652
 8397SOL    HW126090   1.817   5.372   3.633
 8397SOL    HW226091   1.760   5.493   3.726
 8398SOL     OW26092   4.676   1.854   0.567
 8398SOL    HW126093   4.618   1.852   0.486
 8398SOL    HW226094   4.620   1.834   0.648
 8399SOL     OW26095   5.645   5.793   0.303
 8399SOL    HW126096   5.570   5.775   0.367
 8399SOL    HW226097   5.609   5.844   0.225
 8400SOL     OW26098   6.332   0.319   3.880
 8400SOL    HW126099   6.246   0.370   3.870
 8400SOL    HW226100   6.322   0.229   3.838
 8401SOL     OW26101   3.094   4.948   6.140
 8401SOL    HW126102   3.183   4.989   6.121
 8401SOL    HW226103   3.103   4.848   6.141
 8402SOL     OW26104   4.300   2.083   0.283
 8402SOL    HW126105   4.234   2.068   0.210
 8402SOL    HW226106   4.338   2.175   0.276
 8403SOL     OW26107   1.300   2.148   4.572
 8403SOL    HW126108   1.303   2.076   4.641
 8403SOL    HW226109   1.324   2.109   4.483
 8404SOL     OW26110   4.402   4.764   5.480
 8404SOL    HW126111   4.406   4.684   5.539
 8404SOL    HW226112   4.412   4.847   5.536
 8405SOL     OW26113   0.689   2.845   5.177
 8405SOL    HW126114   0.668   2.779   5.104
 8405SOL    HW226115   0.749   2.916   5.141
 8406SOL     OW26116   5.196   3.431   1.622
 8406SOL    HW126117   5.237   3.399   1.707
 8406SOL    HW226118   5.119   3.372   1.598
 8407SOL     OW26119   5.080   4.023   2.457
 8407SOL    HW126120   4.989   4.043   2.421
 8407SOL    HW226121   5.076   4.022   2.557
 8408SOL     OW26122   4.691   2.705   3.949
 8408SOL    HW126123   4.615   2.643   3.965
 8408SOL    HW226124   4.753   2.665   3.880
 8409SOL     OW26125   0.727   2.607   4.015
 8409SOL    HW126126   0.810   2.555   3.996
 8409SOL    HW226127   0.716   2.617   4.114
 8410SOL     OW26128   3.825   6.881   2.353
 8410SOL    HW126129   3.776   6.968   2.361
 8410SOL    HW226130   3.774   6.810   2.402
 8411SOL     OW26131   2.037   2.895   3.641
 8411SOL    HW126132   2.022   2.828   3.714
 8411SOL    HW226133   2.119   2.948   3.662
 8412SOL     OW26134   6.325   2.818   2.759
 8412SOL    HW126135   6.272   2.747   2.804
 8412SOL    HW226136   6.405   2.840   2.815
 8413SOL     OW26137   2.693   4.177   0.659
 8413SOL    HW126138   2.651   4.148   0.573
 8413SOL    HW226139   2.694   4.100   0.723
 8414SOL     OW26140   4.891   6.640   2.557
 8414SOL    HW126141   4.817   6.594   2.507
 8414SOL    HW226142   4.920   6.721   2.507
 8415SOL     OW26143   6.341   3.080   2.454
 8415SOL    HW126144   6.395   3.160   2.480
 8415SOL    HW226145   6.297   3.043   2.535
 8416SOL     OW26146   5.090   3.793   2.278
 8416SOL    HW126147   5.012   3.818   2.220
 8416SOL    HW226148   5.094   3.854   2.357
 8417SOL     OW26149   2.725   6.104   5.929
 8417SOL    HW126150   2.643   6.061   5.965
 8417SOL    HW226151   2.703   6.153   5.844
 8418SOL     OW26152   5.888   5.578   2.726
 8418SOL    HW126153   5.885   5.677   2.717
 8418SOL    HW226154   5.809   5.538   2.679
 8419SOL     OW26155   4.156   0.065   3.737
 8419SOL    HW126156   4.177   0.140   3.673
 8419SOL    HW226157   4.078   0.090   3.794
 8420SOL     OW26158   3.850   1.826   6.124
 8420SOL    HW126159   3.827   1.878   6.207
 8420SOL    HW226160   3.864   1.730   6.148
 8421SOL     OW26161   2.126   6.924   1.790
 8421SOL    HW126162   2.213   6.928   1.741
 8421SOL    HW226163   2.088   7.016   1.800
 8422SOL     OW26164   4.021   0.124   1.723
 8422SOL    HW126165   4.002   0.221   1.741
 8422SOL    HW226166   4.119   0.107   1.732
 8423SOL     OW26167   2.975   4.156   1.510
 8423SOL    HW126168   3.001   4.060   1.508
 8423SOL    HW226169   2.979   4.190   1.603
 8424SOL     OW26170   3.004   2.127   2.790
 8424SOL    HW126171   3.030   2.039   2.829
 8424SOL    HW226172   3.061   2.199   2.830
 8425SOL     OW26173   5.470   5.193   0.139
 8425SOL    HW126174   5.528   5.258   0.092
 8425SOL    HW226175   5.470   5.106   0.090
 8426SOL     OW26176   3.844   3.462   2.559
 8426SOL    HW126177   3.746   3.442   2.565
 8426SOL    HW226178   3.863   3.507   2.472
 8427SOL     OW26179   2.134   3.662   6.271
 8427SOL    HW126180   2.177   3.748   6.299
 8427SOL    HW226181   2.201   3.589   6.274
 8428SOL     OW26182   5.872   4.650   2.261
 8428SOL    HW126183   5.963   4.653   2.302
 8428SOL    HW226184   5.878   4.613   2.169
 8429SOL     OW26185   1.655   6.146   2.615
 8429SOL    HW126186   1.664   6.069   2.678
 8429SOL    HW226187   1.739   6.157   2.563
 8430SOL     OW26188   4.520   4.419   3.156
 8430SOL    HW126189   4.471   4.457   3.234
 8430SOL    HW226190   4.514   4.483   3.079
 8431SOL     OW26191   3.108   4.086   0.957
 8431SOL    HW126192   3.128   4.026   1.034
 8431SOL    HW226193   3.178   4.076   0.887
 8432SOL     OW26194   4.377   6.240   6.526
 8432SOL    HW126195   4.403   6.238   6.622
 8432SOL    HW226196   4.290   6.288   6.516
 8433SOL     OW26197   0.919   1.461   5.091
 8433SOL    HW126198   0.824   1.437   5.075
 8433SOL    HW226199   0.929   1.560   5.096
 8434SOL     OW26200   5.561   6.462   5.693
 8434SOL    HW126201   5.607   6.430   5.610
 8434SOL    HW226202   5.630   6.479   5.764
 8435SOL     OW26203   4.578   2.066   1.305
 8435SOL    HW126204   4.524   2.040   1.385
 8435SOL    HW226205   4.605   2.162   1.313
 8436SOL     OW26206   3.692   4.634   1.387
 8436SOL    HW126207   3.687   4.535   1.392
 8436SOL    HW226208   3.771   4.660   1.331
 8437SOL     OW26209   0.150   1.082   1.175
 8437SOL    HW126210   0.121   1.117   1.086
 8437SOL    HW226211   0.161   0.983   1.169
 8438SOL     OW26212   1.883   6.616   2.025
 8438SOL    HW126213   1.854   6.546   2.090
 8438SOL    HW226214   1.978   6.641   2.043
 8439SOL     OW26215   6.587   6.324   1.938
 8439SOL    HW126216   6.605   6.412   1.982
 8439SOL    HW226217   6.640   6.317   1.854
 8440SOL     OW26218   0.430   1.704   3.644
 8440SOL    HW126219   0.471   1.626   3.597
 8440SOL    HW226220   0.374   1.672   3.720
 8441SOL     OW26221   4.202   5.350   0.692
 8441SOL    HW126222   4.208   5.332   0.594
 8441SOL    HW226223   4.237   5.271   0.743
 8442SOL     OW26224   2.117   4.093   0.351
 8442SOL    HW126225   2.153   4.111   0.260
 8442SOL    HW226226   2.167   4.147   0.418
 8443SOL     OW26227   2.274   1.242   2.159
 8443SOL    HW126228   2.343   1.269   2.225
 8443SOL    HW226229   2.309   1.168   2.102
 8444SOL     OW26230   3.964   0.008   3.285
 8444SOL    HW126231   3.943   0.036   3.192
 8444SOL    HW226232   4.050   6.979   3.286
 8445SOL     OW26233   3.896   4.899   1.929
 8445SOL    HW126234   3.816   4.851   1.966
 8445SOL    HW226235   3.885   4.997   1.943
 8446SOL     OW26236   6.612   4.729   3.385
 8446SOL    HW126237   6.568   4.640   3.379
 8446SOL    HW226238   6.647   4.743   3.478
 8447SOL     OW26239   4.895   3.206   1.054
 8447SOL    HW126240   4.938   3.162   1.133
 8447SOL    HW226241   4.939   3.174   0.970
 8448SOL     OW26242   0.772   3.180   6.403
 8448SOL    HW126243   0.686   3.222   6.372
 8448SOL    HW226244   0.805   3.117   6.333
 8449SOL     OW26245   1.816   2.256   5.499
 8449SOL    HW126246   1.825   2.168   5.452
 8449SOL    HW226247   1.749   2.248   5.572
 8450SOL     OW26248   2.092   5.167   2.418
 8450SOL    HW126249   2.191   5.175   2.406
 8450SOL    HW226250   2.060   5.083   2.376
 8451SOL     OW26251   3.506   3.058   0.694
 8451SOL    HW126252   3.508   2.961   0.716
 8451SOL    HW226253   3.579   3.079   0.628
 8452SOL     OW26254   6.697   5.791   1.202
 8452SOL    HW126255   6.726   5.843   1.283
 8452SOL    HW226256   6.612   5.743   1.222
 8453SOL     OW26257   0.164   4.578   5.741
 8453SOL    HW126258   0.240   4.513   5.739
 8453SOL    HW226259   0.145   4.603   5.836
 8454SOL     OW26260   1.836   6.794   4.824
 8454SOL    HW126261   1.915   6.809   4.765
 8454SOL    HW226262   1.755   6.835   4.782
 8455SOL     OW26263   5.797   1.834   1.610
 8455SOL    HW126264   5.885   1.802   1.645
 8455SOL    HW226265   5.733   1.845   1.686
 8456SOL     OW26266   5.475   5.681   2.799
 8456SOL    HW126267   5.517   5.660   2.710
 8456SOL    HW226268   5.376   5.691   2.788
 8457SOL     OW26269   0.073   6.262   6.736
 8457SOL    HW126270   0.053   6.360   6.746
 8457SOL    HW226271   0.109   6.245   6.644
 8458SOL     OW26272   1.111   1.251   1.264
 8458SOL    HW126273   1.201   1.207   1.257
 8458SOL    HW226274   1.075   1.237   1.356
 8459SOL     OW26275   2.761   5.032   2.748
 8459SOL    HW126276   2.750   5.082   2.662
 8459SOL    HW226277   2.677   4.982   2.769
 8460SOL     OW26278   4.675   0.876   0.636
 8460SOL    HW126279   4.577   0.897   0.642
 8460SOL    HW226280   4.705   0.887   0.541
 8461SOL     OW26281   5.312   4.188   2.482
 8461SOL    HW126282   5.224   4.156   2.446
 8461SOL    HW226283   5.313   4.288   2.485
 8462SOL     OW26284   2.765   4.994   0.043
 8462SOL    HW126285   2.766   4.894   0.049
 8462SOL    HW226286   2.728   5.022   6.977
 8463SOL     OW26287   6.303   0.841   0.245
 8463SOL    HW126288   6.206   0.847   0.222
 8463SOL    HW226289   6.312   0.805   0.338
 8464SOL     OW26290   0.357   3.439   6.186
 8464SOL    HW126291   0.346   3.534   6.155
 8464SOL    HW226292   0.439   3.400   6.143
 8465SOL     OW26293   4.425   3.161   1.063
 8465SOL    HW126294   4.407   3.169   1.161
 8465SOL    HW226295   4.411   3.250   1.019
 8466SOL     OW26296   6.069   1.290   5.639
 8466SOL    HW126297   6.141   1.221   5.640
 8466SOL    HW226298   6.019   1.284   5.553
 8467SOL     OW26299   3.380   0.855   1.204
 8467SOL    HW126300   3.378   0.953   1.220
 8467SOL    HW226301   3.294   0.826   1.162
 8468SOL     OW26302   6.147   2.918   0.442
 8468SOL    HW126303   6.078   2.846   0.439
 8468SOL    HW226304   6.138   2.977   0.362
 8469SOL     OW26305   4.568   3.199   6.175
 8469SOL    HW126306   4.595   3.154   6.260
 8469SOL    HW226307   4.581   3.297   6.184
 8470SOL     OW26308   1.724   4.777   1.515
 8470SOL    HW126309   1.741   4.865   1.471
 8470SOL    HW226310   1.692   4.711   1.447
 8471SOL     OW26311   3.576   2.042   4.551
 8471SOL    HW126312   3.600   2.080   4.640
 8471SOL    HW226313   3.660   2.019   4.501
 8472SOL     OW26314   5.594   1.390   5.526
 8472SOL    HW126315   5.592   1.481   5.484
 8472SOL    HW226316   5.623   1.323   5.458
 8473SOL     OW26317   4.768   4.472   6.906
 8473SOL    HW126318   4.702   4.455   6.979
 8473SOL    HW226319   4.850   4.417   6.922
 8474SOL     OW26320   3.350   4.147   2.961
 8474SOL    HW126321   3.373   4.243   2.944
 8474SOL    HW226322   3.395   4.116   3.045
 8475SOL     OW26323   0.453   2.691   2.109
 8475SOL    HW126324   0.512   2.704   2.189
 8475SOL    HW226325   0.495   2.625   2.047
 8476SOL     OW26326   6.206   0.271   2.333
 8476SOL    HW126327   6.203   0.371   2.334
 8476SOL    HW226328   6.113   0.235   2.328
 8477SOL     OW26329   5.464   6.923   1.869
 8477SOL    HW126330   5.552   6.884   1.892
 8477SOL    HW226331   5.475   7.020   1.848
 8478SOL     OW26332   6.264   0.531   5.716
 8478SOL    HW126333   6.199   0.563   5.785
 8478SOL    HW226334   6.315   0.610   5.681
 8479SOL     OW26335   0.861   2.423   0.872
 8479SOL    HW126336   0.778   2.397   0.921
 8479SOL    HW226337   0.924   2.345   0.869
 8480SOL     OW26338   4.308   3.816   7.018
 8480SOL    HW126339   4.305   3.719   6.995
 8480SOL    HW226340   4.275   3.828   0.089
 8481SOL     OW26341   4.414   1.559   3.450
 8481SOL    HW126342   4.318   1.547   3.425
 8481SOL    HW226343   4.450   1.472   3.484
 8482SOL     OW26344   4.714   1.031   0.857
 8482SOL    HW126345   4.619   1.050   0.881
 8482SOL    HW226346   4.718   0.982   0.770
 8483SOL     OW26347   3.296   5.563   2.960
 8483SOL    HW126348   3.227   5.538   3.028
 8483SOL    HW226349   3.285   5.505   2.879
 8484SOL     OW26350   5.333   5.489   4.814
 8484SOL    HW126351   5.406   5.536   4.865
 8484SOL    HW226352   5.372   5.413   4.762
 8485SOL     OW26353   3.237   2.607   0.306
 8485SOL    HW126354   3.286   2.692   0.289
 8485SOL    HW226355   3.301   2.530   0.301
 8486SOL     OW26356   0.614   2.024   3.014
 8486SOL    HW126357   0.549   1.977   3.074
 8486SOL    HW226358   0.695   1.967   3.003
 8487SOL     OW26359   6.086   1.545   5.751
 8487SOL    HW126360   6.098   1.457   5.705
 8487SOL    HW226361   6.009   1.539   5.816
 8488SOL     OW26362   4.322   4.865   1.430
 8488SOL    HW126363   4.265   4.793   1.470
 8488SOL    HW226364   4.417   4.833   1.422
 8489SOL     OW26365   5.203   2.051   1.948
 8489SOL    HW126366   5.272   2.123   1.955
 8489SOL    HW226367   5.248   1.962   1.944
 8490SOL     OW26368   2.743   0.183   6.500
 8490SOL    HW126369   2.779   0.198   6.593
 8490SOL    HW226370   2.772   0.093   6.468
 8491SOL     OW26371   3.057   5.703   1.905
 8491SOL    HW126372   3.144   5.752   1.907
 8491SOL    HW226373   3.054   5.644   1.824
 8492SOL     OW26374   6.999   6.389   4.183
 8492SOL    HW126375   0.049   6.352   4.240
 8492SOL    HW226376   7.009   6.489   4.177
 8493SOL     OW26377   4.659   0.868   6.841
 8493SOL    HW126378   4.625   0.791   6.895
 8493SOL    HW226379   4.591   0.942   6.841
 8494SOL     OW26380   6.500   4.513   2.386
 8494SOL    HW126381   6.411   4.476   2.360
 8494SOL    HW226382   6.561   4.437   2.409
 8495SOL     OW26383   6.626   5.498   6.961
 8495SOL    HW126384   6.713   5.546   6.947
 8495SOL    HW226385   6.620   5.421   6.896
 8496SOL     OW26386   5.441   3.106   1.814
 8496SOL    HW126387   5.355   3.056   1.824
 8496SOL    HW226388   5.480   3.088   1.724
 8497SOL     OW26389   6.895   0.896   3.805
 8497SOL    HW126390   6.992   0.900   3.781
 8497SOL    HW226391   6.882   0.833   3.882
 8498SOL     OW26392   4.587   0.276   3.904
 8498SOL    HW126393   4.614   0.276   3.807
 8498SOL    HW226394   4.632   0.352   3.951
 8499SOL     OW26395   6.266   6.727   6.395
 8499SOL    HW126396   6.304   6.756   6.307
 8499SOL    HW226397   6.229   6.807   6.443
 8500SOL     OW26398   0.873   0.624   4.842
 8500SOL    HW126399   0.929   0.620   4.759
 8500SOL    HW226400   0.932   0.619   4.922
 8501SOL     OW26401   0.860   2.430   6.107
 8501SOL    HW126402   0.938   2.469   6.156
 8501SOL    HW226403   0.853   2.332   6.127
 8502SOL     OW26404   0.831   3.709   0.046
 8502SOL    HW126405   0.739   3.687   0.079
 8502SOL    HW226406   0.897   3.646   0.086
 8503SOL     OW26407   5.960   1.363   4.556
 8503SOL    HW126408   5.986   1.267   4.555
 8503SOL    HW226409   6.007   1.410   4.631
 8504SOL     OW26410   1.211   6.159   1.799
 8504SOL    HW126411   1.116   6.183   1.820
 8504SOL    HW226412   1.260   6.141   1.885
 8505SOL     OW26413   4.866   3.470   2.808
 8505SOL    HW126414   4.913   3.403   2.752
 8505SOL    HW226415   4.858   3.556   2.759
 8506SOL     OW26416   1.873   0.548   6.251
 8506SOL    HW126417   1.839   0.481   6.317
 8506SOL    HW226418   1.886   0.636   6.298
 8507SOL     OW26419   3.628   6.435   5.279
 8507SOL    HW126420   3.652   6.358   5.339
 8507SOL    HW226421   3.699   6.505   5.286
 8508SOL     OW26422   3.398   1.732   6.543
 8508SOL    HW126423   3.334   1.792   6.591
 8508SOL    HW226424   3.393   1.750   6.445
 8509SOL     OW26425   5.507   1.886   3.087
 8509SOL    HW126426   5.595   1.875   3.134
 8509SOL    HW226427   5.462   1.970   3.120
 8510SOL     OW26428   6.475   2.242   4.721
 8510SOL    HW126429   6.469   2.342   4.724
 8510SOL    HW226430   6.504   2.213   4.630
 8511SOL     OW26431   5.861   2.605   2.332
 8511SOL    HW126432   5.876   2.674   2.261
 8511SOL    HW226433   5.812   2.646   2.409
 8512SOL     OW26434   2.262   6.890   5.763
 8512SOL    HW126435   2.296   6.922   5.674
 8512SOL    HW226436   2.191   6.953   5.796
 8513SOL     OW26437   5.076   6.713   6.209
 8513SOL    HW126438   5.023   6.677   6.132
 8513SOL    HW226439   5.095   6.810   6.194
 8514SOL     OW26440   3.160   6.107   3.950
 8514SOL    HW126441   3.088   6.167   3.985
 8514SOL    HW226442   3.222   6.159   3.892
 8515SOL     OW26443   5.905   1.531   0.935
 8515SOL    HW126444   5.845   1.453   0.920
 8515SOL    HW226445   5.997   1.499   0.959
 8516SOL     OW26446   6.909   2.398   2.633
 8516SOL    HW126447   6.927   2.427   2.727
 8516SOL    HW226448   6.981   2.336   2.603
 8517SOL     OW26449   1.311   4.062   0.471
 8517SOL    HW126450   1.215   4.090   0.470
 8517SOL    HW226451   1.325   3.987   0.407
 8518SOL     OW26452   3.356   5.433   0.870
 8518SOL    HW126453   3.279   5.369   0.875
 8518SOL    HW226454   3.435   5.388   0.830
 8519SOL     OW26455   1.555   4.783   2.837
 8519SOL    HW126456   1.604   4.779   2.925
 8519SOL    HW226457   1.614   4.826   2.769
 8520SOL     OW26458   2.547   0.560   0.017
 8520SOL    HW126459   2.588   0.641   0.057
 8520SOL    HW226460   2.449   0.559   0.038
 8521SOL     OW26461   1.251   6.934   6.701
 8521SOL    HW126462   1.239   0.009   6.719
 8521SOL    HW226463   1.297   6.923   6.612
 8522SOL     OW26464   1.808   6.207   4.946
 8522SOL    HW126465   1.806   6.209   4.846
 8522SOL    HW226466   1.734   6.149   4.979
 8523SOL     OW26467   1.468   0.093   6.816
 8523SOL    HW126468   1.434   0.156   6.886
 8523SOL    HW226469   1.507   0.146   6.740
 8524SOL     OW26470   1.522   2.226   6.003
 8524SOL    HW126471   1.464   2.147   6.025
 8524SOL    HW226472   1.606   2.195   5.958
 8525SOL     OW26473   5.127   2.842   3.135
 8525SOL    HW126474   5.069   2.918   3.163
 8525SOL    HW226475   5.069   2.764   3.109
 8526SOL     OW26476   2.132   2.865   1.989
 8526SOL    HW126477   2.204   2.877   1.921
 8526SOL    HW226478   2.069   2.942   1.985
 8527SOL     OW26479   4.209   0.107   4.340
 8527SOL    HW126480   4.216   0.008   4.342
 8527SOL    HW226481   4.219   0.139   4.246
 8528SOL     OW26482   4.978   2.652   6.849
 8528SOL    HW126483   4.970   2.748   6.822
 8528SOL    HW226484   5.075   2.627   6.855
 8529SOL     OW26485   0.089   4.391   0.024
 8529SOL    HW126486   0.175   4.442   0.029
 8529SOL    HW226487   0.035   4.410   0.106
 8530SOL     OW26488   1.607   3.097   5.851
 8530SOL    HW126489   1.616   3.187   5.895
 8530SOL    HW226490   1.653   3.028   5.907
 8531SOL     OW26491   4.299   4.726   2.881
 8531SOL    HW126492   4.357   4.807   2.884
 8531SOL    HW226493   4.203   4.752   2.891
 8532SOL     OW26494   1.309   4.434   5.841
 8532SOL    HW126495   1.328   4.341   5.873
 8532SOL    HW226496   1.364   4.453   5.759
 8533SOL     OW26497   3.483   0.608   5.890
 8533SOL    HW126498   3.400   0.627   5.942
 8533SOL    HW226499   3.513   0.691   5.843
 8534SOL     OW26500   1.977   2.798   2.923
 8534SOL    HW126501   2.035   2.792   3.005
 8534SOL    HW226502   2.034   2.811   2.842
 8535SOL     OW26503   6.724   2.962   4.154
 8535SOL    HW126504   6.748   2.910   4.072
 8535SOL    HW226505   6.666   3.040   4.129
 8536SOL     OW26506   6.965   1.325   4.504
 8536SOL    HW126507   0.024   1.383   4.500
 8536SOL    HW226508   6.914   1.334   4.419
 8537SOL     OW26509   6.442   0.556   2.077
 8537SOL    HW126510   6.358   0.596   2.043
 8537SOL    HW226511   6.476   0.488   2.012
 8538SOL     OW26512   5.774   1.388   4.858
 8538SOL    HW126513   5.790   1.468   4.801
 8538SOL    HW226514   5.857   1.331   4.859
 8539SOL     OW26515   6.974   3.042   2.463
 8539SOL    HW126516   6.894   3.038   2.404
 8539SOL    HW226517   6.950   3.090   2.548
 8540SOL     OW26518   3.886   0.449   0.328
 8540SOL    HW126519   3.885   0.399   0.415
 8540SOL    HW226520   3.809   0.513   0.325
 8541SOL     OW26521   3.499   6.766   5.151
 8541SOL    HW126522   3.559   6.688   5.138
 8541SOL    HW226523   3.453   6.789   5.065
 8542SOL     OW26524   1.364   5.173   6.084
 8542SOL    HW126525   1.305   5.230   6.028
 8542SOL    HW226526   1.359   5.203   6.179
 8543SOL     OW26527   2.112   2.556   6.192
 8543SOL    HW126528   2.112   2.623   6.265
 8543SOL    HW226529   2.018   2.536   6.164
 8544SOL     OW26530   5.596   4.560   5.905
 8544SOL    HW126531   5.625   4.586   5.813
 8544SOL    HW226532   5.636   4.623   5.971
 8545SOL     OW26533   2.508   0.296   6.378
 8545SOL    HW126534   2.526   0.352   6.297
 8545SOL    HW226535   2.595   0.263   6.415
 8546SOL     OW26536   5.122   1.010   2.328
 8546SOL    HW126537   5.049   0.959   2.282
 8546SOL    HW226538   5.083   1.070   2.397
 8547SOL     OW26539   5.602   5.974   5.889
 8547SOL    HW126540   5.558   5.914   5.824
 8547SOL    HW226541   5.550   6.059   5.897
 8548SOL     OW26542   0.481   3.353   5.759
 8548SOL    HW126543   0.438   3.421   5.699
 8548SOL    HW226544   0.528   3.399   5.834
 8549SOL     OW26545   2.081   7.016   4.225
 8549SOL    HW126546   2.058   0.086   4.255
 8549SOL    HW226547   2.089   7.014   4.125
 8550SOL     OW26548   6.617   4.283   6.165
 8550SOL    HW126549   6.674   4.205   6.190
 8550SOL    HW226550   6.676   4.361   6.141
 8551SOL     OW26551   2.100   0.686   5.773
 8551SOL    HW126552   2.173   0.622   5.750
 8551SOL    HW226553   2.086   0.686   5.872
 8552SOL     OW26554   3.317   1.857   2.560
 8552SOL    HW126555   3.358   1.946   2.540
 8552SOL    HW226556   3.225   1.871   2.598
 8553SOL     OW26557   5.076   4.159   0.160
 8553SOL    HW126558   5.137   4.146   0.238
 8553SOL    HW226559   5.022   4.242   0.173
 8554SOL     OW26560   2.212   1.192   0.534
 8554SOL    HW126561   2.153   1.180   0.613
 8554SOL    HW226562   2.306   1.208   0.564
 8555SOL     OW26563   3.722   1.240   4.065
 8555SOL    HW126564   3.729   1.243   4.165
 8555SOL    HW226565   3.807   1.202   4.027
 8556SOL     OW26566   1.772   5.721   0.690
 8556SOL    HW126567   1.695   5.725   0.626
 8556SOL    HW226568   1.779   5.629   0.728
 8557SOL     OW26569   6.615   0.629   6.284
 8557SOL    HW126570   6.521   0.602   6.266
 8557SOL    HW226571   6.623   0.729   6.274
 8558SOL     OW26572   3.202   6.307   4.402
 8558SOL    HW126573   3.245   6.242   4.339
 8558SOL    HW226574   3.115   6.270   4.433
 8559SOL     OW26575   2.032   4.747   2.829
 8559SOL    HW126576   1.988   4.659   2.844
 8559SOL    HW226577   2.108   4.736   2.765
 8560SOL     OW26578   2.260   4.648   0.450
 8560SOL    HW126579   2.187   4.588   0.485
 8560SOL    HW226580   2.307   4.602   0.375
 8561SOL     OW26581   4.837   0.648   2.707
 8561SOL    HW126582   4.824   0.680   2.801
 8561SOL    HW226583   4.919   0.690   2.668
 8562SOL     OW26584   5.088   1.914   6.974
 8562SOL    HW126585   5.021   1.956   0.013
 8562SOL    HW226586   5.178   1.914   7.017
 8563SOL     OW26587   2.756   5.052   2.434
 8563SOL    HW126588   2.847   5.059   2.393
 8563SOL    HW226589   2.694   5.006   2.371
 8564SOL     OW26590   3.936   0.153   0.297
 8564SOL    HW126591   4.015   0.096   0.319
 8564SOL    HW226592   3.967   0.234   0.246
 8565SOL     OW26593   1.426   4.879   0.964
 8565SOL    HW126594   1.379   4.792   0.951
 8565SOL    HW226595   1.523   4.867   0.942
 8566SOL     OW26596   3.340   1.367   2.293
 8566SOL    HW126597   3.277   1.438   2.326
 8566SOL    HW226598   3.293   1.310   2.226
 8567SOL     OW26599   1.553   3.119   1.802
 8567SOL    HW126600   1.587   3.110   1.895
 8567SOL    HW226601   1.628   3.103   1.738
 8568SOL     OW26602   5.954   0.346   6.980
 8568SOL    HW126603   5.874   0.393   7.015
 8568SOL    HW226604   6.033   0.407   6.982
 8569SOL     OW26605   4.015   2.087   6.728
 8569SOL    HW126606   3.998   2.117   6.822
 8569SOL    HW226607   4.032   2.166   6.670
 8570SOL     OW26608   2.098   2.589   2.096
 8570SOL    HW126609   2.115   2.668   2.037
 8570SOL    HW226610   2.037   2.616   2.170
 8571SOL     OW26611   1.701   0.865   2.832
 8571SOL    HW126612   1.753   0.853   2.917
 8571SOL    HW226613   1.751   0.821   2.757
 8572SOL     OW26614   2.183   4.295   5.843
 8572SOL    HW126615   2.283   4.287   5.846
 8572SOL    HW226616   2.157   4.390   5.861
 8573SOL     OW26617   3.373   6.490   0.229
 8573SOL    HW126618   3.320   6.485   0.144
 8573SOL    HW226619   3.434   6.569   0.226
 8574SOL     OW26620   4.996   0.576   4.842
 8574SOL    HW126621   5.008   0.570   4.743
 8574SOL    HW226622   4.968   0.670   4.866
 8575SOL     OW26623   3.223   6.128   3.524
 8575SOL    HW126624   3.172   6.046   3.549
 8575SOL    HW226625   3.307   6.132   3.576
 8576SOL     OW26626   1.360   4.620   3.685
 8576SOL    HW126627   1.426   4.614   3.609
 8576SOL    HW226628   1.267   4.617   3.648
 8577SOL     OW26629   1.767   1.807   0.315
 8577SOL    HW126630   1.729   1.728   0.267
 8577SOL    HW226631   1.865   1.815   0.294
 8578SOL     OW26632   0.174   6.619   6.608
 8578SOL    HW126633   0.201   6.532   6.569
 8578SOL    HW226634   0.080   6.614   6.641
 8579SOL     OW26635   2.691   6.671   2.190
 8579SOL    HW126636   2.722   6.632   2.103
 8579SOL    HW226637   2.752   6.640   2.263
 8580SOL     OW26638   1.839   0.878   1.118
 8580SOL    HW126639   1.878   0.902   1.207
 8580SOL    HW226640   1.905   0.898   1.046
 8581SOL     OW26641   3.399   4.685   1.558
 8581SOL    HW126642   3.341   4.604   1.553
 8581SOL    HW226643   3.361   4.748   1.627
 8582SOL     OW26644   3.396   4.938   5.732
 8582SOL    HW126645   3.388   4.839   5.724
 8582SOL    HW226646   3.328   4.982   5.674
 8583SOL     OW26647   4.099   0.590   2.890
 8583SOL    HW126648   4.027   0.543   2.942
 8583SOL    HW226649   4.064   0.679   2.859
 8584SOL     OW26650   6.877   1.725   5.342
 8584SOL    HW126651   6.808   1.782   5.298
 8584SOL    HW226652   6.834   1.641   5.375
 8585SOL     OW26653   5.717   2.614   2.593
 8585SOL    HW126654   5.779   2.606   2.671
 8585SOL    HW226655   5.665   2.530   2.583
 8586SOL     OW26656   6.762   6.142   0.187
 8586SOL    HW126657   6.800   6.113   0.275
 8586SOL    HW226658   6.834   6.184   0.132
 8587SOL     OW26659   0.573   1.658   6.883
 8587SOL    HW126660   0.523   1.730   6.931
 8587SOL    HW226661   0.516   1.622   6.810
 8588SOL     OW26662   3.064   1.851   6.221
 8588SOL    HW126663   3.048   1.848   6.122
 8588SOL    HW226664   2.987   1.808   6.268
 8589SOL     OW26665   6.556   3.002   6.874
 8589SOL    HW126666   6.479   3.027   6.816
 8589SOL    HW226667   6.577   3.078   6.936
 8590SOL     OW26668   0.897   0.178   4.399
 8590SOL    HW126669   0.804   0.209   4.379
 8590SOL    HW226670   0.896   0.116   4.478
 8591SOL     OW26671   6.836   4.742   6.617
 8591SOL    HW126672   6.869   4.767   6.708
 8591SOL    HW226673   6.893   4.668   6.581
 8592SOL     OW26674   0.350   1.766   4.960
 8592SOL    HW126675   0.363   1.808   4.870
 8592SOL    HW226676   0.273   1.809   5.006
 8593SOL     OW26677   4.608   1.447   6.989
 8593SOL    HW126678   4.528   1.420   6.936
 8593SOL    HW226679   4.589   1.437   0.063
 8594SOL     OW26680   6.542   2.867   6.204
 8594SOL    HW126681   6.497   2.914   6.280
 8594SOL    HW226682   6.474   2.815   6.152
 8595SOL     OW26683   5.966   6.590   3.164
 8595SOL    HW126684   5.966   6.493   3.188
 8595SOL    HW226685   6.042   6.609   3.102
 8596SOL     OW26686   0.946   1.370   4.298
 8596SOL    HW126687   0.902   1.418   4.222
 8596SOL    HW226688   1.045   1.365   4.282
 8597SOL     OW26689   5.689   3.732   6.860
 8597SOL    HW126690   5.769   3.779   6.821
 8597SOL    HW226691   5.615   3.798   6.874
 8598SOL     OW26692   6.116   6.510   4.754
 8598SOL    HW126693   6.181   6.520   4.679
 8598SOL    HW226694   6.051   6.437   4.734
 8599SOL     OW26695   6.864   3.392   4.247
 8599SOL    HW126696   6.895   3.469   4.192
 8599SOL    HW226697   6.805   3.425   4.321
 8600SOL     OW26698   4.849   1.864   0.999
 8600SOL    HW126699   4.919   1.934   0.982
 8600SOL    HW226700   4.824   1.820   0.913
 8601SOL     OW26701   0.421   6.460   3.864
 8601SOL    HW126702   0.340   6.426   3.815
 8601SOL    HW226703   0.500   6.403   3.841
 8602SOL     OW26704   2.074   6.168   4.914
 8602SOL    HW126705   1.974   6.168   4.910
 8602SOL    HW226706   2.111   6.223   4.839
 8603SOL     OW26707   0.154   0.097   0.395
 8603SOL    HW126708   0.100   0.034   0.451
 8603SOL    HW226709   0.099   0.177   0.372
 8604SOL     OW26710   6.956   4.413   6.470
 8604SOL    HW126711   6.863   4.445   6.489
 8604SOL    HW226712   6.994   4.464   6.393
 8605SOL     OW26713   6.976   4.931   4.954
 8605SOL    HW126714   6.929   4.984   4.883
 8605SOL    HW226715   6.957   4.834   4.941
 8606SOL     OW26716   1.755   2.159   0.656
 8606SOL    HW126717   1.668   2.207   0.658
 8606SOL    HW226718   1.741   2.062   0.679
 8607SOL     OW26719   2.448   4.052   1.354
 8607SOL    HW126720   2.496   4.012   1.433
 8607SOL    HW226721   2.498   4.030   1.270
 8608SOL     OW26722   1.786   4.879   2.716
 8608SOL    HW126723   1.854   4.806   2.718
 8608SOL    HW226724   1.778   4.919   2.807
 8609SOL     OW26725   4.150   1.542   4.061
 8609SOL    HW126726   4.248   1.525   4.074
 8609SOL    HW226727   4.134   1.640   4.053
 8610SOL     OW26728   6.838   6.078   3.462
 8610SOL    HW126729   6.829   6.112   3.555
 8610SOL    HW226730   6.930   6.097   3.428
 8611SOL     OW26731   3.194   1.397   4.955
 8611SOL    HW126732   3.115   1.441   4.913
 8611SOL    HW226733   3.167   1.308   4.993
 8612SOL     OW26734   3.416   3.708   4.013
 8612SOL    HW126735   3.509   3.678   3.992
 8612SOL    HW226736   3.357   3.629   4.024
 8613SOL     OW26737   3.934   2.966   2.106
 8613SOL    HW126738   3.837   2.958   2.085
 8613SOL    HW226739   3.978   2.877   2.092
 8614SOL     OW26740   1.872   1.538   2.979
 8614SOL    HW126741   1.861   1.478   2.899
 8614SOL    HW226742   1.794   1.599   2.985
 8615SOL     OW26743   3.933   1.453   4.459
 8615SOL    HW126744   4.025   1.449   4.422
 8615SOL    HW226745   3.936   1.437   4.558
 8616SOL     OW26746   5.900   4.269   3.302
 8616SOL    HW126747   5.877   4.365   3.316
 8616SOL    HW226748   5.839   4.212   3.357
 8617SOL     OW26749   2.907   0.449   3.486
 8617SOL    HW126750   2.836   0.496   3.539
 8617SOL    HW226751   2.910   0.353   3.511
 8618SOL     OW26752   5.169   4.203   1.251
 8618SOL    HW126753   5.240   4.250   1.198
 8618SOL    HW226754   5.084   4.253   1.244
 8619SOL     OW26755   4.917   5.031   0.751
 8619SOL    HW126756   5.014   5.007   0.759
 8619SOL    HW226757   4.899   5.114   0.804
 8620SOL     OW26758   2.641   0.586   4.198
 8620SOL    HW126759   2.653   0.642   4.279
 8620SOL    HW226760   2.728   0.581   4.148
 8621SOL     OW26761   5.551   3.061   1.565
 8621SOL    HW126762   5.621   3.124   1.530
 8621SOL    HW226763   5.534   2.989   1.498
 8622SOL     OW26764   6.736   5.055   3.036
 8622SOL    HW126765   6.774   5.012   3.118
 8622SOL    HW226766   6.652   5.009   3.010
 8623SOL     OW26767   1.092   3.730   4.312
 8623SOL    HW126768   1.051   3.815   4.277
 8623SOL    HW226769   1.110   3.668   4.236
 8624SOL     OW26770   3.018   3.894   4.821
 8624SOL    HW126771   3.025   3.961   4.747
 8624SOL    HW226772   3.101   3.838   4.822
 8625SOL     OW26773   4.052   2.832   5.794
 8625SOL    HW126774   3.956   2.856   5.783
 8625SOL    HW226775   4.090   2.877   5.875
 8626SOL     OW26776   3.652   3.613   0.578
 8626SOL    HW126777   3.676   3.537   0.637
 8626SOL    HW226778   3.695   3.601   0.488
 8627SOL     OW26779   2.240   1.071   1.808
 8627SOL    HW126780   2.241   0.978   1.771
 8627SOL    HW226781   2.238   1.137   1.733
 8628SOL     OW26782   0.411   6.809   1.092
 8628SOL    HW126783   0.381   6.903   1.109
 8628SOL    HW226784   0.351   6.746   1.141
 8629SOL     OW26785   0.143   6.447   5.782
 8629SOL    HW126786   0.171   6.419   5.874
 8629SOL    HW226787   0.112   6.542   5.785
 8630SOL     OW26788   4.857   3.094   2.285
 8630SOL    HW126789   4.793   3.098   2.208
 8630SOL    HW226790   4.812   3.050   2.363
 8631SOL     OW26791   2.662   6.651   6.513
 8631SOL    HW126792   2.589   6.621   6.452
 8631SOL    HW226793   2.700   6.572   6.561
 8632SOL     OW26794   5.571   5.261   5.419
 8632SOL    HW126795   5.475   5.276   5.395
 8632SOL    HW226796   5.576   5.197   5.496
 8633SOL     OW26797   5.582   4.334   6.207
 8633SOL    HW126798   5.499   4.304   6.160
 8633SOL    HW226799   5.615   4.261   6.265
 8634SOL     OW26800   4.388   2.709   0.556
 8634SOL    HW126801   4.395   2.809   0.554
 8634SOL    HW226802   4.476   2.670   0.583
 8635SOL     OW26803   5.328   2.431   6.039
 8635SOL    HW126804   5.362   2.345   6.076
 8635SOL    HW226805   5.397   2.471   5.979
 8636SOL     OW26806   4.489   6.697   1.936
 8636SOL    HW126807   4.492   6.713   1.837
 8636SOL    HW226808   4.470   6.783   1.983
 8637SOL     OW26809   1.317   2.149   6.738
 8637SOL    HW126810   1.400   2.145   6.794
 8637SOL    HW226811   1.245   2.095   6.782
 8638SOL     OW26812   5.028   2.591   4.148
 8638SOL    HW126813   4.979   2.507   4.122
 8638SOL    HW226814   5.119   2.590   4.106
 8639SOL     OW26815   3.531   3.770   7.001
 8639SOL    HW126816   3.593   3.693   7.015
 8639SOL    HW226817   3.578   3.855   0.002
 8640SOL     OW26818   2.854   3.314   0.629
 8640SOL    HW126819   2.780   3.362   0.677
 8640SOL    HW226820   2.936   3.313   0.687
 8641SOL     OW26821   4.838   5.775   1.974
 8641SOL    HW126822   4.932   5.804   1.961
 8641SOL    HW226823   4.836   5.686   2.019
 8642SOL     OW26824   0.918   5.666   3.490
 8642SOL    HW126825   1.001   5.644   3.439
 8642SOL    HW226826   0.901   5.595   3.559
 8643SOL     OW26827   3.845   6.217   0.986
 8643SOL    HW126828   3.781   6.153   0.942
 8643SOL    HW226829   3.908   6.166   1.045
 8644SOL     OW26830   6.264   2.235   6.269
 8644SOL    HW126831   6.324   2.211   6.346
 8644SOL    HW226832   6.280   2.172   6.193
 8645SOL     OW26833   5.820   4.300   3.044
 8645SOL    HW126834   5.759   4.377   3.030
 8645SOL    HW226835   5.865   4.308   3.133
 8646SOL     OW26836   6.396   2.304   5.022
 8646SOL    HW126837   6.427   2.296   4.927
 8646SOL    HW226838   6.332   2.380   5.030
 8647SOL     OW26839   2.393   5.419   1.794
 8647SOL    HW126840   2.299   5.390   1.774
 8647SOL    HW226841   2.393   5.512   1.830
 8648SOL     OW26842   5.171   4.938   0.728
 8648SOL    HW126843   5.231   4.998   0.675
 8648SOL    HW226844   5.220   4.908   0.810
 8649SOL     OW26845   5.272   0.161   0.749
 8649SOL    HW126846   5.298   0.200   0.661
 8649SOL    HW226847   5.350   0.163   0.811
 8650SOL     OW26848   2.369   6.328   5.022
 8650SOL    HW126849   2.300   6.362   4.958
 8650SOL    HW226850   2.324   6.294   5.105
 8651SOL     OW26851   3.281   2.096   1.375
 8651SOL    HW126852   3.233   2.125   1.457
 8651SOL    HW226853   3.278   2.169   1.307
 8652SOL     OW26854   1.049   2.915   3.622
 8652SOL    HW126855   1.036   2.832   3.675
 8652SOL    HW226856   1.059   2.993   3.684
 8653SOL     OW26857   6.584   1.327   6.612
 8653SOL    HW126858   6.644   1.407   6.620
 8653SOL    HW226859   6.640   1.245   6.595
 8654SOL     OW26860   0.063   4.427   1.962
 8654SOL    HW126861   0.134   4.438   1.892
 8654SOL    HW226862   0.099   4.460   2.050
 8655SOL     OW26863   0.236   0.818   4.633
 8655SOL    HW126864   0.242   0.875   4.715
 8655SOL    HW226865   0.154   0.761   4.638
 8656SOL     OW26866   5.061   0.170   1.063
 8656SOL    HW126867   5.045   0.169   0.964
 8656SOL    HW226868   5.093   0.260   1.091
 8657SOL     OW26869   4.275   1.070   3.370
 8657SOL    HW126870   4.334   1.145   3.400
 8657SOL    HW226871   4.277   1.064   3.270
 8658SOL     OW26872   6.203   4.322   0.821
 8658SOL    HW126873   6.244   4.258   0.886
 8658SOL    HW226874   6.128   4.371   0.866
 8659SOL     OW26875   3.494   1.054   2.825
 8659SOL    HW126876   3.588   1.047   2.794
 8659SOL    HW226877   3.485   1.134   2.886
 8660SOL     OW26878   0.078   3.889   1.864
 8660SOL    HW126879   0.078   3.843   1.952
 8660SOL    HW226880   0.135   3.838   1.799
 8661SOL     OW26881   6.523   3.702   2.441
 8661SOL    HW126882   6.594   3.729   2.506
 8661SOL    HW226883   6.533   3.605   2.420
 8662SOL     OW26884   1.978   4.049   3.169
 8662SOL    HW126885   1.935   4.113   3.105
 8662SOL    HW226886   1.943   4.065   3.261
 8663SOL     OW26887   4.390   5.810   2.527
 8663SOL    HW126888   4.446   5.882   2.568
 8663SOL    HW226889   4.299   5.846   2.508
 8664SOL     OW26890   3.665   5.918   3.125
 8664SOL    HW126891   3.694   5.943   3.217
 8664SOL    HW226892   3.573   5.878   3.129
 8665SOL     OW26893   5.502   3.573   7.003
 8665SOL    HW126894   5.567   3.637   6.962
 8665SOL    HW226895   5.548   3.485   7.018
 8666SOL     OW26896   4.837   6.886   2.394
 8666SOL    HW126897   4.775   6.855   2.322
 8666SOL    HW226898   4.808   6.976   2.426
 8667SOL     OW26899   5.113   2.087   3.312
 8667SOL    HW126900   5.113   2.187   3.319
 8667SOL    HW226901   5.021   2.055   3.290
 8668SOL     OW26902   5.360   2.355   4.951
 8668SOL    HW126903   5.427   2.323   4.885
 8668SOL    HW226904   5.272   2.371   4.905
 8669SOL     OW26905   6.152   6.064   6.190
 8669SOL    HW126906   6.079   6.092   6.128
 8669SOL    HW226907   6.192   5.978   6.158
 8670SOL     OW26908   6.692   4.451   6.462
 8670SOL    HW126909   6.645   4.533   6.494
 8670SOL    HW226910   6.650   4.419   6.377
 8671SOL     OW26911   0.630   2.713   3.157
 8671SOL    HW126912   0.597   2.664   3.077
 8671SOL    HW226913   0.730   2.708   3.160
 8672SOL     OW26914   0.673   0.972   2.899
 8672SOL    HW126915   0.750   1.035   2.908
 8672SOL    HW226916   0.608   1.009   2.832
 8673SOL     OW26917   0.273   1.760   1.705
 8673SOL    HW126918   0.323   1.673   1.709
 8673SOL    HW226919   0.176   1.744   1.724
 8674SOL     OW26920   0.048   3.680   3.613
 8674SOL    HW126921   0.131   3.699   3.560
 8674SOL    HW226922   7.007   3.757   3.604
 8675SOL     OW26923   3.303   2.166   5.307
 8675SOL    HW126924   3.332   2.097   5.240
 8675SOL    HW226925   3.257   2.241   5.259
 8676SOL     OW26926   5.305   1.216   0.786
 8676SOL    HW126927   5.359   1.142   0.745
 8676SOL    HW226928   5.208   1.191   0.783
 8677SOL     OW26929   2.373   6.808   6.281
 8677SOL    HW126930   2.424   6.742   6.226
 8677SOL    HW226931   2.371   6.897   6.235
 8678SOL     OW26932   1.434   1.732   0.340
 8678SOL    HW126933   1.402   1.670   0.268
 8678SOL    HW226934   1.375   1.813   0.341
 8679SOL     OW26935   1.695   2.161   5.744
 8679SOL    HW126936   1.604   2.144   5.706
 8679SOL    HW226937   1.740   2.073   5.764
 8680SOL     OW26938   6.961   0.927   0.119
 8680SOL    HW126939   6.987   0.855   0.055
 8680SOL    HW226940   6.862   0.936   0.121
 8681SOL     OW26941   5.315   6.537   1.709
 8681SOL    HW126942   5.365   6.551   1.623
 8681SOL    HW226943   5.381   6.519   1.783
 8682SOL     OW26944   2.067   0.735   1.521
 8682SOL    HW126945   2.015   0.807   1.475
 8682SOL    HW226946   2.004   0.666   1.557
 8683SOL     OW26947   1.689   4.294   4.117
 8683SOL    HW126948   1.649   4.255   4.034
 8683SOL    HW226949   1.771   4.346   4.094
 8684SOL     OW26950   1.746   3.972   4.163
 8684SOL    HW126951   1.774   4.067   4.169
 8684SOL    HW226952   1.701   3.955   4.075
 8685SOL     OW26953   5.062   2.349   4.904
 8685SOL    HW126954   5.061   2.399   4.818
 8685SOL    HW226955   5.029   2.256   4.889
 8686SOL     OW26956   1.172   5.480   3.102
 8686SOL    HW126957   1.142   5.570   3.132
 8686SOL    HW226958   1.256   5.490   3.049
 8687SOL     OW26959   4.712   4.499   6.134
 8687SOL    HW126960   4.743   4.495   6.039
 8687SOL    HW226961   4.615   4.472   6.139
 8688SOL     OW26962   0.383   3.789   5.276
 8688SOL    HW126963   0.369   3.839   5.362
 8688SOL    HW226964   0.357   3.847   5.199
 8689SOL     OW26965   3.839   3.308   0.051
 8689SOL    HW126966   3.901   3.349   7.007
 8689SOL    HW226967   3.745   3.337   0.031
 8690SOL     OW26968   1.917   2.304   2.586
 8690SOL    HW126969   1.918   2.402   2.607
 8690SOL    HW226970   1.964   2.288   2.499
 8691SOL     OW26971   3.366   2.524   5.336
 8691SOL    HW126972   3.286   2.482   5.293
 8691SOL    HW226973   3.448   2.473   5.310
 8692SOL     OW26974   4.234   1.740   5.288
 8692SOL    HW126975   4.317   1.686   5.278
 8692SOL    HW226976   4.196   1.760   5.198
 8693SOL     OW26977   6.443   6.963   5.893
 8693SOL    HW126978   6.436   6.946   5.992
 8693SOL    HW226979   6.440   0.039   5.876
 8694SOL     OW26980   5.803   3.396   5.093
 8694SOL    HW126981   5.803   3.298   5.072
 8694SOL    HW226982   5.716   3.436   5.065
 8695SOL     OW26983   3.539   4.526   6.355
 8695SOL    HW126984   3.549   4.610   6.302
 8695SOL    HW226985   3.446   4.520   6.390
 8696SOL     OW26986   3.031   5.164   5.791
 8696SOL    HW126987   3.012   5.263   5.793
 8696SOL    HW226988   2.949   5.116   5.760
 8697SOL     OW26989   2.132   3.406   5.457
 8697SOL    HW126990   2.044   3.442   5.489
 8697SOL    HW226991   2.151   3.319   5.502
 8698SOL     OW26992   5.318   5.778   5.921
 8698SOL    HW126993   5.375   5.795   5.841
 8698SOL    HW226994   5.373   5.733   5.992
 8699SOL     OW26995   1.122   2.825   6.419
 8699SOL    HW126996   1.118   2.731   6.452
 8699SOL    HW226997   1.124   2.825   6.319
 8700SOL     OW26998   1.469   0.272   3.782
 8700SOL    HW126999   1.393   0.209   3.799
 8700SOL    HW227000   1.488   0.326   3.864
 8701SOL     OW27001   0.448   2.516   0.510
 8701SOL    HW127002   0.397   2.577   0.571
 8701SOL    HW227003   0.544   2.542   0.509
 8702SOL     OW27004   5.164   5.013   1.813
 8702SOL    HW127005   5.244   4.976   1.858
 8702SOL    HW227006   5.190   5.093   1.758
 8703SOL     OW27007   2.340   6.049   0.831
 8703SOL    HW127008   2.364   5.955   0.805
 8703SOL    HW227009   2.260   6.078   0.780
 8704SOL     OW27010   0.708   0.309   5.052
 8704SOL    HW127011   0.654   0.333   4.970
 8704SOL    HW227012   0.760   0.389   5.081
 8705SOL     OW27013   4.033   2.420   6.754
 8705SOL    HW127014   3.998   2.387   6.842
 8705SOL    HW227015   3.959   2.466   6.704
 8706SOL     OW27016   4.834   3.632   6.384
 8706SOL    HW127017   4.850   3.729   6.367
 8706SOL    HW227018   4.897   3.578   6.329
 8707SOL     OW27019   1.652   1.919   5.133
 8707SOL    HW127020   1.645   1.969   5.047
 8707SOL    HW227021   1.669   1.822   5.115
 8708SOL     OW27022   6.029   2.574   0.287
 8708SOL    HW127023   5.973   2.559   0.205
 8708SOL    HW227024   6.124   2.592   0.259
 8709SOL     OW27025   6.003   6.668   5.457
 8709SOL    HW127026   6.068   6.733   5.496
 8709SOL    HW227027   6.019   6.577   5.495
 8710SOL     OW27028   2.423   1.331   3.444
 8710SOL    HW127029   2.388   1.329   3.537
 8710SOL    HW227030   2.373   1.266   3.388
 8711SOL     OW27031   1.241   1.470   1.460
 8711SOL    HW127032   1.279   1.525   1.386
 8711SOL    HW227033   1.145   1.493   1.473
 8712SOL     OW27034   1.910   4.191   5.438
 8712SOL    HW127035   1.947   4.163   5.350
 8712SOL    HW227036   1.980   4.178   5.509
 8713SOL     OW27037   0.267   3.764   1.724
 8713SOL    HW127038   0.336   3.741   1.793
 8713SOL    HW227039   0.308   3.818   1.651
 8714SOL     OW27040   0.013   5.625   6.356
 8714SOL    HW127041   0.018   5.671   6.444
 8714SOL    HW227042   0.104   5.622   6.315
 8715SOL     OW27043   2.057   3.352   1.518
 8715SOL    HW127044   2.148   3.333   1.555
 8715SOL    HW227045   2.031   3.280   1.454
 8716SOL     OW27046   6.804   0.135   2.069
 8716SOL    HW127047   6.734   0.109   2.003
 8716SOL    HW227048   6.847   0.052   2.107
 8717SOL     OW27049   2.489   3.697   0.636
 8717SOL    HW127050   2.400   3.680   0.594
 8717SOL    HW227051   2.561   3.671   0.572
 8718SOL     OW27052   2.287   4.752   5.928
 8718SOL    HW127053   2.345   4.801   5.993
 8718SOL    HW227054   2.327   4.758   5.836
 8719SOL     OW27055   3.512   0.563   5.361
 8719SOL    HW127056   3.599   0.602   5.331
 8719SOL    HW227057   3.495   0.589   5.456
 8720SOL     OW27058   6.837   5.315   4.961
 8720SOL    HW127059   6.874   5.376   5.031
 8720SOL    HW227060   6.845   5.220   4.992
 8721SOL     OW27061   0.181   0.121   6.869
 8721SOL    HW127062   0.269   0.161   6.845
 8721SOL    HW227063   0.134   0.091   6.786
 8722SOL     OW27064   3.583   0.973   1.377
 8722SOL    HW127065   3.533   0.888   1.359
 8722SOL    HW227066   3.678   0.953   1.397
 8723SOL     OW27067   4.233   0.397   2.687
 8723SOL    HW127068   4.202   0.470   2.747
 8723SOL    HW227069   4.173   0.317   2.698
 8724SOL     OW27070   4.084   0.967   4.215
 8724SOL    HW127071   4.061   0.933   4.124
 8724SOL    HW227072   4.024   0.924   4.283
 8725SOL     OW27073   0.276   6.782   3.527
 8725SOL    HW127074   0.267   6.732   3.613
 8725SOL    HW227075   0.239   6.727   3.453
 8726SOL     OW27076   0.310   0.757   0.826
 8726SOL    HW127077   0.358   0.731   0.909
 8726SOL    HW227078   0.221   0.711   0.823
 8727SOL     OW27079   4.663   6.593   6.217
 8727SOL    HW127080   4.586   6.542   6.256
 8727SOL    HW227081   4.644   6.692   6.224
 8728SOL     OW27082   6.554   7.014   4.274
 8728SOL    HW127083   6.478   6.960   4.239
 8728SOL    HW227084   6.530   0.088   4.271
 8729SOL     OW27085   4.639   6.283   6.215
 8729SOL    HW127086   4.582   6.340   6.273
 8729SOL    HW227087   4.627   6.309   6.120
 8730SOL     OW27088   4.531   5.236   1.465
 8730SOL    HW127089   4.450   5.184   1.493
 8730SOL    HW227090   4.524   5.259   1.368
 8731SOL     OW27091   0.041   1.550   3.588
 8731SOL    HW127092   0.101   1.588   3.658
 8731SOL    HW227093   6.976   1.598   3.589
 8732SOL     OW27094   6.342   6.711   0.432
 8732SOL    HW127095   6.245   6.733   0.427
 8732SOL    HW227096   6.358   6.648   0.509
 8733SOL     OW27097   6.100   5.406   2.560
 8733SOL    HW127098   6.086   5.330   2.624
 8733SOL    HW227099   6.032   5.477   2.578
 8734SOL     OW27100   6.823   3.351   2.454
 8734SOL    HW127101   6.824   3.282   2.527
 8734SOL    HW227102   6.910   3.350   2.405
 8735SOL     OW27103   6.925   3.414   5.292
 8735SOL    HW127104   6.921   3.509   5.262
 8735SOL    HW227105   7.010   3.372   5.259
 8736SOL     OW27106   1.102   6.017   4.118
 8736SOL    HW127107   1.174   6.018   4.048
 8736SOL    HW227108   1.111   5.935   4.174
 8737SOL     OW27109   1.819   6.216   6.835
 8737SOL    HW127110   1.799   6.269   6.917
 8737SOL    HW227111   1.746   6.231   6.768
 8738SOL     OW27112   1.363   2.956   3.556
 8738SOL    HW127113   1.301   2.879   3.541
 8738SOL    HW227114   1.317   3.024   3.613
 8739SOL     OW27115   4.953   4.139   5.876
 8739SOL    HW127116   4.912   4.177   5.959
 8739SOL    HW227117   4.972   4.042   5.890
 8740SOL     OW27118   2.857   0.220   5.063
 8740SOL    HW127119   2.937   0.230   5.122
 8740SOL    HW227120   2.827   0.124   5.064
 8741SOL     OW27121   1.263   0.653   2.605
 8741SOL    HW127122   1.232   0.606   2.523
 8741SOL    HW227123   1.202   0.729   2.626
 8742SOL     OW27124   2.798   1.767   2.410
 8742SOL    HW127125   2.894   1.761   2.383
 8742SOL    HW227126   2.754   1.843   2.363
 8743SOL     OW27127   0.721   2.107   1.766
 8743SOL    HW127128   0.738   2.194   1.721
 8743SOL    HW227129   0.776   2.101   1.850
 8744SOL     OW27130   3.412   4.377   5.772
 8744SOL    HW127131   3.321   4.334   5.773
 8744SOL    HW227132   3.472   4.325   5.712
 8745SOL     OW27133   5.844   0.981   6.062
 8745SOL    HW127134   5.811   1.010   6.152
 8745SOL    HW227135   5.856   0.881   6.062
 8746SOL     OW27136   4.935   5.494   5.388
 8746SOL    HW127137   4.973   5.417   5.336
 8746SOL    HW227138   4.854   5.463   5.437
 8747SOL     OW27139   0.593   0.383   2.558
 8747SOL    HW127140   0.503   0.392   2.515
 8747SOL    HW227141   0.663   0.383   2.487
 8748SOL     OW27142   6.546   1.688   3.741
 8748SOL    HW127143   6.634   1.675   3.695
 8748SOL    HW227144   6.548   1.772   3.794
 8749SOL     OW27145   2.495   1.440   3.833
 8749SOL    HW127146   2.546   1.377   3.892
 8749SOL    HW227147   2.405   1.401   3.814
 8750SOL     OW27148   3.934   3.721   0.080
 8750SOL    HW127149   3.865   3.762   0.141
 8750SOL    HW227150   3.964   3.789   0.014
 8751SOL     OW27151   2.015   6.105   1.156
 8751SOL    HW127152   2.083   6.179   1.151
 8751SOL    HW227153   2.015   6.054   1.071
 8752SOL     OW27154   5.943   3.128   5.973
 8752SOL    HW127155   6.013   3.065   6.006
 8752SOL    HW227156   5.988   3.208   5.933
 8753SOL     OW27157   2.433   2.569   0.866
 8753SOL    HW127158   2.461   2.530   0.779
 8753SOL    HW227159   2.501   2.548   0.936
 8754SOL     OW27160   1.785   4.978   6.763
 8754SOL    HW127161   1.750   5.071   6.760
 8754SOL    HW227162   1.879   4.976   6.729
 8755SOL     OW27163   0.329   3.063   1.480
 8755SOL    HW127164   0.236   3.040   1.453
 8755SOL    HW227165   0.346   3.159   1.462
 8756SOL     OW27166   1.950   1.866   1.932
 8756SOL    HW127167   2.031   1.899   1.883
 8756SOL    HW227168   1.979   1.811   2.011
 8757SOL     OW27169   5.394   5.851   5.347
 8757SOL    HW127170   5.489   5.867   5.319
 8757SOL    HW227171   5.349   5.939   5.363
 8758SOL     OW27172   3.476   5.822   5.185
 8758SOL    HW127173   3.411   5.888   5.147
 8758SOL    HW227174   3.501   5.755   5.115
 8759SOL     OW27175   5.778   0.520   0.999
 8759SOL    HW127176   5.848   0.472   1.052
 8759SOL    HW227177   5.818   0.555   0.914
 8760SOL     OW27178   2.633   2.421   4.411
 8760SOL    HW127179   2.603   2.328   4.390
 8760SOL    HW227180   2.708   2.417   4.478
 8761SOL     OW27181   5.425   1.560   2.627
 8761SOL    HW127182   5.484   1.616   2.569
 8761SOL    HW227183   5.448   1.577   2.723
 8762SOL     OW27184   2.763   5.422   3.260
 8762SOL    HW127185   2.726   5.330   3.274
 8762SOL    HW227186   2.841   5.436   3.321
 8763SOL     OW27187   0.622   0.420   6.839
 8763SOL    HW127188   0.635   0.449   6.744
 8763SOL    HW227189   0.692   0.352   6.863
 8764SOL     OW27190   2.753   5.218   4.979
 8764SOL    HW127191   2.727   5.215   5.076
 8764SOL    HW227192   2.745   5.127   4.940
 8765SOL     OW27193   4.346   6.855   4.622
 8765SOL    HW127194   4.290   6.775   4.601
 8765SOL    HW227195   4.344   6.873   4.720
 8766SOL     OW27196   4.569   6.414   5.959
 8766SOL    HW127197   4.498   6.484   5.950
 8766SOL    HW227198   4.547   6.336   5.901
 8767SOL     OW27199   1.982   0.986   4.132
 8767SOL    HW127200   2.009   1.076   4.098
 8767SOL    HW227201   1.896   0.993   4.183
 8768SOL     OW27202   6.483   1.398   6.929
 8768SOL    HW127203   6.464   1.300   6.935
 8768SOL    HW227204   6.579   1.415   6.951
 8769SOL     OW27205   6.348   6.976   0.091
 8769SOL    HW127206   6.365   6.884   0.128
 8769SOL    HW227207   6.436   7.019   0.069
 8770SOL     OW27208   5.261   3.129   0.343
 8770SOL    HW127209   5.241   3.144   0.439
 8770SOL    HW227210   5.262   3.216   0.294
 8771SOL     OW27211   0.305   2.987   0.305
 8771SOL    HW127212   0.301   3.071   0.359
 8771SOL    HW227213   0.364   2.920   0.350
 8772SOL     OW27214   7.020   6.978   4.156
 8772SOL    HW127215   0.090   6.983   4.119
 8772SOL    HW227216   0.001   6.944   4.250
 8773SOL     OW27217   0.346   0.987   4.168
 8773SOL    HW127218   0.302   0.899   4.185
 8773SOL    HW227219   0.437   0.987   4.208
 8774SOL     OW27220   1.077   1.508   0.343
 8774SOL    HW127221   1.007   1.579   0.346
 8774SOL    HW227222   1.142   1.528   0.270
 8775SOL     OW27223   5.719   2.530   4.073
 8775SOL    HW127224   5.642   2.467   4.075
 8775SOL    HW227225   5.700   2.605   4.009
 8776SOL     OW27226   4.422   3.012   0.594
 8776SOL    HW127227   4.355   3.080   0.626
 8776SOL    HW227228   4.494   3.058   0.542
 8777SOL     OW27229   6.885   2.159   2.887
 8777SOL    HW127230   6.807   2.203   2.932
 8777SOL    HW227231   6.952   2.228   2.861
 8778SOL     OW27232   3.398   4.848   6.787
 8778SOL    HW127233   3.430   4.826   6.695
 8778SOL    HW227234   3.468   4.822   6.854
 8779SOL     OW27235   4.081   4.804   3.398
 8779SOL    HW127236   4.146   4.741   3.355
 8779SOL    HW227237   4.110   4.824   3.491
 8780SOL     OW27238   6.876   4.461   4.130
 8780SOL    HW127239   6.944   4.413   4.185
 8780SOL    HW227240   6.846   4.543   4.180
 8781SOL     OW27241   3.169   0.735   1.928
 8781SOL    HW127242   3.255   0.693   1.902
 8781SOL    HW227243   3.110   0.744   1.847
 8782SOL     OW27244   4.997   2.159   0.999
 8782SOL    HW127245   5.075   2.210   0.962
 8782SOL    HW227246   4.933   2.137   0.925
 8783SOL     OW27247   5.382   3.168   4.713
 8783SOL    HW127248   5.331   3.124   4.788
 8783SOL    HW227249   5.477   3.180   4.740
 8784SOL     OW27250   5.309   1.023   1.248
 8784SOL    HW127251   5.261   0.948   1.294
 8784SOL    HW227252   5.388   0.987   1.199
 8785SOL     OW27253   0.245   5.962   5.349
 8785SOL    HW127254   0.235   6.056   5.317
 8785SOL    HW227255   0.156   5.916   5.347
 8786SOL     OW27256   4.741   1.601   2.766
 8786SOL    HW127257   4.840   1.613   2.770
 8786SOL    HW227258   4.700   1.630   2.853
 8787SOL     OW27259   3.581   6.097   0.909
 8787SOL    HW127260   3.514   6.110   0.836
 8787SOL    HW227261   3.569   6.006   0.949
 8788SOL     OW27262   1.309   6.566   3.928
 8788SOL    HW127263   1.380   6.496   3.932
 8788SOL    HW227264   1.257   6.556   3.844
 8789SOL     OW27265   0.013   2.508   6.541
 8789SOL    HW127266   0.107   2.509   6.575
 8789SOL    HW227267   6.977   2.562   6.602
 8790SOL     OW27268   4.834   3.751   5.631
 8790SOL    HW127269   4.917   3.705   5.661
 8790SOL    HW227270   4.812   3.722   5.537
 8791SOL     OW27271   3.607   6.111   4.600
 8791SOL    HW127272   3.509   6.126   4.585
 8791SOL    HW227273   3.631   6.142   4.693
 8792SOL     OW27274   5.007   4.937   1.611
 8792SOL    HW127275   5.062   4.959   1.691
 8792SOL    HW227276   4.916   4.976   1.620
 8793SOL     OW27277   0.124   5.773   4.355
 8793SOL    HW127278   0.057   5.733   4.293
 8793SOL    HW227279   0.209   5.793   4.305
 8794SOL     OW27280   6.967   1.380   2.635
 8794SOL    HW127281   0.043   1.384   2.621
 8794SOL    HW227282   6.930   1.298   2.592
 8795SOL     OW27283   1.254   5.821   0.086
 8795SOL    HW127284   1.343   5.796   0.048
 8795SOL    HW227285   1.191   5.744   0.079
 8796SOL     OW27286   6.386   3.245   3.714
 8796SOL    HW127287   6.305   3.187   3.718
 8796SOL    HW227288   6.435   3.240   3.801
 8797SOL     OW27289   4.914   6.857   3.881
 8797SOL    HW127290   4.993   6.901   3.923
 8797SOL    HW227291   4.891   6.903   3.796
 8798SOL     OW27292   3.160   0.038   5.672
 8798SOL    HW127293   3.127   0.132   5.682
 8798SOL    HW227294   3.123   7.005   5.747
 8799SOL     OW27295   0.542   4.922   1.802
 8799SOL    HW127296   0.566   4.910   1.706
 8799SOL    HW227297   0.578   5.010   1.835
 8800SOL     OW27298   0.006   5.890   5.260
 8800SOL    HW127299   6.982   5.978   5.258
 8800SOL    HW227300   0.020   5.858   5.166
 8801SOL     OW27301   5.519   3.117   5.662
 8801SOL    HW127302   5.521   3.186   5.589
 8801SOL    HW227303   5.612   3.100   5.694
 8802SOL     OW27304   1.212   6.524   6.640
 8802SOL    HW127305   1.137   6.459   6.657
 8802SOL    HW227306   1.191   6.578   6.558
 8803SOL     OW27307   6.524   6.700   6.498
 8803SOL    HW127308   6.555   6.609   6.471
 8803SOL    HW227309   6.427   6.710   6.474
 8804SOL     OW27310   1.680   5.905   2.764
 8804SOL    HW127311   1.609   5.939   2.826
 8804SOL    HW227312   1.701   5.810   2.787
 8805SOL     OW27313   5.495   4.923   3.456
 8805SOL    HW127314   5.489   5.022   3.445
 8805SOL    HW227315   5.575   4.900   3.511
 8806SOL     OW27316   2.209   0.543   1.230
 8806SOL    HW127317   2.146   0.567   1.305
 8806SOL    HW227318   2.194   0.605   1.153
 8807SOL     OW27319   4.964   2.678   1.228
 8807SOL    HW127320   4.993   2.671   1.133
 8807SOL    HW227321   4.971   2.774   1.258
 8808SOL     OW27322   1.495   2.259   0.055
 8808SOL    HW127323   1.475   2.264   0.153
 8808SOL    HW227324   1.469   2.346   0.012
 8809SOL     OW27325   0.480   3.743   3.258
 8809SOL    HW127326   0.529   3.657   3.270
 8809SOL    HW227327   0.508   3.785   3.172
 8810SOL     OW27328   0.689   1.151   5.115
 8810SOL    HW127329   0.774   1.145   5.168
 8810SOL    HW227330   0.698   1.095   5.032
 8811SOL     OW27331   4.134   5.500   2.368
 8811SOL    HW127332   4.103   5.443   2.292
 8811SOL    HW227333   4.078   5.481   2.449
 8812SOL     OW27334   4.755   1.184   6.525
 8812SOL    HW127335   4.750   1.247   6.603
 8812SOL    HW227336   4.778   1.236   6.443
 8813SOL     OW27337   2.108   4.050   3.498
 8813SOL    HW127338   2.050   3.973   3.525
 8813SOL    HW227339   2.158   4.027   3.415
 8814SOL     OW27340   5.243   0.812   5.579
 8814SOL    HW127341   5.334   0.833   5.543
 8814SOL    HW227342   5.241   0.831   5.677
 8815SOL     OW27343   5.526   0.895   0.124
 8815SOL    HW127344   5.521   0.841   0.208
 8815SOL    HW227345   5.435   0.933   0.104
 8816SOL     OW27346   0.959   6.019   4.583
 8816SOL    HW127347   0.942   6.041   4.679
 8816SOL    HW227348   1.058   6.014   4.566
 8817SOL     OW27349   1.493   2.690   3.400
 8817SOL    HW127350   1.529   2.692   3.493
 8817SOL    HW227351   1.552   2.744   3.340
 8818SOL     OW27352   0.972   0.419   5.721
 8818SOL    HW127353   1.036   0.449   5.791
 8818SOL    HW227354   0.910   0.350   5.759
 8819SOL     OW27355   5.399   4.918   6.521
 8819SOL    HW127356   5.441   4.979   6.588
 8819SOL    HW227357   5.369   4.970   6.442
 8820SOL     OW27358   3.233   0.533   5.417
 8820SOL    HW127359   3.229   0.520   5.516
 8820SOL    HW227360   3.327   0.553   5.389
 8821SOL     OW27361   6.564   4.703   6.515
 8821SOL    HW127362   6.522   4.757   6.443
 8821SOL    HW227363   6.656   4.739   6.534
 8822SOL     OW27364   6.506   0.256   4.328
 8822SOL    HW127365   6.526   0.333   4.269
 8822SOL    HW227366   6.423   0.274   4.380
 8823SOL     OW27367   4.103   1.089   2.981
 8823SOL    HW127368   4.067   1.146   3.054
 8823SOL    HW227369   4.027   1.045   2.933
 8824SOL     OW27370   1.554   0.683   2.042
 8824SOL    HW127371   1.554   0.758   2.107
 8824SOL    HW227372   1.481   0.618   2.065
 8825SOL     OW27373   0.321   6.074   0.380
 8825SOL    HW127374   0.319   6.039   0.474
 8825SOL    HW227375   0.235   6.050   0.335
 8826SOL     OW27376   1.549   3.806   1.005
 8826SOL    HW127377   1.597   3.868   0.943
 8826SOL    HW227378   1.586   3.816   1.097
 8827SOL     OW27379   4.943   0.034   2.972
 8827SOL    HW127380   4.846   0.011   2.979
 8827SOL    HW227381   4.961   0.117   3.025
 8828SOL     OW27382   4.135   2.331   6.125
 8828SOL    HW127383   4.101   2.240   6.103
 8828SOL    HW227384   4.222   2.346   6.079
 8829SOL     OW27385   6.782   1.069   1.930
 8829SOL    HW127386   6.825   1.143   1.982
 8829SOL    HW227387   6.795   0.982   1.978
 8830SOL     OW27388   2.554   0.780   2.978
 8830SOL    HW127389   2.647   0.787   2.940
 8830SOL    HW227390   2.558   0.788   3.077
 8831SOL     OW27391   0.714   2.624   1.917
 8831SOL    HW127392   0.776   2.693   1.954
 8831SOL    HW227393   0.671   2.659   1.834
 8832SOL     OW27394   5.641   0.918   4.659
 8832SOL    HW127395   5.661   0.965   4.745
 8832SOL    HW227396   5.576   0.844   4.676
 8833SOL     OW27397   4.757   2.434   1.145
 8833SOL    HW127398   4.796   2.482   1.223
 8833SOL    HW227399   4.830   2.397   1.088
 8834SOL     OW27400   5.486   4.126   5.794
 8834SOL    HW127401   5.502   4.064   5.871
 8834SOL    HW227402   5.527   4.088   5.712
 8835SOL     OW27403   0.031   0.401   5.951
 8835SOL    HW127404   6.990   0.381   6.026
 8835SOL    HW227405   0.102   0.463   5.983
 8836SOL     OW27406   4.928   1.937   1.732
 8836SOL    HW127407   4.875   1.967   1.812
 8836SOL    HW227408   4.908   1.841   1.713
 8837SOL     OW27409   3.782   6.641   0.152
 8837SOL    HW127410   3.808   6.595   0.237
 8837SOL    HW227411   3.833   6.726   0.144
 8838SOL     OW27412   1.536   3.953   3.657
 8838SOL    HW127413   1.574   3.868   3.621
 8838SOL    HW227414   1.608   4.023   3.660
 8839SOL     OW27415   5.071   5.607   2.584
 8839SOL    HW127416   5.065   5.509   2.601
 8839SOL    HW227417   5.071   5.624   2.485
 8840SOL     OW27418   0.258   0.471   1.467
 8840SOL    HW127419   0.208   0.384   1.470
 8840SOL    HW227420   0.220   0.533   1.536
 8841SOL     OW27421   3.704   0.520   1.089
 8841SOL    HW127422   3.619   0.537   1.139
 8841SOL    HW227423   3.711   0.423   1.066
 8842SOL     OW27424   4.139   3.495   4.536
 8842SOL    HW127425   4.150   3.545   4.622
 8842SOL    HW227426   4.111   3.401   4.556
 8843SOL     OW27427   2.646   6.333   6.872
 8843SOL    HW127428   2.671   6.238   6.853
 8843SOL    HW227429   2.727   6.391   6.866
 8844SOL     OW27430   3.357   2.277   6.525
 8844SOL    HW127431   3.342   2.180   6.507
 8844SOL    HW227432   3.308   2.303   6.609
 8845SOL     OW27433   6.211   4.003   2.104
 8845SOL    HW127434   6.253   3.971   2.189
 8845SOL    HW227435   6.111   3.997   2.112
 8846SOL     OW27436   5.581   4.664   5.023
 8846SOL    HW127437   5.590   4.581   4.968
 8846SOL    HW227438   5.506   4.653   5.088
 8847SOL     OW27439   2.094   1.598   3.880
 8847SOL    HW127440   2.182   1.645   3.885
 8847SOL    HW227441   2.082   1.559   3.789
 8848SOL     OW27442   4.657   1.532   0.401
 8848SOL    HW127443   4.702   1.620   0.389
 8848SOL    HW227444   4.703   1.481   0.474
 8849SOL     OW27445   2.945   5.086   4.621
 8849SOL    HW127446   3.019   5.069   4.686
 8849SOL    HW227447   2.984   5.114   4.533
 8850SOL     OW27448   3.345   0.811   1.486
 8850SOL    HW127449   3.425   0.783   1.538
 8850SOL    HW227450   3.365   0.811   1.389
 8851SOL     OW27451   6.636   4.691   2.147
 8851SOL    HW127452   6.570   4.674   2.074
 8851SOL    HW227453   6.707   4.620   2.146
 8852SOL     OW27454   4.711   2.811   4.712
 8852SOL    HW127455   4.631   2.750   4.706
 8852SOL    HW227456   4.767   2.783   4.790
 8853SOL     OW27457   4.432   1.456   5.735
 8853SOL    HW127458   4.381   1.464   5.649
 8853SOL    HW227459   4.389   1.514   5.804
 8854SOL     OW27460   1.109   2.050   6.918
 8854SOL    HW127461   1.092   1.989   6.840
 8854SOL    HW227462   1.047   2.128   6.914
 8855SOL     OW27463   6.070   5.319   0.038
 8855SOL    HW127464   6.129   5.244   0.010
 8855SOL    HW227465   6.033   5.301   0.129
 8856SOL     OW27466   5.722   1.282   4.371
 8856SOL    HW127467   5.757   1.263   4.280
 8856SOL    HW227468   5.793   1.327   4.426
 8857SOL     OW27469   6.999   2.606   5.083
 8857SOL    HW127470   6.968   2.653   5.165
 8857SOL    HW227471   6.943   2.524   5.068
 8858SOL     OW27472   0.040   4.076   6.774
 8858SOL    HW127473   6.998   4.084   6.850
 8858SOL    HW227474   0.056   3.980   6.754
 8859SOL     OW27475   2.967   5.205   5.319
 8859SOL    HW127476   2.980   5.302   5.340
 8859SOL    HW227477   2.942   5.194   5.223
 8860SOL     OW27478   1.181   2.278   1.586
 8860SOL    HW127479   1.169   2.227   1.501
 8860SOL    HW227480   1.182   2.376   1.567
 8861SOL     OW27481   2.998   3.248   0.103
 8861SOL    HW127482   2.978   3.308   0.026
 8861SOL    HW227483   2.993   3.301   0.188
 8862SOL     OW27484   6.906   2.434   4.697
 8862SOL    HW127485   6.847   2.377   4.640
 8862SOL    HW227486   6.949   2.378   4.767
 8863SOL     OW27487   1.880   5.310   4.968
 8863SOL    HW127488   1.819   5.251   5.022
 8863SOL    HW227489   1.969   5.317   5.013
 8864SOL     OW27490   0.781   2.722   6.144
 8864SOL    HW127491   0.809   2.643   6.197
 8864SOL    HW227492   0.745   2.692   6.055
 8865SOL     OW27493   2.332   2.379   6.594
 8865SOL    HW127494   2.379   2.321   6.529
 8865SOL    HW227495   2.399   2.423   6.654
 8866SOL     OW27496   3.667   6.894   4.457
 8866SOL    HW127497   3.633   6.870   4.367
 8866SOL    HW227498   3.712   6.814   4.498
 8867SOL     OW27499   0.105   3.057   3.919
 8867SOL    HW127500   0.092   3.154   3.941
 8867SOL    HW227501   0.039   3.002   3.970
 8868SOL     OW27502   4.126   3.500   1.073
 8868SOL    HW127503   4.182   3.417   1.077
 8868SOL    HW227504   4.031   3.474   1.055
 8869SOL     OW27505   5.661   2.718   3.905
 8869SOL    HW127506   5.703   2.799   3.945
 8869SOL    HW227507   5.669   2.721   3.806
 8870SOL     OW27508   4.111   1.678   1.023
 8870SOL    HW127509   4.157   1.592   1.047
 8870SOL    HW227510   4.012   1.666   1.031
 8871SOL     OW27511   2.186   1.876   4.733
 8871SOL    HW127512   2.171   1.892   4.635
 8871SOL    HW227513   2.267   1.927   4.762
 8872SOL     OW27514   1.914   3.158   3.884
 8872SOL    HW127515   1.859   3.164   3.801
 8872SOL    HW227516   1.925   3.062   3.910
 8873SOL     OW27517   0.323   6.126   4.736
 8873SOL    HW127518   0.421   6.121   4.720
 8873SOL    HW227519   0.278   6.047   4.694
 8874SOL     OW27520   2.042   1.245   0.340
 8874SOL    HW127521   2.099   1.220   0.418
 8874SOL    HW227522   2.096   1.240   0.256
 8875SOL     OW27523   1.782   2.156   4.372
 8875SOL    HW127524   1.695   2.110   4.358
 8875SOL    HW227525   1.816   2.137   4.464
 8876SOL     OW27526   1.767   6.908   4.256
 8876SOL    HW127527   1.845   6.854   4.284
 8876SOL    HW227528   1.683   6.863   4.287
 8877SOL     OW27529   2.776   6.730   5.172
 8877SOL    HW127530   2.700   6.766   5.227
 8877SOL    HW227531   2.746   6.647   5.124
 8878SOL     OW27532   5.833   4.581   6.666
 8878SOL    HW127533   5.831   4.681   6.663
 8878SOL    HW227534   5.835   4.551   6.761
 8879SOL     OW27535   4.750   5.676   4.507
 8879SOL    HW127536   4.792   5.636   4.425
 8879SOL    HW227537   4.822   5.705   4.570
 8880SOL     OW27538   0.157   5.732   5.685
 8880SOL    HW127539   0.188   5.637   5.675
 8880SOL    HW227540   0.235   5.793   5.682
 8881SOL     OW27541   6.755   0.556   1.817
 8881SOL    HW127542   6.783   0.608   1.736
 8881SOL    HW227543   6.740   0.619   1.893
 8882SOL     OW27544   5.823   1.744   6.672
 8882SOL    HW127545   5.805   1.668   6.735
 8882SOL    HW227546   5.914   1.733   6.631
 8883SOL     OW27547   6.911   1.263   5.464
 8883SOL    HW127548   7.008   1.282   5.477
 8883SOL    HW227549   6.862   1.349   5.448
 8884SOL     OW27550   6.499   0.428   5.596
 8884SOL    HW127551   6.493   0.443   5.498
 8884SOL    HW227552   6.408   0.431   5.636
 8885SOL     OW27553   4.888   3.874   1.293
 8885SOL    HW127554   4.829   3.818   1.235
 8885SOL    HW227555   4.842   3.960   1.315
 8886SOL     OW27556   3.257   6.983   6.924
 8886SOL    HW127557   3.323   6.925   6.875
 8886SOL    HW227558   3.307   0.026   6.980
 8887SOL     OW27559   2.644   0.731   0.973
 8887SOL    HW127560   2.694   0.818   0.979
 8887SOL    HW227561   2.592   0.728   0.888
 8888SOL     OW27562   3.061   1.812   2.640
 8888SOL    HW127563   3.075   1.729   2.586
 8888SOL    HW227564   2.964   1.831   2.648
 8889SOL     OW27565   4.057   0.185   5.466
 8889SOL    HW127566   4.081   0.220   5.557
 8889SOL    HW227567   4.095   0.246   5.397
 8890SOL     OW27568   0.689   4.914   4.181
 8890SOL    HW127569   0.590   4.922   4.189
 8890SOL    HW227570   0.712   4.836   4.124
 8891SOL     OW27571   3.681   2.074   6.809
 8891SOL    HW127572   3.645   2.021   6.887
 8891SOL    HW227573   3.628   2.158   6.800
 8892SOL     OW27574   0.796   6.036   2.693
 8892SOL    HW127575   0.711   6.081   2.667
 8892SOL    HW227576   0.865   6.050   2.622
 8893SOL     OW27577   0.724   1.067   1.253
 8893SOL    HW127578   0.667   0.994   1.215
 8893SOL    HW227579   0.796   1.091   1.188
 8894SOL     OW27580   4.075   3.391   6.365
 8894SOL    HW127581   4.071   3.370   6.267
 8894SOL    HW227582   3.988   3.432   6.394
 8895SOL     OW27583   0.355   6.562   2.353
 8895SOL    HW127584   0.408   6.518   2.425
 8895SOL    HW227585   0.398   6.546   2.264
 8896SOL     OW27586   1.910   3.960   4.892
 8896SOL    HW127587   1.952   3.869   4.892
 8896SOL    HW227588   1.837   3.963   4.824
 8897SOL     OW27589   1.499   2.258   1.215
 8897SOL    HW127590   1.587   2.211   1.220
 8897SOL    HW227591   1.470   2.285   1.307
 8898SOL     OW27592   5.831   3.959   4.738
 8898SOL    HW127593   5.737   3.941   4.765
 8898SOL    HW227594   5.892   3.899   4.790
 8899SOL     OW27595   2.155   4.226   0.047
 8899SOL    HW127596   2.219   4.301   0.031
 8899SOL    HW227597   2.160   4.160   6.995
 8900SOL     OW27598   5.646   2.314   3.205
 8900SOL    HW127599   5.616   2.397   3.252
 8900SOL    HW227600   5.735   2.286   3.242
 8901SOL     OW27601   2.106   0.011   2.951
 8901SOL    HW127602   2.127   6.936   2.949
 8901SOL    HW227603   2.189   0.062   2.975
 8902SOL     OW27604   1.818   5.450   5.854
 8902SOL    HW127605   1.890   5.381   5.851
 8902SOL    HW227606   1.830   5.514   5.778
 8903SOL     OW27607   1.519   1.389   3.217
 8903SOL    HW127608   1.475   1.451   3.152
 8903SOL    HW227609   1.574   1.443   3.281
 8904SOL     OW27610   1.494   5.701   3.066
 8904SOL    HW127611   1.411   5.678   3.015
 8904SOL    HW227612   1.471   5.753   3.148
 8905SOL     OW27613   2.370   4.057   5.435
 8905SOL    HW127614   2.344   3.986   5.502
 8905SOL    HW227615   2.394   4.013   5.349
 8906SOL     OW27616   0.887   5.702   5.793
 8906SOL    HW127617   0.942   5.756   5.857
 8906SOL    HW227618   0.883   5.607   5.824
 8907SOL     OW27619   3.431   2.789   5.205
 8907SOL    HW127620   3.407   2.693   5.222
 8907SOL    HW227621   3.354   2.836   5.162
 8908SOL     OW27622   0.394   2.542   1.102
 8908SOL    HW127623   0.476   2.566   1.155
 8908SOL    HW227624   0.331   2.490   1.159
 8909SOL     OW27625   2.791   0.242   6.044
 8909SOL    HW127626   2.807   0.324   5.990
 8909SOL    HW227627   2.854   0.240   6.122
 8910SOL     OW27628   3.405   3.837   6.774
 8910SOL    HW127629   3.473   3.879   6.714
 8910SOL    HW227630   3.450   3.794   6.851
 8911SOL     OW27631   3.365   2.049   3.974
 8911SOL    HW127632   3.411   2.065   4.061
 8911SOL    HW227633   3.333   1.954   3.969
 8912SOL     OW27634   5.061   3.086   5.888
 8912SOL    HW127635   5.007   3.112   5.968
 8912SOL    HW227636   5.003   3.087   5.807
 8913SOL     OW27637   4.884   3.887   0.696
 8913SOL    HW127638   4.973   3.932   0.697
 8913SOL    HW227639   4.820   3.943   0.642
 8914SOL     OW27640   4.225   2.158   4.707
 8914SOL    HW127641   4.268   2.078   4.665
 8914SOL    HW227642   4.154   2.193   4.646
 8915SOL     OW27643   1.069   5.064   1.843
 8915SOL    HW127644   1.119   5.150   1.830
 8915SOL    HW227645   1.091   5.026   1.933
 8916SOL     OW27646   6.681   3.646   2.066
 8916SOL    HW127647   6.730   3.639   1.979
 8916SOL    HW227648   6.670   3.555   2.106
 8917SOL     OW27649   6.078   5.627   6.120
 8917SOL    HW127650   6.057   5.624   6.218
 8917SOL    HW227651   6.076   5.535   6.082
 8918SOL     OW27652   4.725   5.163   6.509
 8918SOL    HW127653   4.737   5.064   6.499
 8918SOL    HW227654   4.716   5.204   6.418
 8919SOL     OW27655   2.029   4.542   0.960
 8919SOL    HW127656   2.122   4.512   0.941
 8919SOL    HW227657   2.030   4.636   0.995
 8920SOL     OW27658   6.354   5.860   5.870
 8920SOL    HW127659   6.416   5.784   5.852
 8920SOL    HW227660   6.261   5.836   5.841
 8921SOL     OW27661   1.799   6.998   3.551
 8921SOL    HW127662   1.724   6.958   3.604
 8921SOL    HW227663   1.774   6.998   3.454
 8922SOL     OW27664   6.342   4.231   6.941
 8922SOL    HW127665   6.307   4.233   0.012
 8922SOL    HW227666   6.361   4.324   6.911
 8923SOL     OW27667   2.147   4.178   5.607
 8923SOL    HW127668   2.227   4.163   5.549
 8923SOL    HW227669   2.169   4.244   5.679
 8924SOL     OW27670   2.862   5.784   5.621
 8924SOL    HW127671   2.808   5.700   5.616
 8924SOL    HW227672   2.873   5.822   5.529
 8925SOL     OW27673   6.473   6.551   1.778
 8925SOL    HW127674   6.501   6.618   1.709
 8925SOL    HW227675   6.543   6.546   1.850
 8926SOL     OW27676   5.894   1.658   0.676
 8926SOL    HW127677   5.890   1.636   0.774
 8926SOL    HW227678   5.818   1.720   0.653
 8927SOL     OW27679   2.476   2.044   5.440
 8927SOL    HW127680   2.571   2.023   5.415
 8927SOL    HW227681   2.427   2.078   5.359
 8928SOL     OW27682   0.145   0.147   5.084
 8928SOL    HW127683   0.240   0.175   5.069
 8928SOL    HW227684   0.097   0.146   4.996
 8929SOL     OW27685   5.928   3.775   3.898
 8929SOL    HW127686   5.930   3.822   3.809
 8929SOL    HW227687   5.899   3.839   3.969
 8930SOL     OW27688   0.480   5.089   4.880
 8930SOL    HW127689   0.516   5.019   4.817
 8930SOL    HW227690   0.443   5.044   4.961
 8931SOL     OW27691   5.478   1.002   0.691
 8931SOL    HW127692   5.437   0.919   0.654
 8931SOL    HW227693   5.577   0.988   0.702
 8932SOL     OW27694   6.934   0.360   6.840
 8932SOL    HW127695   6.985   0.315   6.766
 8932SOL    HW227696   6.840   0.326   6.841
 8933SOL     OW27697   1.580   6.483   5.670
 8933SOL    HW127698   1.625   6.504   5.584
 8933SOL    HW227699   1.639   6.509   5.746
 8934SOL     OW27700   4.310   6.501   2.867
 8934SOL    HW127701   4.288   6.582   2.923
 8934SOL    HW227702   4.394   6.519   2.815
 8935SOL     OW27703   5.777   2.896   3.178
 8935SOL    HW127704   5.787   2.872   3.082
 8935SOL    HW227705   5.701   2.959   3.190
 8936SOL     OW27706   1.402   4.734   2.306
 8936SOL    HW127707   1.309   4.764   2.325
 8936SOL    HW227708   1.400   4.659   2.240
 8937SOL     OW27709   4.840   6.863   5.029
 8937SOL    HW127710   4.889   6.877   5.115
 8937SOL    HW227711   4.824   6.765   5.016
 8938SOL     OW27712   5.953   0.204   1.501
 8938SOL    HW127713   5.933   0.294   1.463
 8938SOL    HW227714   6.026   0.160   1.448
 8939SOL     OW27715   6.825   3.277   3.872
 8939SOL    HW127716   6.832   3.211   3.798
 8939SOL    HW227717   6.915   3.318   3.889
 8940SOL     OW27718   6.064   2.337   0.605
 8940SOL    HW127719   5.988   2.343   0.541
 8940SOL    HW227720   6.030   2.312   0.696
 8941SOL     OW27721   4.242   2.522   1.748
 8941SOL    HW127722   4.288   2.608   1.731
 8941SOL    HW227723   4.309   2.447   1.748
 8942SOL     OW27724   5.921   4.100   4.518
 8942SOL    HW127725   5.863   4.080   4.440
 8942SOL    HW227726   5.882   4.060   4.601
 8943SOL     OW27727   4.578   4.223   0.183
 8943SOL    HW127728   4.533   4.261   0.263
 8943SOL    HW227729   4.622   4.297   0.131
 8944SOL     OW27730   5.631   5.399   5.097
 8944SOL    HW127731   5.595   5.469   5.036
 8944SOL    HW227732   5.581   5.313   5.083
 8945SOL     OW27733   5.093   4.201   3.630
 8945SOL    HW127734   5.098   4.300   3.612
 8945SOL    HW227735   5.010   4.182   3.682
 8946SOL     OW27736   4.731   0.743   5.454
 8946SOL    HW127737   4.781   0.659   5.475
 8946SOL    HW227738   4.793   0.821   5.456
 8947SOL     OW27739   2.137   5.083   6.336
 8947SOL    HW127740   2.165   5.010   6.273
 8947SOL    HW227741   2.177   5.067   6.426
 8948SOL     OW27742   5.721   1.231   2.639
 8948SOL    HW127743   5.669   1.205   2.720
 8948SOL    HW227744   5.673   1.200   2.557
 8949SOL     OW27745   3.901   6.353   0.735
 8949SOL    HW127746   3.856   6.306   0.811
 8949SOL    HW227747   3.958   6.427   0.770
 8950SOL     OW27748   3.719   3.454   0.795
 8950SOL    HW127749   3.731   3.517   0.871
 8950SOL    HW227750   3.665   3.376   0.825
 8951SOL     OW27751   1.942   0.906   4.573
 8951SOL    HW127752   1.866   0.971   4.561
 8951SOL    HW227753   1.905   0.813   4.579
 8952SOL     OW27754   1.982   4.151   4.205
 8952SOL    HW127755   2.013   4.244   4.188
 8952SOL    HW227756   2.054   4.100   4.253
 8953SOL     OW27757   1.141   4.677   0.948
 8953SOL    HW127758   1.090   4.634   0.873
 8953SOL    HW227759   1.188   4.606   1.001
 8954SOL     OW27760   2.691   4.621   5.651
 8954SOL    HW127761   2.643   4.558   5.590
 8954SOL    HW227762   2.764   4.667   5.601
 8955SOL     OW27763   5.673   2.727   4.528
 8955SOL    HW127764   5.604   2.762   4.591
 8955SOL    HW227765   5.627   2.685   4.449
 8956SOL     OW27766   0.957   5.693   0.067
 8956SOL    HW127767   0.872   5.640   0.066
 8956SOL    HW227768   0.963   5.744   0.153
 8957SOL     OW27769   6.824   6.143   3.053
 8957SOL    HW127770   6.911   6.095   3.041
 8957SOL    HW227771   6.840   6.230   3.099
 8958SOL     OW27772   1.888   2.927   4.940
 8958SOL    HW127773   1.960   2.932   5.009
 8958SOL    HW227774   1.929   2.932   4.849
 8959SOL     OW27775   6.743   2.687   2.613
 8959SOL    HW127776   6.815   2.621   2.591
 8959SOL    HW227777   6.657   2.639   2.629
 8960SOL     OW27778   5.552   4.540   3.263
 8960SOL    HW127779   5.514   4.485   3.338
 8960SOL    HW227780   5.479   4.591   3.218
 8961SOL     OW27781   2.260   1.197   4.839
 8961SOL    HW127782   2.162   1.182   4.849
 8961SOL    HW227783   2.298   1.127   4.778
 8962SOL     OW27784   6.891   5.657   2.084
 8962SOL    HW127785   6.850   5.675   1.994
 8962SOL    HW227786   6.932   5.566   2.084
 8963SOL     OW27787   4.982   6.928   5.303
 8963SOL    HW127788   4.985   7.022   5.336
 8963SOL    HW227789   5.074   6.895   5.285
 8964SOL     OW27790   1.196   2.763   4.924
 8964SOL    HW127791   1.246   2.749   5.010
 8964SOL    HW227792   1.215   2.855   4.890
 8965SOL     OW27793   4.017   5.684   6.118
 8965SOL    HW127794   4.094   5.727   6.071
 8965SOL    HW227795   3.957   5.639   6.052
 8966SOL     OW27796   4.293   5.792   5.050
 8966SOL    HW127797   4.272   5.694   5.040
 8966SOL    HW227798   4.383   5.802   5.094
 8967SOL     OW27799   2.966   6.965   3.914
 8967SOL    HW127800   2.941   0.039   3.906
 8967SOL    HW227801   3.006   6.934   3.828
 8968SOL     OW27802   3.820   5.332   2.357
 8968SOL    HW127803   3.876   5.334   2.440
 8968SOL    HW227804   3.737   5.385   2.371
 8969SOL     OW27805   1.124   0.891   2.644
 8969SOL    HW127806   1.079   0.937   2.568
 8969SOL    HW227807   1.188   0.953   2.688
 8970SOL     OW27808   1.926   0.294   3.918
 8970SOL    HW127809   1.842   0.281   3.865
 8970SOL    HW227810   1.960   0.206   3.949
 8971SOL     OW27811   3.612   4.821   6.945
 8971SOL    HW127812   3.696   4.817   6.891
 8971SOL    HW227813   3.615   4.749   7.015
 8972SOL     OW27814   6.306   3.559   6.795
 8972SOL    HW127815   6.403   3.552   6.771
 8972SOL    HW227816   6.295   3.626   6.868
 8973SOL     OW27817   1.486   2.394   3.473
 8973SOL    HW127818   1.389   2.373   3.474
 8973SOL    HW227819   1.500   2.493   3.478
 8974SOL     OW27820   2.308   4.332   4.825
 8974SOL    HW127821   2.264   4.416   4.856
 8974SOL    HW227822   2.252   4.254   4.849
 8975SOL     OW27823   0.331   5.504   6.278
 8975SOL    HW127824   0.341   5.434   6.208
 8975SOL    HW227825   0.407   5.496   6.343
 8976SOL     OW27826   6.308   0.051   2.217
 8976SOL    HW127827   6.383   0.017   2.273
 8976SOL    HW227828   6.280   0.141   2.249
 8977SOL     OW27829   6.531   4.828   5.897
 8977SOL    HW127830   6.593   4.761   5.855
 8977SOL    HW227831   6.520   4.905   5.835
 8978SOL     OW27832   5.880   5.708   6.481
 8978SOL    HW127833   5.790   5.744   6.505
 8978SOL    HW227834   5.947   5.783   6.483
 8979SOL     OW27835   1.311   4.858   4.773
 8979SOL    HW127836   1.338   4.954   4.773
 8979SOL    HW227837   1.216   4.851   4.743
 8980SOL     OW27838   3.389   0.149   0.029
 8980SOL    HW127839   3.459   0.080   0.047
 8980SOL    HW227840   3.389   0.217   0.101
 8981SOL     OW27841   4.590   3.711   6.454
 8981SOL    HW127842   4.577   3.810   6.447
 8981SOL    HW227843   4.684   3.689   6.428
 8982SOL     OW27844   0.399   1.546   2.108
 8982SOL    HW127845   0.466   1.544   2.034
 8982SOL    HW227846   0.313   1.584   2.075
 8983SOL     OW27847   1.632   6.485   2.411
 8983SOL    HW127848   1.594   6.565   2.364
 8983SOL    HW227849   1.668   6.513   2.500
 8984SOL     OW27850   0.179   0.643   3.953
 8984SOL    HW127851   0.134   0.649   3.864
 8984SOL    HW227852   0.244   0.567   3.952
 8985SOL     OW27853   5.006   1.964   1.471
 8985SOL    HW127854   4.981   1.960   1.568
 8985SOL    HW227855   4.929   2.001   1.419
 8986SOL     OW27856   6.944   4.608   0.354
 8986SOL    HW127857   6.863   4.613   0.411
 8986SOL    HW227858   6.978   4.701   0.336
 8987SOL     OW27859   2.159   6.716   2.011
 8987SOL    HW127860   2.197   6.796   2.057
 8987SOL    HW227861   2.165   6.728   1.912
 8988SOL     OW27862   1.956   6.136   1.701
 8988SOL    HW127863   2.014   6.117   1.779
 8988SOL    HW227864   1.875   6.186   1.731
 8989SOL     OW27865   5.121   2.362   3.265
 8989SOL    HW127866   5.172   2.443   3.235
 8989SOL    HW227867   5.046   2.344   3.202
 8990SOL     OW27868   3.509   1.136   2.425
 8990SOL    HW127869   3.484   1.211   2.364
 8990SOL    HW227870   3.431   1.112   2.483
 8991SOL     OW27871   1.214   1.388   0.883
 8991SOL    HW127872   1.164   1.420   0.802
 8991SOL    HW227873   1.309   1.367   0.857
 8992SOL     OW27874   1.071   4.095   6.323
 8992SOL    HW127875   1.030   4.152   6.394
 8992SOL    HW227876   1.016   4.101   6.239
 8993SOL     OW27877   6.122   3.709   4.268
 8993SOL    HW127878   6.130   3.786   4.332
 8993SOL    HW227879   6.110   3.624   4.320
 8994SOL     OW27880   0.710   5.532   2.814
 8994SOL    HW127881   0.798   5.501   2.849
 8994SOL    HW227882   0.722   5.618   2.763
 8995SOL     OW27883   2.164   3.806   4.860
 8995SOL    HW127884   2.226   3.844   4.929
 8995SOL    HW227885   2.195   3.834   4.769
 8996SOL     OW27886   0.933   3.837   2.099
 8996SOL    HW127887   0.942   3.868   2.005
 8996SOL    HW227888   1.024   3.827   2.140
 8997SOL     OW27889   4.564   1.939   5.395
 8997SOL    HW127890   4.588   1.854   5.347
 8997SOL    HW227891   4.465   1.950   5.396
 8998SOL     OW27892   0.790   1.792   6.125
 8998SOL    HW127893   0.732   1.745   6.058
 8998SOL    HW227894   0.842   1.724   6.177
 8999SOL     OW27895   5.686   1.050   4.898
 8999SOL    HW127896   5.630   1.133   4.902
 8999SOL    HW227897   5.654   0.985   4.966
 9000SOL     OW27898   2.474   4.341   0.720
 9000SOL    HW127899   2.486   4.431   0.761
 9000SOL    HW227900   2.563   4.299   0.705
 9001SOL     OW27901   1.760   4.835   3.375
 9001SOL    HW127902   1.693   4.909   3.382
 9001SOL    HW227903   1.784   4.802   3.466
 9002SOL     OW27904   4.917   4.561   6.312
 9002SOL    HW127905   4.966   4.474   6.311
 9002SOL    HW227906   4.828   4.549   6.267
 9003SOL     OW27907   5.533   3.324   5.993
 9003SOL    HW127908   5.611   3.330   5.932
 9003SOL    HW227909   5.452   3.296   5.941
 9004SOL     OW27910   4.415   5.520   0.514
 9004SOL    HW127911   4.476   5.577   0.460
 9004SOL    HW227912   4.460   5.494   0.600
 9005SOL     OW27913   4.715   2.389   3.120
 9005SOL    HW127914   4.651   2.320   3.086
 9005SOL    HW227915   4.806   2.370   3.082
 9006SOL     OW27916   1.525   6.811   0.737
 9006SOL    HW127917   1.463   6.869   0.685
 9006SOL    HW227918   1.490   6.717   0.738
 9007SOL     OW27919   2.940   6.233   4.429
 9007SOL    HW127920   2.888   6.288   4.364
 9007SOL    HW227921   2.893   6.147   4.445
 9008SOL     OW27922   6.404   4.311   2.830
 9008SOL    HW127923   6.398   4.381   2.901
 9008SOL    HW227924   6.449   4.230   2.868
 9009SOL     OW27925   3.870   6.436   1.377
 9009SOL    HW127926   3.928   6.486   1.313
 9009SOL    HW227927   3.775   6.438   1.345
 9010SOL     OW27928   1.049   6.036   5.311
 9010SOL    HW127929   1.039   5.937   5.301
 9010SOL    HW227930   1.121   6.069   5.250
 9011SOL     OW27931   4.221   1.929   1.781
 9011SOL    HW127932   4.211   1.849   1.722
 9011SOL    HW227933   4.248   1.900   1.873
 9012SOL     OW27934   6.506   5.716   1.570
 9012SOL    HW127935   6.430   5.756   1.622
 9012SOL    HW227936   6.561   5.659   1.631
 9013SOL     OW27937   4.902   6.195   3.306
 9013SOL    HW127938   4.891   6.188   3.207
 9013SOL    HW227939   4.938   6.109   3.342
 9014SOL     OW27940   3.554   1.256   0.671
 9014SOL    HW127941   3.562   1.189   0.597
 9014SOL    HW227942   3.473   1.235   0.726
 9015SOL     OW27943   6.712   1.502   5.410
 9015SOL    HW127944   6.654   1.539   5.483
 9015SOL    HW227945   6.662   1.430   5.361
 9016SOL     OW27946   6.726   6.217   5.780
 9016SOL    HW127947   6.812   6.167   5.770
 9016SOL    HW227948   6.663   6.164   5.836
 9017SOL     OW27949   0.183   3.855   4.048
 9017SOL    HW127950   0.223   3.823   3.962
 9017SOL    HW227951   0.096   3.901   4.029
 9018SOL     OW27952   3.626   2.364   5.589
 9018SOL    HW127953   3.702   2.429   5.596
 9018SOL    HW227954   3.562   2.379   5.664
 9019SOL     OW27955   1.883   6.703   0.314
 9019SOL    HW127956   1.821   6.706   0.393
 9019SOL    HW227957   1.839   6.750   0.236
 9020SOL     OW27958   0.336   4.984   2.941
 9020SOL    HW127959   0.336   4.999   2.842
 9020SOL    HW227960   0.260   4.923   2.965
 9021SOL     OW27961   6.901   6.143   5.234
 9021SOL    HW127962   6.847   6.224   5.213
 9021SOL    HW227963   6.844   6.061   5.226
 9022SOL     OW27964   3.140   0.775   6.530
 9022SOL    HW127965   3.118   0.684   6.566
 9022SOL    HW227966   3.225   0.807   6.570
 9023SOL     OW27967   3.282   2.890   2.801
 9023SOL    HW127968   3.320   2.830   2.731
 9023SOL    HW227969   3.223   2.958   2.757
 9024SOL     OW27970   1.908   0.223   6.489
 9024SOL    HW127971   1.982   0.163   6.518
 9024SOL    HW227972   1.862   0.261   6.570
 9025SOL     OW27973   6.604   4.478   1.106
 9025SOL    HW127974   6.520   4.520   1.072
 9025SOL    HW227975   6.608   4.383   1.076
 9026SOL     OW27976   3.212   3.436   5.348
 9026SOL    HW127977   3.168   3.452   5.436
 9026SOL    HW227978   3.187   3.509   5.284
 9027SOL     OW27979   2.321   2.613   3.098
 9027SOL    HW127980   2.301   2.711   3.102
 9027SOL    HW227981   2.241   2.561   3.126
 9028SOL     OW27982   2.549   4.550   5.168
 9028SOL    HW127983   2.547   4.617   5.093
 9028SOL    HW227984   2.623   4.572   5.231
 9029SOL     OW27985   4.918   5.349   3.416
 9029SOL    HW127986   4.866   5.416   3.362
 9029SOL    HW227987   4.868   5.262   3.418
 9030SOL     OW27988   3.206   1.856   1.670
 9030SOL    HW127989   3.269   1.875   1.596
 9030SOL    HW227990   3.121   1.818   1.633
 9031SOL     OW27991   1.963   0.814   0.327
 9031SOL    HW127992   2.039   0.765   0.371
 9031SOL    HW227993   1.930   0.761   0.249
 9032SOL     OW27994   1.615   1.521   2.247
 9032SOL    HW127995   1.519   1.498   2.258
 9032SOL    HW227996   1.626   1.578   2.165
 9033SOL     OW27997   1.273   3.325   2.651
 9033SOL    HW127998   1.225   3.411   2.667
 9033SOL    HW227999   1.218   3.249   2.683
 9034SOL     OW28000   2.355   0.528   5.985
 9034SOL    HW128001   2.327   0.494   5.895
 9034SOL    HW228002   2.318   0.619   6.000
 9035SOL     OW28003   6.809   1.303   4.300
 9035SOL    HW128004   6.835   1.225   4.243
 9035SOL    HW228005   6.709   1.312   4.300
 9036SOL     OW28006   1.267   1.954   4.799
 9036SOL    HW128007   1.200   1.983   4.868
 9036SOL    HW228008   1.226   1.883   4.741
 9037SOL     OW28009   2.216   3.996   5.840
 9037SOL    HW128010   2.257   3.953   5.760
 9037SOL    HW228011   2.197   4.092   5.821
 9038SOL     OW28012   5.717   6.676   5.428
 9038SOL    HW128013   5.696   6.770   5.400
 9038SOL    HW228014   5.814   6.658   5.412
 9039SOL     OW28015   2.478   5.459   5.986
 9039SOL    HW128016   2.506   5.544   5.940
 9039SOL    HW228017   2.468   5.476   6.083
 9040SOL     OW28018   2.223   1.223   1.577
 9040SOL    HW128019   2.273   1.294   1.528
 9040SOL    HW228020   2.260   1.133   1.551
 9041SOL     OW28021   1.494   3.286   6.918
 9041SOL    HW128022   1.425   3.215   6.915
 9041SOL    HW228023   1.583   3.245   6.938
 9042SOL     OW28024   2.835   5.245   3.681
 9042SOL    HW128025   2.777   5.208   3.754
 9042SOL    HW228026   2.859   5.172   3.617
 9043SOL     OW28027   6.628   2.301   6.746
 9043SOL    HW128028   6.640   2.357   6.828
 9043SOL    HW228029   6.549   2.335   6.695
 9044SOL     OW28030   6.312   4.872   0.082
 9044SOL    HW128031   6.395   4.883   0.028
 9044SOL    HW228032   6.299   4.952   0.140
 9045SOL     OW28033   3.517   6.141   3.948
 9045SOL    HW128034   3.444   6.096   3.896
 9045SOL    HW228035   3.573   6.072   3.994
 9046SOL     OW28036   3.278   3.897   5.700
 9046SOL    HW128037   3.282   3.906   5.601
 9046SOL    HW228038   3.207   3.958   5.736
 9047SOL     OW28039   1.074   4.418   5.056
 9047SOL    HW128040   0.976   4.431   5.041
 9047SOL    HW228041   1.120   4.507   5.050
 9048SOL     OW28042   1.386   2.957   4.744
 9048SOL    HW128043   1.366   3.055   4.745
 9048SOL    HW228044   1.406   2.925   4.836
 9049SOL     OW28045   5.005   5.794   6.565
 9049SOL    HW128046   5.009   5.892   6.589
 9049SOL    HW228047   4.909   5.766   6.559
 9050SOL     OW28048   0.463   6.247   5.477
 9050SOL    HW128049   0.443   6.226   5.381
 9050SOL    HW228050   0.562   6.246   5.491
 9051SOL     OW28051   5.068   6.431   6.128
 9051SOL    HW128052   5.057   6.387   6.217
 9051SOL    HW228053   4.979   6.436   6.082
 9052SOL     OW28054   2.198   5.611   4.553
 9052SOL    HW128055   2.262   5.543   4.590
 9052SOL    HW228056   2.220   5.630   4.457
 9053SOL     OW28057   2.869   1.713   3.427
 9053SOL    HW128058   2.876   1.643   3.498
 9053SOL    HW228059   2.803   1.684   3.357
 9054SOL     OW28060   3.492   0.372   1.547
 9054SOL    HW128061   3.478   0.288   1.494
 9054SOL    HW228062   3.573   0.361   1.605
 9055SOL     OW28063   1.362   1.285   4.394
 9055SOL    HW128064   1.330   1.367   4.346
 9055SOL    HW228065   1.396   1.311   4.484
 9056SOL     OW28066   5.729   1.586   2.843
 9056SOL    HW128067   5.755   1.528   2.921
 9056SOL    HW228068   5.801   1.584   2.774
 9057SOL     OW28069   4.426   6.788   6.867
 9057SOL    HW128070   4.370   6.802   6.948
 9057SOL    HW228071   4.386   6.838   6.790
 9058SOL     OW28072   1.759   2.760   5.087
 9058SOL    HW128073   1.801   2.822   5.021
 9058SOL    HW228074   1.812   2.675   5.092
 9059SOL     OW28075   0.027   0.746   3.080
 9059SOL    HW128076   0.099   0.680   3.104
 9059SOL    HW228077   6.971   0.696   3.045
 9060SOL     OW28078   0.556   5.210   1.811
 9060SOL    HW128079   0.560   5.207   1.712
 9060SOL    HW228080   0.617   5.281   1.845
 9061SOL     OW28081   5.618   4.363   2.694
 9061SOL    HW128082   5.639   4.413   2.778
 9061SOL    HW228083   5.699   4.357   2.636
 9062SOL     OW28084   0.718   5.680   3.082
 9062SOL    HW128085   0.669   5.626   3.013
 9062SOL    HW228086   0.808   5.705   3.046
 9063SOL     OW28087   4.539   1.578   1.961
 9063SOL    HW128088   4.463   1.543   2.016
 9063SOL    HW228089   4.543   1.678   1.970
 9064SOL     OW28090   1.103   5.247   3.293
 9064SOL    HW128091   1.104   5.311   3.370
 9064SOL    HW228092   1.127   5.296   3.209
 9065SOL     OW28093   2.656   4.407   5.486
 9065SOL    HW128094   2.578   4.367   5.438
 9065SOL    HW228095   2.703   4.471   5.425
 9066SOL     OW28096   4.814   4.734   4.862
 9066SOL    HW128097   4.901   4.781   4.851
 9066SOL    HW228098   4.798   4.674   4.783
 9067SOL     OW28099   1.355   6.198   4.237
 9067SOL    HW128100   1.283   6.212   4.305
 9067SOL    HW228101   1.320   6.222   4.146
 9068SOL     OW28102   4.688   6.911   5.677
 9068SOL    HW128103   4.644   6.834   5.723
 9068SOL    HW228104   4.720   6.883   5.587
 9069SOL     OW28105   5.403   2.204   1.406
 9069SOL    HW128106   5.347   2.234   1.329
 9069SOL    HW228107   5.356   2.130   1.455
 9070SOL     OW28108   1.383   1.793   5.847
 9070SOL    HW128109   1.475   1.753   5.846
 9070SOL    HW228110   1.341   1.782   5.757
 9071SOL     OW28111   4.888   2.425   6.108
 9071SOL    HW128112   4.845   2.501   6.156
 9071SOL    HW228113   4.967   2.458   6.057
 9072SOL     OW28114   5.095   0.793   2.689
 9072SOL    HW128115   5.108   0.772   2.592
 9072SOL    HW228116   5.136   0.882   2.709
 9073SOL     OW28117   4.705   1.733   5.220
 9073SOL    HW128118   4.685   1.772   5.131
 9073SOL    HW228119   4.802   1.746   5.242
 9074SOL     OW28120   1.879   1.005   1.813
 9074SOL    HW128121   1.860   0.908   1.804
 9074SOL    HW228122   1.947   1.019   1.885
 9075SOL     OW28123   6.044   6.138   0.908
 9075SOL    HW128124   5.972   6.181   0.963
 9075SOL    HW228125   6.124   6.121   0.965
 9076SOL     OW28126   6.796   0.439   2.554
 9076SOL    HW128127   6.783   0.464   2.458
 9076SOL    HW228128   6.870   0.372   2.562
 9077SOL     OW28129   6.250   1.708   6.226
 9077SOL    HW128130   6.179   1.763   6.270
 9077SOL    HW228131   6.324   1.692   6.291
 9078SOL     OW28132   5.088   6.406   0.005
 9078SOL    HW128133   5.166   6.396   6.965
 9078SOL    HW228134   5.006   6.425   6.974
 9079SOL     OW28135   1.590   1.141   6.589
 9079SOL    HW128136   1.585   1.195   6.673
 9079SOL    HW228137   1.579   1.203   6.510
 9080SOL     OW28138   5.895   3.498   1.576
 9080SOL    HW128139   5.961   3.422   1.575
 9080SOL    HW228140   5.812   3.469   1.624
 9081SOL     OW28141   4.674   1.942   6.911
 9081SOL    HW128142   4.723   1.855   6.923
 9081SOL    HW228143   4.701   1.984   6.825
 9082SOL     OW28144   3.706   5.808   6.007
 9082SOL    HW128145   3.619   5.781   5.967
 9082SOL    HW228146   3.767   5.729   6.013
 9083SOL     OW28147   4.224   5.604   6.479
 9083SOL    HW128148   4.264   5.670   6.542
 9083SOL    HW228149   4.194   5.523   6.530
 9084SOL     OW28150   6.685   2.356   6.078
 9084SOL    HW128151   6.665   2.287   6.148
 9084SOL    HW228152   6.625   2.341   5.999
 9085SOL     OW28153   2.096   4.973   7.001
 9085SOL    HW128154   2.134   4.910   6.933
 9085SOL    HW228155   2.170   5.028   0.017
 9086SOL     OW28156   0.031   4.429   0.815
 9086SOL    HW128157   6.956   4.436   0.797
 9086SOL    HW228158   0.057   4.497   0.884
 9087SOL     OW28159   5.969   0.771   1.625
 9087SOL    HW128160   5.902   0.703   1.655
 9087SOL    HW228161   5.994   0.830   1.702
 9088SOL     OW28162   6.539   6.440   0.512
 9088SOL    HW128163   6.578   6.508   0.575
 9088SOL    HW228164   6.442   6.428   0.533
 9089SOL     OW28165   5.185   5.413   4.030
 9089SOL    HW128166   5.235   5.499   4.022
 9089SOL    HW228167   5.199   5.357   3.949
 9090SOL     OW28168   5.615   5.890   5.022
 9090SOL    HW128169   5.659   5.835   5.093
 9090SOL    HW228170   5.676   5.964   4.994
 9091SOL     OW28171   2.677   1.813   1.051
 9091SOL    HW128172   2.582   1.790   1.073
 9091SOL    HW228173   2.691   1.805   0.952
 9092SOL     OW28174   1.492   0.644   5.954
 9092SOL    HW128175   1.483   0.565   5.894
 9092SOL    HW228176   1.440   0.720   5.917
 9093SOL     OW28177   1.845   3.963   0.759
 9093SOL    HW128178   1.801   3.882   0.721
 9093SOL    HW228179   1.776   4.020   0.805
 9094SOL     OW28180   6.711   4.517   1.767
 9094SOL    HW128181   6.738   4.613   1.776
 9094SOL    HW228182   6.679   4.500   1.674
 9095SOL     OW28183   3.290   3.212   0.021
 9095SOL    HW128184   3.235   3.287   7.007
 9095SOL    HW228185   3.273   3.129   6.991
 9096SOL     OW28186   5.233   2.583   3.165
 9096SOL    HW128187   5.237   2.591   3.066
 9096SOL    HW228188   5.320   2.615   3.204
 9097SOL     OW28189   0.905   4.906   6.175
 9097SOL    HW128190   0.869   4.831   6.120
 9097SOL    HW228191   0.910   4.988   6.119
 9098SOL     OW28192   4.099   3.576   2.886
 9098SOL    HW128193   4.131   3.484   2.906
 9098SOL    HW228194   4.093   3.589   2.787
 9099SOL     OW28195   2.044   3.385   0.927
 9099SOL    HW128196   2.087   3.294   0.921
 9099SOL    HW228197   2.086   3.446   0.860
 9100SOL     OW28198   0.360   2.838   1.171
 9100SOL    HW128199   0.283   2.787   1.209
 9100SOL    HW228200   0.403   2.784   1.098
 9101SOL     OW28201   1.794   2.687   1.375
 9101SOL    HW128202   1.859   2.668   1.449
 9101SOL    HW228203   1.763   2.782   1.381
 9102SOL     OW28204   3.624   5.651   2.501
 9102SOL    HW128205   3.634   5.698   2.413
 9102SOL    HW228206   3.621   5.719   2.575
 9103SOL     OW28207   0.513   4.121   0.512
 9103SOL    HW128208   0.611   4.140   0.510
 9103SOL    HW228209   0.485   4.084   0.423
 9104SOL     OW28210   4.544   6.859   1.139
 9104SOL    HW128211   4.535   6.881   1.042
 9104SOL    HW228212   4.639   6.872   1.168
 9105SOL     OW28213   1.693   1.799   5.623
 9105SOL    HW128214   1.760   1.868   5.648
 9105SOL    HW228215   1.632   1.836   5.553
 9106SOL     OW28216   5.864   4.784   0.779
 9106SOL    HW128217   5.920   4.735   0.713
 9106SOL    HW228218   5.839   4.873   0.741
 9107SOL     OW28219   4.331   0.070   1.566
 9107SOL    HW128220   4.308   0.165   1.547
 9107SOL    HW228221   4.429   0.056   1.556
 9108SOL     OW28222   4.695   5.472   5.596
 9108SOL    HW128223   4.620   5.413   5.627
 9108SOL    HW228224   4.762   5.480   5.669
 9109SOL     OW28225   3.237   1.795   3.915
 9109SOL    HW128226   3.216   1.701   3.944
 9109SOL    HW228227   3.171   1.823   3.845
 9110SOL     OW28228   1.665   4.219   3.572
 9110SOL    HW128229   1.709   4.267   3.648
 9110SOL    HW228230   1.603   4.281   3.524
 9111SOL     OW28231   3.597   3.938   1.705
 9111SOL    HW128232   3.592   3.948   1.606
 9111SOL    HW228233   3.586   3.841   1.729
 9112SOL     OW28234   0.246   4.196   2.324
 9112SOL    HW128235   0.168   4.141   2.355
 9112SOL    HW228236   0.254   4.277   2.382
 9113SOL     OW28237   4.367   6.730   0.757
 9113SOL    HW128238   4.440   6.730   0.689
 9113SOL    HW228239   4.278   6.722   0.711
 9114SOL     OW28240   3.078   5.026   1.774
 9114SOL    HW128241   3.149   4.992   1.836
 9114SOL    HW228242   2.988   4.997   1.806
 9115SOL     OW28243   1.181   4.687   5.048
 9115SOL    HW128244   1.135   4.776   5.049
 9115SOL    HW228245   1.269   4.694   5.095
 9116SOL     OW28246   0.235   1.390   6.033
 9116SOL    HW128247   0.164   1.458   6.051
 9116SOL    HW228248   0.192   1.301   6.020
 9117SOL     OW28249   0.152   2.410   6.871
 9117SOL    HW128250   0.062   2.447   6.893
 9117SOL    HW228251   0.220   2.484   6.874
 9118SOL     OW28252   6.661   6.770   1.669
 9118SOL    HW128253   6.760   6.777   1.680
 9118SOL    HW228254   6.641   6.732   1.579
 9119SOL     OW28255   6.526   0.402   1.872
 9119SOL    HW128256   6.538   0.303   1.869
 9119SOL    HW228257   6.614   0.447   1.854
 9120SOL     OW28258   5.341   1.326   6.127
 9120SOL    HW128259   5.427   1.364   6.093
 9120SOL    HW228260   5.330   1.348   6.224
 9121SOL     OW28261   0.576   1.726   5.924
 9121SOL    HW128262   0.517   1.803   5.948
 9121SOL    HW228263   0.523   1.641   5.926
 9122SOL     OW28264   1.857   3.080   2.850
 9122SOL    HW128265   1.872   2.999   2.907
 9122SOL    HW228266   1.796   3.057   2.774
 9123SOL     OW28267   2.546   6.037   6.552
 9123SOL    HW128268   2.621   6.076   6.605
 9123SOL    HW228269   2.463   6.092   6.565
 9124SOL     OW28270   6.639   5.603   5.353
 9124SOL    HW128271   6.674   5.650   5.271
 9124SOL    HW228272   6.565   5.657   5.393
 9125SOL     OW28273   4.891   4.230   3.876
 9125SOL    HW128274   4.962   4.233   3.946
 9125SOL    HW228275   4.862   4.136   3.861
 9126SOL     OW28276   5.956   0.467   2.271
 9126SOL    HW128277   5.951   0.551   2.325
 9126SOL    HW228278   5.871   0.416   2.282
 9127SOL     OW28279   5.388   0.105   6.931
 9127SOL    HW128280   5.454   0.032   6.948
 9127SOL    HW228281   5.436   0.186   6.895
 9128SOL     OW28282   3.780   2.053   5.311
 9128SOL    HW128283   3.818   2.105   5.387
 9128SOL    HW228284   3.808   2.096   5.224
 9129SOL     OW28285   1.487   1.531   6.056
 9129SOL    HW128286   1.573   1.494   6.020
 9129SOL    HW228287   1.505   1.616   6.105
 9130SOL     OW28288   5.614   4.672   0.872
 9130SOL    HW128289   5.618   4.692   0.970
 9130SOL    HW228290   5.688   4.720   0.825
 9131SOL     OW28291   0.676   4.127   4.572
 9131SOL    HW128292   0.653   4.101   4.666
 9131SOL    HW228293   0.647   4.055   4.510
 9132SOL     OW28294   6.686   3.502   4.428
 9132SOL    HW128295   6.692   3.597   4.458
 9132SOL    HW228296   6.637   3.448   4.496
 9133SOL     OW28297   2.467   4.117   0.882
 9133SOL    HW128298   2.437   4.194   0.826
 9133SOL    HW228299   2.493   4.150   0.973
 9134SOL     OW28300   2.853   6.495   6.746
 9134SOL    HW128301   2.843   6.594   6.753
 9134SOL    HW228302   2.951   6.472   6.750
 9135SOL     OW28303   6.451   6.280   3.548
 9135SOL    HW128304   6.457   6.305   3.644
 9135SOL    HW228305   6.364   6.310   3.510
 9136SOL     OW28306   5.288   5.460   5.739
 9136SOL    HW128307   5.345   5.422   5.811
 9136SOL    HW228308   5.346   5.501   5.668
 9137SOL     OW28309   4.266   0.906   1.848
 9137SOL    HW128310   4.285   0.991   1.897
 9137SOL    HW228311   4.257   0.831   1.914
 9138SOL     OW28312   5.684   5.168   6.222
 9138SOL    HW128313   5.683   5.248   6.282
 9138SOL    HW228314   5.725   5.091   6.269
 9139SOL     OW28315   3.461   1.436   5.379
 9139SOL    HW128316   3.537   1.410   5.439
 9139SOL    HW228317   3.404   1.504   5.425
 9140SOL     OW28318   6.472   2.603   2.666
 9140SOL    HW128319   6.422   2.525   2.629
 9140SOL    HW228320   6.411   2.682   2.669
 9141SOL     OW28321   5.421   0.134   5.797
 9141SOL    HW128322   5.493   0.096   5.739
 9141SOL    HW228323   5.386   0.218   5.755
 9142SOL     OW28324   0.598   3.027   6.009
 9142SOL    HW128325   0.562   2.943   6.049
 9142SOL    HW228326   0.638   3.007   5.920
 9143SOL     OW28327   4.358   3.390   0.371
 9143SOL    HW128328   4.392   3.355   0.284
 9143SOL    HW228329   4.436   3.415   0.429
 9144SOL     OW28330   2.383   5.400   5.402
 9144SOL    HW128331   2.303   5.449   5.367
 9144SOL    HW228332   2.452   5.466   5.433
 9145SOL     OW28333   0.363   4.426   0.024
 9145SOL    HW128334   0.458   4.411   7.019
 9145SOL    HW228335   0.352   4.403   0.120
 9146SOL     OW28336   6.051   2.641   1.190
 9146SOL    HW128337   6.040   2.732   1.149
 9146SOL    HW228338   6.035   2.647   1.288
 9147SOL     OW28339   4.275   5.182   4.108
 9147SOL    HW128340   4.254   5.257   4.045
 9147SOL    HW228341   4.190   5.140   4.139
 9148SOL     OW28342   4.951   5.924   3.293
 9148SOL    HW128343   4.972   5.831   3.321
 9148SOL    HW228344   4.957   5.931   3.193
 9149SOL     OW28345   5.037   2.753   4.624
 9149SOL    HW128346   5.075   2.744   4.531
 9149SOL    HW228347   4.993   2.842   4.634
 9150SOL     OW28348   5.211   0.166   3.272
 9150SOL    HW128349   5.260   0.251   3.253
 9150SOL    HW228350   5.245   0.126   3.358
 9151SOL     OW28351   1.374   4.121   2.177
 9151SOL    HW128352   1.299   4.154   2.120
 9151SOL    HW228353   1.422   4.198   2.218
 9152SOL     OW28354   2.533   6.195   3.684
 9152SOL    HW128355   2.498   6.222   3.594
 9152SOL    HW228356   2.545   6.096   3.687
 9153SOL     OW28357   1.596   2.319   6.555
 9153SOL    HW128358   1.671   2.309   6.620
 9153SOL    HW228359   1.627   2.294   6.463
 9154SOL     OW28360   2.766   5.562   6.890
 9154SOL    HW128361   2.719   5.583   6.804
 9154SOL    HW228362   2.785   5.648   6.939
 9155SOL     OW28363   1.925   3.838   6.152
 9155SOL    HW128364   1.990   3.770   6.187
 9155SOL    HW228365   1.941   3.852   6.055
 9156SOL     OW28366   3.663   2.225   1.033
 9156SOL    HW128367   3.639   2.321   1.023
 9156SOL    HW228368   3.694   2.207   1.126
 9157SOL     OW28369   5.341   4.544   5.192
 9157SOL    HW128370   5.365   4.463   5.138
 9157SOL    HW228371   5.340   4.520   5.289
 9158SOL     OW28372   6.894   3.618   4.628
 9158SOL    HW128373   6.830   3.556   4.673
 9158SOL    HW228374   6.866   3.631   4.533
 9159SOL     OW28375   7.014   5.263   2.700
 9159SOL    HW128376   0.017   5.328   2.772
 9159SOL    HW228377   6.974   5.313   2.623
 9160SOL     OW28378   0.936   6.611   6.233
 9160SOL    HW128379   0.975   6.667   6.160
 9160SOL    HW228380   0.931   6.516   6.203
 9161SOL     OW28381   4.987   3.920   4.948
 9161SOL    HW128382   4.978   3.820   4.945
 9161SOL    HW228383   5.083   3.944   4.961
 9162SOL     OW28384   4.958   3.265   2.670
 9162SOL    HW128385   4.884   3.198   2.678
 9162SOL    HW228386   5.031   3.241   2.733
 9163SOL     OW28387   2.984   2.255   3.789
 9163SOL    HW128388   2.947   2.285   3.877
 9163SOL    HW228389   2.929   2.292   3.715
 9164SOL     OW28390   2.673   0.653   6.806
 9164SOL    HW128391   2.636   0.618   6.892
 9164SOL    HW228392   2.598   0.688   6.749
 9165SOL     OW28393   5.809   0.625   6.363
 9165SOL    HW128394   5.730   0.684   6.383
 9165SOL    HW228395   5.780   0.530   6.363
 9166SOL     OW28396   4.153   5.763   0.907
 9166SOL    HW128397   4.083   5.827   0.940
 9166SOL    HW228398   4.125   5.724   0.819
 9167SOL     OW28399   1.533   3.684   5.837
 9167SOL    HW128400   1.470   3.612   5.808
 9167SOL    HW228401   1.607   3.643   5.891
 9168SOL     OW28402   2.343   0.187   5.632
 9168SOL    HW128403   2.352   0.098   5.588
 9168SOL    HW228404   2.344   0.175   5.732
 9169SOL     OW28405   0.426   1.398   4.562
 9169SOL    HW128406   0.467   1.469   4.619
 9169SOL    HW228407   0.498   1.352   4.509
 9170SOL     OW28408   0.024   5.035   0.505
 9170SOL    HW128409   0.084   5.054   0.428
 9170SOL    HW228410   6.985   5.112   0.520
 9171SOL     OW28411   2.831   6.107   7.017
 9171SOL    HW128412   2.841   6.206   0.008
 9171SOL    HW228413   2.796   6.090   6.925
 9172SOL     OW28414   3.659   0.990   4.378
 9172SOL    HW128415   3.690   1.084   4.391
 9172SOL    HW228416   3.591   0.987   4.305
 9173SOL     OW28417   6.400   4.885   4.941
 9173SOL    HW128418   6.479   4.825   4.949
 9173SOL    HW228419   6.401   4.952   5.016
 9174SOL     OW28420   6.293   4.399   0.183
 9174SOL    HW128421   6.249   4.474   0.134
 9174SOL    HW228422   6.245   4.383   0.270
 9175SOL     OW28423   2.395   6.165   5.950
 9175SOL    HW128424   2.439   6.255   5.956
 9175SOL    HW228425   2.322   6.159   6.018
 9176SOL     OW28426   1.881   1.272   5.217
 9176SOL    HW128427   1.806   1.296   5.278
 9176SOL    HW228428   1.968   1.287   5.264
 9177SOL     OW28429   1.359   4.097   4.212
 9177SOL    HW128430   1.273   4.047   4.222
 9177SOL    HW228431   1.366   4.131   4.118
 9178SOL     OW28432   2.128   5.807   1.046
 9178SOL    HW128433   2.136   5.771   0.953
 9178SOL    HW228434   2.051   5.763   1.092
 9179SOL     OW28435   2.853   5.391   4.298
 9179SOL    HW128436   2.870   5.300   4.259
 9179SOL    HW228437   2.754   5.405   4.308
 9180SOL     OW28438   6.278   2.419   3.699
 9180SOL    HW128439   6.290   2.407   3.798
 9180SOL    HW228440   6.290   2.331   3.653
 9181SOL     OW28441   4.537   2.092   2.593
 9181SOL    HW128442   4.591   2.170   2.625
 9181SOL    HW228443   4.589   2.041   2.524
 9182SOL     OW28444   1.597   5.679   2.263
 9182SOL    HW128445   1.630   5.744   2.332
 9182SOL    HW228446   1.520   5.628   2.300
 9183SOL     OW28447   5.218   6.149   0.640
 9183SOL    HW128448   5.269   6.075   0.597
 9183SOL    HW228449   5.271   6.233   0.638
 9184SOL     OW28450   5.369   6.784   0.763
 9184SOL    HW128451   5.331   6.845   0.833
 9184SOL    HW228452   5.467   6.800   0.756
 9185SOL     OW28453   4.092   0.594   5.313
 9185SOL    HW128454   4.088   0.581   5.412
 9185SOL    HW228455   4.037   0.524   5.268
 9186SOL     OW28456   6.528   0.849   4.733
 9186SOL    HW128457   6.574   0.938   4.726
 9186SOL    HW228458   6.570   0.784   4.670
 9187SOL     OW28459   2.040   6.742   2.308
 9187SOL    HW128460   2.113   6.678   2.283
 9187SOL    HW228461   2.049   6.826   2.255
 9188SOL     OW28462   2.859   6.898   1.114
 9188SOL    HW128463   2.917   6.949   1.177
 9188SOL    HW228464   2.772   6.946   1.101
 9189SOL     OW28465   5.402   5.467   2.494
 9189SOL    HW128466   5.328   5.413   2.536
 9189SOL    HW228467   5.425   5.426   2.406
 9190SOL     OW28468   1.920   5.662   0.193
 9190SOL    HW128469   2.017   5.654   0.215
 9190SOL    HW228470   1.868   5.684   0.275
 9191SOL     OW28471   6.617   0.410   5.328
 9191SOL    HW128472   6.689   0.399   5.397
 9191SOL    HW228473   6.611   0.505   5.300
 9192SOL     OW28474   0.284   4.177   4.626
 9192SOL    HW128475   0.327   4.088   4.639
 9192SOL    HW228476   0.219   4.194   4.700
 9193SOL     OW28477   3.490   3.486   0.207
 9193SOL    HW128478   3.575   3.525   0.242
 9193SOL    HW228479   3.419   3.490   0.278
 9194SOL     OW28480   3.347   0.455   4.198
 9194SOL    HW128481   3.376   0.506   4.117
 9194SOL    HW228482   3.297   0.516   4.259
 9195SOL     OW28483   1.828   2.381   4.747
 9195SOL    HW128484   1.800   2.475   4.765
 9195SOL    HW228485   1.926   2.379   4.726
 9196SOL     OW28486   4.436   1.289   4.949
 9196SOL    HW128487   4.394   1.201   4.924
 9196SOL    HW228488   4.399   1.320   5.036
 9197SOL     OW28489   2.185   3.801   1.090
 9197SOL    HW128490   2.143   3.849   1.013
 9197SOL    HW228491   2.281   3.783   1.069
 9198SOL     OW28492   6.766   5.323   5.580
 9198SOL    HW128493   6.857   5.287   5.598
 9198SOL    HW228494   6.704   5.247   5.557
 9199SOL     OW28495   0.345   4.060   6.206
 9199SOL    HW128496   0.272   4.046   6.273
 9199SOL    HW228497   0.329   4.003   6.126
 9200SOL     OW28498   2.655   0.445   0.814
 9200SOL    HW128499   2.703   0.523   0.854
 9200SOL    HW228500   2.564   0.437   0.855
 9201SOL     OW28501   1.413   3.178   6.617
 9201SOL    HW128502   1.390   3.176   6.714
 9201SOL    HW228503   1.430   3.273   6.588
 9202SOL     OW28504   1.994   6.784   3.068
 9202SOL    HW128505   2.061   6.810   3.137
 9202SOL    HW228506   2.028   6.707   3.015
 9203SOL     OW28507   6.966   5.365   0.679
 9203SOL    HW128508   6.957   5.441   0.615
 9203SOL    HW228509   0.038   5.356   0.709
 9204SOL     OW28510   5.178   1.279   6.597
 9204SOL    HW128511   5.141   1.219   6.526
 9204SOL    HW228512   5.104   1.314   6.654
 9205SOL     OW28513   6.580   4.111   2.922
 9205SOL    HW128514   6.668   4.116   2.968
 9205SOL    HW228515   6.533   4.027   2.949
 9206SOL     OW28516   3.499   5.911   0.432
 9206SOL    HW128517   3.511   6.010   0.425
 9206SOL    HW228518   3.513   5.869   0.343
 9207SOL     OW28519   4.622   5.657   0.271
 9207SOL    HW128520   4.672   5.632   0.353
 9207SOL    HW228521   4.679   5.716   0.214
 9208SOL     OW28522   6.497   3.996   4.240
 9208SOL    HW128523   6.551   3.913   4.252
 9208SOL    HW228524   6.410   3.974   4.196
 9209SOL     OW28525   3.212   1.170   6.588
 9209SOL    HW128526   3.203   1.130   6.679
 9209SOL    HW228527   3.187   1.267   6.592
 9210SOL     OW28528   6.604   1.696   2.751
 9210SOL    HW128529   6.507   1.717   2.735
 9210SOL    HW228530   6.612   1.602   2.785
 9211SOL     OW28531   0.021   2.825   4.063
 9211SOL    HW128532   0.117   2.800   4.055
 9211SOL    HW228533   0.003   2.860   4.155
 9212SOL     OW28534   3.484   5.419   4.416
 9212SOL    HW128535   3.395   5.456   4.442
 9212SOL    HW228536   3.524   5.476   4.345
 9213SOL     OW28537   5.761   3.347   5.816
 9213SOL    HW128538   5.811   3.432   5.796
 9213SOL    HW228539   5.759   3.290   5.734
 9214SOL     OW28540   0.406   5.603   0.161
 9214SOL    HW128541   0.418   5.691   0.208
 9214SOL    HW228542   0.320   5.561   0.189
 9215SOL     OW28543   1.167   0.975   0.503
 9215SOL    HW128544   1.086   0.933   0.461
 9215SOL    HW228545   1.140   1.032   0.580
 9216SOL     OW28546   2.716   0.309   2.989
 9216SOL    HW128547   2.815   0.309   3.000
 9216SOL    HW228548   2.677   0.227   3.032
 9217SOL     OW28549   6.961   1.668   6.620
 9217SOL    HW128550   6.970   1.746   6.682
 9217SOL    HW228551   7.003   1.587   6.661
 9218SOL     OW28552   3.532   6.714   0.256
 9218SOL    HW128553   3.534   6.807   0.291
 9218SOL    HW228554   3.619   6.693   0.212
 9219SOL     OW28555   0.997   2.600   1.082
 9219SOL    HW128556   0.991   2.535   1.158
 9219SOL    HW228557   0.929   2.576   1.012
 9220SOL     OW28558   3.645   6.775   1.704
 9220SOL    HW128559   3.598   6.785   1.792
 9220SOL    HW228560   3.744   6.778   1.719
 9221SOL     OW28561   3.274   6.981   3.873
 9221SOL    HW128562   3.363   6.990   3.828
 9221SOL    HW228563   3.212   6.929   3.814
 9222SOL     OW28564   2.368   1.150   6.689
 9222SOL    HW128565   2.390   1.070   6.745
 9222SOL    HW228566   2.269   1.157   6.678
 9223SOL     OW28567   1.710   3.064   5.431
 9223SOL    HW128568   1.661   2.981   5.402
 9223SOL    HW228569   1.807   3.055   5.406
 9224SOL     OW28570   2.248   5.154   4.154
 9224SOL    HW128571   2.183   5.230   4.158
 9224SOL    HW228572   2.315   5.164   4.228
 9225SOL     OW28573   3.108   6.510   6.594
 9225SOL    HW128574   3.015   6.537   6.569
 9225SOL    HW228575   3.171   6.585   6.576
 9226SOL     OW28576   4.856   6.326   1.603
 9226SOL    HW128577   4.916   6.319   1.683
 9226SOL    HW228578   4.903   6.289   1.523
 9227SOL     OW28579   0.916   5.021   2.908
 9227SOL    HW128580   0.958   5.111   2.920
 9227SOL    HW228581   0.908   5.002   2.810
 9228SOL     OW28582   1.438   1.079   5.793
 9228SOL    HW128583   1.537   1.082   5.778
 9228SOL    HW228584   1.413   0.989   5.830
 9229SOL     OW28585   1.495   5.320   3.678
 9229SOL    HW128586   1.474   5.412   3.646
 9229SOL    HW228587   1.451   5.253   3.617
 9230SOL     OW28588   5.523   0.325   3.555
 9230SOL    HW128589   5.524   0.283   3.645
 9230SOL    HW228590   5.521   0.425   3.564
 9231SOL     OW28591   1.384   3.031   4.470
 9231SOL    HW128592   1.391   3.003   4.565
 9231SOL    HW228593   1.434   3.116   4.456
 9232SOL     OW28594   3.435   5.250   0.376
 9232SOL    HW128595   3.383   5.167   0.399
 9232SOL    HW228596   3.507   5.227   0.311
 9233SOL     OW28597   5.484   5.029   1.489
 9233SOL    HW128598   5.453   4.936   1.471
 9233SOL    HW228599   5.533   5.065   1.409
 9234SOL     OW28600   2.962   5.729   3.178
 9234SOL    HW128601   2.873   5.684   3.175
 9234SOL    HW228602   2.949   5.828   3.179
 9235SOL     OW28603   1.554   1.988   3.439
 9235SOL    HW128604   1.652   1.993   3.421
 9235SOL    HW228605   1.508   2.061   3.389
 9236SOL     OW28606   3.289   3.938   5.435
 9236SOL    HW128607   3.299   4.037   5.427
 9236SOL    HW228608   3.213   3.907   5.379
 9237SOL     OW28609   1.238   4.159   3.905
 9237SOL    HW128610   1.255   4.061   3.908
 9237SOL    HW228611   1.270   4.196   3.817
 9238SOL     OW28612   5.094   2.865   6.516
 9238SOL    HW128613   5.118   2.768   6.513
 9238SOL    HW228614   5.125   2.909   6.432
 9239SOL     OW28615   0.447   3.678   1.271
 9239SOL    HW128616   0.412   3.770   1.288
 9239SOL    HW228617   0.488   3.641   1.354
 9240SOL     OW28618   5.424   1.739   1.496
 9240SOL    HW128619   5.519   1.718   1.472
 9240SOL    HW228620   5.378   1.780   1.417
 9241SOL     OW28621   6.915   5.420   6.666
 9241SOL    HW128622   6.871   5.475   6.596
 9241SOL    HW228623   7.015   5.432   6.660
 9242SOL     OW28624   0.024   5.965   1.343
 9242SOL    HW128625   7.020   5.967   1.440
 9242SOL    HW228626   0.023   5.871   1.310
 9243SOL     OW28627   6.739   6.048   4.217
 9243SOL    HW128628   6.726   5.951   4.194
 9243SOL    HW228629   6.703   6.065   4.308
 9244SOL     OW28630   4.649   5.706   6.549
 9244SOL    HW128631   4.598   5.791   6.530
 9244SOL    HW228632   4.596   5.628   6.515
 9245SOL     OW28633   0.826   5.585   2.451
 9245SOL    HW128634   0.779   5.648   2.512
 9245SOL    HW228635   0.776   5.498   2.447
 9246SOL     OW28636   6.735   5.249   3.675
 9246SOL    HW128637   6.826   5.209   3.664
 9246SOL    HW228638   6.730   5.334   3.622
 9247SOL     OW28639   1.239   7.016   3.128
 9247SOL    HW128640   1.267   0.063   3.194
 9247SOL    HW228641   1.277   0.014   3.038
 9248SOL     OW28642   2.761   2.640   6.204
 9248SOL    HW128643   2.698   2.573   6.166
 9248SOL    HW228644   2.836   2.656   6.140
 9249SOL     OW28645   5.387   1.709   4.474
 9249SOL    HW128646   5.465   1.764   4.505
 9249SOL    HW228647   5.303   1.741   4.519
 9250SOL     OW28648   4.995   3.648   4.126
 9250SOL    HW128649   4.934   3.691   4.192
 9250SOL    HW228650   5.012   3.553   4.153
 9251SOL     OW28651   3.571   1.532   3.087
 9251SOL    HW128652   3.645   1.599   3.091
 9251SOL    HW228653   3.483   1.578   3.098
 9252SOL     OW28654   0.079   0.025   4.819
 9252SOL    HW128655   0.054   0.103   4.762
 9252SOL    HW228656   0.132   6.982   4.765
 9253SOL     OW28657   2.764   6.660   6.106
 9253SOL    HW128658   2.748   6.758   6.096
 9253SOL    HW228659   2.786   6.621   6.017
 9254SOL     OW28660   5.687   3.974   1.412
 9254SOL    HW128661   5.675   3.888   1.461
 9254SOL    HW228662   5.599   4.002   1.372
 9255SOL     OW28663   4.965   3.296   0.263
 9255SOL    HW128664   4.895   3.362   0.293
 9255SOL    HW228665   5.055   3.338   0.270
 9256SOL     OW28666   4.142   4.759   2.385
 9256SOL    HW128667   4.222   4.705   2.358
 9256SOL    HW228668   4.111   4.813   2.307
 9257SOL     OW28669   0.625   4.089   2.347
 9257SOL    HW128670   0.705   4.077   2.289
 9257SOL    HW228671   0.562   4.012   2.335
 9258SOL     OW28672   3.426   2.976   3.620
 9258SOL    HW128673   3.362   3.009   3.550
 9258SOL    HW228674   3.377   2.958   3.705
 9259SOL     OW28675   0.770   2.002   1.191
 9259SOL    HW128676   0.807   2.023   1.101
 9259SOL    HW228677   0.827   1.932   1.235
 9260SOL     OW28678   4.723   2.757   5.959
 9260SOL    HW128679   4.628   2.784   5.942
 9260SOL    HW228680   4.765   2.822   6.022
 9261SOL     OW28681   3.696   0.103   6.655
 9261SOL    HW128682   3.714   0.078   6.750
 9261SOL    HW228683   3.600   0.129   6.645
 9262SOL     OW28684   5.788   1.666   5.052
 9262SOL    HW128685   5.757   1.760   5.035
 9262SOL    HW228686   5.772   1.611   4.970
 9263SOL     OW28687   5.073   3.711   1.069
 9263SOL    HW128688   5.059   3.810   1.073
 9263SOL    HW228689   5.153   3.686   1.124
 9264SOL     OW28690   6.631   3.882   0.058
 9264SOL    HW128691   6.609   3.920   6.992
 9264SOL    HW228692   6.634   3.782   0.052
 9265SOL     OW28693   2.387   1.716   0.085
 9265SOL    HW128694   2.420   1.686   0.175
 9265SOL    HW228695   2.336   1.801   0.095
 9266SOL     OW28696   2.386   6.167   2.446
 9266SOL    HW128697   2.415   6.223   2.523
 9266SOL    HW228698   2.455   6.171   2.374
 9267SOL     OW28699   0.365   3.756   4.537
 9267SOL    HW128700   0.373   3.827   4.607
 9267SOL    HW228701   0.354   3.798   4.447
 9268SOL     OW28702   0.089   6.649   2.782
 9268SOL    HW128703   0.032   6.592   2.841
 9268SOL    HW228704   0.159   6.592   2.738
 9269SOL     OW28705   2.909   1.881   7.012
 9269SOL    HW128706   2.847   1.855   0.063
 9269SOL    HW228707   2.902   1.814   6.938
 9270SOL     OW28708   6.825   6.718   5.590
 9270SOL    HW128709   6.838   6.716   5.491
 9270SOL    HW228710   6.796   6.810   5.617
 9271SOL     OW28711   1.303   6.713   0.902
 9271SOL    HW128712   1.258   6.730   0.814
 9271SOL    HW228713   1.366   6.788   0.922
 9272SOL     OW28714   2.411   4.364   6.443
 9272SOL    HW128715   2.345   4.298   6.477
 9272SOL    HW228716   2.364   4.432   6.386
 9273SOL     OW28717   4.587   5.271   3.657
 9273SOL    HW128718   4.516   5.338   3.635
 9273SOL    HW228719   4.674   5.317   3.673
 9274SOL     OW28720   5.231   2.392   6.754
 9274SOL    HW128721   5.321   2.409   6.792
 9274SOL    HW228722   5.172   2.352   6.824
 9275SOL     OW28723   1.111   1.229   6.754
 9275SOL    HW128724   1.021   1.258   6.786
 9275SOL    HW228725   1.137   1.144   6.800
 9276SOL     OW28726   3.674   5.546   4.593
 9276SOL    HW128727   3.648   5.461   4.547
 9276SOL    HW228728   3.741   5.595   4.537
 9277SOL     OW28729   3.563   3.294   0.022
 9277SOL    HW128730   3.473   3.251   0.014
 9277SOL    HW228731   3.555   3.380   0.073
 9278SOL     OW28732   1.192   1.816   4.079
 9278SOL    HW128733   1.137   1.831   3.997
 9278SOL    HW228734   1.285   1.788   4.053
 9279SOL     OW28735   3.768   0.471   2.124
 9279SOL    HW128736   3.832   0.545   2.103
 9279SOL    HW228737   3.817   0.395   2.167
 9280SOL     OW28738   1.606   6.898   3.706
 9280SOL    HW128739   1.634   6.824   3.767
 9280SOL    HW228740   1.515   6.931   3.731
 9281SOL     OW28741   2.681   2.770   0.883
 9281SOL    HW128742   2.622   2.703   0.927
 9281SOL    HW228743   2.765   2.725   0.852
 9282SOL     OW28744   4.700   1.657   4.463
 9282SOL    HW128745   4.734   1.566   4.438
 9282SOL    HW228746   4.628   1.648   4.532
 9283SOL     OW28747   6.284   2.018   2.861
 9283SOL    HW128748   6.383   2.031   2.864
 9283SOL    HW228749   6.244   2.042   2.949
 9284SOL     OW28750   3.758   3.778   0.803
 9284SOL    HW128751   3.709   3.719   0.738
 9284SOL    HW228752   3.795   3.722   0.877
 9285SOL     OW28753   6.669   2.724   6.931
 9285SOL    HW128754   6.747   2.695   6.876
 9285SOL    HW228755   6.647   2.819   6.909
 9286SOL     OW28756   5.651   6.903   5.286
 9286SOL    HW128757   5.594   6.986   5.287
 9286SOL    HW228758   5.694   6.894   5.196
 9287SOL     OW28759   3.123   5.655   1.250
 9287SOL    HW128760   3.048   5.704   1.294
 9287SOL    HW228761   3.190   5.629   1.319
 9288SOL     OW28762   4.027   1.751   5.687
 9288SOL    HW128763   3.987   1.736   5.597
 9288SOL    HW228764   3.955   1.766   5.754
 9289SOL     OW28765   5.037   2.176   2.386
 9289SOL    HW128766   5.021   2.131   2.298
 9289SOL    HW228767   4.950   2.190   2.432
 9290SOL     OW28768   4.136   2.215   4.974
 9290SOL    HW128769   4.169   2.308   4.990
 9290SOL    HW228770   4.150   2.190   4.878
 9291SOL     OW28771   1.771   0.300   5.175
 9291SOL    HW128772   1.751   0.387   5.220
 9291SOL    HW228773   1.716   0.292   5.092
 9292SOL     OW28774   7.009   3.296   5.805
 9292SOL    HW128775   0.025   3.272   5.716
 9292SOL    HW228776   0.049   3.267   5.877
 9293SOL     OW28777   5.256   4.342   0.754
 9293SOL    HW128778   5.319   4.418   0.736
 9293SOL    HW228779   5.303   4.256   0.736
 9294SOL     OW28780   3.950   5.919   0.031
 9294SOL    HW128781   4.024   5.985   0.018
 9294SOL    HW228782   3.921   5.920   0.127
 9295SOL     OW28783   4.273   2.101   2.626
 9295SOL    HW128784   4.254   2.003   2.617
 9295SOL    HW228785   4.372   2.116   2.627
 9296SOL     OW28786   6.616   6.529   5.918
 9296SOL    HW128787   6.715   6.515   5.914
 9296SOL    HW228788   6.571   6.442   5.939
 9297SOL     OW28789   0.439   0.616   1.326
 9297SOL    HW128790   0.520   0.607   1.383
 9297SOL    HW228791   0.363   0.567   1.369
 9298SOL     OW28792   2.333   6.041   5.438
 9298SOL    HW128793   2.420   5.994   5.427
 9298SOL    HW228794   2.330   6.086   5.528
 9299SOL     OW28795   1.769   3.273   4.102
 9299SOL    HW128796   1.841   3.312   4.160
 9299SOL    HW228797   1.809   3.205   4.041
 9300SOL     OW28798   6.061   4.821   5.373
 9300SOL    HW128799   6.095   4.748   5.313
 9300SOL    HW228800   6.125   4.835   5.448
 9301SOL     OW28801   4.749   4.656   2.948
 9301SOL    HW128802   4.806   4.576   2.969
 9301SOL    HW228803   4.653   4.629   2.945
 9302SOL     OW28804   2.514   2.534   3.391
 9302SOL    HW128805   2.434   2.592   3.376
 9302SOL    HW228806   2.543   2.493   3.304
 9303SOL     OW28807   3.777   6.318   0.194
 9303SOL    HW128808   3.677   6.312   0.186
 9303SOL    HW228809   3.801   6.396   0.251
 9304SOL     OW28810   3.621   4.142   0.677
 9304SOL    HW128811   3.690   4.202   0.638
 9304SOL    HW228812   3.628   4.142   0.777
 9305SOL     OW28813   5.411   2.313   1.698
 9305SOL    HW128814   5.477   2.245   1.731
 9305SOL    HW228815   5.397   2.301   1.600
 9306SOL     OW28816   0.204   4.733   4.056
 9306SOL    HW128817   0.195   4.802   4.128
 9306SOL    HW228818   0.115   4.690   4.040
 9307SOL     OW28819   1.464   2.030   0.988
 9307SOL    HW128820   1.403   1.988   0.921
 9307SOL    HW228821   1.463   2.129   0.976
 9308SOL     OW28822   0.178   3.323   1.001
 9308SOL    HW128823   0.091   3.276   1.020
 9308SOL    HW228824   0.248   3.289   1.064
 9309SOL     OW28825   4.238   3.987   6.008
 9309SOL    HW128826   4.253   4.081   5.977
 9309SOL    HW228827   4.212   3.930   5.930
 9310SOL     OW28828   4.215   6.809   5.937
 9310SOL    HW128829   4.133   6.770   5.980
 9310SOL    HW228830   4.187   6.865   5.859
 9311SOL     OW28831   5.281   3.810   0.660
 9311SOL    HW128832   5.253   3.793   0.566
 9311SOL    HW228833   5.237   3.894   0.693
 9312SOL     OW28834   1.313   4.272   6.573
 9312SOL    HW128835   1.387   4.209   6.552
 9312SOL    HW228836   1.241   4.224   6.623
 9313SOL     OW28837   0.182   0.517   2.321
 9313SOL    HW128838   0.267   0.570   2.333
 9313SOL    HW228839   0.112   0.575   2.279
 9314SOL     OW28840   4.082   5.548   6.872
 9314SOL    HW128841   3.997   5.586   6.835
 9314SOL    HW228842   4.130   5.499   6.800
 9315SOL     OW28843   0.109   0.803   5.647
 9315SOL    HW128844   0.088   0.900   5.661
 9315SOL    HW228845   0.024   0.751   5.651
 9316SOL     OW28846   3.832   5.586   4.050
 9316SOL    HW128847   3.875   5.497   4.067
 9316SOL    HW228848   3.901   5.658   4.055
 9317SOL     OW28849   5.985   4.978   3.193
 9317SOL    HW128850   6.084   4.970   3.177
 9317SOL    HW228851   5.936   4.935   3.118
 9318SOL     OW28852   6.943   0.924   6.749
 9318SOL    HW128853   6.973   0.832   6.723
 9318SOL    HW228854   6.945   0.984   6.670
 9319SOL     OW28855   0.521   3.337   6.411
 9319SOL    HW128856   0.449   3.376   6.353
 9319SOL    HW228857   0.531   3.394   6.493
 9320SOL     OW28858   3.940   2.480   5.938
 9320SOL    HW128859   3.882   2.555   5.971
 9320SOL    HW228860   4.015   2.466   6.003
 9321SOL     OW28861   6.076   6.706   2.834
 9321SOL    HW128862   6.079   6.607   2.846
 9321SOL    HW228863   6.167   6.745   2.850
 9322SOL     OW28864   0.426   6.223   6.214
 9322SOL    HW128865   0.509   6.277   6.203
 9322SOL    HW228866   0.416   6.160   6.136
 9323SOL     OW28867   0.586   1.387   6.385
 9323SOL    HW128868   0.646   1.426   6.315
 9323SOL    HW228869   0.633   1.387   6.473
 9324SOL     OW28870   0.970   5.047   0.485
 9324SOL    HW128871   0.933   5.008   0.570
 9324SOL    HW228872   1.013   5.135   0.505
 9325SOL     OW28873   5.432   1.679   1.096
 9325SOL    HW128874   5.429   1.580   1.080
 9325SOL    HW228875   5.414   1.698   1.192
 9326SOL     OW28876   2.401   6.960   0.474
 9326SOL    HW128877   2.355   0.019   0.507
 9326SOL    HW228878   2.497   6.981   0.455
 9327SOL     OW28879   4.670   6.925   2.931
 9327SOL    HW128880   4.595   6.991   2.924
 9327SOL    HW228881   4.654   6.849   2.868
 9328SOL     OW28882   3.852   1.315   6.979
 9328SOL    HW128883   3.782   1.321   6.907
 9328SOL    HW228884   3.831   1.238   0.017
 9329SOL     OW28885   6.862   3.400   3.265
 9329SOL    HW128886   6.903   3.424   3.353
 9329SOL    HW228887   6.762   3.412   3.270
 9330SOL     OW28888   6.750   6.975   0.769
 9330SOL    HW128889   6.765   0.005   0.685
 9330SOL    HW228890   6.781   0.006   0.848
 9331SOL     OW28891   0.262   0.766   6.953
 9331SOL    HW128892   0.317   0.683   6.942
 9331SOL    HW228893   0.318   0.846   6.931
 9332SOL     OW28894   3.014   3.814   4.393
 9332SOL    HW128895   3.074   3.824   4.313
 9332SOL    HW228896   2.960   3.731   4.384
 9333SOL     OW28897   6.266   3.739   1.073
 9333SOL    HW128898   6.331   3.777   1.007
 9333SOL    HW228899   6.285   3.778   1.164
 9334SOL     OW28900   3.228   0.355   3.554
 9334SOL    HW128901   3.162   0.414   3.600
 9334SOL    HW228902   3.218   0.366   3.455
 9335SOL     OW28903   1.533   1.287   6.377
 9335SOL    HW128904   1.571   1.279   6.284
 9335SOL    HW228905   1.449   1.342   6.373
 9336SOL     OW28906   3.237   6.300   6.171
 9336SOL    HW128907   3.156   6.280   6.227
 9336SOL    HW228908   3.280   6.214   6.143
 9337SOL     OW28909   5.295   0.608   2.210
 9337SOL    HW128910   5.394   0.597   2.198
 9337SOL    HW228911   5.267   0.697   2.173
 9338SOL     OW28912   3.733   0.324   2.573
 9338SOL    HW128913   3.770   0.232   2.586
 9338SOL    HW228914   3.738   0.374   2.659
 9339SOL     OW28915   5.096   6.659   1.108
 9339SOL    HW128916   5.019   6.604   1.075
 9339SOL    HW228917   5.137   6.615   1.188
 9340SOL     OW28918   5.396   3.606   6.024
 9340SOL    HW128919   5.336   3.658   6.085
 9340SOL    HW228920   5.400   3.511   6.053
 9341SOL     OW28921   1.394   5.656   6.917
 9341SOL    HW128922   1.473   5.611   6.959
 9341SOL    HW228923   1.427   5.726   6.853
 9342SOL     OW28924   1.649   0.136   5.382
 9342SOL    HW128925   1.665   0.197   5.304
 9342SOL    HW228926   1.717   0.155   5.453
 9343SOL     OW28927   6.366   5.472   5.109
 9343SOL    HW128928   6.390   5.406   5.180
 9343SOL    HW228929   6.439   5.475   5.041
 9344SOL     OW28930   5.083   6.463   1.432
 9344SOL    HW128931   5.155   6.499   1.373
 9344SOL    HW228932   4.996   6.465   1.384
 9345SOL     OW28933   6.671   2.692   1.476
 9345SOL    HW128934   6.709   2.624   1.539
 9345SOL    HW228935   6.572   2.698   1.491
 9346SOL     OW28936   6.396   0.562   1.210
 9346SOL    HW128937   6.416   0.641   1.267
 9346SOL    HW228938   6.409   0.478   1.262
 9347SOL     OW28939   1.352   6.103   1.570
 9347SOL    HW128940   1.289   6.102   1.648
 9347SOL    HW228941   1.446   6.093   1.604
 9348SOL     OW28942   3.122   5.739   0.446
 9348SOL    HW128943   3.136   5.835   0.424
 9348SOL    HW228944   3.211   5.693   0.454
 9349SOL     OW28945   1.127   6.574   2.480
 9349SOL    HW128946   1.147   6.519   2.561
 9349SOL    HW228947   1.196   6.646   2.471
 9350SOL     OW28948   0.372   2.400   5.790
 9350SOL    HW128949   0.472   2.390   5.789
 9350SOL    HW228950   0.330   2.316   5.823
 9351SOL     OW28951   3.247   2.503   7.018
 9351SOL    HW128952   3.182   2.481   0.068
 9351SOL    HW228953   3.232   2.598   6.988
 9352SOL     OW28954   2.877   4.834   6.787
 9352SOL    HW128955   2.794   4.797   6.830
 9352SOL    HW228956   2.944   4.856   6.858
 9353SOL     OW28957   0.656   6.070   1.781
 9353SOL    HW128958   0.596   6.049   1.858
 9353SOL    HW228959   0.665   6.170   1.773
 9354SOL     OW28960   5.963   2.185   6.982
 9354SOL    HW128961   5.909   2.149   0.035
 9354SOL    HW228962   5.983   2.111   6.917
 9355SOL     OW28963   0.607   1.679   5.135
 9355SOL    HW128964   0.511   1.655   5.129
 9355SOL    HW228965   0.663   1.600   5.111
 9356SOL     OW28966   4.768   6.868   2.118
 9356SOL    HW128967   4.799   6.773   2.114
 9356SOL    HW228968   4.776   6.909   2.027
 9357SOL     OW28969   0.727   2.100   6.964
 9357SOL    HW128970   0.689   2.109   0.034
 9357SOL    HW228971   0.652   2.086   6.899
 9358SOL     OW28972   1.360   3.415   2.390
 9358SOL    HW128973   1.324   3.387   2.479
 9358SOL    HW228974   1.457   3.390   2.383
 9359SOL     OW28975   2.069   6.677   6.026
 9359SOL    HW128976   2.036   6.753   6.082
 9359SOL    HW228977   2.107   6.606   6.085
 9360SOL     OW28978   1.078   0.380   6.372
 9360SOL    HW128979   1.037   0.379   6.463
 9360SOL    HW228980   1.078   0.474   6.337
 9361SOL     OW28981   2.297   6.133   3.987
 9361SOL    HW128982   2.356   6.211   4.009
 9361SOL    HW228983   2.347   6.048   4.005
 9362SOL     OW28984   2.161   0.471   2.070
 9362SOL    HW128985   2.128   0.389   2.116
 9362SOL    HW228986   2.115   0.552   2.107
 9363SOL     OW28987   3.040   5.132   2.357
 9363SOL    HW128988   3.096   5.062   2.402
 9363SOL    HW228989   3.079   5.222   2.375
 9364SOL     OW28990   1.665   1.956   1.171
 9364SOL    HW128991   1.596   1.960   1.099
 9364SOL    HW228992   1.709   2.045   1.180
 9365SOL     OW28993   3.332   2.037   4.423
 9365SOL    HW128994   3.413   2.042   4.481
 9365SOL    HW228995   3.252   2.069   4.474
 9366SOL     OW28996   3.532   5.532   0.240
 9366SOL    HW128997   3.454   5.480   0.276
 9366SOL    HW228998   3.507   5.628   0.232
 9367SOL     OW28999   6.456   0.758   1.412
 9367SOL    HW129000   6.366   0.778   1.453
 9367SOL    HW229001   6.527   0.807   1.462
 9368SOL     OW29002   3.684   0.850   2.700
 9368SOL    HW129003   3.706   0.836   2.604
 9368SOL    HW229004   3.585   0.838   2.713
 9369SOL     OW29005   2.167   5.396   6.648
 9369SOL    HW129006   2.127   5.460   6.582
 9369SOL    HW229007   2.263   5.419   6.663
 9370SOL     OW29008   4.787   1.890   4.061
 9370SOL    HW129009   4.747   1.826   3.995
 9370SOL    HW229010   4.886   1.893   4.049
 9371SOL     OW29011   4.147   6.069   1.520
 9371SOL    HW129012   4.126   6.165   1.503
 9371SOL    HW229013   4.244   6.053   1.501
 9372SOL     OW29014   5.092   6.693   1.641
 9372SOL    HW129015   5.058   6.639   1.564
 9372SOL    HW229016   5.179   6.655   1.674
 9373SOL     OW29017   6.690   1.046   0.666
 9373SOL    HW129018   6.705   1.034   0.568
 9373SOL    HW229019   6.775   1.029   0.715
 9374SOL     OW29020   0.556   5.217   5.590
 9374SOL    HW129021   0.500   5.139   5.619
 9374SOL    HW229022   0.586   5.204   5.496
 9375SOL     OW29023   0.436   1.269   6.893
 9375SOL    HW129024   0.399   1.218   6.815
 9375SOL    HW229025   0.530   1.295   6.874
 9376SOL     OW29026   2.032   3.659   2.011
 9376SOL    HW129027   2.019   3.713   1.928
 9376SOL    HW229028   2.101   3.588   1.994
 9377SOL     OW29029   2.563   6.326   2.985
 9377SOL    HW129030   2.625   6.370   3.050
 9377SOL    HW229031   2.480   6.381   2.977
 9378SOL     OW29032   3.023   0.692   3.403
 9378SOL    HW129033   3.087   0.653   3.337
 9378SOL    HW229034   2.972   0.618   3.448
 9379SOL     OW29035   4.009   6.446   4.702
 9379SOL    HW129036   4.029   6.438   4.800
 9379SOL    HW229037   3.933   6.509   4.689
 9380SOL     OW29038   4.966   5.869   0.297
 9380SOL    HW129039   4.890   5.884   0.234
 9380SOL    HW229040   5.043   5.827   0.248
 9381SOL     OW29041   5.349   2.019   4.306
 9381SOL    HW129042   5.325   2.013   4.403
 9381SOL    HW229043   5.370   1.927   4.272
 9382SOL     OW29044   3.043   0.020   4.870
 9382SOL    HW129045   3.136   0.003   4.838
 9382SOL    HW229046   3.016   0.114   4.848
 9383SOL     OW29047   4.883   4.059   3.251
 9383SOL    HW129048   4.879   4.025   3.157
 9383SOL    HW229049   4.964   4.115   3.263
 9384SOL     OW29050   2.167   0.807   1.975
 9384SOL    HW129051   2.237   0.873   2.001
 9384SOL    HW229052   2.153   0.742   2.049
 9385SOL     OW29053   3.722   1.687   3.406
 9385SOL    HW129054   3.670   1.657   3.486
 9385SOL    HW229055   3.810   1.725   3.436
 9386SOL     OW29056   4.166   6.450   6.151
 9386SOL    HW129057   4.074   6.420   6.174
 9386SOL    HW229058   4.173   6.463   6.052
 9387SOL     OW29059   2.682   2.466   0.111
 9387SOL    HW129060   2.604   2.468   0.048
 9387SOL    HW229061   2.656   2.420   0.196
 9388SOL     OW29062   2.472   6.120   4.661
 9388SOL    HW129063   2.507   6.172   4.739
 9388SOL    HW229064   2.422   6.182   4.601
 9389SOL     OW29065   2.644   4.428   1.737
 9389SOL    HW129066   2.574   4.460   1.801
 9389SOL    HW229067   2.733   4.427   1.783
 9390SOL     OW29068   5.255   5.024   5.221
 9390SOL    HW129069   5.179   5.064   5.170
 9390SOL    HW229070   5.268   4.930   5.192
 9391SOL     OW29071   1.694   5.780   4.499
 9391SOL    HW129072   1.779   5.751   4.543
 9391SOL    HW229073   1.700   5.761   4.401
 9392SOL     OW29074   5.844   4.356   2.549
 9392SOL    HW129075   5.859   4.370   2.451
 9392SOL    HW229076   5.927   4.319   2.591
 9393SOL     OW29077   2.746   6.932   6.053
 9393SOL    HW129078   2.774   0.002   6.081
 9393SOL    HW229079   2.662   6.938   6.000
 9394SOL     OW29080   4.256   0.426   0.886
 9394SOL    HW129081   4.289   0.468   0.970
 9394SOL    HW229082   4.190   0.354   0.908
 9395SOL     OW29083   2.035   2.066   0.590
 9395SOL    HW129084   2.080   2.004   0.655
 9395SOL    HW229085   1.942   2.084   0.621
 9396SOL     OW29086   0.729   6.494   6.623
 9396SOL    HW129087   0.630   6.507   6.612
 9396SOL    HW229088   0.757   6.410   6.577
 9397SOL     OW29089   3.864   1.317   5.669
 9397SOL    HW129090   3.881   1.264   5.752
 9397SOL    HW229091   3.799   1.390   5.689
 9398SOL     OW29092   0.032   1.420   6.719
 9398SOL    HW129093   0.055   1.351   6.788
 9398SOL    HW229094   0.103   1.422   6.649
 9399SOL     OW29095   1.800   2.882   3.851
 9399SOL    HW129096   1.858   2.801   3.850
 9399SOL    HW229097   1.745   2.886   3.768
 9400SOL     OW29098   5.758   1.306   0.808
 9400SOL    HW129099   5.729   1.357   0.727
 9400SOL    HW229100   5.711   1.341   0.888
 9401SOL     OW29101   0.389   1.985   3.143
 9401SOL    HW129102   0.340   1.903   3.175
 9401SOL    HW229103   0.377   2.059   3.209
 9402SOL     OW29104   1.667   6.108   3.921
 9402SOL    HW129105   1.597   6.158   3.973
 9402SOL    HW229106   1.677   6.150   3.831
 9403SOL     OW29107   6.491   2.224   2.016
 9403SOL    HW129108   6.396   2.221   1.986
 9403SOL    HW229109   6.495   2.262   2.108
 9404SOL     OW29110   1.768   3.305   0.690
 9404SOL    HW129111   1.753   3.268   0.782
 9404SOL    HW229112   1.744   3.235   0.622
 9405SOL     OW29113   0.404   5.804   5.166
 9405SOL    HW129114   0.337   5.868   5.203
 9405SOL    HW229115   0.382   5.784   5.071
 9406SOL     OW29116   0.074   2.798   0.368
 9406SOL    HW129117   0.109   2.716   0.413
 9406SOL    HW229118   0.099   2.797   0.272
 9407SOL     OW29119   1.041   5.496   5.340
 9407SOL    HW129120   0.989   5.415   5.313
 9407SOL    HW229121   1.122   5.468   5.391
 9408SOL     OW29122   0.025   3.816   4.742
 9408SOL    HW129123   6.994   3.738   4.711
 9408SOL    HW229124   0.118   3.786   4.762
 9409SOL     OW29125   6.708   5.523   2.446
 9409SOL    HW129126   6.674   5.429   2.437
 9409SOL    HW229127   6.665   5.581   2.376
 9410SOL     OW29128   3.757   0.892   0.823
 9410SOL    HW129129   3.658   0.885   0.829
 9410SOL    HW229130   3.798   0.804   0.850
 9411SOL     OW29131   2.916   3.283   2.940
 9411SOL    HW129132   2.938   3.374   2.975
 9411SOL    HW229133   2.817   3.270   2.940
 9412SOL     OW29134   6.057   6.400   1.184
 9412SOL    HW129135   6.152   6.432   1.182
 9412SOL    HW229136   5.998   6.471   1.144
 9413SOL     OW29137   4.664   4.323   2.728
 9413SOL    HW129138   4.694   4.244   2.674
 9413SOL    HW229139   4.650   4.401   2.667
 9414SOL     OW29140   1.679   2.067   3.892
 9414SOL    HW129141   1.747   2.070   3.820
 9414SOL    HW229142   1.708   2.001   3.962
 9415SOL     OW29143   4.018   1.047   2.443
 9415SOL    HW129144   3.978   1.121   2.389
 9415SOL    HW229145   3.974   1.044   2.533
 9416SOL     OW29146   5.860   4.869   5.981
 9416SOL    HW129147   5.794   4.853   6.054
 9416SOL    HW229148   5.935   4.803   5.989
 9417SOL     OW29149   3.745   5.978   1.816
 9417SOL    HW129150   3.842   5.982   1.837
 9417SOL    HW229151   3.693   6.030   1.883
 9418SOL     OW29152   3.160   2.115   4.612
 9418SOL    HW129153   3.130   2.022   4.631
 9418SOL    HW229154   3.157   2.169   4.697
 9419SOL     OW29155   2.018   3.225   6.190
 9419SOL    HW129156   2.005   3.194   6.285
 9419SOL    HW229157   1.929   3.238   6.147
 9420SOL     OW29158   6.524   4.006   6.585
 9420SOL    HW129159   6.523   3.977   6.489
 9420SOL    HW229160   6.591   4.079   6.597
 9421SOL     OW29161   3.692   6.362   5.729
 9421SOL    HW129162   3.759   6.321   5.667
 9421SOL    HW229163   3.619   6.297   5.746
 9422SOL     OW29164   2.700   5.967   4.694
 9422SOL    HW129165   2.615   6.020   4.704
 9422SOL    HW229166   2.716   5.949   4.597
 9423SOL     OW29167   4.609   4.783   3.375
 9423SOL    HW129168   4.645   4.802   3.284
 9423SOL    HW229169   4.674   4.726   3.426
 9424SOL     OW29170   6.070   0.103   4.487
 9424SOL    HW129171   6.157   0.098   4.536
 9424SOL    HW229172   6.064   0.027   4.422
 9425SOL     OW29173   6.807   4.617   1.273
 9425SOL    HW129174   6.787   4.714   1.288
 9425SOL    HW229175   6.744   4.580   1.204
 9426SOL     OW29176   6.987   1.885   6.765
 9426SOL    HW129177   6.957   1.961   6.707
 9426SOL    HW229178   0.008   1.922   6.847
 9427SOL     OW29179   4.885   4.815   2.777
 9427SOL    HW129180   4.837   4.791   2.693
 9427SOL    HW229181   4.864   4.748   2.848
 9428SOL     OW29182   0.139   6.225   5.344
 9428SOL    HW129183   0.058   6.175   5.313
 9428SOL    HW229184   0.115   6.320   5.364
 9429SOL     OW29185   2.792   2.366   4.155
 9429SOL    HW129186   2.735   2.388   4.234
 9429SOL    HW229187   2.742   2.387   4.071
 9430SOL     OW29188   0.955   2.075   4.592
 9430SOL    HW129189   0.871   2.066   4.645
 9430SOL    HW229190   0.982   2.171   4.587
 9431SOL     OW29191   0.663   4.643   5.418
 9431SOL    HW129192   0.716   4.602   5.493
 9431SOL    HW229193   0.567   4.647   5.444
 9432SOL     OW29194   6.566   1.183   3.763
 9432SOL    HW129195   6.655   1.143   3.740
 9432SOL    HW229196   6.545   1.256   3.698
 9433SOL     OW29197   4.752   5.531   2.048
 9433SOL    HW129198   4.815   5.472   1.997
 9433SOL    HW229199   4.658   5.511   2.020
 9434SOL     OW29200   4.882   5.206   4.327
 9434SOL    HW129201   4.819   5.192   4.402
 9434SOL    HW229202   4.914   5.301   4.327
 9435SOL     OW29203   0.529   2.907   1.879
 9435SOL    HW129204   0.565   2.859   1.798
 9435SOL    HW229205   0.492   2.840   1.943
 9436SOL     OW29206   1.862   0.573   3.020
 9436SOL    HW129207   1.835   0.631   3.097
 9436SOL    HW229208   1.787   0.569   2.954
 9437SOL     OW29209   5.834   6.158   5.214
 9437SOL    HW129210   5.891   6.240   5.214
 9437SOL    HW229211   5.816   6.130   5.120
 9438SOL     OW29212   4.669   6.454   2.529
 9438SOL    HW129213   4.653   6.383   2.460
 9438SOL    HW229214   4.648   6.417   2.620
 9439SOL     OW29215   1.335   2.956   0.788
 9439SOL    HW129216   1.396   3.018   0.838
 9439SOL    HW229217   1.296   3.004   0.710
 9440SOL     OW29218   2.392   5.316   3.244
 9440SOL    HW129219   2.296   5.300   3.267
 9440SOL    HW229220   2.433   5.230   3.215
 9441SOL     OW29221   0.788   6.105   4.387
 9441SOL    HW129222   0.882   6.087   4.414
 9441SOL    HW229223   0.733   6.023   4.401
 9442SOL     OW29224   4.607   3.294   0.704
 9442SOL    HW129225   4.620   3.230   0.779
 9442SOL    HW229226   4.615   3.246   0.616
 9443SOL     OW29227   2.115   4.908   3.032
 9443SOL    HW129228   2.085   5.002   3.016
 9443SOL    HW229229   2.094   4.851   2.953
 9444SOL     OW29230   0.874   4.380   5.976
 9444SOL    HW129231   0.895   4.454   6.039
 9444SOL    HW229232   0.913   4.401   5.886
 9445SOL     OW29233   0.669   1.227   3.848
 9445SOL    HW129234   0.601   1.252   3.918
 9445SOL    HW229235   0.703   1.309   3.803
 9446SOL     OW29236   6.391   4.910   3.260
 9446SOL    HW129237   6.383   4.870   3.352
 9446SOL    HW229238   6.434   4.844   3.199
 9447SOL     OW29239   4.987   4.529   1.593
 9447SOL    HW129240   4.904   4.487   1.555
 9447SOL    HW229241   5.043   4.458   1.636
 9448SOL     OW29242   6.034   0.552   5.018
 9448SOL    HW129243   6.062   0.530   4.924
 9448SOL    HW229244   6.020   0.468   5.070
 9449SOL     OW29245   5.518   0.128   1.752
 9449SOL    HW129246   5.503   0.088   1.661
 9449SOL    HW229247   5.604   0.095   1.789
 9450SOL     OW29248   0.954   5.439   2.900
 9450SOL    HW129249   0.897   5.387   2.963
 9450SOL    HW229250   1.044   5.453   2.940
 9451SOL     OW29251   3.666   5.744   6.337
 9451SOL    HW129252   3.578   5.783   6.309
 9451SOL    HW229253   3.738   5.812   6.327
 9452SOL     OW29254   6.279   4.022   0.163
 9452SOL    HW129255   6.227   4.033   0.078
 9452SOL    HW229256   6.286   3.925   0.185
 9453SOL     OW29257   4.503   5.042   1.888
 9453SOL    HW129258   4.404   5.035   1.881
 9453SOL    HW229259   4.532   5.015   1.980
 9454SOL     OW29260   5.926   4.322   0.347
 9454SOL    HW129261   6.021   4.325   0.378
 9454SOL    HW229262   5.878   4.248   0.395
 9455SOL     OW29263   3.723   1.629   1.922
 9455SOL    HW129264   3.794   1.560   1.937
 9455SOL    HW229265   3.764   1.709   1.877
 9456SOL     OW29266   0.423   3.160   2.103
 9456SOL    HW129267   0.491   3.116   2.043
 9456SOL    HW229268   0.333   3.120   2.087
 9457SOL     OW29269   6.899   6.230   4.380
 9457SOL    HW129270   6.853   6.158   4.327
 9457SOL    HW229271   6.918   6.308   4.320
 9458SOL     OW29272   6.778   3.408   0.038
 9458SOL    HW129273   6.847   3.365   0.095
 9458SOL    HW229274   6.794   3.386   6.965
 9459SOL     OW29275   4.596   5.054   5.538
 9459SOL    HW129276   4.618   4.981   5.602
 9459SOL    HW229277   4.591   5.141   5.587
 9460SOL     OW29278   1.641   2.208   2.908
 9460SOL    HW129279   1.610   2.114   2.924
 9460SOL    HW229280   1.648   2.225   2.810
 9461SOL     OW29281   1.667   2.188   2.212
 9461SOL    HW129282   1.750   2.157   2.167
 9461SOL    HW229283   1.678   2.283   2.240
 9462SOL     OW29284   0.970   1.112   4.381
 9462SOL    HW129285   0.948   1.208   4.361
 9462SOL    HW229286   1.069   1.099   4.375
 9463SOL     OW29287   5.575   5.342   1.501
 9463SOL    HW129288   5.648   5.408   1.484
 9463SOL    HW229289   5.577   5.271   1.431
 9464SOL     OW29290   0.965   1.025   1.993
 9464SOL    HW129291   0.931   1.045   1.902
 9464SOL    HW229292   1.047   1.080   2.011
 9465SOL     OW29293   6.858   4.107   1.242
 9465SOL    HW129294   6.863   4.119   1.142
 9465SOL    HW229295   6.850   4.197   1.285
 9466SOL     OW29296   3.934   4.785   5.873
 9466SOL    HW129297   3.880   4.869   5.865
 9466SOL    HW229298   3.893   4.725   5.941
 9467SOL     OW29299   1.701   3.760   0.671
 9467SOL    HW129300   1.611   3.718   0.667
 9467SOL    HW229301   1.744   3.755   0.581
 9468SOL     OW29302   6.293   1.492   0.440
 9468SOL    HW129303   6.222   1.442   0.390
 9468SOL    HW229304   6.251   1.542   0.516
 9469SOL     OW29305   0.839   6.503   1.334
 9469SOL    HW129306   0.819   6.476   1.240
 9469SOL    HW229307   0.862   6.422   1.388
 9470SOL     OW29308   3.802   3.612   1.024
 9470SOL    HW129309   3.738   3.569   1.088
 9470SOL    HW229310   3.855   3.682   1.072
 9471SOL     OW29311   6.243   3.551   5.114
 9471SOL    HW129312   6.195   3.531   5.029
 9471SOL    HW229313   6.195   3.625   5.162
 9472SOL     OW29314   1.717   2.962   6.293
 9472SOL    HW129315   1.686   2.868   6.302
 9472SOL    HW229316   1.638   3.022   6.283
 9473SOL     OW29317   2.733   4.506   1.080
 9473SOL    HW129318   2.730   4.533   1.177
 9473SOL    HW229319   2.703   4.583   1.023
 9474SOL     OW29320   5.834   3.009   0.664
 9474SOL    HW129321   5.850   2.915   0.636
 9474SOL    HW229322   5.736   3.030   0.655
 9475SOL     OW29323   4.964   3.853   6.305
 9475SOL    HW129324   4.925   3.906   6.229
 9475SOL    HW229325   5.032   3.909   6.353
 9476SOL     OW29326   3.926   4.194   6.549
 9476SOL    HW129327   3.952   4.238   6.463
 9476SOL    HW229328   3.842   4.238   6.584
 9477SOL     OW29329   2.020   4.503   0.538
 9477SOL    HW129330   1.981   4.532   0.451
 9477SOL    HW229331   1.969   4.544   0.613
 9478SOL     OW29332   5.878   3.208   0.344
 9478SOL    HW129333   5.948   3.153   0.298
 9478SOL    HW229334   5.916   3.245   0.429
 9479SOL     OW29335   4.332   0.733   2.279
 9479SOL    HW129336   4.388   0.655   2.253
 9479SOL    HW229337   4.330   0.741   2.379
 9480SOL     OW29338   6.571   0.801   0.765
 9480SOL    HW129339   6.513   0.790   0.846
 9480SOL    HW229340   6.620   0.888   0.770
 9481SOL     OW29341   3.978   0.473   3.337
 9481SOL    HW129342   3.923   0.417   3.400
 9481SOL    HW229343   4.046   0.524   3.389
 9482SOL     OW29344   6.477   6.308   6.940
 9482SOL    HW129345   6.462   6.213   6.969
 9482SOL    HW229346   6.390   6.357   6.940
 9483SOL     OW29347   6.674   6.780   0.351
 9483SOL    HW129348   6.662   6.876   0.325
 9483SOL    HW229349   6.621   6.760   0.433
 9484SOL     OW29350   4.260   5.501   4.553
 9484SOL    HW129351   4.274   5.594   4.518
 9484SOL    HW229352   4.196   5.504   4.629
 9485SOL     OW29353   0.175   0.941   0.254
 9485SOL    HW129354   0.088   0.931   0.204
 9485SOL    HW229355   0.242   0.986   0.195
 9486SOL     OW29356   5.246   5.945   0.395
 9486SOL    HW129357   5.284   6.027   0.352
 9486SOL    HW229358   5.153   5.930   0.362
 9487SOL     OW29359   3.115   3.027   3.010
 9487SOL    HW129360   3.168   2.967   2.951
 9487SOL    HW229361   3.084   3.107   2.958
 9488SOL     OW29362   1.649   0.948   0.743
 9488SOL    HW129363   1.566   0.918   0.790
 9488SOL    HW229364   1.691   0.870   0.696
 9489SOL     OW29365   5.552   3.359   0.375
 9489SOL    HW129366   5.483   3.403   0.432
 9489SOL    HW229367   5.632   3.337   0.431
 9490SOL     OW29368   5.567   3.842   4.414
 9490SOL    HW129369   5.617   3.759   4.437
 9490SOL    HW229370   5.522   3.831   4.325
 9491SOL     OW29371   5.447   6.347   2.733
 9491SOL    HW129372   5.501   6.354   2.818
 9491SOL    HW229373   5.378   6.419   2.732
 9492SOL     OW29374   5.133   2.723   4.382
 9492SOL    HW129375   5.085   2.645   4.341
 9492SOL    HW229376   5.105   2.807   4.336
 9493SOL     OW29377   4.272   6.455   1.810
 9493SOL    HW129378   4.253   6.358   1.793
 9493SOL    HW229379   4.230   6.482   1.897
 9494SOL     OW29380   5.413   2.241   2.256
 9494SOL    HW129381   5.430   2.339   2.250
 9494SOL    HW229382   5.425   2.199   2.166
 9495SOL     OW29383   0.199   1.885   2.465
 9495SOL    HW129384   0.185   1.901   2.367
 9495SOL    HW229385   0.297   1.891   2.486
 9496SOL     OW29386   5.396   2.296   2.527
 9496SOL    HW129387   5.392   2.304   2.427
 9496SOL    HW229388   5.338   2.220   2.557
 9497SOL     OW29389   4.876   4.408   4.769
 9497SOL    HW129390   4.830   4.445   4.688
 9497SOL    HW229391   4.825   4.329   4.803
 9498SOL     OW29392   1.164   5.371   3.652
 9498SOL    HW129393   1.088   5.405   3.707
 9498SOL    HW229394   1.181   5.435   3.577
 9499SOL     OW29395   6.759   5.927   5.152
 9499SOL    HW129396   6.716   5.837   5.163
 9499SOL    HW229397   6.701   5.985   5.094
 9500SOL     OW29398   3.838   2.170   0.487
 9500SOL    HW129399   3.872   2.264   0.481
 9500SOL    HW229400   3.913   2.109   0.515
 9501SOL     OW29401   1.965   3.034   5.283
 9501SOL    HW129402   1.956   3.127   5.248
 9501SOL    HW229403   2.010   2.976   5.215
 9502SOL     OW29404   5.077   4.530   4.881
 9502SOL    HW129405   5.089   4.628   4.862
 9502SOL    HW229406   4.997   4.496   4.833
 9503SOL     OW29407   0.019   2.217   0.069
 9503SOL    HW129408   0.093   2.159   0.037
 9503SOL    HW229409   0.056   2.305   0.100
 9504SOL     OW29410   5.838   5.347   2.346
 9504SOL    HW129411   5.799   5.260   2.318
 9504SOL    HW229412   5.934   5.351   2.320
 9505SOL     OW29413   4.303   5.703   5.344
 9505SOL    HW129414   4.233   5.655   5.291
 9505SOL    HW229415   4.377   5.731   5.283
 9506SOL     OW29416   3.273   1.344   1.038
 9506SOL    HW129417   3.283   1.369   1.134
 9506SOL    HW229418   3.183   1.303   1.023
 9507SOL     OW29419   5.191   0.177   2.377
 9507SOL    HW129420   5.145   0.234   2.309
 9507SOL    HW229421   5.244   0.234   2.439
 9508SOL     OW29422   5.116   2.049   3.000
 9508SOL    HW129423   5.143   2.018   3.092
 9508SOL    HW229424   5.166   1.997   2.931
 9509SOL     OW29425   5.500   0.578   3.441
 9509SOL    HW129426   5.512   0.656   3.379
 9509SOL    HW229427   5.524   0.494   3.393
 9510SOL     OW29428   1.269   2.705   3.763
 9510SOL    HW129429   1.295   2.722   3.858
 9510SOL    HW229430   1.232   2.613   3.755
 9511SOL     OW29431   1.340   1.695   0.594
 9511SOL    HW129432   1.377   1.741   0.513
 9511SOL    HW229433   1.308   1.604   0.569
 9512SOL     OW29434   6.237   1.700   1.385
 9512SOL    HW129435   6.170   1.627   1.395
 9512SOL    HW229436   6.222   1.769   1.457
 9513SOL     OW29437   4.208   4.823   5.915
 9513SOL    HW129438   4.110   4.839   5.902
 9513SOL    HW229439   4.256   4.910   5.917
 9514SOL     OW29440   3.574   3.134   6.821
 9514SOL    HW129441   3.603   3.191   6.898
 9514SOL    HW229442   3.642   3.140   6.748
 9515SOL     OW29443   0.871   5.248   3.157
 9515SOL    HW129444   0.923   5.229   3.240
 9515SOL    HW229445   0.820   5.166   3.130
 9516SOL     OW29446   6.764   3.946   0.575
 9516SOL    HW129447   6.777   3.886   0.653
 9516SOL    HW229448   6.751   3.892   0.492
 9517SOL     OW29449   0.721   5.003   0.346
 9517SOL    HW129450   0.800   5.043   0.391
 9517SOL    HW229451   0.751   4.931   0.283
 9518SOL     OW29452   0.821   1.183   0.099
 9518SOL    HW129453   0.772   1.261   0.058
 9518SOL    HW229454   0.863   1.212   0.185
 9519SOL     OW29455   1.224   3.177   5.281
 9519SOL    HW129456   1.272   3.264   5.277
 9519SOL    HW229457   1.125   3.193   5.278
 9520SOL     OW29458   3.435   0.145   1.394
 9520SOL    HW129459   3.342   0.163   1.364
 9520SOL    HW229460   3.439   0.056   1.440
 9521SOL     OW29461   5.630   5.344   3.980
 9521SOL    HW129462   5.550   5.395   4.012
 9521SOL    HW229463   5.711   5.402   3.985
 9522SOL     OW29464   3.277   5.877   0.709
 9522SOL    HW129465   3.334   5.836   0.639
 9522SOL    HW229466   3.208   5.811   0.739
 9523SOL     OW29467   3.668   6.199   4.848
 9523SOL    HW129468   3.742   6.147   4.892
 9523SOL    HW229469   3.586   6.196   4.906
 9524SOL     OW29470   4.641   2.824   1.013
 9524SOL    HW129471   4.581   2.866   0.946
 9524SOL    HW229472   4.587   2.790   1.090
 9525SOL     OW29473   3.705   0.336   6.316
 9525SOL    HW129474   3.783   0.310   6.374
 9525SOL    HW229475   3.717   0.431   6.286
 9526SOL     OW29476   5.531   5.599   1.987
 9526SOL    HW129477   5.468   5.526   1.961
 9526SOL    HW229478   5.506   5.635   2.077
 9527SOL     OW29479   6.234   2.172   1.885
 9527SOL    HW129480   6.218   2.157   1.787
 9527SOL    HW229481   6.184   2.104   1.938
 9528SOL     OW29482   6.489   1.029   2.722
 9528SOL    HW129483   6.405   1.073   2.753
 9528SOL    HW229484   6.481   1.006   2.625
 9529SOL     OW29485   0.502   3.508   4.947
 9529SOL    HW129486   0.574   3.447   4.913
 9529SOL    HW229487   0.416   3.458   4.953
 9530SOL     OW29488   1.515   2.443   4.613
 9530SOL    HW129489   1.523   2.382   4.692
 9530SOL    HW229490   1.515   2.538   4.646
 9531SOL     OW29491   2.999   6.450   3.154
 9531SOL    HW129492   3.051   6.375   3.194
 9531SOL    HW229493   3.020   6.457   3.056
 9532SOL     OW29494   2.627   1.018   1.699
 9532SOL    HW129495   2.570   0.943   1.666
 9532SOL    HW229496   2.586   1.056   1.782
 9533SOL     OW29497   2.247   0.171   5.341
 9533SOL    HW129498   2.339   0.210   5.351
 9533SOL    HW229499   2.180   0.235   5.378
 9534SOL     OW29500   4.608   1.967   4.745
 9534SOL    HW129501   4.606   2.051   4.799
 9534SOL    HW229502   4.667   1.979   4.665
 9535SOL     OW29503   2.280   2.153   6.095
 9535SOL    HW129504   2.340   2.207   6.036
 9535SOL    HW229505   2.185   2.166   6.066
 9536SOL     OW29506   2.542   0.064   6.161
 9536SOL    HW129507   2.468   0.108   6.211
 9536SOL    HW229508   2.629   0.108   6.185
 9537SOL     OW29509   2.893   6.895   0.836
 9537SOL    HW129510   2.955   6.963   0.796
 9537SOL    HW229511   2.900   6.898   0.935
 9538SOL     OW29512   5.909   3.177   3.847
 9538SOL    HW129513   5.968   3.168   3.927
 9538SOL    HW229514   5.818   3.139   3.867
 9539SOL     OW29515   0.040   4.714   1.302
 9539SOL    HW129516   6.980   4.660   1.286
 9539SOL    HW229517   0.107   4.659   1.352
 9540SOL     OW29518   5.307   3.877   4.769
 9540SOL    HW129519   5.266   3.786   4.767
 9540SOL    HW229520   5.370   3.887   4.692
 9541SOL     OW29521   1.308   1.736   3.733
 9541SOL    HW129522   1.396   1.779   3.711
 9541SOL    HW229523   1.315   1.691   3.822
 9542SOL     OW29524   5.035   3.677   4.522
 9542SOL    HW129525   5.132   3.697   4.517
 9542SOL    HW229526   5.021   3.586   4.560
 9543SOL     OW29527   4.837   2.413   1.856
 9543SOL    HW129528   4.855   2.467   1.774
 9543SOL    HW229529   4.813   2.474   1.932
 9544SOL     OW29530   3.262   1.722   2.067
 9544SOL    HW129531   3.252   1.633   2.022
 9544SOL    HW229532   3.360   1.742   2.079
 9545SOL     OW29533   0.434   6.850   4.305
 9545SOL    HW129534   0.500   6.775   4.303
 9545SOL    HW229535   0.353   6.825   4.252
 9546SOL     OW29536   2.606   4.944   0.897
 9546SOL    HW129537   2.535   4.989   0.951
 9546SOL    HW229538   2.574   4.931   0.803
 9547SOL     OW29539   6.294   6.195   3.227
 9547SOL    HW129540   6.313   6.098   3.213
 9547SOL    HW229541   6.368   6.250   3.188
 9548SOL     OW29542   4.708   6.393   2.850
 9548SOL    HW129543   4.743   6.484   2.827
 9548SOL    HW229544   4.660   6.397   2.937
 9549SOL     OW29545   2.841   5.859   0.841
 9549SOL    HW129546   2.854   5.874   0.743
 9549SOL    HW229547   2.930   5.851   0.886
 9550SOL     OW29548   0.830   1.667   0.341
 9550SOL    HW129549   0.829   1.759   0.300
 9550SOL    HW229550   0.832   1.675   0.440
 9551SOL     OW29551   2.228   5.938   4.973
 9551SOL    HW129552   2.197   6.032   4.964
 9551SOL    HW229553   2.149   5.877   4.973
 9552SOL     OW29554   1.179   5.630   3.374
 9552SOL    HW129555   1.208   5.721   3.346
 9552SOL    HW229556   1.258   5.568   3.373
 9553SOL     OW29557   5.493   4.775   5.510
 9553SOL    HW129558   5.532   4.778   5.418
 9553SOL    HW229559   5.442   4.859   5.528
 9554SOL     OW29560   2.423   1.337   1.813
 9554SOL    HW129561   2.339   1.360   1.863
 9554SOL    HW229562   2.402   1.274   1.739
 9555SOL     OW29563   6.374   2.299   6.898
 9555SOL    HW129564   6.332   2.284   6.988
 9555SOL    HW229565   6.468   2.264   6.898
 9556SOL     OW29566   0.758   1.480   1.083
 9556SOL    HW129567   0.754   1.578   1.106
 9556SOL    HW229568   0.757   1.469   0.984
 9557SOL     OW29569   5.220   2.582   1.542
 9557SOL    HW129570   5.180   2.605   1.630
 9557SOL    HW229571   5.292   2.514   1.555
 9558SOL     OW29572   6.304   5.086   2.235
 9558SOL    HW129573   6.265   5.142   2.162
 9558SOL    HW229574   6.309   5.140   2.319
 9559SOL     OW29575   6.601   2.635   2.228
 9559SOL    HW129576   6.600   2.686   2.315
 9559SOL    HW229577   6.611   2.700   2.153
 9560SOL     OW29578   3.160   1.508   4.202
 9560SOL    HW129579   3.195   1.530   4.111
 9560SOL    HW229580   3.230   1.526   4.271
 9561SOL     OW29581   4.292   0.049   0.985
 9561SOL    HW129582   4.204   0.046   0.939
 9561SOL    HW229583   4.357   7.012   0.937
 9562SOL     OW29584   5.757   5.753   3.226
 9562SOL    HW129585   5.726   5.694   3.300
 9562SOL    HW229586   5.730   5.713   3.138
 9563SOL     OW29587   0.256   5.745   6.716
 9563SOL    HW129588   0.161   5.733   6.689
 9563SOL    HW229589   0.260   5.787   6.807
 9564SOL     OW29590   2.264   0.121   6.882
 9564SOL    HW129591   2.245   0.130   6.784
 9564SOL    HW229592   2.183   0.087   6.929
 9565SOL     OW29593   4.254   6.215   4.327
 9565SOL    HW129594   4.165   6.197   4.369
 9565SOL    HW229595   4.282   6.309   4.348
 9566SOL     OW29596   3.252   4.967   5.019
 9566SOL    HW129597   3.248   4.876   5.059
 9566SOL    HW229598   3.177   5.023   5.055
 9567SOL     OW29599   6.102   5.732   5.805
 9567SOL    HW129600   6.109   5.694   5.898
 9567SOL    HW229601   6.013   5.776   5.794
 9568SOL     OW29602   5.461   3.619   6.353
 9568SOL    HW129603   5.461   3.528   6.396
 9568SOL    HW229604   5.544   3.630   6.300
 9569SOL     OW29605   6.173   0.062   1.400
 9569SOL    HW129606   6.200   6.992   1.374
 9569SOL    HW229607   6.230   0.093   1.477
 9570SOL     OW29608   0.713   0.146   6.771
 9570SOL    HW129609   0.761   0.098   6.844
 9570SOL    HW229610   0.659   0.081   6.718
 9571SOL     OW29611   2.049   3.844   0.139
 9571SOL    HW129612   2.129   3.805   0.093
 9571SOL    HW229613   2.060   3.834   0.238
 9572SOL     OW29614   0.787   4.188   0.595
 9572SOL    HW129615   0.807   4.102   0.549
 9572SOL    HW229616   0.864   4.251   0.585
 9573SOL     OW29617   6.571   2.068   1.793
 9573SOL    HW129618   6.543   2.119   1.712
 9573SOL    HW229619   6.544   2.119   1.875
 9574SOL     OW29620   2.552   2.196   4.763
 9574SOL    HW129621   2.613   2.233   4.694
 9574SOL    HW229622   2.582   2.225   4.854
 9575SOL     OW29623   4.836   0.906   1.710
 9575SOL    HW129624   4.810   0.896   1.806
 9575SOL    HW229625   4.795   0.989   1.673
 9576SOL     OW29626   3.554   1.410   4.997
 9576SOL    HW129627   3.546   1.354   5.080
 9576SOL    HW229628   3.527   1.504   5.019
 9577SOL     OW29629   0.251   6.254   3.000
 9577SOL    HW129630   0.256   6.226   3.096
 9577SOL    HW229631   0.269   6.353   2.994
 9578SOL     OW29632   5.613   3.797   1.594
 9578SOL    HW129633   5.595   3.791   1.692
 9578SOL    HW229634   5.534   3.761   1.543
 9579SOL     OW29635   1.186   6.432   2.711
 9579SOL    HW129636   1.236   6.359   2.756
 9579SOL    HW229637   1.088   6.412   2.713
 9580SOL     OW29638   4.392   3.820   6.206
 9580SOL    HW129639   4.361   3.728   6.231
 9580SOL    HW229640   4.321   3.866   6.152
 9581SOL     OW29641   1.661   5.085   6.212
 9581SOL    HW129642   1.663   5.077   6.311
 9581SOL    HW229643   1.593   5.153   6.185
 9582SOL     OW29644   4.468   4.729   4.757
 9582SOL    HW129645   4.497   4.662   4.825
 9582SOL    HW229646   4.519   4.814   4.769
 9583SOL     OW29647   2.412   4.428   1.885
 9583SOL    HW129648   2.323   4.470   1.901
 9583SOL    HW229649   2.405   4.329   1.898
 9584SOL     OW29650   5.436   5.745   6.391
 9584SOL    HW129651   5.363   5.803   6.356
 9584SOL    HW229652   5.411   5.649   6.378
 9585SOL     OW29653   0.317   6.709   3.806
 9585SOL    HW129654   0.349   6.620   3.839
 9585SOL    HW229655   0.395   6.769   3.792
 9586SOL     OW29656   5.217   3.498   2.407
 9586SOL    HW129657   5.124   3.509   2.440
 9586SOL    HW229658   5.225   3.537   2.315
 9587SOL     OW29659   4.771   6.671   2.800
 9587SOL    HW129660   4.842   6.688   2.868
 9587SOL    HW229661   4.811   6.674   2.708
 9588SOL     OW29662   0.215   0.594   3.176
 9588SOL    HW129663   0.291   0.646   3.216
 9588SOL    HW229664   0.177   0.532   3.245
 9589SOL     OW29665   2.356   1.885   5.973
 9589SOL    HW129666   2.356   1.979   6.007
 9589SOL    HW229667   2.401   1.826   6.040
 9590SOL     OW29668   0.222   4.523   4.475
 9590SOL    HW129669   0.228   4.461   4.397
 9590SOL    HW229670   0.302   4.584   4.475
 9591SOL     OW29671   1.312   4.381   2.327
 9591SOL    HW129672   1.292   4.401   2.231
 9591SOL    HW229673   1.232   4.403   2.383
 9592SOL     OW29674   5.157   5.519   2.224
 9592SOL    HW129675   5.091   5.581   2.266
 9592SOL    HW229676   5.111   5.465   2.154
 9593SOL     OW29677   1.587   2.850   4.072
 9593SOL    HW129678   1.618   2.888   4.159
 9593SOL    HW229679   1.664   2.849   4.008
 9594SOL     OW29680   6.257   6.562   1.955
 9594SOL    HW129681   6.291   6.632   2.018
 9594SOL    HW229682   6.326   6.544   1.885
 9595SOL     OW29683   0.889   4.154   4.400
 9595SOL    HW129684   0.969   4.134   4.458
 9595SOL    HW229685   0.812   4.097   4.430
 9596SOL     OW29686   4.661   5.644   3.048
 9596SOL    HW129687   4.724   5.606   2.980
 9596SOL    HW229688   4.567   5.627   3.018
 9597SOL     OW29689   1.911   3.943   1.255
 9597SOL    HW129690   1.931   4.039   1.278
 9597SOL    HW229691   1.899   3.934   1.156
 9598SOL     OW29692   1.241   5.642   5.875
 9598SOL    HW129693   1.296   5.559   5.883
 9598SOL    HW229694   1.199   5.645   5.785
 9599SOL     OW29695   4.903   1.585   4.149
 9599SOL    HW129696   4.835   1.608   4.079
 9599SOL    HW229697   4.984   1.547   4.106
 9600SOL     OW29698   1.469   6.412   7.012
 9600SOL    HW129699   1.391   6.415   0.051
 9600SOL    HW229700   1.458   6.336   6.948
 9601SOL     OW29701   0.650   5.867   6.203
 9601SOL    HW129702   0.603   5.781   6.181
 9601SOL    HW229703   0.674   5.914   6.118
 9602SOL     OW29704   1.211   5.579   0.614
 9602SOL    HW129705   1.228   5.547   0.520
 9602SOL    HW229706   1.295   5.619   0.650
 9603SOL     OW29707   1.108   4.486   3.836
 9603SOL    HW129708   1.144   4.568   3.880
 9603SOL    HW229709   1.098   4.414   3.905
 9604SOL     OW29710   6.805   0.100   0.540
 9604SOL    HW129711   6.749   0.057   0.469
 9604SOL    HW229712   6.842   0.186   0.505
 9605SOL     OW29713   2.523   5.815   0.092
 9605SOL    HW129714   2.519   5.869   0.176
 9605SOL    HW229715   2.618   5.810   0.061
 9606SOL     OW29716   6.516   6.971   4.867
 9606SOL    HW129717   6.458   0.028   4.883
 9606SOL    HW229718   6.461   6.888   4.870
 9607SOL     OW29719   0.604   2.723   2.335
 9607SOL    HW129720   0.588   2.786   2.411
 9607SOL    HW229721   0.701   2.723   2.312
 9608SOL     OW29722   7.013   0.239   2.737
 9608SOL    HW129723   6.939   0.177   2.712
 9608SOL    HW229724   7.010   0.256   2.836
 9609SOL     OW29725   1.883   2.101   3.369
 9609SOL    HW129726   1.973   2.143   3.388
 9609SOL    HW229727   1.830   2.162   3.311
 9610SOL     OW29728   3.171   2.401   6.135
 9610SOL    HW129729   3.258   2.426   6.178
 9610SOL    HW229730   3.132   2.480   6.089
 9611SOL     OW29731   5.866   5.717   1.096
 9611SOL    HW129732   5.946   5.757   1.141
 9611SOL    HW229733   5.895   5.666   1.015
 9612SOL     OW29734   4.804   3.970   2.987
 9612SOL    HW129735   4.743   4.045   3.013
 9612SOL    HW229736   4.825   3.976   2.889
 9613SOL     OW29737   5.866   6.646   5.763
 9613SOL    HW129738   5.906   6.593   5.687
 9613SOL    HW229739   5.775   6.678   5.737
 9614SOL     OW29740   3.443   2.889   2.247
 9614SOL    HW129741   3.428   2.988   2.240
 9614SOL    HW229742   3.371   2.841   2.198
 9615SOL     OW29743   0.668   6.300   3.710
 9615SOL    HW129744   0.733   6.260   3.646
 9615SOL    HW229745   0.676   6.254   3.799
 9616SOL     OW29746   2.057   3.178   1.282
 9616SOL    HW129747   2.072   3.083   1.307
 9616SOL    HW229748   2.114   3.201   1.203
 9617SOL     OW29749   0.868   3.717   2.471
 9617SOL    HW129750   0.962   3.709   2.438
 9617SOL    HW229751   0.848   3.812   2.494
 9618SOL     OW29752   3.857   4.805   0.510
 9618SOL    HW129753   3.853   4.878   0.579
 9618SOL    HW229754   3.840   4.844   0.419
 9619SOL     OW29755   2.198   6.858   1.243
 9619SOL    HW129756   2.130   6.843   1.171
 9619SOL    HW229757   2.277   6.907   1.204
 9620SOL     OW29758   3.727   1.699   7.007
 9620SOL    HW129759   3.686   1.790   7.001
 9620SOL    HW229760   3.761   1.673   6.917
 9621SOL     OW29761   1.146   2.058   1.841
 9621SOL    HW129762   1.194   2.065   1.929
 9621SOL    HW229763   1.207   2.017   1.773
 9622SOL     OW29764   0.101   6.226   5.663
 9622SOL    HW129765   0.122   6.314   5.706
 9622SOL    HW229766   0.112   6.234   5.564
 9623SOL     OW29767   5.012   6.876   5.939
 9623SOL    HW129768   4.959   6.928   6.007
 9623SOL    HW229769   4.956   6.800   5.906
 9624SOL     OW29770   4.568   5.152   5.039
 9624SOL    HW129771   4.621   5.235   5.022
 9624SOL    HW229772   4.629   5.073   5.036
 9625SOL     OW29773   4.913   3.414   5.562
 9625SOL    HW129774   5.012   3.427   5.571
 9625SOL    HW229775   4.880   3.358   5.638
 9626SOL     OW29776   1.897   2.309   6.295
 9626SOL    HW129777   1.887   2.390   6.237
 9626SOL    HW229778   1.971   2.324   6.360
 9627SOL     OW29779   0.529   5.352   0.305
 9627SOL    HW129780   0.431   5.357   0.321
 9627SOL    HW229781   0.573   5.436   0.339
 9628SOL     OW29782   5.816   1.348   6.061
 9628SOL    HW129783   5.887   1.311   6.002
 9628SOL    HW229784   5.853   1.362   6.153
 9629SOL     OW29785   0.375   5.510   4.293
 9629SOL    HW129786   0.377   5.433   4.229
 9629SOL    HW229787   0.354   5.477   4.385
 9630SOL     OW29788   5.903   0.053   5.380
 9630SOL    HW129789   5.890   6.976   5.382
 9630SOL    HW229790   5.964   0.077   5.306
 9631SOL     OW29791   3.412   0.189   0.474
 9631SOL    HW129792   3.510   0.171   0.479
 9631SOL    HW229793   3.367   0.119   0.418
 9632SOL     OW29794   3.578   5.483   2.215
 9632SOL    HW129795   3.626   5.570   2.207
 9632SOL    HW229796   3.563   5.444   2.123
 9633SOL     OW29797   3.794   3.228   2.926
 9633SOL    HW129798   3.850   3.145   2.920
 9633SOL    HW229799   3.720   3.223   2.859
 9634SOL     OW29800   5.711   4.772   3.539
 9634SOL    HW129801   5.647   4.721   3.482
 9634SOL    HW229802   5.801   4.774   3.494
 9635SOL     OW29803   1.326   5.275   3.913
 9635SOL    HW129804   1.315   5.176   3.919
 9635SOL    HW229805   1.377   5.298   3.831
 9636SOL     OW29806   5.168   3.859   4.263
 9636SOL    HW129807   5.168   3.891   4.357
 9636SOL    HW229808   5.074   3.852   4.230
 9637SOL     OW29809   1.735   3.160   0.015
 9637SOL    HW129810   1.767   3.124   0.103
 9637SOL    HW229811   1.769   3.101   6.964
 9638SOL     OW29812   5.654   5.528   5.357
 9638SOL    HW129813   5.638   5.459   5.427
 9638SOL    HW229814   5.630   5.491   5.267
 9639SOL     OW29815   4.237   1.906   2.064
 9639SOL    HW129816   4.183   1.950   2.135
 9639SOL    HW229817   4.306   1.847   2.106
 9640SOL     OW29818   4.696   0.216   3.153
 9640SOL    HW129819   4.657   0.144   3.210
 9640SOL    HW229820   4.796   0.216   3.163
 9641SOL     OW29821   6.387   3.530   3.254
 9641SOL    HW129822   6.306   3.586   3.237
 9641SOL    HW229823   6.377   3.484   3.343
 9642SOL     OW29824   1.356   6.978   4.386
 9642SOL    HW129825   1.298   6.906   4.426
 9642SOL    HW229826   1.369   6.960   4.289
 9643SOL     OW29827   4.923   5.002   4.560
 9643SOL    HW129828   4.994   4.964   4.499
 9643SOL    HW229829   4.834   4.964   4.535
 9644SOL     OW29830   1.740   5.433   4.009
 9644SOL    HW129831   1.839   5.448   4.004
 9644SOL    HW229832   1.708   5.447   4.103
 9645SOL     OW29833   0.731   4.721   6.057
 9645SOL    HW129834   0.642   4.762   6.075
 9645SOL    HW229835   0.719   4.634   6.009
 9646SOL     OW29836   4.505   5.508   6.440
 9646SOL    HW129837   4.489   5.426   6.496
 9646SOL    HW229838   4.417   5.541   6.405
 9647SOL     OW29839   6.368   6.697   3.183
 9647SOL    HW129840   6.456   6.665   3.148
 9647SOL    HW229841   6.351   6.657   3.273
 9648SOL     OW29842   4.014   2.059   1.112
 9648SOL    HW129843   3.924   2.020   1.094
 9648SOL    HW229844   4.070   2.054   1.029
 9649SOL     OW29845   1.161   5.498   6.989
 9649SOL    HW129846   1.099   5.532   6.918
 9649SOL    HW229847   1.252   5.539   6.977
 9650SOL     OW29848   6.971   4.536   4.471
 9650SOL    HW129849   0.046   4.557   4.470
 9650SOL    HW229850   6.956   4.447   4.428
 9651SOL     OW29851   4.266   1.622   6.975
 9651SOL    HW129852   4.314   1.633   0.039
 9651SOL    HW229853   4.224   1.709   6.948
 9652SOL     OW29854   0.449   4.081   0.242
 9652SOL    HW129855   0.534   4.103   0.193
 9652SOL    HW229856   0.377   4.061   0.176
 9653SOL     OW29857   4.310   4.265   5.950
 9653SOL    HW129858   4.384   4.209   5.911
 9653SOL    HW229859   4.257   4.306   5.875
 9654SOL     OW29860   3.551   3.724   2.933
 9654SOL    HW129861   3.490   3.781   2.987
 9654SOL    HW229862   3.640   3.719   2.978
 9655SOL     OW29863   4.218   1.476   1.278
 9655SOL    HW129864   4.127   1.497   1.313
 9655SOL    HW229865   4.212   1.453   1.180
 9656SOL     OW29866   5.969   3.829   0.396
 9656SOL    HW129867   6.012   3.742   0.418
 9656SOL    HW229868   5.898   3.816   0.327
 9657SOL     OW29869   5.657   3.925   3.951
 9657SOL    HW129870   5.733   3.990   3.959
 9657SOL    HW229871   5.582   3.968   3.900
 9658SOL     OW29872   4.785   2.018   2.398
 9658SOL    HW129873   4.831   1.973   2.321
 9658SOL    HW229874   4.831   1.993   2.483
 9659SOL     OW29875   2.647   3.086   6.648
 9659SOL    HW129876   2.580   3.090   6.575
 9659SOL    HW229877   2.700   3.171   6.649
 9660SOL     OW29878   1.377   6.112   2.000
 9660SOL    HW129879   1.458   6.172   1.997
 9660SOL    HW229880   1.406   6.018   2.019
 9661SOL     OW29881   4.401   3.746   0.760
 9661SOL    HW129882   4.426   3.760   0.664
 9661SOL    HW229883   4.483   3.750   0.817
 9662SOL     OW29884   5.537   5.359   5.862
 9662SOL    HW129885   5.531   5.262   5.885
 9662SOL    HW229886   5.488   5.412   5.931
 9663SOL     OW29887   0.784   5.266   2.542
 9663SOL    HW129888   0.694   5.297   2.571
 9663SOL    HW229889   0.792   5.167   2.555
 9664SOL     OW29890   4.982   4.637   2.386
 9664SOL    HW129891   5.013   4.651   2.293
 9664SOL    HW229892   4.979   4.539   2.406
 9665SOL     OW29893   6.748   5.827   6.362
 9665SOL    HW129894   6.655   5.814   6.328
 9665SOL    HW229895   6.754   5.797   6.457
 9666SOL     OW29896   6.146   3.945   6.935
 9666SOL    HW129897   6.058   3.930   6.891
 9666SOL    HW229898   6.195   3.858   6.941
 9667SOL     OW29899   5.687   5.885   6.212
 9667SOL    HW129900   5.743   5.962   6.243
 9667SOL    HW229901   5.734   5.800   6.234
 9668SOL     OW29902   0.880   0.526   6.591
 9668SOL    HW129903   0.976   0.515   6.617
 9668SOL    HW229904   0.838   0.435   6.581
 9669SOL     OW29905   3.653   0.617   0.347
 9669SOL    HW129906   3.670   0.699   0.293
 9669SOL    HW229907   3.615   0.642   0.436
 9670SOL     OW29908   0.052   6.832   0.057
 9670SOL    HW129909   0.148   6.813   0.034
 9670SOL    HW229910   0.030   6.926   0.031
 9671SOL     OW29911   1.610   5.174   6.722
 9671SOL    HW129912   1.609   5.274   6.720
 9671SOL    HW229913   1.582   5.139   6.633
 9672SOL     OW29914   0.974   3.440   3.960
 9672SOL    HW129915   0.951   3.501   3.884
 9672SOL    HW229916   0.901   3.442   4.028
 9673SOL     OW29917   2.078   3.354   0.321
 9673SOL    HW129918   2.002   3.419   0.328
 9673SOL    HW229919   2.163   3.400   0.346
 9674SOL     OW29920   2.447   6.356   4.436
 9674SOL    HW129921   2.420   6.434   4.379
 9674SOL    HW229922   2.504   6.388   4.511
 9675SOL     OW29923   5.771   3.663   6.478
 9675SOL    HW129924   5.824   3.721   6.541
 9675SOL    HW229925   5.799   3.568   6.488
 9676SOL     OW29926   0.778   2.728   0.169
 9676SOL    HW129927   0.862   2.695   0.125
 9676SOL    HW229928   0.801   2.786   0.247
 9677SOL     OW29929   0.054   5.099   1.520
 9677SOL    HW129930   0.102   5.123   1.604
 9677SOL    HW229931   6.980   5.085   1.540
 9678SOL     OW29932   3.488   3.450   5.354
 9678SOL    HW129933   3.474   3.534   5.405
 9678SOL    HW229934   3.402   3.421   5.312
 9679SOL     OW29935   1.510   1.717   4.437
 9679SOL    HW129936   1.555   1.633   4.408
 9679SOL    HW229937   1.577   1.777   4.480
 9680SOL     OW29938   4.799   6.242   2.144
 9680SOL    HW129939   4.775   6.146   2.155
 9680SOL    HW229940   4.773   6.292   2.227
 9681SOL     OW29941   1.402   1.610   1.722
 9681SOL    HW129942   1.443   1.528   1.762
 9681SOL    HW229943   1.456   1.639   1.644
 9682SOL     OW29944   4.837   6.271   5.543
 9682SOL    HW129945   4.795   6.248   5.455
 9682SOL    HW229946   4.804   6.360   5.574
 9683SOL     OW29947   3.145   6.489   2.534
 9683SOL    HW129948   3.188   6.524   2.450
 9683SOL    HW229949   3.121   6.565   2.593
 9684SOL     OW29950   0.171   3.269   5.570
 9684SOL    HW129951   0.187   3.365   5.551
 9684SOL    HW229952   0.104   3.232   5.506
 9685SOL     OW29953   3.851   4.102   1.434
 9685SOL    HW129954   3.933   4.049   1.409
 9685SOL    HW229955   3.776   4.039   1.454
 9686SOL     OW29956   6.551   1.645   5.595
 9686SOL    HW129957   6.518   1.672   5.505
 9686SOL    HW229958   6.572   1.727   5.649
 9687SOL     OW29959   5.808   1.473   3.094
 9687SOL    HW129960   5.872   1.412   3.141
 9687SOL    HW229961   5.832   1.568   3.113
 9688SOL     OW29962   0.639   4.324   1.046
 9688SOL    HW129963   0.695   4.279   0.976
 9688SOL    HW229964   0.571   4.260   1.081
 9689SOL     OW29965   2.467   6.234   0.978
 9689SOL    HW129966   2.416   6.155   0.944
 9689SOL    HW229967   2.528   6.267   0.906
 9690SOL     OW29968   6.532   5.132   4.885
 9690SOL    HW129969   6.493   5.208   4.833
 9690SOL    HW229970   6.468   5.055   4.884
 9691SOL     OW29971   3.014   3.744   1.877
 9691SOL    HW129972   3.087   3.762   1.812
 9691SOL    HW229973   2.993   3.646   1.878
 9692SOL     OW29974   4.815   4.225   0.890
 9692SOL    HW129975   4.753   4.292   0.930
 9692SOL    HW229976   4.874   4.270   0.822
 9693SOL     OW29977   5.139   3.386   5.217
 9693SOL    HW129978   5.040   3.393   5.232
 9693SOL    HW229979   5.164   3.290   5.207
 9694SOL     OW29980   2.622   0.338   2.267
 9694SOL    HW129981   2.678   0.397   2.208
 9694SOL    HW229982   2.558   0.286   2.210
 9695SOL     OW29983   1.040   2.501   2.680
 9695SOL    HW129984   0.951   2.492   2.635
 9695SOL    HW229985   1.076   2.410   2.702
 9696SOL     OW29986   5.012   2.527   3.495
 9696SOL    HW129987   5.077   2.453   3.506
 9696SOL    HW229988   4.976   2.528   3.402
 9697SOL     OW29989   0.665   6.879   0.954
 9697SOL    HW129990   0.668   6.806   0.886
 9697SOL    HW229991   0.585   6.867   1.013
 9698SOL     OW29992   6.262   3.630   1.817
 9698SOL    HW129993   6.184   3.665   1.766
 9698SOL    HW229994   6.230   3.581   1.898
 9699SOL     OW29995   1.277   6.317   1.050
 9699SOL    HW129996   1.300   6.220   1.053
 9699SOL    HW229997   1.354   6.370   1.014
 9700SOL     OW29998   5.580   0.162   5.171
 9700SOL    HW129999   5.481   0.159   5.187
 9700SOL    HW230000   5.621   0.229   5.233
 9701SOL     OW30001   4.092   3.728   6.625
 9701SOL    HW130002   4.098   3.800   6.557
 9701SOL    HW230003   4.176   3.673   6.625
 9702SOL     OW30004   3.636   3.652   1.990
 9702SOL    HW130005   3.697   3.583   2.029
 9702SOL    HW230006   3.594   3.616   1.907
 9703SOL     OW30007   6.886   4.185   4.806
 9703SOL    HW130008   6.789   4.197   4.781
 9703SOL    HW230009   6.898   4.099   4.854
 9704SOL     OW30010   1.761   3.817   3.004
 9704SOL    HW130011   1.815   3.872   2.939
 9704SOL    HW230012   1.678   3.785   2.959
 9705SOL     OW30013   6.212   3.635   5.427
 9705SOL    HW130014   6.227   3.538   5.411
 9705SOL    HW230015   6.187   3.650   5.523
 9706SOL     OW30016   0.748   1.537   2.657
 9706SOL    HW130017   0.701   1.455   2.623
 9706SOL    HW230018   0.730   1.614   2.596
 9707SOL     OW30019   1.032   4.775   2.348
 9707SOL    HW130020   1.018   4.732   2.438
 9707SOL    HW230021   0.973   4.856   2.340
 9708SOL     OW30022   2.536   0.478   1.423
 9708SOL    HW130023   2.508   0.538   1.348
 9708SOL    HW230024   2.455   0.448   1.474
 9709SOL     OW30025   5.293   2.014   1.535
 9709SOL    HW130026   5.335   1.924   1.538
 9709SOL    HW230027   5.194   2.004   1.526
 9710SOL     OW30028   6.843   5.680   3.715
 9710SOL    HW130029   6.919   5.739   3.745
 9710SOL    HW230030   6.851   5.591   3.760
 9711SOL     OW30031   3.488   0.911   0.859
 9711SOL    HW130032   3.437   0.870   0.783
 9711SOL    HW230033   3.474   1.010   0.860
 9712SOL     OW30034   5.654   1.707   6.243
 9712SOL    HW130035   5.741   1.662   6.259
 9712SOL    HW230036   5.635   1.771   6.317
 9713SOL     OW30037   1.105   6.437   3.016
 9713SOL    HW130038   1.072   6.429   2.922
 9713SOL    HW230039   1.104   6.534   3.043
 9714SOL     OW30040   2.344   4.447   4.298
 9714SOL    HW130041   2.315   4.401   4.382
 9714SOL    HW230042   2.403   4.524   4.321
 9715SOL     OW30043   6.764   3.405   6.780
 9715SOL    HW130044   6.848   3.456   6.796
 9715SOL    HW230045   6.776   3.345   6.700
 9716SOL     OW30046   2.297   5.146   0.057
 9716SOL    HW130047   2.266   5.240   0.066
 9716SOL    HW230048   2.384   5.134   0.106
 9717SOL     OW30049   4.118   2.205   5.446
 9717SOL    HW130050   4.153   2.298   5.439
 9717SOL    HW230051   4.058   2.198   5.525
 9718SOL     OW30052   3.851   2.765   6.284
 9718SOL    HW130053   3.872   2.719   6.370
 9718SOL    HW230054   3.885   2.859   6.287
 9719SOL     OW30055   5.013   0.172   5.869
 9719SOL    HW130056   4.921   0.135   5.878
 9719SOL    HW230057   5.068   0.143   5.947
 9720SOL     OW30058   2.177   3.177   3.163
 9720SOL    HW130059   2.223   3.170   3.075
 9720SOL    HW230060   2.080   3.195   3.149
 9721SOL     OW30061   0.589   1.195   0.490
 9721SOL    HW130062   0.601   1.108   0.442
 9721SOL    HW230063   0.566   1.177   0.586
 9722SOL     OW30064   4.176   2.771   5.346
 9722SOL    HW130065   4.184   2.687   5.292
 9722SOL    HW230066   4.116   2.835   5.299
 9723SOL     OW30067   6.453   0.263   4.774
 9723SOL    HW130068   6.533   0.316   4.801
 9723SOL    HW230069   6.387   0.261   4.849
 9724SOL     OW30070   1.599   5.513   7.007
 9724SOL    HW130071   1.691   5.547   6.987
 9724SOL    HW230072   1.604   5.437   0.049
 9725SOL     OW30073   4.238   5.528   4.974
 9725SOL    HW130074   4.174   5.526   5.051
 9725SOL    HW230075   4.189   5.508   4.890
 9726SOL     OW30076   0.083   1.104   3.938
 9726SOL    HW130077   0.111   1.031   3.875
 9726SOL    HW230078   0.161   1.128   3.996
 9727SOL     OW30079   0.408   1.178   0.944
 9727SOL    HW130080   0.414   1.211   1.038
 9727SOL    HW230081   0.469   1.099   0.932
 9728SOL     OW30082   4.713   1.559   4.808
 9728SOL    HW130083   4.673   1.484   4.755
 9728SOL    HW230084   4.692   1.546   4.905
 9729SOL     OW30085   0.461   5.022   2.667
 9729SOL    HW130086   0.364   5.002   2.656
 9729SOL    HW230087   0.514   4.939   2.654
 9730SOL     OW30088   0.544   3.882   3.010
 9730SOL    HW130089   0.538   3.981   2.995
 9730SOL    HW230090   0.458   3.839   2.984
 9731SOL     OW30091   5.086   3.775   1.618
 9731SOL    HW130092   5.080   3.842   1.543
 9731SOL    HW230093   5.006   3.715   1.615
 9732SOL     OW30094   1.895   3.238   3.126
 9732SOL    HW130095   1.875   3.211   3.032
 9732SOL    HW230096   1.946   3.324   3.125
 9733SOL     OW30097   6.089   4.707   2.403
 9733SOL    HW130098   6.073   4.708   2.502
 9733SOL    HW230099   6.166   4.767   2.382
 9734SOL     OW30100   5.197   5.773   6.257
 9734SOL    HW130101   5.104   5.783   6.292
 9734SOL    HW230102   5.227   5.860   6.217
 9735SOL     OW30103   0.556   2.775   0.933
 9735SOL    HW130104   0.613   2.768   0.852
 9735SOL    HW230105   0.605   2.737   1.012
 9736SOL     OW30106   5.017   1.471   4.567
 9736SOL    HW130107   5.091   1.523   4.523
 9736SOL    HW230108   4.998   1.510   4.657
 9737SOL     OW30109   5.680   3.182   2.626
 9737SOL    HW130110   5.623   3.258   2.596
 9737SOL    HW230111   5.697   3.121   2.549
 9738SOL     OW30112   2.526   6.301   1.681
 9738SOL    HW130113   2.554   6.396   1.697
 9738SOL    HW230114   2.431   6.299   1.651
 9739SOL     OW30115   5.792   6.880   6.824
 9739SOL    HW130116   5.826   6.869   6.917
 9739SOL    HW230117   5.752   6.793   6.793
 9740SOL     OW30118   5.965   0.617   3.017
 9740SOL    HW130119   5.979   0.610   3.116
 9740SOL    HW230120   5.996   0.707   2.986
 9741SOL     OW30121   2.470   1.954   4.766
 9741SOL    HW130122   2.547   1.900   4.799
 9741SOL    HW230123   2.501   2.048   4.748
 9742SOL     OW30124   4.094   1.959   6.090
 9742SOL    HW130125   4.100   1.976   6.189
 9742SOL    HW230126   4.005   1.919   6.068
 9743SOL     OW30127   5.310   3.658   4.487
 9743SOL    HW130128   5.297   3.559   4.483
 9743SOL    HW230129   5.365   3.688   4.409
 9744SOL     OW30130   1.644   1.158   3.328
 9744SOL    HW130131   1.727   1.206   3.298
 9744SOL    HW230132   1.613   1.097   3.255
 9745SOL     OW30133   6.902   0.709   5.772
 9745SOL    HW130134   6.848   0.793   5.778
 9745SOL    HW230135   6.936   0.685   5.862
 9746SOL     OW30136   4.282   5.452   6.002
 9746SOL    HW130137   4.358   5.502   6.043
 9746SOL    HW230138   4.215   5.431   6.073
 9747SOL     OW30139   2.311   1.529   3.063
 9747SOL    HW130140   2.265   1.530   3.152
 9747SOL    HW230141   2.400   1.574   3.071
 9748SOL     OW30142   1.366   0.596   3.707
 9748SOL    HW130143   1.403   0.689   3.711
 9748SOL    HW230144   1.332   0.570   3.798
 9749SOL     OW30145   6.660   0.904   2.258
 9749SOL    HW130146   6.602   0.986   2.257
 9749SOL    HW230147   6.651   0.858   2.346
 9750SOL     OW30148   6.250   2.916   4.061
 9750SOL    HW130149   6.340   2.904   4.019
 9750SOL    HW230150   6.183   2.858   4.014
 9751SOL     OW30151   3.262   0.299   1.796
 9751SOL    HW130152   3.247   0.382   1.743
 9751SOL    HW230153   3.360   0.283   1.806
 9752SOL     OW30154   3.382   3.498   6.729
 9752SOL    HW130155   3.303   3.521   6.673
 9752SOL    HW230156   3.362   3.517   6.825
 9753SOL     OW30157   7.015   6.571   5.105
 9753SOL    HW130158   7.003   6.662   5.066
 9753SOL    HW230159   6.926   6.535   5.133
 9754SOL     OW30160   3.284   1.099   1.532
 9754SOL    HW130161   3.352   1.027   1.531
 9754SOL    HW230162   3.299   1.159   1.611
 9755SOL     OW30163   3.024   4.276   0.408
 9755SOL    HW130164   2.965   4.200   0.381
 9755SOL    HW230165   2.978   4.332   0.476
 9756SOL     OW30166   5.695   0.340   5.838
 9756SOL    HW130167   5.639   0.273   5.887
 9756SOL    HW230168   5.749   0.292   5.768
 9757SOL     OW30169   4.992   4.483   4.184
 9757SOL    HW130170   5.023   4.506   4.091
 9757SOL    HW230171   4.892   4.475   4.184
 9758SOL     OW30172   2.228   0.374   1.837
 9758SOL    HW130173   2.232   0.396   1.935
 9758SOL    HW230174   2.156   0.306   1.821
 9759SOL     OW30175   6.881   0.933   1.698
 9759SOL    HW130176   6.961   0.969   1.649
 9759SOL    HW230177   6.843   1.004   1.757
 9760SOL     OW30178   4.736   1.210   0.063
 9760SOL    HW130179   4.694   1.292   0.102
 9760SOL    HW230180   4.671   1.134   0.066
 9761SOL     OW30181   1.091   2.249   0.860
 9761SOL    HW130182   1.070   2.151   0.862
 9761SOL    HW230183   1.175   2.266   0.911
 9762SOL     OW30184   2.745   1.871   6.014
 9762SOL    HW130185   2.723   1.969   6.007
 9762SOL    HW230186   2.747   1.830   5.923
 9763SOL     OW30187   6.305   1.028   1.087
 9763SOL    HW130188   6.353   0.948   1.050
 9763SOL    HW230189   6.236   0.999   1.153
 9764SOL     OW30190   6.970   2.732   2.414
 9764SOL    HW130191   0.019   2.663   2.423
 9764SOL    HW230192   6.974   2.794   2.492
 9765SOL     OW30193   6.980   0.506   2.029
 9765SOL    HW130194   6.980   0.582   2.093
 9765SOL    HW230195   6.918   0.525   1.954
 9766SOL     OW30196   2.189   1.932   4.455
 9766SOL    HW130197   2.245   1.851   4.437
 9766SOL    HW230198   2.117   1.940   4.386
 9767SOL     OW30199   2.316   2.807   5.640
 9767SOL    HW130200   2.270   2.847   5.719
 9767SOL    HW230201   2.415   2.814   5.651
 9768SOL     OW30202   5.967   3.204   0.817
 9768SOL    HW130203   5.947   3.120   0.767
 9768SOL    HW230204   6.036   3.185   0.887
 9769SOL     OW30205   3.207   1.749   5.415
 9769SOL    HW130206   3.285   1.718   5.470
 9769SOL    HW230207   3.233   1.751   5.319
 9770SOL     OW30208   2.479   2.704   6.546
 9770SOL    HW130209   2.383   2.681   6.558
 9770SOL    HW230210   2.504   2.775   6.612
 9771SOL     OW30211   2.696   6.924   2.447
 9771SOL    HW130212   2.684   6.841   2.501
 9771SOL    HW230213   2.610   6.946   2.400
 9772SOL     OW30214   1.498   0.541   1.203
 9772SOL    HW130215   1.420   0.537   1.140
 9772SOL    HW230216   1.464   0.550   1.297
 9773SOL     OW30217   4.949   4.830   1.914
 9773SOL    HW130218   4.994   4.775   1.844
 9773SOL    HW230219   4.995   4.918   1.922
 9774SOL     OW30220   1.097   4.945   5.097
 9774SOL    HW130221   1.052   5.033   5.088
 9774SOL    HW230222   1.150   4.942   5.182
 9775SOL     OW30223   2.680   1.375   3.394
 9775SOL    HW130224   2.702   1.380   3.296
 9775SOL    HW230225   2.581   1.370   3.406
 9776SOL     OW30226   2.555   5.101   0.163
 9776SOL    HW130227   2.639   5.057   0.131
 9776SOL    HW230228   2.577   5.165   0.237
 9777SOL     OW30229   4.457   0.623   5.536
 9777SOL    HW130230   4.433   0.713   5.499
 9777SOL    HW230231   4.466   0.558   5.460
 9778SOL     OW30232   0.194   3.595   4.216
 9778SOL    HW130233   0.266   3.623   4.153
 9778SOL    HW230234   0.106   3.631   4.184
 9779SOL     OW30235   2.381   1.130   4.015
 9779SOL    HW130236   2.283   1.150   4.016
 9779SOL    HW230237   2.407   1.097   3.925
 9780SOL     OW30238   1.100   2.344   1.874
 9780SOL    HW130239   1.161   2.284   1.823
 9780SOL    HW230240   1.068   2.297   1.956
 9781SOL     OW30241   2.136   2.148   3.655
 9781SOL    HW130242   2.199   2.195   3.718
 9781SOL    HW230243   2.167   2.160   3.561
 9782SOL     OW30244   6.791   2.318   1.136
 9782SOL    HW130245   6.852   2.379   1.085
 9782SOL    HW230246   6.842   2.275   1.210
 9783SOL     OW30247   3.555   0.984   3.402
 9783SOL    HW130248   3.634   1.044   3.409
 9783SOL    HW230249   3.543   0.955   3.307
 9784SOL     OW30250   1.238   1.079   6.097
 9784SOL    HW130251   1.266   1.024   6.175
 9784SOL    HW230252   1.180   1.025   6.036
 9785SOL     OW30253   0.046   3.444   4.849
 9785SOL    HW130254   0.067   3.347   4.862
 9785SOL    HW230255   0.098   3.479   4.771
 9786SOL     OW30256   1.904   4.216   0.564
 9786SOL    HW130257   1.929   4.149   0.633
 9786SOL    HW230258   1.972   4.290   0.564
 9787SOL     OW30259   2.942   3.768   3.298
 9787SOL    HW130260   2.932   3.823   3.216
 9787SOL    HW230261   3.038   3.765   3.326
 9788SOL     OW30262   4.966   0.394   1.982
 9788SOL    HW130263   5.031   0.341   1.928
 9788SOL    HW230264   4.899   0.332   2.022
 9789SOL     OW30265   3.871   1.420   6.684
 9789SOL    HW130266   3.790   1.437   6.628
 9789SOL    HW230267   3.922   1.343   6.646
 9790SOL     OW30268   0.018   4.542   3.935
 9790SOL    HW130269   7.001   4.488   4.009
 9790SOL    HW230270   0.054   4.480   3.865
 9791SOL     OW30271   1.128   6.538   1.027
 9791SOL    HW130272   1.176   6.453   1.048
 9791SOL    HW230273   1.195   6.607   0.998
 9792SOL     OW30274   4.171   6.393   0.582
 9792SOL    HW130275   4.147   6.469   0.642
 9792SOL    HW230276   4.171   6.308   0.635
 9793SOL     OW30277   5.681   0.911   3.434
 9793SOL    HW130278   5.660   0.813   3.427
 9793SOL    HW230279   5.730   0.928   3.519
 9794SOL     OW30280   4.743   4.631   4.608
 9794SOL    HW130281   4.704   4.721   4.586
 9794SOL    HW230282   4.672   4.561   4.597
 9795SOL     OW30283   1.994   3.815   3.364
 9795SOL    HW130284   2.009   3.787   3.458
 9795SOL    HW230285   1.896   3.817   3.344
 9796SOL     OW30286   3.842   3.124   3.674
 9796SOL    HW130287   3.832   3.214   3.716
 9796SOL    HW230288   3.885   3.062   3.739
 9797SOL     OW30289   3.087   5.576   6.822
 9797SOL    HW130290   3.153   5.623   6.881
 9797SOL    HW230291   3.008   5.549   6.877
 9798SOL     OW30292   0.662   3.824   0.274
 9798SOL    HW130293   0.689   3.920   0.269
 9798SOL    HW230294   0.741   3.768   0.301
 9799SOL     OW30295   2.868   0.545   6.470
 9799SOL    HW130296   2.839   0.619   6.531
 9799SOL    HW230297   2.846   0.457   6.512
 9800SOL     OW30298   6.681   3.877   5.190
 9800SOL    HW130299   6.621   3.859   5.268
 9800SOL    HW230300   6.643   3.835   5.108
 9801SOL     OW30301   6.229   6.117   6.615
 9801SOL    HW130302   6.319   6.160   6.615
 9801SOL    HW230303   6.159   6.187   6.601
 9802SOL     OW30304   3.969   4.716   0.046
 9802SOL    HW130305   3.932   4.636   7.021
 9802SOL    HW230306   4.021   4.686   0.126
 9803SOL     OW30307   0.978   3.803   6.501
 9803SOL    HW130308   0.931   3.891   6.496
 9803SOL    HW230309   1.050   3.800   6.432
 9804SOL     OW30310   0.227   5.934   2.610
 9804SOL    HW130311   0.165   5.937   2.688
 9804SOL    HW230312   0.188   5.989   2.535
 9805SOL     OW30313   0.782   6.091   3.550
 9805SOL    HW130314   0.853   6.072   3.619
 9805SOL    HW230315   0.775   6.014   3.487
 9806SOL     OW30316   3.889   1.670   6.776
 9806SOL    HW130317   3.845   1.732   6.711
 9806SOL    HW230318   3.903   1.581   6.733
 9807SOL     OW30319   3.150   3.451   2.168
 9807SOL    HW130320   3.229   3.511   2.173
 9807SOL    HW230321   3.153   3.398   2.083
 9808SOL     OW30322   4.490   6.225   2.769
 9808SOL    HW130323   4.577   6.268   2.791
 9808SOL    HW230324   4.415   6.277   2.811
 9809SOL     OW30325   0.093   3.305   1.451
 9809SOL    HW130326   0.188   3.335   1.439
 9809SOL    HW230327   0.080   3.217   1.406
 9810SOL     OW30328   2.430   1.407   0.028
 9810SOL    HW130329   2.496   1.353   6.998
 9810SOL    HW230330   2.479   1.470   0.089
 9811SOL     OW30331   6.536   3.414   4.107
 9811SOL    HW130332   6.595   3.364   4.169
 9811SOL    HW230333   6.505   3.498   4.151
 9812SOL     OW30334   3.399   6.374   5.638
 9812SOL    HW130335   3.347   6.338   5.716
 9812SOL    HW230336   3.344   6.365   5.555
 9813SOL     OW30337   4.894   1.666   1.663
 9813SOL    HW130338   4.893   1.592   1.730
 9813SOL    HW230339   4.973   1.655   1.603
 9814SOL     OW30340   5.534   1.122   0.445
 9814SOL    HW130341   5.469   1.183   0.399
 9814SOL    HW230342   5.521   1.129   0.544
 9815SOL     OW30343   4.396   2.405   4.813
 9815SOL    HW130344   4.332   2.352   4.757
 9815SOL    HW230345   4.352   2.431   4.899
 9816SOL     OW30346   1.763   6.977   6.920
 9816SOL    HW130347   1.707   0.035   6.934
 9816SOL    HW230348   1.709   6.895   6.939
 9817SOL     OW30349   6.750   6.769   3.202
 9817SOL    HW130350   6.693   6.691   3.180
 9817SOL    HW230351   6.808   6.747   3.281
 9818SOL     OW30352   6.607   2.719   4.318
 9818SOL    HW130353   6.680   2.782   4.291
 9818SOL    HW230354   6.519   2.759   4.291
 9819SOL     OW30355   3.730   1.224   3.425
 9819SOL    HW130356   3.815   1.213   3.476
 9819SOL    HW230357   3.723   1.318   3.393
 9820SOL     OW30358   4.211   3.517   5.673
 9820SOL    HW130359   4.171   3.596   5.627
 9820SOL    HW230360   4.179   3.433   5.629
 9821SOL     OW30361   6.165   5.577   0.183
 9821SOL    HW130362   6.137   5.663   0.227
 9821SOL    HW230363   6.087   5.538   0.134
 9822SOL     OW30364   0.476   6.854   2.874
 9822SOL    HW130365   0.388   6.820   2.905
 9822SOL    HW230366   0.514   6.917   2.942
 9823SOL     OW30367   3.239   1.174   2.127
 9823SOL    HW130368   3.277   1.117   2.054
 9823SOL    HW230369   3.141   1.187   2.112
 9824SOL     OW30370   1.234   4.252   5.501
 9824SOL    HW130371   1.225   4.199   5.416
 9824SOL    HW230372   1.276   4.195   5.572
 9825SOL     OW30373   4.277   5.264   5.496
 9825SOL    HW130374   4.369   5.231   5.473
 9825SOL    HW230375   4.243   5.216   5.577
 9826SOL     OW30376   4.483   0.418   5.954
 9826SOL    HW130377   4.429   0.443   5.874
 9826SOL    HW230378   4.561   0.362   5.926
 9827SOL     OW30379   0.796   3.626   4.657
 9827SOL    HW130380   0.817   3.602   4.752
 9827SOL    HW230381   0.868   3.686   4.621
 9828SOL     OW30382   3.579   2.719   6.448
 9828SOL    HW130383   3.625   2.642   6.403
 9828SOL    HW230384   3.512   2.684   6.513
 9829SOL     OW30385   2.197   5.660   0.278
 9829SOL    HW130386   2.279   5.622   0.234
 9829SOL    HW230387   2.215   5.754   0.306
 9830SOL     OW30388   6.012   1.434   1.682
 9830SOL    HW130389   5.948   1.455   1.755
 9830SOL    HW230390   6.003   1.338   1.655
 9831SOL     OW30391   6.780   0.153   1.597
 9831SOL    HW130392   6.820   0.233   1.642
 9831SOL    HW230393   6.854   0.093   1.565
 9832SOL     OW30394   4.225   5.454   1.795
 9832SOL    HW130395   4.134   5.457   1.837
 9832SOL    HW230396   4.248   5.359   1.774
 9833SOL     OW30397   3.510   3.760   5.367
 9833SOL    HW130398   3.498   3.804   5.456
 9833SOL    HW230399   3.431   3.780   5.308
 9834SOL     OW30400   0.880   3.599   4.929
 9834SOL    HW130401   0.978   3.598   4.910
 9834SOL    HW230402   0.860   3.535   5.003
 9835SOL     OW30403   5.072   1.676   4.340
 9835SOL    HW130404   4.983   1.651   4.301
 9835SOL    HW230405   5.134   1.703   4.267
 9836SOL     OW30406   5.038   4.654   3.424
 9836SOL    HW130407   5.073   4.748   3.432
 9836SOL    HW230408   5.055   4.620   3.332
 9837SOL     OW30409   2.636   6.444   4.654
 9837SOL    HW130410   2.699   6.516   4.683
 9837SOL    HW230411   2.604   6.394   4.734
 9838SOL     OW30412   0.959   6.037   6.200
 9838SOL    HW130413   0.895   6.064   6.272
 9838SOL    HW230414   0.909   6.021   6.115
 9839SOL     OW30415   0.205   1.481   1.520
 9839SOL    HW130416   0.274   1.521   1.460
 9839SOL    HW230417   0.173   1.394   1.482
 9840SOL     OW30418   6.494   0.225   1.090
 9840SOL    HW130419   6.505   0.126   1.093
 9840SOL    HW230420   6.419   0.248   1.028
 9841SOL     OW30421   1.761   3.851   4.428
 9841SOL    HW130422   1.775   3.897   4.340
 9841SOL    HW230423   1.832   3.781   4.440
 9842SOL     OW30424   3.033   3.287   2.493
 9842SOL    HW130425   3.117   3.332   2.462
 9842SOL    HW230426   3.052   3.233   2.574
 9843SOL     OW30427   6.984   2.365   1.574
 9843SOL    HW130428   6.936   2.295   1.627
 9843SOL    HW230429   6.965   2.352   1.477
 9844SOL     OW30430   5.388   0.339   2.439
 9844SOL    HW130431   5.423   0.299   2.354
 9844SOL    HW230432   5.425   0.432   2.450
 9845SOL     OW30433   1.560   1.873   3.735
 9845SOL    HW130434   1.607   1.926   3.665
 9845SOL    HW230435   1.551   1.929   3.818
 9846SOL     OW30436   3.175   3.651   3.119
 9846SOL    HW130437   3.254   3.691   3.072
 9846SOL    HW230438   3.174   3.682   3.214
 9847SOL     OW30439   1.543   3.762   6.697
 9847SOL    HW130440   1.603   3.812   6.634
 9847SOL    HW230441   1.497   3.688   6.648
 9848SOL     OW30442   4.482   2.814   7.000
 9848SOL    HW130443   4.387   2.840   6.984
 9848SOL    HW230444   4.542   2.890   6.976
 9849SOL     OW30445   6.748   6.899   6.055
 9849SOL    HW130446   6.811   6.826   6.028
 9849SOL    HW230447   6.654   6.868   6.041
 9850SOL     OW30448   4.105   6.888   2.317
 9850SOL    HW130449   4.107   6.947   2.237
 9850SOL    HW230450   4.018   6.901   2.365
 9851SOL     OW30451   5.289   1.874   5.149
 9851SOL    HW130452   5.310   1.882   5.051
 9851SOL    HW230453   5.286   1.966   5.189
 9852SOL     OW30454   4.524   1.704   3.739
 9852SOL    HW130455   4.524   1.804   3.745
 9852SOL    HW230456   4.589   1.675   3.669
 9853SOL     OW30457   5.557   3.830   2.908
 9853SOL    HW130458   5.473   3.879   2.888
 9853SOL    HW230459   5.567   3.753   2.845
 9854SOL     OW30460   5.838   5.121   4.609
 9854SOL    HW130461   5.804   5.028   4.594
 9854SOL    HW230462   5.788   5.184   4.550
 9855SOL     OW30463   1.281   4.269   1.926
 9855SOL    HW130464   1.381   4.266   1.934
 9855SOL    HW230465   1.256   4.306   1.837
 9856SOL     OW30466   3.220   3.691   0.442
 9856SOL    HW130467   3.145   3.722   0.500
 9856SOL    HW230468   3.183   3.647   0.361
 9857SOL     OW30469   5.191   3.318   3.127
 9857SOL    HW130470   5.165   3.356   3.216
 9857SOL    HW230471   5.253   3.381   3.080
 9858SOL     OW30472   5.368   0.989   2.225
 9858SOL    HW130473   5.403   0.948   2.310
 9858SOL    HW230474   5.276   1.023   2.240
 9859SOL     OW30475   6.404   0.941   2.491
 9859SOL    HW130476   6.345   1.008   2.446
 9859SOL    HW230477   6.348   0.863   2.520
 9860SOL     OW30478   0.781   0.784   2.382
 9860SOL    HW130479   0.854   0.745   2.438
 9860SOL    HW230480   0.704   0.809   2.440
 9861SOL     OW30481   4.377   5.963   4.314
 9861SOL    HW130482   4.352   5.909   4.234
 9861SOL    HW230483   4.314   6.040   4.323
 9862SOL     OW30484   1.915   2.700   0.395
 9862SOL    HW130485   1.912   2.605   0.364
 9862SOL    HW230486   1.971   2.706   0.478
 9863SOL     OW30487   2.896   0.477   3.199
 9863SOL    HW130488   2.918   0.569   3.165
 9863SOL    HW230489   2.880   0.481   3.298
 9864SOL     OW30490   4.541   5.759   3.331
 9864SOL    HW130491   4.442   5.766   3.314
 9864SOL    HW230492   4.589   5.817   3.265
 9865SOL     OW30493   0.823   0.058   3.589
 9865SOL    HW130494   0.752   0.075   3.657
 9865SOL    HW230495   0.878   7.001   3.617
 9866SOL     OW30496   4.853   3.776   4.345
 9866SOL    HW130497   4.932   3.752   4.401
 9866SOL    HW230498   4.808   3.856   4.385
 9867SOL     OW30499   4.673   1.655   0.823
 9867SOL    HW130500   4.681   1.600   0.906
 9867SOL    HW230501   4.609   1.731   0.838
 9868SOL     OW30502   6.630   4.617   6.780
 9868SOL    HW130503   6.606   4.636   6.685
 9868SOL    HW230504   6.667   4.525   6.787
 9869SOL     OW30505   2.261   4.091   3.244
 9869SOL    HW130506   2.320   4.113   3.166
 9869SOL    HW230507   2.166   4.095   3.215
 9870SOL     OW30508   4.554   4.497   2.541
 9870SOL    HW130509   4.536   4.471   2.447
 9870SOL    HW230510   4.486   4.563   2.572
 9871SOL     OW30511   2.313   0.448   5.722
 9871SOL    HW130512   2.368   0.503   5.660
 9871SOL    HW230513   2.297   0.358   5.681
 9872SOL     OW30514   2.890   4.821   3.360
 9872SOL    HW130515   2.820   4.796   3.427
 9872SOL    HW230516   2.964   4.754   3.361
 9873SOL     OW30517   1.797   2.923   0.278
 9873SOL    HW130518   1.763   2.874   0.197
 9873SOL    HW230519   1.839   2.858   0.341
 9874SOL     OW30520   0.518   2.793   3.415
 9874SOL    HW130521   0.564   2.772   3.328
 9874SOL    HW230522   0.555   2.735   3.487
 9875SOL     OW30523   0.607   0.815   2.575
 9875SOL    HW130524   0.624   0.879   2.650
 9875SOL    HW230525   0.522   0.764   2.594
 9876SOL     OW30526   6.668   6.928   2.797
 9876SOL    HW130527   6.693   7.006   2.855
 9876SOL    HW230528   6.714   6.937   2.709
 9877SOL     OW30529   3.222   6.999   2.539
 9877SOL    HW130530   3.152   6.997   2.468
 9877SOL    HW230531   3.204   0.052   2.602
 9878SOL     OW30532   1.503   5.490   5.593
 9878SOL    HW130533   1.515   5.530   5.683
 9878SOL    HW230534   1.586   5.502   5.539
 9879SOL     OW30535   4.774   5.793   4.892
 9879SOL    HW130536   4.677   5.810   4.876
 9879SOL    HW230537   4.823   5.798   4.805
 9880SOL     OW30538   0.916   2.352   5.844
 9880SOL    HW130539   0.944   2.412   5.769
 9880SOL    HW230540   0.926   2.400   5.931
 9881SOL     OW30541   0.786   2.378   5.340
 9881SOL    HW130542   0.748   2.384   5.432
 9881SOL    HW230543   0.714   2.396   5.272
 9882SOL     OW30544   1.304   2.427   4.375
 9882SOL    HW130545   1.351   2.420   4.463
 9882SOL    HW230546   1.366   2.466   4.307
 9883SOL     OW30547   1.870   0.695   1.815
 9883SOL    HW130548   1.835   0.641   1.892
 9883SOL    HW230549   1.893   0.634   1.739
 9884SOL     OW30550   4.182   0.619   3.499
 9884SOL    HW130551   4.192   0.689   3.569
 9884SOL    HW230552   4.267   0.567   3.491
 9885SOL     OW30553   6.420   4.294   4.961
 9885SOL    HW130554   6.382   4.387   4.961
 9885SOL    HW230555   6.346   4.228   4.951
 9886SOL     OW30556   1.297   4.794   2.738
 9886SOL    HW130557   1.392   4.808   2.766
 9886SOL    HW230558   1.289   4.708   2.688
 9887SOL     OW30559   3.589   1.476   0.062
 9887SOL    HW130560   3.578   1.405   7.014
 9887SOL    HW230561   3.663   1.538   0.036
 9888SOL     OW30562   0.292   3.426   0.525
 9888SOL    HW130563   0.308   3.512   0.573
 9888SOL    HW230564   0.233   3.443   0.446
 9889SOL     OW30565   6.158   5.259   0.512
 9889SOL    HW130566   6.202   5.344   0.543
 9889SOL    HW230567   6.212   5.181   0.543
 9890SOL     OW30568   1.649   2.475   0.909
 9890SOL    HW130569   1.596   2.405   0.861
 9890SOL    HW230570   1.714   2.516   0.846
 9891SOL     OW30571   5.652   2.770   0.457
 9891SOL    HW130572   5.627   2.773   0.554
 9891SOL    HW230573   5.751   2.784   0.447
 9892SOL     OW30574   6.815   4.875   0.094
 9892SOL    HW130575   6.886   4.846   0.159
 9892SOL    HW230576   6.814   4.975   0.088
 9893SOL     OW30577   2.304   0.879   0.801
 9893SOL    HW130578   2.224   0.923   0.759
 9893SOL    HW230579   2.330   0.799   0.747
 9894SOL     OW30580   1.267   1.831   0.810
 9894SOL    HW130581   1.311   1.801   0.895
 9894SOL    HW230582   1.294   1.770   0.736
 9895SOL     OW30583   5.797   3.662   4.385
 9895SOL    HW130584   5.780   3.644   4.288
 9895SOL    HW230585   5.866   3.734   4.394
 9896SOL     OW30586   6.743   0.026   0.011
 9896SOL    HW130587   6.748   6.949   0.020
 9896SOL    HW230588   6.834   0.065   0.027
 9897SOL     OW30589   5.930   5.404   3.380
 9897SOL    HW130590   5.960   5.484   3.329
 9897SOL    HW230591   5.844   5.371   3.342
 9898SOL     OW30592   3.107   6.449   5.990
 9898SOL    HW130593   3.183   6.426   6.051
 9898SOL    HW230594   3.021   6.425   6.034
 9899SOL     OW30595   0.631   5.281   0.805
 9899SOL    HW130596   0.664   5.361   0.854
 9899SOL    HW230597   0.704   5.245   0.746
 9900SOL     OW30598   1.372   4.207   3.255
 9900SOL    HW130599   1.445   4.181   3.192
 9900SOL    HW230600   1.334   4.125   3.297
 9901SOL     OW30601   2.655   2.457   5.729
 9901SOL    HW130602   2.686   2.451   5.824
 9901SOL    HW230603   2.555   2.458   5.726
 9902SOL     OW30604   2.260   4.749   6.369
 9902SOL    HW130605   2.195   4.696   6.422
 9902SOL    HW230606   2.212   4.799   6.297
 9903SOL     OW30607   4.765   1.716   3.433
 9903SOL    HW130608   4.798   1.742   3.342
 9903SOL    HW230609   4.771   1.617   3.444
 9904SOL     OW30610   0.308   3.702   6.186
 9904SOL    HW130611   0.234   3.718   6.252
 9904SOL    HW230612   0.301   3.767   6.111
 9905SOL     OW30613   4.053   1.381   0.811
 9905SOL    HW130614   4.063   1.436   0.728
 9905SOL    HW230615   3.955   1.369   0.832
 9906SOL     OW30616   3.720   2.877   2.667
 9906SOL    HW130617   3.794   2.844   2.609
 9906SOL    HW230618   3.633   2.842   2.634
 9907SOL     OW30619   0.221   0.618   1.677
 9907SOL    HW130620   0.313   0.658   1.678
 9907SOL    HW230621   0.194   0.594   1.770
 9908SOL     OW30622   4.972   2.624   2.957
 9908SOL    HW130623   4.936   2.582   2.873
 9908SOL    HW230624   4.903   2.618   3.028
 9909SOL     OW30625   3.519   6.399   3.757
 9909SOL    HW130626   3.566   6.313   3.777
 9909SOL    HW230627   3.424   6.392   3.785
 9910SOL     OW30628   0.989   4.320   2.274
 9910SOL    HW130629   1.030   4.364   2.194
 9910SOL    HW230630   0.940   4.237   2.246
 9911SOL     OW30631   3.986   0.175   2.393
 9911SOL    HW130632   3.991   0.274   2.388
 9911SOL    HW230633   4.057   0.141   2.455
 9912SOL     OW30634   4.073   2.073   0.841
 9912SOL    HW130635   4.112   2.092   0.751
 9912SOL    HW230636   3.978   2.044   0.830
 9913SOL     OW30637   5.795   3.477   6.977
 9913SOL    HW130638   5.731   3.405   6.948
 9913SOL    HW230639   5.768   3.564   6.935
 9914SOL     OW30640   0.655   2.863   4.302
 9914SOL    HW130641   0.673   2.767   4.320
 9914SOL    HW230642   0.660   2.915   4.387
 9915SOL     OW30643   4.623   1.155   3.100
 9915SOL    HW130644   4.700   1.145   3.038
 9915SOL    HW230645   4.552   1.089   3.076
 9916SOL     OW30646   2.413   2.665   2.433
 9916SOL    HW130647   2.483   2.595   2.424
 9916SOL    HW230648   2.411   2.699   2.528
 9917SOL     OW30649   6.655   4.230   6.618
 9917SOL    HW130650   6.678   4.297   6.548
 9917SOL    HW230651   6.701   4.254   6.704
 9918SOL     OW30652   4.099   1.738   2.884
 9918SOL    HW130653   4.153   1.679   2.824
 9918SOL    HW230654   4.058   1.812   2.831
 9919SOL     OW30655   6.336   6.387   1.117
 9919SOL    HW130656   6.356   6.297   1.078
 9919SOL    HW230657   6.363   6.459   1.052
 9920SOL     OW30658   4.984   1.081   2.552
 9920SOL    HW130659   4.961   1.169   2.510
 9920SOL    HW230660   4.899   1.032   2.573
 9921SOL     OW30661   4.634   5.432   5.925
 9921SOL    HW130662   4.666   5.510   5.870
 9921SOL    HW230663   4.572   5.464   5.996
 9922SOL     OW30664   1.030   5.391   0.190
 9922SOL    HW130665   0.932   5.374   0.178
 9922SOL    HW230666   1.063   5.451   0.116
 9923SOL     OW30667   4.847   5.055   6.774
 9923SOL    HW130668   4.922   5.002   6.814
 9923SOL    HW230669   4.805   5.003   6.700
 9924SOL     OW30670   6.988   2.981   5.063
 9924SOL    HW130671   6.965   2.962   5.159
 9924SOL    HW230672   0.047   2.929   5.038
 9925SOL     OW30673   6.280   3.424   3.960
 9925SOL    HW130674   6.373   3.417   3.994
 9925SOL    HW230675   6.234   3.501   4.005
 9926SOL     OW30676   2.654   3.891   0.063
 9926SOL    HW130677   2.739   3.943   0.071
 9926SOL    HW230678   2.667   3.816   7.022
 9927SOL     OW30679   6.633   0.087   2.470
 9927SOL    HW130680   6.655   7.014   2.489
 9927SOL    HW230681   6.571   0.122   2.541
 9928SOL     OW30682   4.809   4.778   1.042
 9928SOL    HW130683   4.732   4.723   1.075
 9928SOL    HW230684   4.877   4.718   1.000
 9929SOL     OW30685   2.047   5.736   4.986
 9929SOL    HW130686   1.986   5.699   5.056
 9929SOL    HW230687   2.119   5.669   4.966
 9930SOL     OW30688   6.701   0.274   4.524
 9930SOL    HW130689   6.793   0.241   4.502
 9930SOL    HW230690   6.637   0.241   4.455
 9931SOL     OW30691   0.438   4.632   4.953
 9931SOL    HW130692   0.506   4.620   5.025
 9931SOL    HW230693   0.452   4.563   4.882
 9932SOL     OW30694   1.413   6.934   6.411
 9932SOL    HW130695   1.378   6.889   6.328
 9932SOL    HW230696   1.449   0.001   6.388
 9933SOL     OW30697   1.918   5.204   2.637
 9933SOL    HW130698   1.957   5.186   2.547
 9933SOL    HW230699   1.946   5.295   2.668
 9934SOL     OW30700   5.632   2.341   5.506
 9934SOL    HW130701   5.562   2.406   5.476
 9934SOL    HW230702   5.600   2.248   5.488
 9935SOL     OW30703   2.610   0.876   0.298
 9935SOL    HW130704   2.610   0.848   0.394
 9935SOL    HW230705   2.598   0.975   0.291
 9936SOL     OW30706   0.161   5.153   5.059
 9936SOL    HW130707   0.196   5.246   5.046
 9936SOL    HW230708   0.172   5.101   4.975
 9937SOL     OW30709   6.063   2.271   5.943
 9937SOL    HW130710   5.989   2.204   5.945
 9937SOL    HW230711   6.147   2.229   5.977
 9938SOL     OW30712   0.100   5.864   3.355
 9938SOL    HW130713   0.071   5.957   3.374
 9938SOL    HW230714   0.189   5.865   3.309
 9939SOL     OW30715   3.028   2.814   1.079
 9939SOL    HW130716   2.992   2.801   0.986
 9939SOL    HW230717   2.986   2.895   1.120
 9940SOL     OW30718   0.444   0.662   1.043
 9940SOL    HW130719   0.480   0.586   0.989
 9940SOL    HW230720   0.426   0.631   1.136
 9941SOL     OW30721   2.852   3.711   5.253
 9941SOL    HW130722   2.779   3.776   5.274
 9941SOL    HW230723   2.937   3.759   5.237
 9942SOL     OW30724   2.241   5.970   2.572
 9942SOL    HW130725   2.312   5.923   2.626
 9942SOL    HW230726   2.284   6.026   2.502
 9943SOL     OW30727   0.582   5.738   6.471
 9943SOL    HW130728   0.495   5.762   6.427
 9943SOL    HW230729   0.576   5.753   6.569
 9944SOL     OW30730   1.969   4.547   6.370
 9944SOL    HW130731   1.953   4.594   6.283
 9944SOL    HW230732   1.917   4.462   6.372
 9945SOL     OW30733   6.781   5.434   0.190
 9945SOL    HW130734   6.754   5.432   0.286
 9945SOL    HW230735   6.702   5.412   0.132
 9946SOL     OW30736   5.239   1.183   4.730
 9946SOL    HW130737   5.310   1.245   4.696
 9946SOL    HW230738   5.237   1.101   4.674
 9947SOL     OW30739   6.624   4.391   5.851
 9947SOL    HW130740   6.710   4.424   5.889
 9947SOL    HW230741   6.637   4.300   5.813
 9948SOL     OW30742   4.662   4.232   4.849
 9948SOL    HW130743   4.562   4.228   4.849
 9948SOL    HW230744   4.696   4.220   4.756
 9949SOL     OW30745   5.396   4.655   3.569
 9949SOL    HW130746   5.324   4.640   3.502
 9949SOL    HW230747   5.414   4.753   3.577
 9950SOL     OW30748   5.361   6.429   5.250
 9950SOL    HW130749   5.407   6.505   5.205
 9950SOL    HW230750   5.332   6.457   5.342
 9951SOL     OW30751   6.103   2.217   3.515
 9951SOL    HW130752   6.060   2.257   3.596
 9951SOL    HW230753   6.037   2.214   3.440
 9952SOL     OW30754   6.446   3.879   0.901
 9952SOL    HW130755   6.446   3.857   0.803
 9952SOL    HW230756   6.533   3.850   0.941
 9953SOL     OW30757   6.678   2.181   3.712
 9953SOL    HW130758   6.604   2.121   3.740
 9953SOL    HW230759   6.737   2.202   3.791
 9954SOL     OW30760   6.088   6.670   5.188
 9954SOL    HW130761   6.036   6.668   5.273
 9954SOL    HW230762   6.165   6.734   5.198
 9955SOL     OW30763   6.837   5.044   4.758
 9955SOL    HW130764   6.858   5.141   4.772
 9955SOL    HW230765   6.740   5.028   4.771
 9956SOL     OW30766   1.700   6.847   2.065
 9956SOL    HW130767   1.694   6.871   1.968
 9956SOL    HW230768   1.758   6.766   2.075
 9957SOL     OW30769   6.184   5.414   3.570
 9957SOL    HW130770   6.233   5.414   3.483
 9957SOL    HW230771   6.092   5.450   3.557
 9958SOL     OW30772   3.081   4.648   0.782
 9958SOL    HW130773   2.983   4.664   0.793
 9958SOL    HW230774   3.098   4.551   0.762
 9959SOL     OW30775   4.156   3.647   5.912
 9959SOL    HW130776   4.182   3.611   5.823
 9959SOL    HW230777   4.188   3.586   5.984
 9960SOL     OW30778   6.968   1.445   3.173
 9960SOL    HW130779   6.946   1.449   3.076
 9960SOL    HW230780   6.913   1.375   3.217
 9961SOL     OW30781   2.266   5.479   4.121
 9961SOL    HW130782   2.271   5.536   4.203
 9961SOL    HW230783   2.342   5.501   4.060
 9962SOL     OW30784   5.698   6.241   4.723
 9962SOL    HW130785   5.609   6.231   4.769
 9962SOL    HW230786   5.718   6.159   4.671
 9963SOL     OW30787   3.571   2.088   0.739
 9963SOL    HW130788   3.538   2.059   0.829
 9963SOL    HW230789   3.567   2.187   0.733
 9964SOL     OW30790   4.694   5.983   4.270
 9964SOL    HW130791   4.764   5.923   4.309
 9964SOL    HW230792   4.605   5.960   4.310
 9965SOL     OW30793   3.784   6.997   6.869
 9965SOL    HW130794   3.872   0.008   6.903
 9965SOL    HW230795   3.797   6.906   6.829
 9966SOL     OW30796   1.502   5.026   2.092
 9966SOL    HW130797   1.547   4.972   2.162
 9966SOL    HW230798   1.412   5.056   2.125
 9967SOL     OW30799   1.510   5.659   1.808
 9967SOL    HW130800   1.420   5.702   1.800
 9967SOL    HW230801   1.518   5.614   1.897
 9968SOL     OW30802   3.776   3.884   2.079
 9968SOL    HW130803   3.716   3.806   2.059
 9968SOL    HW230804   3.730   3.946   2.142
 9969SOL     OW30805   1.422   3.891   2.747
 9969SOL    HW130806   1.427   3.832   2.828
 9969SOL    HW230807   1.327   3.901   2.720
 9970SOL     OW30808   5.470   4.952   1.941
 9970SOL    HW130809   5.536   4.893   1.986
 9970SOL    HW230810   5.423   5.008   2.009
 9971SOL     OW30811   1.842   4.532   0.745
 9971SOL    HW130812   1.912   4.532   0.816
 9971SOL    HW230813   1.804   4.441   0.735
 9972SOL     OW30814   6.240   4.927   3.038
 9972SOL    HW130815   6.286   4.912   3.125
 9972SOL    HW230816   6.222   5.024   3.026
 9973SOL     OW30817   5.968   0.985   4.218
 9973SOL    HW130818   5.925   0.933   4.293
 9973SOL    HW230819   6.026   0.924   4.164
 9974SOL     OW30820   1.767   0.533   3.922
 9974SOL    HW130821   1.771   0.589   4.005
 9974SOL    HW230822   1.806   0.443   3.941
 9975SOL     OW30823   6.952   2.753   0.002
 9975SOL    HW130824   6.882   2.822   0.021
 9975SOL    HW230825   0.020   2.794   0.013
 9976SOL     OW30826   1.049   0.102   5.380
 9976SOL    HW130827   1.032   0.136   5.288
 9976SOL    HW230828   1.139   0.132   5.411
 9977SOL     OW30829   6.634   4.388   5.147
 9977SOL    HW130830   6.607   4.436   5.230
 9977SOL    HW230831   6.562   4.323   5.121
 9978SOL     OW30832   0.426   2.518   4.378
 9978SOL    HW130833   0.441   2.594   4.442
 9978SOL    HW230834   0.431   2.551   4.284
 9979SOL     OW30835   5.983   3.786   4.912
 9979SOL    HW130836   6.076   3.771   4.878
 9979SOL    HW230837   5.979   3.760   5.009
 9980SOL     OW30838   3.652   0.442   6.653
 9980SOL    HW130839   3.723   0.454   6.722
 9980SOL    HW230840   3.609   0.352   6.664
 9981SOL     OW30841   3.181   1.503   3.907
 9981SOL    HW130842   3.272   1.469   3.930
 9981SOL    HW230843   3.159   1.479   3.812
 9982SOL     OW30844   7.010   5.967   4.089
 9982SOL    HW130845   6.933   6.020   4.124
 9982SOL    HW230846   0.073   6.011   4.115
 9983SOL     OW30847   6.838   1.620   2.611
 9983SOL    HW130848   6.750   1.613   2.656
 9983SOL    HW230849   6.884   1.532   2.613
 9984SOL     OW30850   2.873   1.611   6.518
 9984SOL    HW130851   2.832   1.520   6.515
 9984SOL    HW230852   2.855   1.659   6.432
 9985SOL     OW30853   1.957   1.164   1.612
 9985SOL    HW130854   2.057   1.171   1.609
 9985SOL    HW230855   1.931   1.096   1.680
 9986SOL     OW30856   5.553   4.115   4.752
 9986SOL    HW130857   5.534   4.116   4.850
 9986SOL    HW230858   5.599   4.201   4.727
 9987SOL     OW30859   6.241   3.789   6.275
 9987SOL    HW130860   6.198   3.876   6.252
 9987SOL    HW230861   6.323   3.805   6.329
 9988SOL     OW30862   6.581   6.801   5.302
 9988SOL    HW130863   6.620   6.893   5.313
 9988SOL    HW230864   6.561   6.763   5.393
 9989SOL     OW30865   0.142   3.304   5.218
 9989SOL    HW130866   0.191   3.391   5.212
 9989SOL    HW230867   0.207   3.228   5.214
 9990SOL     OW30868   0.960   4.565   2.926
 9990SOL    HW130869   1.047   4.521   2.905
 9990SOL    HW230870   0.965   4.607   3.016
 9991SOL     OW30871   2.999   2.189   4.144
 9991SOL    HW130872   3.083   2.242   4.152
 9991SOL    HW230873   2.923   2.250   4.119
 9992SOL     OW30874   5.962   5.486   6.359
 9992SOL    HW130875   5.877   5.458   6.314
 9992SOL    HW230876   5.943   5.566   6.416
 9993SOL     OW30877   1.602   1.712   1.539
 9993SOL    HW130878   1.586   1.811   1.538
 9993SOL    HW230879   1.698   1.694   1.558
 9994SOL     OW30880   5.953   4.623   3.693
 9994SOL    HW130881   5.998   4.594   3.609
 9994SOL    HW230882   5.858   4.647   3.674
 9995SOL     OW30883   5.852   0.644   3.855
 9995SOL    HW130884   5.842   0.739   3.827
 9995SOL    HW230885   5.778   0.590   3.814
 9996SOL     OW30886   3.582   4.561   6.634
 9996SOL    HW130887   3.576   4.499   6.555
 9996SOL    HW230888   3.629   4.514   6.709
 9997SOL     OW30889   2.502   0.261   5.317
 9997SOL    HW130890   2.550   0.213   5.391
 9997SOL    HW230891   2.569   0.312   5.262
 9998SOL     OW30892   5.756   5.441   5.704
 9998SOL    HW130893   5.777   5.516   5.767
 9998SOL    HW230894   5.668   5.401   5.729
 9999SOL     OW30895   6.242   2.459   5.819
 9999SOL    HW130896   6.239   2.557   5.837
 9999SOL    HW230897   6.156   2.417   5.847
10000SOL     OW30898   0.045   2.278   6.305
10000SOL    HW130899   0.043   2.296   6.403
10000SOL    HW230900   0.068   2.363   6.256
10001SOL     OW30901   5.063   0.358   2.881
10001SOL    HW130902   5.060   0.456   2.901
10001SOL    HW230903   4.980   0.332   2.830
10002SOL     OW30904   1.450   0.526   1.735
10002SOL    HW130905   1.377   0.482   1.787
10002SOL    HW230906   1.492   0.598   1.790
10003SOL     OW30907   3.834   2.076   3.554
10003SOL    HW130908   3.765   2.089   3.482
10003SOL    HW230909   3.788   2.062   3.642
10004SOL     OW30910   7.022   2.425   2.877
10004SOL    HW130911   6.978   2.436   2.966
10004SOL    HW230912   0.099   2.421   2.890
10005SOL     OW30913   4.659   0.090   4.102
10005SOL    HW130914   4.628   0.157   4.035
10005SOL    HW230915   4.759   0.084   4.098
10006SOL     OW30916   3.877   6.866   4.165
10006SOL    HW130917   3.866   6.943   4.227
10006SOL    HW230918   3.900   6.784   4.218
10007SOL     OW30919   0.274   3.336   4.333
10007SOL    HW130920   0.339   3.362   4.405
10007SOL    HW230921   0.241   3.418   4.286
10008SOL     OW30922   2.889   0.590   4.125
10008SOL    HW130923   2.949   0.657   4.081
10008SOL    HW230924   2.943   0.511   4.153
10009SOL     OW30925   1.962   4.082   2.083
10009SOL    HW130926   1.947   4.173   2.121
10009SOL    HW230927   1.878   4.029   2.090
10010SOL     OW30928   1.422   1.980   6.031
10010SOL    HW130929   1.358   1.960   6.105
10010SOL    HW230930   1.409   1.914   5.957
10011SOL     OW30931   6.571   6.748   5.773
10011SOL    HW130932   6.580   6.658   5.817
10011SOL    HW230933   6.527   6.811   5.836
10012SOL     OW30934   5.829   0.906   3.789
10012SOL    HW130935   5.814   0.951   3.877
10012SOL    HW230936   5.797   0.966   3.715
10013SOL     OW30937   0.652   0.702   2.931
10013SOL    HW130938   0.719   0.682   3.002
10013SOL    HW230939   0.655   0.800   2.908
10014SOL     OW30940   0.500   4.875   6.197
10014SOL    HW130941   0.558   4.871   6.278
10014SOL    HW230942   0.406   4.853   6.222
10015SOL     OW30943   1.855   4.232   6.662
10015SOL    HW130944   1.824   4.316   6.705
10015SOL    HW230945   1.922   4.254   6.591
10016SOL     OW30946   2.555   1.080   5.390
10016SOL    HW130947   2.618   1.127   5.451
10016SOL    HW230948   2.499   1.016   5.442
10017SOL     OW30949   2.032   2.533   4.396
10017SOL    HW130950   1.941   2.553   4.432
10017SOL    HW230951   2.029   2.530   4.296
10018SOL     OW30952   5.101   0.582   5.529
10018SOL    HW130953   5.152   0.665   5.549
10018SOL    HW230954   5.109   0.560   5.432
10019SOL     OW30955   1.187   0.989   3.296
10019SOL    HW130956   1.101   1.030   3.266
10019SOL    HW230957   1.264   1.042   3.261
10020SOL     OW30958   0.591   3.089   0.940
10020SOL    HW130959   0.501   3.047   0.928
10020SOL    HW230960   0.626   3.067   1.031
10021SOL     OW30961   0.204   3.597   1.149
10021SOL    HW130962   0.288   3.596   1.204
10021SOL    HW230963   0.196   3.511   1.098
10022SOL     OW30964   1.110   2.159   6.522
10022SOL    HW130965   1.173   2.170   6.599
10022SOL    HW230966   1.108   2.063   6.494
10023SOL     OW30967   6.889   3.463   0.831
10023SOL    HW130968   6.891   3.443   0.929
10023SOL    HW230969   6.979   3.442   0.792
10024SOL     OW30970   1.847   4.560   3.971
10024SOL    HW130971   1.842   4.658   3.994
10024SOL    HW230972   1.928   4.543   3.915
10025SOL     OW30973   1.444   1.274   0.744
10025SOL    HW130974   1.424   1.176   0.749
10025SOL    HW230975   1.460   1.300   0.649
10026SOL     OW30976   6.434   0.760   3.432
10026SOL    HW130977   6.463   0.835   3.492
10026SOL    HW230978   6.451   0.785   3.337
10027SOL     OW30979   4.869   2.937   5.465
10027SOL    HW130980   4.799   2.966   5.399
10027SOL    HW230981   4.959   2.938   5.421
10028SOL     OW30982   1.847   1.337   0.645
10028SOL    HW130983   1.759   1.292   0.664
10028SOL    HW230984   1.847   1.371   0.551
10029SOL     OW30985   5.940   1.546   3.872
10029SOL    HW130986   5.862   1.483   3.874
10029SOL    HW230987   5.913   1.630   3.825
10030SOL     OW30988   1.735   0.199   3.737
10030SOL    HW130989   1.636   0.187   3.744
10030SOL    HW230990   1.772   0.133   3.671
10031SOL     OW30991   6.514   4.251   4.044
10031SOL    HW130992   6.510   4.204   4.132
10031SOL    HW230993   6.438   4.222   3.987
10032SOL     OW30994   2.756   1.505   4.455
10032SOL    HW130995   2.704   1.566   4.395
10032SOL    HW230996   2.829   1.462   4.403
10033SOL     OW30997   5.790   3.128   5.055
10033SOL    HW130998   5.805   3.071   4.973
10033SOL    HW230999   5.710   3.093   5.104
10034SOL     OW31000   5.477   0.478   5.215
10034SOL    HW131001   5.537   0.431   5.150
10034SOL    HW231002   5.525   0.558   5.251
10035SOL     OW31003   0.604   5.629   1.519
10035SOL    HW131004   0.579   5.598   1.427
10035SOL    HW231005   0.681   5.692   1.513
10036SOL     OW31006   6.747   0.967   0.393
10036SOL    HW131007   6.695   0.966   0.307
10036SOL    HW231008   6.814   0.893   0.391
10037SOL     OW31009   0.884   6.701   0.113
10037SOL    HW131010   0.805   6.759   0.131
10037SOL    HW231011   0.894   6.688   0.014
10038SOL     OW31012   6.632   6.688   1.052
10038SOL    HW131013   6.561   6.758   1.066
10038SOL    HW231014   6.688   6.713   0.974
10039SOL     OW31015   3.228   0.067   3.547
10039SOL    HW131016   3.233   0.166   3.538
10039SOL    HW231017   3.208   0.027   3.457
10040SOL     OW31018   0.591   3.184   1.242
10040SOL    HW131019   0.664   3.209   1.178
10040SOL    HW231020   0.614   3.218   1.333
10041SOL     OW31021   1.788   6.024   0.153
10041SOL    HW131022   1.781   6.102   0.091
10041SOL    HW231023   1.706   6.021   0.211
10042SOL     OW31024   6.076   2.644   2.635
10042SOL    HW131025   6.165   2.612   2.600
10042SOL    HW231026   6.039   2.713   2.573
10043SOL     OW31027   0.258   1.538   5.307
10043SOL    HW131028   0.206   1.621   5.328
10043SOL    HW231029   0.287   1.540   5.212
10044SOL     OW31030   3.192   2.237   5.889
10044SOL    HW131031   3.250   2.166   5.929
10044SOL    HW231032   3.145   2.286   5.962
10045SOL     OW31033   3.824   1.244   0.826
10045SOL    HW131034   3.727   1.263   0.806
10045SOL    HW231035   3.857   1.173   0.764
10046SOL     OW31036   1.754   5.439   0.862
10046SOL    HW131037   1.674   5.398   0.907
10046SOL    HW231038   1.786   5.377   0.790
10047SOL     OW31039   0.483   3.672   0.990
10047SOL    HW131040   0.455   3.692   1.084
10047SOL    HW231041   0.524   3.581   0.986
10048SOL     OW31042   6.195   5.706   3.085
10048SOL    HW131043   6.223   5.783   3.028
10048SOL    HW231044   6.164   5.631   3.027
10049SOL     OW31045   6.991   1.036   5.697
10049SOL    HW131046   6.922   1.029   5.768
10049SOL    HW231047   6.949   1.070   5.612
10050SOL     OW31048   6.864   2.980   6.746
10050SOL    HW131049   6.815   3.029   6.674
10050SOL    HW231050   6.866   3.035   6.829
10051SOL     OW31051   2.109   3.360   3.602
10051SOL    HW131052   2.127   3.432   3.669
10051SOL    HW231053   2.133   3.393   3.511
10052SOL     OW31054   1.397   6.304   3.147
10052SOL    HW131055   1.322   6.324   3.083
10052SOL    HW231056   1.404   6.377   3.214
10053SOL     OW31057   5.790   5.297   4.799
10053SOL    HW131058   5.840   5.236   4.737
10053SOL    HW231059   5.710   5.250   4.835
10054SOL     OW31060   6.074   4.011   5.137
10054SOL    HW131061   6.113   4.008   5.044
10054SOL    HW231062   6.144   4.040   5.202
10055SOL     OW31063   0.716   1.478   6.619
10055SOL    HW131064   0.632   1.532   6.617
10055SOL    HW231065   0.790   1.531   6.579
10056SOL     OW31066   6.357   2.323   3.343
10056SOL    HW131067   6.298   2.296   3.420
10056SOL    HW231068   6.437   2.371   3.378
10057SOL     OW31069   6.158   4.665   5.160
10057SOL    HW131070   6.068   4.621   5.157
10057SOL    HW231071   6.209   4.642   5.077
10058SOL     OW31072   6.835   3.882   5.486
10058SOL    HW131073   6.915   3.844   5.440
10058SOL    HW231074   6.859   3.971   5.524
10059SOL     OW31075   6.298   0.721   6.606
10059SOL    HW131076   6.216   0.683   6.564
10059SOL    HW231077   6.284   0.819   6.622
10060SOL     OW31078   2.334   2.087   1.657
10060SOL    HW131079   2.341   2.111   1.561
10060SOL    HW231080   2.277   2.154   1.705
10061SOL     OW31081   3.643   0.131   3.253
10061SOL    HW131082   3.547   0.144   3.274
10061SOL    HW231083   3.675   0.046   3.293
10062SOL     OW31084   6.775   0.138   4.894
10062SOL    HW131085   6.787   0.180   4.984
10062SOL    HW231086   6.680   0.111   4.882
10063SOL     OW31087   2.278   2.340   5.488
10063SOL    HW131088   2.324   2.373   5.406
10063SOL    HW231089   2.248   2.418   5.543
10064SOL     OW31090   2.712   0.016   0.477
10064SOL    HW131091   2.689   6.987   0.560
10064SOL    HW231092   2.690   0.112   0.491
10065SOL     OW31093   0.662   1.520   1.526
10065SOL    HW131094   0.729   1.447   1.539
10065SOL    HW231095   0.703   1.608   1.550
10066SOL     OW31096   6.474   3.571   3.713
10066SOL    HW131097   6.407   3.500   3.737
10066SOL    HW231098   6.543   3.576   3.785
10067SOL     OW31099   6.712   3.334   5.640
10067SOL    HW131100   6.718   3.312   5.737
10067SOL    HW231101   6.786   3.287   5.591
10068SOL     OW31102   2.120   3.468   2.976
10068SOL    HW131103   2.127   3.504   2.883
10068SOL    HW231104   2.160   3.534   3.040
10069SOL     OW31105   3.124   4.825   0.496
10069SOL    HW131106   3.050   4.886   0.467
10069SOL    HW231107   3.090   4.765   0.569
10070SOL     OW31108   4.165   6.666   6.304
10070SOL    HW131109   4.191   6.742   6.244
10070SOL    HW231110   4.177   6.579   6.255
10071SOL     OW31111   6.267   0.038   3.997
10071SOL    HW131112   6.252   0.089   4.082
10071SOL    HW231113   6.232   6.968   4.008
10072SOL     OW31114   6.664   3.106   1.456
10072SOL    HW131115   6.608   3.125   1.537
10072SOL    HW231116   6.728   3.031   1.478
10073SOL     OW31117   6.505   4.596   4.586
10073SOL    HW131118   6.431   4.530   4.604
10073SOL    HW231119   6.592   4.555   4.612
10074SOL     OW31120   1.093   4.815   0.346
10074SOL    HW131121   1.040   4.895   0.374
10074SOL    HW231122   1.031   4.743   0.314
10075SOL     OW31123   1.279   3.574   2.185
10075SOL    HW131124   1.359   3.576   2.125
10075SOL    HW231125   1.307   3.543   2.276
10076SOL     OW31126   5.232   5.131   4.700
10076SOL    HW131127   5.167   5.095   4.767
10076SOL    HW231128   5.247   5.063   4.628
10077SOL     OW31129   5.209   3.568   6.817
10077SOL    HW131130   5.239   3.659   6.792
10077SOL    HW231131   5.122   3.547   6.773
10078SOL     OW31132   6.685   5.657   5.094
10078SOL    HW131133   6.614   5.603   5.051
10078SOL    HW231134   6.775   5.626   5.062
10079SOL     OW31135   4.824   3.055   4.136
10079SOL    HW131136   4.733   3.037   4.174
10079SOL    HW231137   4.887   2.984   4.168
10080SOL     OW31138   5.036   1.534   5.458
10080SOL    HW131139   4.949   1.518   5.503
10080SOL    HW231140   5.100   1.577   5.523
10081SOL     OW31141   1.634   4.312   0.741
10081SOL    HW131142   1.648   4.275   0.649
10081SOL    HW231143   1.536   4.310   0.763
10082SOL     OW31144   0.565   4.702   0.796
10082SOL    HW131145   0.626   4.759   0.741
10082SOL    HW231146   0.568   4.608   0.762
10083SOL     OW31147   3.276   5.432   2.724
10083SOL    HW131148   3.207   5.480   2.670
10083SOL    HW231149   3.258   5.333   2.722
10084SOL     OW31150   0.910   0.985   5.186
10084SOL    HW131151   0.914   1.051   5.261
10084SOL    HW231152   0.861   0.903   5.215
10085SOL     OW31153   5.348   0.287   0.526
10085SOL    HW131154   5.344   0.248   0.434
10085SOL    HW231155   5.339   0.386   0.520
10086SOL     OW31156   5.894   6.937   3.136
10086SOL    HW131157   5.823   7.007   3.121
10086SOL    HW231158   5.862   6.849   3.100
10087SOL     OW31159   1.405   5.950   5.733
10087SOL    HW131160   1.316   5.987   5.706
10087SOL    HW231161   1.437   5.997   5.815
10088SOL     OW31162   6.489   3.022   1.245
10088SOL    HW131163   6.509   3.065   1.334
10088SOL    HW231164   6.515   2.926   1.249
10089SOL     OW31165   3.554   1.398   1.630
10089SOL    HW131166   3.549   1.411   1.729
10089SOL    HW231167   3.465   1.417   1.589
10090SOL     OW31168   2.588   6.414   2.620
10090SOL    HW131169   2.687   6.399   2.616
10090SOL    HW231170   2.544   6.338   2.668
10091SOL     OW31171   6.430   4.644   5.677
10091SOL    HW131172   6.428   4.635   5.777
10091SOL    HW231173   6.525   4.644   5.645
10092SOL     OW31174   0.953   2.466   3.920
10092SOL    HW131175   1.016   2.389   3.933
10092SOL    HW231176   0.888   2.443   3.847
10093SOL     OW31177   4.738   4.892   6.607
10093SOL    HW131178   4.803   4.816   6.596
10093SOL    HW231179   4.645   4.857   6.597
10094SOL     OW31180   3.332   1.835   1.251
10094SOL    HW131181   3.431   1.845   1.255
10094SOL    HW231182   3.289   1.921   1.279
10095SOL     OW31183   4.217   2.922   5.609
10095SOL    HW131184   4.170   2.888   5.690
10095SOL    HW231185   4.191   2.866   5.530
10096SOL     OW31186   6.652   2.804   2.026
10096SOL    HW131187   6.615   2.897   2.015
10096SOL    HW231188   6.630   2.750   1.945
10097SOL     OW31189   0.288   1.262   0.380
10097SOL    HW131190   0.378   1.294   0.409
10097SOL    HW231191   0.260   1.184   0.436
10098SOL     OW31192   2.654   5.495   3.692
10098SOL    HW131193   2.747   5.469   3.665
10098SOL    HW231194   2.588   5.442   3.638
10099SOL     OW31195   0.281   5.053   2.078
10099SOL    HW131196   0.328   4.967   2.056
10099SOL    HW231197   0.273   5.108   1.995
10100SOL     OW31198   5.269   5.274   4.286
10100SOL    HW131199   5.228   5.341   4.349
10100SOL    HW231200   5.271   5.312   4.194
10101SOL     OW31201   6.938   3.231   1.031
10101SOL    HW131202   6.891   3.275   1.108
10101SOL    HW231203   6.876   3.165   0.988
10102SOL     OW31204   7.012   5.327   3.346
10102SOL    HW131205   0.039   5.251   3.305
10102SOL    HW231206   0.030   5.350   3.435
10103SOL     OW31207   6.901   5.690   6.110
10103SOL    HW131208   6.921   5.757   6.039
10103SOL    HW231209   6.962   5.704   6.188
10104SOL     OW31210   2.517   0.693   4.941
10104SOL    HW131211   2.434   0.643   4.964
10104SOL    HW231212   2.539   0.756   5.015
10105SOL     OW31213   3.274   0.965   4.886
10105SOL    HW131214   3.274   1.027   4.964
10105SOL    HW231215   3.286   1.018   4.802
10106SOL     OW31216   5.511   4.221   1.288
10106SOL    HW131217   5.503   4.122   1.292
10106SOL    HW231218   5.521   4.251   1.193
10107SOL     OW31219   5.325   5.118   0.589
10107SOL    HW131220   5.271   5.198   0.564
10107SOL    HW231221   5.344   5.063   0.508
10108SOL     OW31222   2.495   2.240   6.408
10108SOL    HW131223   2.412   2.273   6.364
10108SOL    HW231224   2.571   2.246   6.343
10109SOL     OW31225   1.153   2.191   1.343
10109SOL    HW131226   1.086   2.245   1.291
10109SOL    HW231227   1.106   2.121   1.396
10110SOL     OW31228   6.079   5.492   2.943
10110SOL    HW131229   6.028   5.521   2.862
10110SOL    HW231230   6.024   5.425   2.994
10111SOL     OW31231   0.875   2.350   1.656
10111SOL    HW131232   0.945   2.387   1.718
10111SOL    HW231233   0.840   2.423   1.598
10112SOL     OW31234   0.863   2.651   2.860
10112SOL    HW131235   0.945   2.673   2.912
10112SOL    HW231236   0.889   2.621   2.768
10113SOL     OW31237   6.439   0.361   6.129
10113SOL    HW131238   6.407   0.393   6.218
10113SOL    HW231239   6.504   0.428   6.091
10114SOL     OW31240   6.229   2.503   1.450
10114SOL    HW131241   6.232   2.477   1.354
10114SOL    HW231242   6.135   2.529   1.475
10115SOL     OW31243   3.652   2.790   5.632
10115SOL    HW131244   3.723   2.720   5.628
10115SOL    HW231245   3.589   2.777   5.555
10116SOL     OW31246   0.101   0.309   5.653
10116SOL    HW131247   0.193   0.271   5.649
10116SOL    HW231248   0.090   0.361   5.738
10117SOL     OW31249   6.311   4.783   3.484
10117SOL    HW131250   6.396   4.758   3.531
10117SOL    HW231251   6.252   4.834   3.546
10118SOL     OW31252   4.084   5.220   3.715
10118SOL    HW131253   4.102   5.240   3.619
10118SOL    HW231254   4.141   5.279   3.773
10119SOL     OW31255   6.538   6.068   5.878
10119SOL    HW131256   6.449   6.023   5.882
10119SOL    HW231257   6.607   6.012   5.924
10120SOL     OW31258   2.350   2.703   3.709
10120SOL    HW131259   2.311   2.678   3.620
10120SOL    HW231260   2.297   2.778   3.749
10121SOL     OW31261   0.172   4.739   0.718
10121SOL    HW131262   0.215   4.731   0.808
10121SOL    HW231263   0.225   4.802   0.661
10122SOL     OW31264   1.783   0.539   3.652
10122SOL    HW131265   1.806   0.528   3.748
10122SOL    HW231266   1.687   0.516   3.637
10123SOL     OW31267   6.626   5.088   6.695
10123SOL    HW131268   6.707   5.052   6.740
10123SOL    HW231269   6.544   5.057   6.743
10124SOL     OW31270   2.355   5.199   2.956
10124SOL    HW131271   2.399   5.115   2.989
10124SOL    HW231272   2.359   5.201   2.856
10125SOL     OW31273   1.299   0.402   4.863
10125SOL    HW131274   1.282   0.498   4.840
10125SOL    HW231275   1.264   0.343   4.790
10126SOL     OW31276   6.268   6.557   6.112
10126SOL    HW131277   6.291   6.488   6.180
10126SOL    HW231278   6.169   6.567   6.105
10127SOL     OW31279   3.153   6.833   5.391
10127SOL    HW131280   3.211   6.822   5.472
10127SOL    HW231281   3.203   6.883   5.321
10128SOL     OW31282   2.353   2.877   0.355
10128SOL    HW131283   2.283   2.868   0.284
10128SOL    HW231284   2.334   2.813   0.429
10129SOL     OW31285   5.963   1.645   4.266
10129SOL    HW131286   6.030   1.571   4.254
10129SOL    HW231287   6.010   1.733   4.260
10130SOL     OW31288   0.655   1.681   4.330
10130SOL    HW131289   0.637   1.761   4.389
10130SOL    HW231290   0.688   1.606   4.387
10131SOL     OW31291   2.239   6.844   4.384
10131SOL    HW131292   2.179   6.914   4.345
10131SOL    HW231293   2.333   6.878   4.383
10132SOL     OW31294   5.678   0.022   1.341
10132SOL    HW131295   5.705   0.041   1.247
10132SOL    HW231296   5.663   0.108   1.390
10133SOL     OW31297   5.081   6.434   0.878
10133SOL    HW131298   5.178   6.412   0.876
10133SOL    HW231299   5.054   6.476   0.791
10134SOL     OW31300   6.998   0.334   3.000
10134SOL    HW131301   0.065   0.375   2.980
10134SOL    HW231302   7.004   0.279   3.083
10135SOL     OW31303   6.010   0.578   3.283
10135SOL    HW131304   5.968   0.550   3.369
10135SOL    HW231305   6.011   0.678   3.277
10136SOL     OW31306   4.554   2.197   2.998
10136SOL    HW131307   4.640   2.161   2.962
10136SOL    HW231308   4.496   2.121   3.028
10137SOL     OW31309   6.368   5.026   5.194
10137SOL    HW131310   6.271   5.044   5.212
10137SOL    HW231311   6.398   4.949   5.250
10138SOL     OW31312   0.221   2.422   1.583
10138SOL    HW131313   0.123   2.409   1.596
10138SOL    HW231314   0.271   2.350   1.632
10139SOL     OW31315   2.892   2.534   6.624
10139SOL    HW131316   2.969   2.506   6.567
10139SOL    HW231317   2.818   2.568   6.565
10140SOL     OW31318   1.166   5.886   5.951
10140SOL    HW131319   1.211   5.923   6.033
10140SOL    HW231320   1.213   5.803   5.921
10141SOL     OW31321   1.890   2.473   4.105
10141SOL    HW131322   1.819   2.488   4.174
10141SOL    HW231323   1.949   2.554   4.100
10142SOL     OW31324   5.171   6.698   3.378
10142SOL    HW131325   5.114   6.616   3.371
10142SOL    HW231326   5.137   6.768   3.314
10143SOL     OW31327   5.451   2.817   6.393
10143SOL    HW131328   5.406   2.812   6.482
10143SOL    HW231329   5.383   2.837   6.322
10144SOL     OW31330   3.207   6.540   0.641
10144SOL    HW131331   3.198   6.635   0.611
10144SOL    HW231332   3.283   6.497   0.592
10145SOL     OW31333   5.767   6.766   6.221
10145SOL    HW131334   5.804   6.847   6.267
10145SOL    HW231335   5.729   6.793   6.133
10146SOL     OW31336   0.667   2.752   4.910
10146SOL    HW131337   0.684   2.844   4.877
10146SOL    HW231338   0.671   2.687   4.834
10147SOL     OW31339   4.101   5.931   5.745
10147SOL    HW131340   4.131   5.934   5.650
10147SOL    HW231341   4.175   5.895   5.803
10148SOL     OW31342   0.653   4.357   6.975
10148SOL    HW131343   0.639   4.274   6.920
10148SOL    HW231344   0.684   4.431   6.915
10149SOL     OW31345   4.140   3.165   1.162
10149SOL    HW131346   4.213   3.147   1.228
10149SOL    HW231347   4.066   3.100   1.176
10150SOL     OW31348   4.436   4.257   1.117
10150SOL    HW131349   4.512   4.312   1.084
10150SOL    HW231350   4.399   4.201   1.042
10151SOL     OW31351   6.275   0.640   5.995
10151SOL    HW131352   6.341   0.564   6.004
10151SOL    HW231353   6.271   0.690   6.081
10152SOL     OW31354   4.148   6.919   2.725
10152SOL    HW131355   4.068   6.914   2.786
10152SOL    HW231356   4.151   6.838   2.667
10153SOL     OW31357   4.732   4.769   2.165
10153SOL    HW131358   4.712   4.764   2.068
10153SOL    HW231359   4.824   4.807   2.178
10154SOL     OW31360   4.956   5.143   5.833
10154SOL    HW131361   4.950   5.140   5.733
10154SOL    HW231362   5.046   5.178   5.859
10155SOL     OW31363   4.359   1.823   4.276
10155SOL    HW131364   4.309   1.763   4.338
10155SOL    HW231365   4.448   1.782   4.255
10156SOL     OW31366   3.899   1.687   0.224
10156SOL    HW131367   3.955   1.631   0.163
10156SOL    HW231368   3.815   1.712   0.177
10157SOL     OW31369   0.384   4.395   1.495
10157SOL    HW131370   0.474   4.358   1.518
10157SOL    HW231371   0.395   4.477   1.438
10158SOL     OW31372   5.708   5.328   0.037
10158SOL    HW131373   5.745   5.414   0.071
10158SOL    HW231374   5.691   5.336   6.961
10159SOL     OW31375   3.229   2.852   2.093
10159SOL    HW131376   3.247   2.851   1.994
10159SOL    HW231377   3.142   2.807   2.112
10160SOL     OW31378   0.286   4.403   2.726
10160SOL    HW131379   0.381   4.388   2.702
10160SOL    HW231380   0.261   4.343   2.803
10161SOL     OW31381   5.254   3.156   5.264
10161SOL    HW131382   5.293   3.218   5.332
10161SOL    HW231383   5.312   3.075   5.257
10162SOL     OW31384   1.483   2.278   1.544
10162SOL    HW131385   1.533   2.278   1.630
10162SOL    HW231386   1.385   2.280   1.563
10163SOL     OW31387   2.864   5.509   4.967
10163SOL    HW131388   2.844   5.565   5.047
10163SOL    HW231389   2.804   5.429   4.967
10164SOL     OW31390   0.694   1.666   3.770
10164SOL    HW131391   0.597   1.665   3.793
10164SOL    HW231392   0.717   1.584   3.718
10165SOL     OW31393   0.904   3.498   4.289
10165SOL    HW131394   0.982   3.436   4.304
10165SOL    HW231395   0.936   3.593   4.291
10166SOL     OW31396   2.142   6.192   2.347
10166SOL    HW131397   2.238   6.176   2.369
10166SOL    HW231398   2.132   6.213   2.250
10167SOL     OW31399   2.053   1.684   6.687
10167SOL    HW131400   2.133   1.646   6.734
10167SOL    HW231401   2.079   1.769   6.642
10168SOL     OW31402   6.810   0.305   6.430
10168SOL    HW131403   6.882   0.264   6.485
10168SOL    HW231404   6.724   0.256   6.446
10169SOL     OW31405   4.991   4.619   3.954
10169SOL    HW131406   4.943   4.703   3.930
10169SOL    HW231407   5.065   4.603   3.888
10170SOL     OW31408   5.432   5.731   0.105
10170SOL    HW131409   5.449   5.665   0.178
10170SOL    HW231410   5.501   5.722   0.034
10171SOL     OW31411   1.986   4.846   5.030
10171SOL    HW131412   2.062   4.807   5.083
10171SOL    HW231413   1.901   4.799   5.055
10172SOL     OW31414   6.677   0.912   3.119
10172SOL    HW131415   6.711   0.862   3.039
10172SOL    HW231416   6.582   0.939   3.104
10173SOL     OW31417   3.444   3.562   5.085
10173SOL    HW131418   3.438   3.634   5.015
10173SOL    HW231419   3.450   3.473   5.040
10174SOL     OW31420   4.287   5.114   1.560
10174SOL    HW131421   4.260   5.111   1.656
10174SOL    HW231422   4.305   5.021   1.528
10175SOL     OW31423   0.063   6.932   4.425
10175SOL    HW131424   0.152   6.942   4.470
10175SOL    HW231425   0.005   6.870   4.479
10176SOL     OW31426   6.647   1.084   4.669
10176SOL    HW131427   6.618   1.175   4.639
10176SOL    HW231428   6.746   1.078   4.670
10177SOL     OW31429   2.764   1.095   3.769
10177SOL    HW131430   2.794   1.003   3.793
10177SOL    HW231431   2.745   1.099   3.671
10178SOL     OW31432   0.610   1.732   1.111
10178SOL    HW131433   0.574   1.808   1.166
10178SOL    HW231434   0.546   1.712   1.037
10179SOL     OW31435   0.930   4.238   0.142
10179SOL    HW131436   1.021   4.254   0.181
10179SOL    HW231437   0.909   4.310   0.076
10180SOL     OW31438   4.215   0.224   6.007
10180SOL    HW131439   4.299   0.187   5.967
10180SOL    HW231440   4.238   0.293   6.075
10181SOL     OW31441   5.938   3.312   2.755
10181SOL    HW131442   5.846   3.277   2.769
10181SOL    HW231443   5.969   3.287   2.663
10182SOL     OW31444   4.339   1.212   1.279
10182SOL    HW131445   4.306   1.136   1.223
10182SOL    HW231446   4.277   1.290   1.269
10183SOL     OW31447   5.442   1.042   5.361
10183SOL    HW131448   5.415   0.946   5.354
10183SOL    HW231449   5.452   1.067   5.457
10184SOL     OW31450   5.001   2.100   5.924
10184SOL    HW131451   4.989   2.191   5.884
10184SOL    HW231452   5.052   2.108   6.010
10185SOL     OW31453   3.589   5.478   1.175
10185SOL    HW131454   3.504   5.530   1.166
10185SOL    HW231455   3.666   5.542   1.174
10186SOL     OW31456   3.499   3.314   6.445
10186SOL    HW131457   3.410   3.359   6.452
10186SOL    HW231458   3.497   3.228   6.496
10187SOL     OW31459   1.960   4.562   5.312
10187SOL    HW131460   1.900   4.530   5.385
10187SOL    HW231461   2.008   4.484   5.271
10188SOL     OW31462   3.136   0.167   6.056
10188SOL    HW131463   3.176   0.076   6.052
10188SOL    HW231464   3.113   0.189   6.151
10189SOL     OW31465   2.023   1.889   5.422
10189SOL    HW131466   2.061   1.956   5.358
10189SOL    HW231467   2.096   1.858   5.483
10190SOL     OW31468   4.522   4.715   1.031
10190SOL    HW131469   4.546   4.739   0.936
10190SOL    HW231470   4.461   4.785   1.068
10191SOL     OW31471   5.671   6.915   0.258
10191SOL    HW131472   5.581   6.943   0.291
10191SOL    HW231473   5.742   6.963   0.311
10192SOL     OW31474   1.768   1.139   4.532
10192SOL    HW131475   1.706   1.070   4.569
10192SOL    HW231476   1.749   1.227   4.576
10193SOL     OW31477   3.743   3.396   3.692
10193SOL    HW131478   3.798   3.474   3.662
10193SOL    HW231479   3.669   3.380   3.628
10194SOL     OW31480   2.883   0.284   2.621
10194SOL    HW131481   2.928   0.338   2.550
10194SOL    HW231482   2.802   0.239   2.584
10195SOL     OW31483   5.286   6.840   2.637
10195SOL    HW131484   5.206   6.878   2.682
10195SOL    HW231485   5.365   6.900   2.651
10196SOL     OW31486   5.745   3.356   4.141
10196SOL    HW131487   5.815   3.392   4.203
10196SOL    HW231488   5.746   3.407   4.055
10197SOL     OW31489   5.667   1.289   2.312
10197SOL    HW131490   5.596   1.233   2.355
10197SOL    HW231491   5.625   1.365   2.264
10198SOL     OW31492   2.313   0.164   0.558
10198SOL    HW131493   2.276   0.196   0.471
10198SOL    HW231494   2.240   0.163   0.627
10199SOL     OW31495   0.824   1.852   0.591
10199SOL    HW131496   0.889   1.927   0.581
10199SOL    HW231497   0.747   1.881   0.647
10200SOL     OW31498   6.256   4.859   5.584
10200SOL    HW131499   6.212   4.913   5.655
10200SOL    HW231500   6.327   4.801   5.624
10201SOL     OW31501   1.777   5.042   2.928
10201SOL    HW131502   1.803   5.138   2.923
10201SOL    HW231503   1.835   4.996   2.996
10202SOL     OW31504   0.796   2.570   2.560
10202SOL    HW131505   0.821   2.591   2.466
10202SOL    HW231506   0.729   2.637   2.593
10203SOL     OW31507   1.144   3.391   2.019
10203SOL    HW131508   1.150   3.432   1.928
10203SOL    HW231509   1.188   3.452   2.085
10204SOL     OW31510   3.170   5.205   4.072
10204SOL    HW131511   3.181   5.114   4.033
10204SOL    HW231512   3.101   5.255   4.020
10205SOL     OW31513   4.492   1.253   2.801
10205SOL    HW131514   4.487   1.318   2.876
10205SOL    HW231515   4.404   1.205   2.792
10206SOL     OW31516   4.733   0.337   6.313
10206SOL    HW131517   4.772   0.371   6.228
10206SOL    HW231518   4.746   0.406   6.385
10207SOL     OW31519   4.392   1.018   3.081
10207SOL    HW131520   4.327   1.093   3.069
10207SOL    HW231521   4.344   0.935   3.109
10208SOL     OW31522   5.635   3.854   5.187
10208SOL    HW131523   5.570   3.778   5.184
10208SOL    HW231524   5.683   3.853   5.275
10209SOL     OW31525   5.290   6.850   6.732
10209SOL    HW131526   5.315   6.933   6.781
10209SOL    HW231527   5.264   6.872   6.638
10210SOL     OW31528   5.124   5.748   1.836
10210SOL    HW131529   5.201   5.750   1.773
10210SOL    HW231530   5.148   5.798   1.920
10211SOL     OW31531   3.715   5.722   4.790
10211SOL    HW131532   3.674   5.700   4.878
10211SOL    HW231533   3.681   5.659   4.720
10212SOL     OW31534   6.282   6.456   5.235
10212SOL    HW131535   6.246   6.547   5.258
10212SOL    HW231536   6.290   6.446   5.136
10213SOL     OW31537   5.225   0.444   3.401
10213SOL    HW131538   5.270   0.500   3.470
10213SOL    HW231539   5.216   0.496   3.316
10214SOL     OW31540   6.889   0.295   1.829
10214SOL    HW131541   6.860   0.389   1.813
10214SOL    HW231542   6.898   0.280   1.928
10215SOL     OW31543   3.735   2.695   0.096
10215SOL    HW131544   3.803   2.666   0.029
10215SOL    HW231545   3.692   2.780   0.066
10216SOL     OW31546   4.925   0.423   2.497
10216SOL    HW131547   4.988   0.416   2.420
10216SOL    HW231548   4.876   0.510   2.492
10217SOL     OW31549   2.945   2.046   5.719
10217SOL    HW131550   3.023   2.068   5.662
10217SOL    HW231551   2.867   2.103   5.693
10218SOL     OW31552   2.296   2.776   1.020
10218SOL    HW131553   2.210   2.784   0.970
10218SOL    HW231554   2.351   2.702   0.980
10219SOL     OW31555   1.081   4.154   0.583
10219SOL    HW131556   1.078   4.146   0.683
10219SOL    HW231557   1.005   4.103   0.543
10220SOL     OW31558   4.116   2.323   0.683
10220SOL    HW131559   4.153   2.268   0.609
10220SOL    HW231560   4.177   2.317   0.763
10221SOL     OW31561   3.122   0.814   5.367
10221SOL    HW131562   3.169   0.730   5.392
10221SOL    HW231563   3.054   0.794   5.296
10222SOL     OW31564   2.085   4.940   6.062
10222SOL    HW131565   2.180   4.962   6.083
10222SOL    HW231566   2.069   4.952   5.964
10223SOL     OW31567   6.500   4.740   0.412
10223SOL    HW131568   6.415   4.727   0.360
10223SOL    HW231569   6.518   4.838   0.421
10224SOL     OW31570   2.123   6.599   4.789
10224SOL    HW131571   2.221   6.590   4.809
10224SOL    HW231572   2.108   6.680   4.733
10225SOL     OW31573   5.571   5.816   4.715
10225SOL    HW131574   5.548   5.812   4.812
10225SOL    HW231575   5.663   5.855   4.703
10226SOL     OW31576   0.054   2.411   0.438
10226SOL    HW131577   0.056   2.457   0.526
10226SOL    HW231578   7.007   2.339   0.439
10227SOL     OW31579   5.431   6.130   6.576
10227SOL    HW131580   5.355   6.097   6.633
10227SOL    HW231581   5.503   6.168   6.635
10228SOL     OW31582   0.645   3.513   3.291
10228SOL    HW131583   0.732   3.490   3.246
10228SOL    HW231584   0.582   3.436   3.283
10229SOL     OW31585   2.372   1.019   2.029
10229SOL    HW131586   2.314   1.046   1.952
10229SOL    HW231587   2.466   1.048   2.012
10230SOL     OW31588   6.497   6.671   4.651
10230SOL    HW131589   6.564   6.608   4.690
10230SOL    HW231590   6.543   6.751   4.615
10231SOL     OW31591   4.380   6.437   4.417
10231SOL    HW131592   4.391   6.518   4.358
10231SOL    HW231593   4.471   6.404   4.444
10232SOL     OW31594   3.851   2.123   4.742
10232SOL    HW131595   3.863   2.025   4.757
10232SOL    HW231596   3.907   2.151   4.663
10233SOL     OW31597   4.593   1.053   5.457
10233SOL    HW131598   4.604   1.030   5.553
10233SOL    HW231599   4.670   1.016   5.405
10234SOL     OW31600   6.048   5.867   1.242
10234SOL    HW131601   6.106   5.942   1.209
10234SOL    HW231602   5.979   5.903   1.304
10235SOL     OW31603   5.117   1.366   5.995
10235SOL    HW131604   5.119   1.466   5.994
10235SOL    HW231605   5.204   1.331   6.030
10236SOL     OW31606   2.307   5.962   3.010
10236SOL    HW131607   2.259   6.046   2.984
10236SOL    HW231608   2.382   5.985   3.072
10237SOL     OW31609   6.854   2.292   3.349
10237SOL    HW131610   6.907   2.320   3.269
10237SOL    HW231611   6.845   2.369   3.412
10238SOL     OW31612   4.593   5.038   4.348
10238SOL    HW131613   4.601   4.975   4.270
10238SOL    HW231614   4.570   5.129   4.314
10239SOL     OW31615   6.960   3.619   4.112
10239SOL    HW131616   6.967   3.612   4.012
10239SOL    HW231617   6.930   3.711   4.137
10240SOL     OW31618   6.691   3.540   3.547
10240SOL    HW131619   6.616   3.558   3.610
10240SOL    HW231620   6.684   3.602   3.469
10241SOL     OW31621   2.028   1.485   3.600
10241SOL    HW131622   1.987   1.576   3.605
10241SOL    HW231623   1.967   1.423   3.550
10242SOL     OW31624   0.838   6.392   6.065
10242SOL    HW131625   0.753   6.428   6.104
10242SOL    HW231626   0.863   6.445   5.985
10243SOL     OW31627   0.679   5.784   2.650
10243SOL    HW131628   0.595   5.806   2.699
10243SOL    HW231629   0.756   5.830   2.694
10244SOL     OW31630   2.011   6.387   6.756
10244SOL    HW131631   1.987   6.471   6.805
10244SOL    HW231632   1.954   6.311   6.790
10245SOL     OW31633   2.001   2.389   7.002
10245SOL    HW131634   1.941   2.311   7.022
10245SOL    HW231635   2.096   2.363   7.022
10246SOL     OW31636   3.929   3.934   4.258
10246SOL    HW131637   3.949   3.951   4.161
10246SOL    HW231638   3.924   3.836   4.275
10247SOL     OW31639   1.570   5.667   5.796
10247SOL    HW131640   1.529   5.757   5.780
10247SOL    HW231641   1.662   5.665   5.756
10248SOL     OW31642   4.745   0.162   2.197
10248SOL    HW131643   4.843   0.144   2.206
10248SOL    HW231644   4.694   0.091   2.247
10249SOL     OW31645   3.848   1.056   0.065
10249SOL    HW131646   3.853   1.017   6.996
10249SOL    HW231647   3.937   1.092   0.090
10250SOL     OW31648   6.287   0.315   0.185
10250SOL    HW131649   6.229   0.240   0.152
10250SOL    HW231650   6.242   0.361   0.261
10251SOL     OW31651   3.848   4.495   6.499
10251SOL    HW131652   3.778   4.552   6.457
10251SOL    HW231653   3.938   4.523   6.466
10252SOL     OW31654   6.585   5.244   2.331
10252SOL    HW131655   6.639   5.184   2.390
10252SOL    HW231656   6.610   5.228   2.236
10253SOL     OW31657   3.646   5.029   6.499
10253SOL    HW131658   3.588   4.949   6.511
10253SOL    HW231659   3.590   5.107   6.473
10254SOL     OW31660   2.498   1.948   4.490
10254SOL    HW131661   2.483   1.916   4.583
10254SOL    HW231662   2.521   1.871   4.431
10255SOL     OW31663   2.886   6.026   2.904
10255SOL    HW131664   2.927   6.019   2.994
10255SOL    HW231665   2.790   5.998   2.908
10256SOL     OW31666   5.773   6.112   6.818
10256SOL    HW131667   5.778   6.125   6.917
10256SOL    HW231668   5.782   6.015   6.796
10257SOL     OW31669   1.809   6.655   6.380
10257SOL    HW131670   1.902   6.630   6.352
10257SOL    HW231671   1.802   6.755   6.384
10258SOL     OW31672   4.020   1.067   3.518
10258SOL    HW131673   3.965   0.986   3.535
10258SOL    HW231674   4.062   1.061   3.427
10259SOL     OW31675   0.825   3.503   3.521
10259SOL    HW131676   0.741   3.540   3.480
10259SOL    HW231677   0.895   3.494   3.450
10260SOL     OW31678   0.180   6.959   1.235
10260SOL    HW131679   0.095   6.967   1.287
10260SOL    HW231680   0.256   6.945   1.299
10261SOL     OW31681   2.206   6.667   1.467
10261SOL    HW131682   2.110   6.657   1.491
10261SOL    HW231683   2.214   6.713   1.378
10262SOL     OW31684   2.029   5.089   5.170
10262SOL    HW131685   1.987   5.011   5.123
10262SOL    HW231686   2.021   5.076   5.269
10263SOL     OW31687   6.263   1.832   5.968
10263SOL    HW131688   6.329   1.774   5.921
10263SOL    HW231689   6.240   1.792   6.056
10264SOL     OW31690   0.460   6.471   6.792
10264SOL    HW131691   0.498   6.555   6.831
10264SOL    HW231692   0.372   6.452   6.835
10265SOL     OW31693   4.548   1.799   2.268
10265SOL    HW131694   4.579   1.814   2.362
10265SOL    HW231695   4.553   1.885   2.217
10266SOL     OW31696   3.830   4.184   6.281
10266SOL    HW131697   3.865   4.093   6.263
10266SOL    HW231698   3.906   4.248   6.295
10267SOL     OW31699   6.075   1.956   6.365
10267SOL    HW131700   6.033   1.986   6.279
10267SOL    HW231701   6.103   2.036   6.418
10268SOL     OW31702   6.084   4.781   1.785
10268SOL    HW131703   6.093   4.874   1.751
10268SOL    HW231704   5.998   4.772   1.836
10269SOL     OW31705   2.916   2.979   6.266
10269SOL    HW131706   2.962   2.890   6.263
10269SOL    HW231707   2.983   3.051   6.274
10270SOL     OW31708   2.700   6.108   0.583
10270SOL    HW131709   2.764   6.035   0.606
10270SOL    HW231710   2.745   6.175   0.524
10271SOL     OW31711   3.491   5.239   0.766
10271SOL    HW131712   3.454   5.146   0.775
10271SOL    HW231713   3.563   5.239   0.696
10272SOL     OW31714   0.674   0.962   6.047
10272SOL    HW131715   0.674   0.863   6.033
10272SOL    HW231716   0.618   0.985   6.126
10273SOL     OW31717   4.291   5.779   4.537
10273SOL    HW131718   4.252   5.868   4.561
10273SOL    HW231719   4.342   5.787   4.451
10274SOL     OW31720   2.155   6.141   6.088
10274SOL    HW131721   2.166   6.177   6.181
10274SOL    HW231722   2.100   6.204   6.034
10275SOL     OW31723   0.887   6.058   2.022
10275SOL    HW131724   0.925   6.121   2.090
10275SOL    HW231725   0.891   6.101   1.932
10276SOL     OW31726   6.766   6.344   6.243
10276SOL    HW131727   6.817   6.402   6.306
10276SOL    HW231728   6.767   6.385   6.152
10277SOL     OW31729   1.894   5.199   3.356
10277SOL    HW131730   1.847   5.286   3.350
10277SOL    HW231731   1.855   5.135   3.289
10278SOL     OW31732   5.908   0.609   5.677
10278SOL    HW131733   5.951   0.699   5.678
10278SOL    HW231734   5.917   0.567   5.767
10279SOL     OW31735   3.368   6.551   3.442
10279SOL    HW131736   3.376   6.577   3.538
10279SOL    HW231737   3.386   6.631   3.385
10280SOL     OW31738   2.902   2.949   6.750
10280SOL    HW131739   2.840   2.935   6.673
10280SOL    HW231740   2.942   2.862   6.777
10281SOL     OW31741   4.083   6.704   3.770
10281SOL    HW131742   4.079   6.788   3.825
10281SOL    HW231743   4.045   6.722   3.679
10282SOL     OW31744   1.090   2.558   4.749
10282SOL    HW131745   1.141   2.618   4.811
10282SOL    HW231746   1.114   2.462   4.769
10283SOL     OW31747   0.965   3.319   5.898
10283SOL    HW131748   1.022   3.238   5.909
10283SOL    HW231749   0.871   3.292   5.880
10284SOL     OW31750   5.501   3.767   6.579
10284SOL    HW131751   5.496   3.698   6.508
10284SOL    HW231752   5.586   3.819   6.569
10285SOL     OW31753   6.001   0.153   0.636
10285SOL    HW131754   5.964   0.192   0.720
10285SOL    HW231755   6.066   0.080   0.657
10286SOL     OW31756   4.628   0.884   3.678
10286SOL    HW131757   4.636   0.845   3.587
10286SOL    HW231758   4.581   0.819   3.738
10287SOL     OW31759   2.021   5.825   1.623
10287SOL    HW131760   2.020   5.858   1.529
10287SOL    HW231761   2.111   5.840   1.662
10288SOL     OW31762   5.078   6.256   3.984
10288SOL    HW131763   4.987   6.267   4.023
10288SOL    HW231764   5.145   6.299   4.045
10289SOL     OW31765   3.119   1.511   1.630
10289SOL    HW131766   3.154   1.490   1.539
10289SOL    HW231767   3.062   1.593   1.625
10290SOL     OW31768   2.958   3.773   2.548
10290SOL    HW131769   2.944   3.734   2.457
10290SOL    HW231770   2.999   3.705   2.608
10291SOL     OW31771   3.858   0.361   5.822
10291SOL    HW131772   3.852   0.448   5.872
10291SOL    HW231773   3.768   0.318   5.819
10292SOL     OW31774   7.004   0.888   4.431
10292SOL    HW131775   0.075   0.916   4.451
10292SOL    HW231776   6.984   0.904   4.334
10293SOL     OW31777   2.400   5.714   2.985
10293SOL    HW131778   2.496   5.707   2.961
10293SOL    HW231779   2.368   5.807   2.968
10294SOL     OW31780   6.127   1.618   3.359
10294SOL    HW131781   6.112   1.596   3.263
10294SOL    HW231782   6.141   1.533   3.411
10295SOL     OW31783   0.923   5.189   5.482
10295SOL    HW131784   0.948   5.171   5.577
10295SOL    HW231785   0.901   5.103   5.437
10296SOL     OW31786   6.048   1.851   0.899
10296SOL    HW131787   6.112   1.787   0.857
10296SOL    HW231788   6.045   1.836   0.997
10297SOL     OW31789   2.070   5.069   4.495
10297SOL    HW131790   2.043   5.021   4.578
10297SOL    HW231791   2.103   5.003   4.427
10298SOL     OW31792   5.493   3.538   3.442
10298SOL    HW131793   5.527   3.444   3.445
10298SOL    HW231794   5.566   3.599   3.411
10299SOL     OW31795   4.928   4.964   2.299
10299SOL    HW131796   5.019   4.924   2.302
10299SOL    HW231797   4.897   4.986   2.391
10300SOL     OW31798   2.110   5.028   2.764
10300SOL    HW131799   2.035   5.076   2.720
10300SOL    HW231800   2.197   5.056   2.722
10301SOL     OW31801   5.629   1.850   1.827
10301SOL    HW131802   5.537   1.816   1.808
10301SOL    HW231803   5.670   1.796   1.901
10302SOL     OW31804   1.489   5.345   3.095
10302SOL    HW131805   1.466   5.394   3.011
10302SOL    HW231806   1.472   5.247   3.082
10303SOL     OW31807   3.549   2.932   0.989
10303SOL    HW131808   3.452   2.958   0.992
10303SOL    HW231809   3.564   2.873   0.910
10304SOL     OW31810   6.216   6.388   3.762
10304SOL    HW131811   6.183   6.294   3.755
10304SOL    HW231812   6.145   6.451   3.731
10305SOL     OW31813   1.700   5.787   1.414
10305SOL    HW131814   1.651   5.836   1.342
10305SOL    HW231815   1.770   5.846   1.453
10306SOL     OW31816   4.438   4.945   0.422
10306SOL    HW131817   4.347   4.903   0.419
10306SOL    HW231818   4.446   5.012   0.349
10307SOL     OW31819   2.852   0.959   5.453
10307SOL    HW131820   2.876   0.916   5.366
10307SOL    HW231821   2.935   0.995   5.496
10308SOL     OW31822   3.386   5.711   3.449
10308SOL    HW131823   3.404   5.792   3.393
10308SOL    HW231824   3.288   5.692   3.451
10309SOL     OW31825   0.852   6.459   3.212
10309SOL    HW131826   0.927   6.399   3.239
10309SOL    HW231827   0.850   6.466   3.112
10310SOL     OW31828   3.910   3.524   4.084
10310SOL    HW131829   3.953   3.496   4.169
10310SOL    HW231830   3.980   3.533   4.012
10311SOL     OW31831   0.047   6.081   0.682
10311SOL    HW131832   0.062   6.171   0.722
10311SOL    HW231833   0.134   6.032   0.677
10312SOL     OW31834   1.524   5.058   1.145
10312SOL    HW131835   1.620   5.033   1.162
10312SOL    HW231836   1.483   4.991   1.083
10313SOL     OW31837   5.921   6.116   3.488
10313SOL    HW131838   5.956   6.079   3.401
10313SOL    HW231839   5.890   6.041   3.546
10314SOL     OW31840   6.584   5.488   6.060
10314SOL    HW131841   6.635   5.512   6.143
10314SOL    HW231842   6.589   5.564   5.995
10315SOL     OW31843   6.370   5.873   4.779
10315SOL    HW131844   6.365   5.901   4.874
10315SOL    HW231845   6.394   5.952   4.722
10316SOL     OW31846   6.839   4.031   2.727
10316SOL    HW131847   6.825   4.053   2.824
10316SOL    HW231848   6.932   3.997   2.713
10317SOL     OW31849   3.572   4.739   1.108
10317SOL    HW131850   3.621   4.652   1.111
10317SOL    HW231851   3.474   4.722   1.115
10318SOL     OW31852   6.645   5.659   2.221
10318SOL    HW131853   6.738   5.645   2.187
10318SOL    HW231854   6.610   5.746   2.186
10319SOL     OW31855   5.021   6.138   4.331
10319SOL    HW131856   5.114   6.120   4.300
10319SOL    HW231857   4.962   6.155   4.252
10320SOL     OW31858   4.627   6.071   1.249
10320SOL    HW131859   4.541   6.029   1.219
10320SOL    HW231860   4.693   6.068   1.174
10321SOL     OW31861   4.229   6.704   4.033
10321SOL    HW131862   4.256   6.612   4.060
10321SOL    HW231863   4.141   6.701   3.987
10322SOL     OW31864   6.589   2.591   0.121
10322SOL    HW131865   6.629   2.621   0.208
10322SOL    HW231866   6.607   2.661   0.051
10323SOL     OW31867   5.943   2.278   5.075
10323SOL    HW131868   5.949   2.268   5.175
10323SOL    HW231869   5.850   2.306   5.050
10324SOL     OW31870   3.033   3.778   3.690
10324SOL    HW131871   2.981   3.705   3.646
10324SOL    HW231872   2.994   3.798   3.780
10325SOL     OW31873   0.948   3.602   3.747
10325SOL    HW131874   0.893   3.577   3.668
10325SOL    HW231875   1.045   3.584   3.728
10326SOL     OW31876   4.797   1.345   1.392
10326SOL    HW131877   4.863   1.281   1.431
10326SOL    HW231878   4.845   1.425   1.356
10327SOL     OW31879   0.159   0.887   3.787
10327SOL    HW131880   0.232   0.891   3.719
10327SOL    HW231881   0.169   0.805   3.843
10328SOL     OW31882   5.893   2.872   2.188
10328SOL    HW131883   5.933   2.952   2.145
10328SOL    HW231884   5.822   2.834   2.128
10329SOL     OW31885   3.753   6.268   2.087
10329SOL    HW131886   3.824   6.199   2.102
10329SOL    HW231887   3.788   6.358   2.116
10330SOL     OW31888   3.740   4.478   1.108
10330SOL    HW131889   3.732   4.398   1.168
10330SOL    HW231890   3.816   4.535   1.139
10331SOL     OW31891   5.437   0.521   4.212
10331SOL    HW131892   5.418   0.585   4.286
10331SOL    HW231893   5.423   0.567   4.124
10332SOL     OW31894   0.179   1.728   0.011
10332SOL    HW131895   0.224   1.639   0.005
10332SOL    HW231896   0.081   1.716   0.020
10333SOL     OW31897   4.851   3.866   4.625
10333SOL    HW131898   4.872   3.890   4.720
10333SOL    HW231899   4.919   3.800   4.591
10334SOL     OW31900   0.877   4.758   5.075
10334SOL    HW131901   0.878   4.852   5.109
10334SOL    HW231902   0.971   4.725   5.066
10335SOL     OW31903   2.149   5.262   1.920
10335SOL    HW131904   2.070   5.321   1.902
10335SOL    HW231905   2.138   5.175   1.871
10336SOL     OW31906   4.319   6.328   3.094
10336SOL    HW131907   4.342   6.389   3.018
10336SOL    HW231908   4.228   6.290   3.079
10337SOL     OW31909   0.696   4.962   5.231
10337SOL    HW131910   0.622   4.895   5.236
10337SOL    HW231911   0.764   4.942   5.301
10338SOL     OW31912   3.825   4.857   3.471
10338SOL    HW131913   3.905   4.835   3.414
10338SOL    HW231914   3.846   4.835   3.567
10339SOL     OW31915   2.978   5.418   0.680
10339SOL    HW131916   2.981   5.445   0.583
10339SOL    HW231917   3.005   5.496   0.737
10340SOL     OW31918   1.728   7.016   6.619
10340SOL    HW131919   1.790   7.019   6.698
10340SOL    HW231920   1.661   6.943   6.633
10341SOL     OW31921   1.500   1.660   2.524
10341SOL    HW131922   1.596   1.689   2.532
10341SOL    HW231923   1.489   1.602   2.444
10342SOL     OW31924   2.711   6.704   4.459
10342SOL    HW131925   2.711   6.679   4.556
10342SOL    HW231926   2.778   6.777   4.443
10343SOL     OW31927   2.035   2.944   4.128
10343SOL    HW131928   2.087   2.987   4.203
10343SOL    HW231929   1.947   2.913   4.163
10344SOL     OW31930   4.056   3.947   6.960
10344SOL    HW131931   4.083   4.014   0.006
10344SOL    HW231932   4.133   3.886   6.940
10345SOL     OW31933   1.669   1.746   5.908
10345SOL    HW131934   1.683   1.647   5.912
10345SOL    HW231935   1.704   1.781   5.822
10346SOL     OW31936   5.370   5.514   0.264
10346SOL    HW131937   5.343   5.578   0.336
10346SOL    HW231938   5.289   5.484   0.214
10347SOL     OW31939   4.800   1.768   2.091
10347SOL    HW131940   4.782   1.691   2.153
10347SOL    HW231941   4.712   1.806   2.059
10348SOL     OW31942   0.064   4.990   6.080
10348SOL    HW131943   0.019   4.963   5.995
10348SOL    HW231944   7.018   4.999   6.152
10349SOL     OW31945   0.187   1.563   1.240
10349SOL    HW131946   0.168   1.494   1.170
10349SOL    HW231947   0.278   1.547   1.279
10350SOL     OW31948   2.278   4.354   4.550
10350SOL    HW131949   2.318   4.333   4.640
10350SOL    HW231950   2.193   4.406   4.563
10351SOL     OW31951   4.550   4.553   4.927
10351SOL    HW131952   4.536   4.549   5.026
10351SOL    HW231953   4.637   4.510   4.904
10352SOL     OW31954   5.400   1.254   6.759
10352SOL    HW131955   5.312   1.270   6.715
10352SOL    HW231956   5.422   1.156   6.755
10353SOL     OW31957   6.553   2.773   3.601
10353SOL    HW131958   6.610   2.791   3.521
10353SOL    HW231959   6.456   2.779   3.575
10354SOL     OW31960   6.138   3.176   1.021
10354SOL    HW131961   6.225   3.208   0.983
10354SOL    HW231962   6.100   3.244   1.082
10355SOL     OW31963   0.447   1.707   0.853
10355SOL    HW131964   0.358   1.678   0.889
10355SOL    HW231965   0.471   1.652   0.773
10356SOL     OW31966   5.999   3.415   5.676
10356SOL    HW131967   6.067   3.378   5.739
10356SOL    HW231968   5.977   3.509   5.702
10357SOL     OW31969   0.911   1.098   6.005
10357SOL    HW131970   0.831   1.038   6.012
10357SOL    HW231971   0.933   1.134   6.096
10358SOL     OW31972   0.949   2.522   3.246
10358SOL    HW131973   0.970   2.443   3.188
10358SOL    HW231974   0.980   2.605   3.201
10359SOL     OW31975   5.990   2.423   2.004
10359SOL    HW131976   6.063   2.485   1.976
10359SOL    HW231977   5.966   2.440   2.100
10360SOL     OW31978   6.013   4.246   1.787
10360SOL    HW131979   5.972   4.220   1.700
10360SOL    HW231980   6.069   4.328   1.774
10361SOL     OW31981   6.707   2.042   2.536
10361SOL    HW131982   6.789   1.997   2.502
10361SOL    HW231983   6.694   2.020   2.633
10362SOL     OW31984   1.020   5.700   1.605
10362SOL    HW131985   0.951   5.762   1.641
10362SOL    HW231986   0.976   5.622   1.561
10363SOL     OW31987   5.501   4.513   6.565
10363SOL    HW131988   5.548   4.597   6.538
10363SOL    HW231989   5.469   4.521   6.660
10364SOL     OW31990   6.246   4.465   2.628
10364SOL    HW131991   6.313   4.418   2.686
10364SOL    HW231992   6.158   4.419   2.635
10365SOL     OW31993   5.793   5.157   0.654
10365SOL    HW131994   5.820   5.203   0.738
10365SOL    HW231995   5.694   5.145   0.652
10366SOL     OW31996   2.709   6.429   3.177
10366SOL    HW131997   2.806   6.447   3.160
10366SOL    HW231998   2.699   6.379   3.263
10367SOL     OW31999   5.909   6.428   1.426
10367SOL    HW132000   5.950   6.456   1.339
10367SOL    HW232001   5.959   6.350   1.463
10368SOL     OW32002   1.919   6.686   1.510
10368SOL    HW132003   1.902   6.694   1.412
10368SOL    HW232004   1.883   6.767   1.556
10369SOL     OW32005   2.934   0.172   5.804
10369SOL    HW132006   2.970   0.208   5.890
10369SOL    HW232007   2.899   0.080   5.819
10370SOL     OW32008   1.334   0.827   5.819
10370SOL    HW132009   1.246   0.873   5.828
10370SOL    HW232010   1.343   0.789   5.727
10371SOL     OW32011   4.626   5.331   2.722
10371SOL    HW132012   4.600   5.264   2.653
10371SOL    HW232013   4.590   5.421   2.697
10372SOL     OW32014   3.031   6.447   1.899
10372SOL    HW132015   2.977   6.365   1.881
10372SOL    HW232016   3.094   6.463   1.824
10373SOL     OW32017   6.587   1.613   6.081
10373SOL    HW132018   6.681   1.590   6.106
10373SOL    HW232019   6.572   1.589   5.985
10374SOL     OW32020   3.758   5.322   3.281
10374SOL    HW132021   3.682   5.374   3.321
10374SOL    HW232022   3.792   5.256   3.348
10375SOL     OW32023   2.512   4.884   6.951
10375SOL    HW132024   2.530   4.859   0.024
10375SOL    HW232025   2.544   4.977   6.934
10376SOL     OW32026   2.249   4.934   3.507
10376SOL    HW132027   2.343   4.948   3.538
10376SOL    HW232028   2.186   4.986   3.566
10377SOL     OW32029   1.775   0.998   2.219
10377SOL    HW132030   1.828   0.943   2.283
10377SOL    HW232031   1.837   1.043   2.155
10378SOL     OW32032   7.004   5.663   4.153
10378SOL    HW132033   0.055   5.675   4.086
10378SOL    HW232034   6.999   5.566   4.179
10379SOL     OW32035   1.963   6.694   4.310
10379SOL    HW132036   1.963   6.623   4.240
10379SOL    HW232037   2.057   6.726   4.326
10380SOL     OW32038   2.810   2.327   4.637
10380SOL    HW132039   2.841   2.260   4.570
10380SOL    HW232040   2.874   2.330   4.714
10381SOL     OW32041   4.431   6.320   2.323
10381SOL    HW132042   4.434   6.306   2.224
10381SOL    HW232043   4.483   6.248   2.369
10382SOL     OW32044   4.206   5.936   1.887
10382SOL    HW132045   4.201   5.884   1.802
10382SOL    HW232046   4.291   5.912   1.935
10383SOL     OW32047   1.337   4.364   6.938
10383SOL    HW132048   1.297   4.432   6.877
10383SOL    HW232049   1.288   4.365   0.003
10384SOL     OW32050   5.964   6.111   1.683
10384SOL    HW132051   6.016   6.176   1.738
10384SOL    HW232052   5.866   6.129   1.694
10385SOL     OW32053   4.503   4.648   6.825
10385SOL    HW132054   4.582   4.586   6.828
10385SOL    HW232055   4.462   4.655   6.916
10386SOL     OW32056   0.382   0.746   0.562
10386SOL    HW132057   0.332   0.667   0.526
10386SOL    HW232058   0.351   0.765   0.655
10387SOL     OW32059   5.227   3.384   1.883
10387SOL    HW132060   5.140   3.336   1.881
10387SOL    HW232061   5.246   3.416   1.975
10388SOL     OW32062   2.421   0.262   4.915
10388SOL    HW132063   2.382   0.186   4.969
10388SOL    HW232064   2.519   0.248   4.904
10389SOL     OW32065   0.558   3.850   0.786
10389SOL    HW132066   0.492   3.922   0.768
10389SOL    HW232067   0.525   3.793   0.862
10390SOL     OW32068   2.431   2.195   1.407
10390SOL    HW132069   2.389   2.256   1.339
10390SOL    HW232070   2.514   2.237   1.443
10391SOL     OW32071   5.278   6.919   4.270
10391SOL    HW132072   5.233   6.876   4.348
10391SOL    HW232073   5.369   6.878   4.258
10392SOL     OW32074   6.471   3.854   3.931
10392SOL    HW132075   6.396   3.827   3.869
10392SOL    HW232076   6.434   3.909   4.006
10393SOL     OW32077   1.470   3.624   3.828
10393SOL    HW132078   1.544   3.647   3.766
10393SOL    HW232079   1.449   3.526   3.821
10394SOL     OW32080   3.089   6.542   4.520
10394SOL    HW132081   3.122   6.460   4.474
10394SOL    HW232082   3.049   6.517   4.608
10395SOL     OW32083   1.067   0.638   1.084
10395SOL    HW132084   1.011   0.612   1.162
10395SOL    HW232085   1.138   0.702   1.113
10396SOL     OW32086   2.734   2.172   5.040
10396SOL    HW132087   2.724   2.079   5.076
10396SOL    HW232088   2.693   2.237   5.104
10397SOL     OW32089   3.594   2.029   2.914
10397SOL    HW132090   3.667   2.076   2.866
10397SOL    HW232091   3.570   2.080   2.997
10398SOL     OW32092   6.419   2.747   1.580
10398SOL    HW132093   6.350   2.808   1.541
10398SOL    HW232094   6.377   2.659   1.602
10399SOL     OW32095   6.754   3.401   1.819
10399SOL    HW132096   6.720   3.423   1.728
10399SOL    HW232097   6.729   3.307   1.842
10400SOL     OW32098   4.309   6.415   0.081
10400SOL    HW132099   4.339   6.455   0.168
10400SOL    HW232100   4.210   6.400   0.084
10401SOL     OW32101   0.379   1.014   5.339
10401SOL    HW132102   0.366   1.072   5.420
10401SOL    HW232103   0.369   1.069   5.256
10402SOL     OW32104   6.779   3.041   4.902
10402SOL    HW132105   6.855   3.039   4.967
10402SOL    HW232106   6.814   3.036   4.809
10403SOL     OW32107   2.694   0.637   2.580
10403SOL    HW132108   2.660   0.724   2.616
10403SOL    HW232109   2.693   0.568   2.653
10404SOL     OW32110   0.316   6.863   6.703
10404SOL    HW132111   0.386   6.817   6.757
10404SOL    HW232112   0.279   6.799   6.635
10405SOL     OW32113   6.835   1.286   6.060
10405SOL    HW132114   6.811   1.354   6.129
10405SOL    HW232115   6.904   1.224   6.097
10406SOL     OW32116   2.843   4.749   1.709
10406SOL    HW132117   2.886   4.752   1.800
10406SOL    HW232118   2.889   4.679   1.653
10407SOL     OW32119   2.967   6.648   0.075
10407SOL    HW132120   3.052   6.700   0.086
10407SOL    HW232121   2.894   6.709   0.045
10408SOL     OW32122   4.019   0.501   0.773
10408SOL    HW132123   4.056   0.581   0.724
10408SOL    HW232124   4.069   0.488   0.858
10409SOL     OW32125   5.865   4.675   1.426
10409SOL    HW132126   5.838   4.670   1.522
10409SOL    HW232127   5.899   4.585   1.396
10410SOL     OW32128   5.516   0.588   1.020
10410SOL    HW132129   5.462   0.506   1.038
10410SOL    HW232130   5.613   0.563   1.012
10411SOL     OW32131   3.048   5.493   3.087
10411SOL    HW132132   3.007   5.578   3.121
10411SOL    HW232133   3.019   5.478   2.992
10412SOL     OW32134   6.339   0.336   0.889
10412SOL    HW132135   6.368   0.383   0.805
10412SOL    HW232136   6.249   0.368   0.916
10413SOL     OW32137   5.758   2.562   1.036
10413SOL    HW132138   5.718   2.543   1.126
10413SOL    HW232139   5.791   2.656   1.033
10414SOL     OW32140   4.784   2.918   4.474
10414SOL    HW132141   4.753   2.873   4.390
10414SOL    HW232142   4.743   2.874   4.553
10415SOL     OW32143   0.942   5.914   6.612
10415SOL    HW132144   0.907   5.958   6.695
10415SOL    HW232145   0.950   5.816   6.627
10416SOL     OW32146   6.012   3.228   4.556
10416SOL    HW132147   5.971   3.319   4.545
10416SOL    HW232148   5.949   3.159   4.521
10417SOL     OW32149   2.364   4.710   4.172
10417SOL    HW132150   2.379   4.611   4.170
10417SOL    HW232151   2.422   4.752   4.243
10418SOL     OW32152   0.754   4.591   5.672
10418SOL    HW132153   0.738   4.690   5.668
10418SOL    HW232154   0.836   4.573   5.727
10419SOL     OW32155   1.151   1.106   0.881
10419SOL    HW132156   1.142   1.106   0.782
10419SOL    HW232157   1.152   1.200   0.915
10420SOL     OW32158   6.925   3.136   3.132
10420SOL    HW132159   6.825   3.129   3.121
10420SOL    HW232160   6.947   3.224   3.174
10421SOL     OW32161   0.957   0.739   3.213
10421SOL    HW132162   0.982   0.701   3.124
10421SOL    HW232163   1.034   0.789   3.251
10422SOL     OW32164   6.153   2.711   6.164
10422SOL    HW132165   6.115   2.653   6.236
10422SOL    HW232166   6.158   2.806   6.196
10423SOL     OW32167   4.639   4.440   3.477
10423SOL    HW132168   4.679   4.398   3.396
10423SOL    HW232169   4.554   4.486   3.453
10424SOL     OW32170   4.879   1.733   6.941
10424SOL    HW132171   4.891   1.635   6.955
10424SOL    HW232172   4.966   1.780   6.956
10425SOL     OW32173   1.109   5.671   2.663
10425SOL    HW132174   1.165   5.701   2.586
10425SOL    HW232175   1.049   5.596   2.633
10426SOL     OW32176   6.239   4.610   0.041
10426SOL    HW132177   6.258   4.681   0.109
10426SOL    HW232178   6.156   4.635   7.013
10427SOL     OW32179   5.409   2.329   0.475
10427SOL    HW132180   5.489   2.380   0.445
10427SOL    HW232181   5.366   2.285   0.396
10428SOL     OW32182   4.534   0.350   4.609
10428SOL    HW132183   4.521   0.435   4.661
10428SOL    HW232184   4.631   0.325   4.610
10429SOL     OW32185   7.009   6.017   1.621
10429SOL    HW132186   6.919   6.058   1.608
10429SOL    HW232187   7.009   5.961   1.704
10430SOL     OW32188   4.155   6.683   2.571
10430SOL    HW132189   4.111   6.698   2.482
10430SOL    HW232190   4.245   6.643   2.557
10431SOL     OW32191   2.910   0.443   4.519
10431SOL    HW132192   2.969   0.514   4.557
10431SOL    HW232193   2.966   0.376   4.469
10432SOL     OW32194   6.264   0.846   4.601
10432SOL    HW132195   6.337   0.833   4.668
10432SOL    HW232196   6.302   0.880   4.515
10433SOL     OW32197   1.987   6.833   1.075
10433SOL    HW132198   1.893   6.829   1.111
10433SOL    HW232199   2.021   6.740   1.061
10434SOL     OW32200   2.718   0.522   3.672
10434SOL    HW132201   2.627   0.563   3.677
10434SOL    HW232202   2.723   0.444   3.734
10435SOL     OW32203   5.588   6.358   6.221
10435SOL    HW132204   5.552   6.267   6.242
10435SOL    HW232205   5.519   6.411   6.172
10436SOL     OW32206   1.739   4.891   4.015
10436SOL    HW132207   1.646   4.903   3.979
10436SOL    HW232208   1.743   4.924   4.109
10437SOL     OW32209   6.558   5.224   5.986
10437SOL    HW132210   6.552   5.172   6.071
10437SOL    HW232211   6.568   5.322   6.007
10438SOL     OW32212   4.212   6.745   0.353
10438SOL    HW132213   4.125   6.731   0.401
10438SOL    HW232214   4.275   6.671   0.376
10439SOL     OW32215   3.861   0.090   5.813
10439SOL    HW132216   3.864   0.034   5.897
10439SOL    HW232217   3.885   0.184   5.835
10440SOL     OW32218   1.756   6.479   1.085
10440SOL    HW132219   1.786   6.539   1.160
10440SOL    HW232220   1.806   6.502   1.002
10441SOL     OW32221   5.250   2.215   6.411
10441SOL    HW132222   5.153   2.238   6.422
10441SOL    HW232223   5.290   2.197   6.501
10442SOL     OW32224   3.980   4.710   5.600
10442SOL    HW132225   3.972   4.732   5.697
10442SOL    HW232226   3.910   4.759   5.548
10443SOL     OW32227   5.589   3.534   4.912
10443SOL    HW132228   5.500   3.522   4.957
10443SOL    HW232229   5.584   3.611   4.848
10444SOL     OW32230   4.146   5.198   4.792
10444SOL    HW132231   4.066   5.254   4.774
10444SOL    HW232232   4.118   5.110   4.830
10445SOL     OW32233   6.911   6.486   4.800
10445SOL    HW132234   6.994   6.540   4.783
10445SOL    HW232235   6.929   6.418   4.871
10446SOL     OW32236   1.207   5.050   5.534
10446SOL    HW132237   1.182   5.133   5.484
10446SOL    HW232238   1.130   5.022   5.592
10447SOL     OW32239   6.085   2.367   1.140
10447SOL    HW132240   6.013   2.304   1.170
10447SOL    HW232241   6.047   2.459   1.134
10448SOL     OW32242   4.006   3.824   2.223
10448SOL    HW132243   4.092   3.849   2.179
10448SOL    HW232244   3.929   3.858   2.168
10449SOL     OW32245   2.882   5.396   4.592
10449SOL    HW132246   2.956   5.353   4.645
10449SOL    HW232247   2.901   5.384   4.494
10450SOL     OW32248   6.898   1.985   1.024
10450SOL    HW132249   6.875   2.072   0.980
10450SOL    HW232250   6.995   1.966   1.011
10451SOL     OW32251   2.528   4.661   2.855
10451SOL    HW132252   2.572   4.637   2.941
10451SOL    HW232253   2.477   4.583   2.820
10452SOL     OW32254   1.047   3.135   3.769
10452SOL    HW132255   1.143   3.164   3.771
10452SOL    HW232256   1.018   3.113   3.862
10453SOL     OW32257   4.962   6.302   1.926
10453SOL    HW132258   4.900   6.284   2.002
10453SOL    HW232259   4.987   6.399   1.924
10454SOL     OW32260   5.220   3.106   2.137
10454SOL    HW132261   5.308   3.062   2.158
10454SOL    HW232262   5.166   3.114   2.220
10455SOL     OW32263   6.993   4.936   3.797
10455SOL    HW132264   6.907   4.895   3.828
10455SOL    HW232265   0.020   4.972   3.876
10456SOL     OW32266   4.374   5.984   1.164
10456SOL    HW132267   4.320   5.904   1.190
10456SOL    HW232268   4.315   6.064   1.163
10457SOL     OW32269   4.129   3.569   3.262
10457SOL    HW132270   4.096   3.593   3.353
10457SOL    HW232271   4.075   3.493   3.225
10458SOL     OW32272   0.915   6.698   0.978
10458SOL    HW132273   0.836   6.642   0.954
10458SOL    HW232274   0.994   6.639   0.993
10459SOL     OW32275   6.081   5.185   2.751
10459SOL    HW132276   6.120   5.115   2.690
10459SOL    HW232277   6.096   5.158   2.846
10460SOL     OW32278   2.198   5.027   2.085
10460SOL    HW132279   2.243   5.116   2.078
10460SOL    HW232280   2.109   5.038   2.131
10461SOL     OW32281   2.817   1.078   6.678
10461SOL    HW132282   2.872   1.077   6.594
10461SOL    HW232283   2.749   1.151   6.671
10462SOL     OW32284   6.637   0.427   0.909
10462SOL    HW132285   6.669   0.500   0.969
10462SOL    HW232286   6.573   0.368   0.959
10463SOL     OW32287   2.923   5.001   0.443
10463SOL    HW132288   2.836   5.025   0.486
10463SOL    HW232289   2.928   5.043   0.353
10464SOL     OW32290   5.478   0.336   1.161
10464SOL    HW132291   5.457   0.422   1.208
10464SOL    HW232292   5.430   0.261   1.206
10465SOL     OW32293   6.399   5.004   6.127
10465SOL    HW132294   6.472   4.937   6.144
10465SOL    HW232295   6.368   4.996   6.032
10466SOL     OW32296   4.902   6.304   5.839
10466SOL    HW132297   4.872   6.287   5.745
10466SOL    HW232298   4.990   6.260   5.855
10467SOL     OW32299   3.011   1.280   5.550
10467SOL    HW132300   2.963   1.320   5.472
10467SOL    HW232301   2.946   1.258   5.622
10468SOL     OW32302   3.258   6.331   3.819
10468SOL    HW132303   3.246   6.388   3.901
10468SOL    HW232304   3.188   6.355   3.752
10469SOL     OW32305   1.621   4.670   0.639
10469SOL    HW132306   1.691   4.601   0.657
10469SOL    HW232307   1.530   4.627   0.642
10470SOL     OW32308   2.622   1.752   4.359
10470SOL    HW132309   2.703   1.749   4.300
10470SOL    HW232310   2.545   1.707   4.313
10471SOL     OW32311   3.190   3.573   0.829
10471SOL    HW132312   3.244   3.489   0.834
10471SOL    HW232313   3.095   3.553   0.853
10472SOL     OW32314   4.704   1.245   2.278
10472SOL    HW132315   4.680   1.153   2.309
10472SOL    HW232316   4.732   1.242   2.182
10473SOL     OW32317   4.968   6.172   0.540
10473SOL    HW132318   4.913   6.090   0.557
10473SOL    HW232319   5.065   6.151   0.555
10474SOL     OW32320   4.014   0.536   4.961
10474SOL    HW132321   4.008   0.532   4.861
10474SOL    HW232322   4.100   0.581   4.987
10475SOL     OW32323   4.243   6.982   1.826
10475SOL    HW132324   4.211   6.889   1.805
10475SOL    HW232325   4.288   7.020   1.745
10476SOL     OW32326   0.038   5.314   0.073
10476SOL    HW132327   0.098   5.308   7.016
10476SOL    HW232328   6.973   5.352   0.046
10477SOL     OW32329   5.308   3.971   5.424
10477SOL    HW132330   5.243   4.008   5.357
10477SOL    HW232331   5.264   3.898   5.476
10478SOL     OW32332   0.259   6.591   1.208
10478SOL    HW132333   0.278   6.573   1.304
10478SOL    HW232334   0.283   6.510   1.154
10479SOL     OW32335   1.111   3.938   3.458
10479SOL    HW132336   1.027   3.987   3.485
10479SOL    HW232337   1.190   3.999   3.469
10480SOL     OW32338   5.846   0.029   2.056
10480SOL    HW132339   5.826   0.085   2.137
10480SOL    HW232340   5.921   0.071   2.004
10481SOL     OW32341   2.214   0.501   5.225
10481SOL    HW132342   2.162   0.586   5.223
10481SOL    HW232343   2.156   0.427   5.258
10482SOL     OW32344   1.789   5.579   5.609
10482SOL    HW132345   1.856   5.534   5.550
10482SOL    HW232346   1.753   5.660   5.563
10483SOL     OW32347   0.011   5.099   0.223
10483SOL    HW132348   6.935   5.094   0.210
10483SOL    HW232349   0.044   5.187   0.189
10484SOL     OW32350   6.588   1.166   1.544
10484SOL    HW132351   6.521   1.176   1.471
10484SOL    HW232352   6.589   1.248   1.600
10485SOL     OW32353   3.466   4.078   3.193
10485SOL    HW132354   3.566   4.075   3.200
10485SOL    HW232355   3.426   4.028   3.270
10486SOL     OW32356   6.242   6.818   5.556
10486SOL    HW132357   6.281   6.910   5.550
10486SOL    HW232358   6.316   6.750   5.554
10487SOL     OW32359   4.910   2.686   1.739
10487SOL    HW132360   4.886   2.775   1.775
10487SOL    HW232361   4.877   2.677   1.645
10488SOL     OW32362   5.959   2.522   5.991
10488SOL    HW132363   6.027   2.582   6.033
10488SOL    HW232364   5.990   2.427   5.996
10489SOL     OW32365   6.320   4.569   4.966
10489SOL    HW132366   6.415   4.581   4.994
10489SOL    HW232367   6.302   4.623   4.884
10490SOL     OW32368   5.506   6.520   6.605
10490SOL    HW132369   5.563   6.450   6.647
10490SOL    HW232370   5.562   6.577   6.544
10491SOL     OW32371   1.977   2.795   6.403
10491SOL    HW132372   1.987   2.839   6.314
10491SOL    HW232373   2.019   2.852   6.474
10492SOL     OW32374   3.818   0.836   0.479
10492SOL    HW132375   3.876   0.854   0.558
10492SOL    HW232376   3.754   0.763   0.502
10493SOL     OW32377   4.453   5.836   0.906
10493SOL    HW132378   4.401   5.882   0.978
10493SOL    HW232379   4.545   5.817   0.939
10494SOL     OW32380   0.885   4.933   5.426
10494SOL    HW132381   0.917   4.842   5.401
10494SOL    HW232382   0.839   4.929   5.515
10495SOL     OW32383   0.322   6.709   0.851
10495SOL    HW132384   0.371   6.713   0.938
10495SOL    HW232385   0.295   6.615   0.831
10496SOL     OW32386   0.058   3.622   5.052
10496SOL    HW132387   6.999   3.638   5.107
10496SOL    HW232388   0.040   3.547   4.987
10497SOL     OW32389   2.379   0.359   0.751
10497SOL    HW132390   2.371   0.315   0.662
10497SOL    HW232391   2.291   0.401   0.775
10498SOL     OW32392   4.338   4.728   0.135
10498SOL    HW132393   4.430   4.725   0.175
10498SOL    HW232394   4.272   4.691   0.201
10499SOL     OW32395   6.055   4.751   2.697
10499SOL    HW132396   5.963   4.715   2.681
10499SOL    HW232397   6.080   4.737   2.793
10500SOL     OW32398   6.901   3.211   5.483
10500SOL    HW132399   6.855   3.128   5.451
10500SOL    HW232400   6.922   3.269   5.404
10501SOL     OW32401   3.531   5.143   2.624
10501SOL    HW132402   3.582   5.215   2.670
10501SOL    HW232403   3.452   5.117   2.679
10502SOL     OW32404   3.362   3.730   2.029
10502SOL    HW132405   3.408   3.807   1.984
10502SOL    HW232406   3.271   3.758   2.060
10503SOL     OW32407   6.401   2.414   6.622
10503SOL    HW132408   6.398   2.507   6.586
10503SOL    HW232409   6.313   2.391   6.663
10504SOL     OW32410   1.404   2.687   5.836
10504SOL    HW132411   1.363   2.768   5.878
10504SOL    HW232412   1.416   2.616   5.905
10505SOL     OW32413   5.997   6.551   0.819
10505SOL    HW132414   5.918   6.503   0.780
10505SOL    HW232415   5.985   6.559   0.918
10506SOL     OW32416   0.706   2.496   6.996
10506SOL    HW132417   0.767   2.550   0.031
10506SOL    HW232418   0.750   2.409   6.973
10507SOL     OW32419   1.305   5.494   6.169
10507SOL    HW132420   1.374   5.435   6.209
10507SOL    HW232421   1.338   5.530   6.082
10508SOL     OW32422   1.932   4.832   4.691
10508SOL    HW132423   1.885   4.764   4.748
10508SOL    HW232424   1.950   4.913   4.746
10509SOL     OW32425   4.699   2.802   3.320
10509SOL    HW132426   4.654   2.727   3.368
10509SOL    HW232427   4.708   2.881   3.382
10510SOL     OW32428   5.436   5.694   3.698
10510SOL    HW132429   5.474   5.700   3.791
10510SOL    HW232430   5.478   5.764   3.640
10511SOL     OW32431   4.687   2.231   1.691
10511SOL    HW132432   4.758   2.247   1.622
10511SOL    HW232433   4.725   2.248   1.782
10512SOL     OW32434   4.684   0.745   4.860
10512SOL    HW132435   4.696   0.767   4.957
10512SOL    HW232436   4.643   0.654   4.851
10513SOL     OW32437   4.402   3.419   0.967
10513SOL    HW132438   4.380   3.403   0.871
10513SOL    HW232439   4.481   3.481   0.974
10514SOL     OW32440   0.948   3.127   1.787
10514SOL    HW132441   0.951   3.203   1.852
10514SOL    HW232442   0.941   3.164   1.694
10515SOL     OW32443   2.372   2.718   5.010
10515SOL    HW132444   2.326   2.756   4.929
10515SOL    HW232445   2.422   2.790   5.057
10516SOL     OW32446   3.847   1.930   1.510
10516SOL    HW132447   3.854   1.873   1.592
10516SOL    HW232448   3.939   1.946   1.473
10517SOL     OW32449   1.624   2.242   2.631
10517SOL    HW132450   1.720   2.246   2.603
10517SOL    HW232451   1.565   2.255   2.551
10518SOL     OW32452   0.541   4.774   2.964
10518SOL    HW132453   0.494   4.859   2.943
10518SOL    HW232454   0.596   4.785   3.047
10519SOL     OW32455   3.640   6.727   1.282
10519SOL    HW132456   3.723   6.745   1.336
10519SOL    HW232457   3.624   6.629   1.278
10520SOL     OW32458   6.810   2.525   5.883
10520SOL    HW132459   6.884   2.585   5.915
10520SOL    HW232460   6.762   2.487   5.961
10521SOL     OW32461   0.057   2.995   2.127
10521SOL    HW132462   7.000   2.937   2.138
10521SOL    HW232463   0.124   2.974   2.198
10522SOL     OW32464   4.952   2.655   3.263
10522SOL    HW132465   4.870   2.710   3.274
10522SOL    HW232466   5.025   2.690   3.322
10523SOL     OW32467   0.294   4.234   3.175
10523SOL    HW132468   0.327   4.261   3.266
10523SOL    HW232469   0.240   4.308   3.136
10524SOL     OW32470   0.444   6.292   5.197
10524SOL    HW132471   0.449   6.391   5.208
10524SOL    HW232472   0.388   6.270   5.117
10525SOL     OW32473   4.739   1.626   3.933
10525SOL    HW132474   4.645   1.605   3.905
10525SOL    HW232475   4.796   1.639   3.852
10526SOL     OW32476   1.181   4.583   0.475
10526SOL    HW132477   1.191   4.674   0.435
10526SOL    HW232478   1.260   4.563   0.532
10527SOL     OW32479   0.463   0.161   4.695
10527SOL    HW132480   0.434   0.175   4.600
10527SOL    HW232481   0.480   0.250   4.738
10528SOL     OW32482   1.703   3.623   5.634
10528SOL    HW132483   1.728   3.708   5.587
10528SOL    HW232484   1.640   3.643   5.709
10529SOL     OW32485   0.423   6.329   0.929
10529SOL    HW132486   0.417   6.317   1.029
10529SOL    HW232487   0.510   6.374   0.907
10530SOL     OW32488   0.285   5.427   0.644
10530SOL    HW132489   0.307   5.461   0.735
10530SOL    HW232490   0.296   5.328   0.642
10531SOL     OW32491   2.856   3.329   5.177
10531SOL    HW132492   2.897   3.312   5.267
10531SOL    HW232493   2.761   3.298   5.178
10532SOL     OW32494   5.252   6.423   6.836
10532SOL    HW132495   5.336   6.374   6.861
10532SOL    HW232496   5.244   6.427   6.737
10533SOL     OW32497   3.821   6.432   2.912
10533SOL    HW132498   3.892   6.402   2.975
10533SOL    HW232499   3.863   6.478   2.834
10534SOL     OW32500   1.678   5.847   3.875
10534SOL    HW132501   1.676   5.947   3.882
10534SOL    HW232502   1.771   5.814   3.895
10535SOL     OW32503   3.637   2.107   2.477
10535SOL    HW132504   3.711   2.123   2.412
10535SOL    HW232505   3.554   2.081   2.428
10536SOL     OW32506   5.532   2.612   4.280
10536SOL    HW132507   5.606   2.603   4.213
10536SOL    HW232508   5.468   2.682   4.249
10537SOL     OW32509   3.823   0.091   4.250
10537SOL    HW132510   3.869   0.092   4.339
10537SOL    HW232511   3.840   0.178   4.203
10538SOL     OW32512   6.827   3.747   2.886
10538SOL    HW132513   6.884   3.791   2.816
10538SOL    HW232514   6.740   3.719   2.844
10539SOL     OW32515   6.614   0.121   3.221
10539SOL    HW132516   6.521   0.092   3.199
10539SOL    HW232517   6.612   0.184   3.299
10540SOL     OW32518   1.765   3.578   5.977
10540SOL    HW132519   1.732   3.628   6.058
10540SOL    HW232520   1.863   3.562   5.986
10541SOL     OW32521   3.258   3.182   5.235
10541SOL    HW132522   3.338   3.202   5.178
10541SOL    HW232523   3.244   3.256   5.300
10542SOL     OW32524   4.913   6.811   4.621
10542SOL    HW132525   4.934   6.714   4.631
10542SOL    HW232526   4.849   6.823   4.545
10543SOL     OW32527   0.765   3.431   5.123
10543SOL    HW132528   0.704   3.509   5.110
10543SOL    HW232529   0.751   3.366   5.048
10544SOL     OW32530   2.062   1.788   3.361
10544SOL    HW132531   2.058   1.884   3.333
10544SOL    HW232532   2.005   1.775   3.442
10545SOL     OW32533   2.145   2.587   2.522
10545SOL    HW132534   2.235   2.609   2.484
10545SOL    HW232535   2.155   2.561   2.618
10546SOL     OW32536   2.870   6.784   6.766
10546SOL    HW132537   2.918   6.871   6.781
10546SOL    HW232538   2.775   6.794   6.797
10547SOL     OW32539   4.225   0.066   4.841
10547SOL    HW132540   4.300   0.080   4.777
10547SOL    HW232541   4.217   6.992   4.863
10548SOL     OW32542   0.145   5.398   3.924
10548SOL    HW132543   0.230   5.370   3.970
10548SOL    HW232544   0.129   5.495   3.940
10549SOL     OW32545   0.010   0.590   1.147
10549SOL    HW132546   0.030   0.525   1.221
10549SOL    HW232547   6.971   0.661   1.181
10550SOL     OW32548   5.019   5.674   3.359
10550SOL    HW132549   5.051   5.629   3.442
10550SOL    HW232550   4.941   5.623   3.321
10551SOL     OW32551   2.252   1.899   5.699
10551SOL    HW132552   2.334   1.947   5.730
10551SOL    HW232553   2.194   1.878   5.778
10552SOL     OW32554   2.631   1.242   4.520
10552SOL    HW132555   2.654   1.151   4.483
10552SOL    HW232556   2.673   1.312   4.463
10553SOL     OW32557   6.722   5.284   0.832
10553SOL    HW132558   6.809   5.325   0.803
10553SOL    HW232559   6.697   5.320   0.922
10554SOL     OW32560   5.869   5.958   2.068
10554SOL    HW132561   5.966   5.934   2.083
10554SOL    HW232562   5.811   5.888   2.109
10555SOL     OW32563   3.999   3.163   0.939
10555SOL    HW132564   4.049   3.186   1.023
10555SOL    HW232565   4.050   3.095   0.887
10556SOL     OW32566   2.192   1.727   2.838
10556SOL    HW132567   2.200   1.676   2.924
10556SOL    HW232568   2.134   1.807   2.854
10557SOL     OW32569   2.478   4.593   3.357
10557SOL    HW132570   2.490   4.558   3.450
10557SOL    HW232571   2.407   4.541   3.311
10558SOL     OW32572   3.531   5.615   5.042
10558SOL    HW132573   3.464   5.591   4.972
10558SOL    HW232574   3.577   5.532   5.074
10559SOL     OW32575   3.887   6.488   0.384
10559SOL    HW132576   3.897   6.563   0.449
10559SOL    HW232577   3.950   6.414   0.407
10560SOL     OW32578   5.554   0.002   2.191
10560SOL    HW132579   5.537   6.932   2.158
10560SOL    HW232580   5.592   7.021   2.283
10561SOL     OW32581   5.975   4.669   6.973
10561SOL    HW132582   5.903   4.600   6.967
10561SOL    HW232583   5.964   4.735   6.898
10562SOL     OW32584   4.003   5.911   2.721
10562SOL    HW132585   3.999   5.947   2.814
10562SOL    HW232586   3.969   5.818   2.719
10563SOL     OW32587   0.304   0.198   1.908
10563SOL    HW132588   0.311   0.218   2.006
10563SOL    HW232589   0.213   0.165   1.887
10564SOL     OW32590   5.644   4.857   4.048
10564SOL    HW132591   5.579   4.834   3.975
10564SOL    HW232592   5.737   4.850   4.012
10565SOL     OW32593   0.599   0.167   6.364
10565SOL    HW132594   0.573   0.194   6.271
10565SOL    HW232595   0.683   0.113   6.361
10566SOL     OW32596   3.109   2.995   0.418
10566SOL    HW132597   3.020   2.963   0.385
10566SOL    HW232598   3.161   3.033   0.341
10567SOL     OW32599   1.335   2.389   6.610
10567SOL    HW132600   1.331   2.296   6.647
10567SOL    HW232601   1.427   2.407   6.576
10568SOL     OW32602   4.877   2.583   5.818
10568SOL    HW132603   4.902   2.626   5.732
10568SOL    HW232604   4.818   2.644   5.871
10569SOL     OW32605   5.955   6.611   0.298
10569SOL    HW132606   5.902   6.560   0.367
10569SOL    HW232607   6.003   6.687   0.342
10570SOL     OW32608   1.054   4.553   3.211
10570SOL    HW132609   1.058   4.453   3.206
10570SOL    HW232610   0.985   4.581   3.278
10571SOL     OW32611   6.483   4.623   6.159
10571SOL    HW132612   6.441   4.603   6.070
10571SOL    HW232613   6.412   4.647   6.225
10572SOL     OW32614   5.774   4.212   0.790
10572SOL    HW132615   5.853   4.167   0.832
10572SOL    HW232616   5.806   4.270   0.714
10573SOL     OW32617   5.754   1.853   3.229
10573SOL    HW132618   5.724   1.880   3.320
10573SOL    HW232619   5.830   1.789   3.236
10574SOL     OW32620   6.960   2.435   3.162
10574SOL    HW132621   0.006   2.470   3.226
10574SOL    HW232622   6.892   2.506   3.145
10575SOL     OW32623   6.077   0.263   1.730
10575SOL    HW132624   5.999   0.299   1.781
10575SOL    HW232625   6.048   0.236   1.638
10576SOL     OW32626   1.144   4.151   4.517
10576SOL    HW132627   1.214   4.181   4.452
10576SOL    HW232628   1.113   4.229   4.571
10577SOL     OW32629   3.883   4.592   0.670
10577SOL    HW132630   3.867   4.662   0.600
10577SOL    HW232631   3.811   4.596   0.739
10578SOL     OW32632   0.261   2.938   4.560
10578SOL    HW132633   0.172   2.969   4.592
10578SOL    HW232634   0.287   2.990   4.478
10579SOL     OW32635   0.790   3.515   6.735
10579SOL    HW132636   0.739   3.549   6.657
10579SOL    HW232637   0.859   3.582   6.761
10580SOL     OW32638   6.399   6.730   0.166
10580SOL    HW132639   6.419   6.687   0.254
10580SOL    HW232640   6.467   6.701   0.099
10581SOL     OW32641   5.268   7.006   3.035
10581SOL    HW132642   5.349   6.964   3.076
10581SOL    HW232643   5.225   0.044   3.102
10582SOL     OW32644   5.458   4.175   6.428
10582SOL    HW132645   5.552   4.189   6.459
10582SOL    HW232646   5.446   4.080   6.400
10583SOL     OW32647   3.075   1.193   5.087
10583SOL    HW132648   2.991   1.221   5.135
10583SOL    HW232649   3.147   1.177   5.154
10584SOL     OW32650   1.193   6.938   4.677
10584SOL    HW132651   1.280   6.924   4.724
10584SOL    HW232652   1.178   6.863   4.612
10585SOL     OW32653   1.075   6.928   5.098
10585SOL    HW132654   1.048   7.020   5.068
10585SOL    HW232655   1.016   6.899   5.173
10586SOL     OW32656   4.287   4.149   5.296
10586SOL    HW132657   4.204   4.093   5.293
10586SOL    HW232658   4.271   4.235   5.246
10587SOL     OW32659   2.459   5.014   5.364
10587SOL    HW132660   2.477   4.916   5.370
10587SOL    HW232661   2.449   5.041   5.269
10588SOL     OW32662   1.052   3.993   4.237
10588SOL    HW132663   1.005   4.062   4.293
10588SOL    HW232664   0.993   3.967   4.160
10589SOL     OW32665   5.254   5.972   3.850
10589SOL    HW132666   5.210   6.059   3.874
10589SOL    HW232667   5.187   5.912   3.806
10590SOL     OW32668   0.835   5.011   2.579
10590SOL    HW132669   0.931   4.986   2.589
10590SOL    HW232670   0.777   4.930   2.594
10591SOL     OW32671   6.753   2.477   1.647
10591SOL    HW132672   6.742   2.409   1.720
10591SOL    HW232673   6.845   2.470   1.609
10592SOL     OW32674   6.270   2.065   5.122
10592SOL    HW132675   6.343   1.999   5.137
10592SOL    HW232676   6.310   2.152   5.092
10593SOL     OW32677   3.224   5.328   3.227
10593SOL    HW132678   3.159   5.387   3.179
10593SOL    HW232679   3.184   5.237   3.240
10594SOL     OW32680   2.747   6.454   3.891
10594SOL    HW132681   2.718   6.529   3.949
10594SOL    HW232682   2.732   6.367   3.937
10595SOL     OW32683   5.216   6.412   0.260
10595SOL    HW132684   5.185   6.436   0.168
10595SOL    HW232685   5.190   6.485   0.324
10596SOL     OW32686   4.906   3.013   0.045
10596SOL    HW132687   4.954   2.960   6.997
10596SOL    HW232688   4.940   3.107   0.044
10597SOL     OW32689   2.570   0.698   5.203
10597SOL    HW132690   2.569   0.601   5.228
10597SOL    HW232691   2.568   0.754   5.286
10598SOL     OW32692   2.822   1.331   6.437
10598SOL    HW132693   2.785   1.348   6.345
10598SOL    HW232694   2.747   1.325   6.503
10599SOL     OW32695   6.999   2.134   6.588
10599SOL    HW132696   6.953   2.174   6.667
10599SOL    HW232697   0.076   2.145   6.598
10600SOL     OW32698   2.577   2.588   1.110
10600SOL    HW132699   2.554   2.546   1.198
10600SOL    HW232700   2.676   2.596   1.103
10601SOL     OW32701   1.226   0.334   6.043
10601SOL    HW132702   1.291   0.385   5.986
10601SOL    HW232703   1.268   0.316   6.132
10602SOL     OW32704   6.944   0.426   1.483
10602SOL    HW132705   6.921   0.490   1.557
10602SOL    HW232706   6.862   0.406   1.430
10603SOL     OW32707   5.354   0.841   2.972
10603SOL    HW132708   5.354   0.934   2.935
10603SOL    HW232709   5.269   0.825   3.023
10604SOL     OW32710   5.319   6.619   4.918
10604SOL    HW132711   5.402   6.626   4.973
10604SOL    HW232712   5.279   6.709   4.906
10605SOL     OW32713   2.235   2.344   1.217
10605SOL    HW132714   2.252   2.328   1.119
10605SOL    HW232715   2.171   2.420   1.228
10606SOL     OW32716   6.424   0.534   0.159
10606SOL    HW132717   6.388   0.441   0.160
10606SOL    HW232718   6.349   0.599   0.147
10607SOL     OW32719   2.847   4.949   6.286
10607SOL    HW132720   2.855   5.046   6.307
10607SOL    HW232721   2.923   4.921   6.228
10608SOL     OW32722   5.709   4.075   3.404
10608SOL    HW132723   5.610   4.064   3.388
10608SOL    HW232724   5.757   3.994   3.372
10609SOL     OW32725   4.405   1.522   6.576
10609SOL    HW132726   4.310   1.514   6.544
10609SOL    HW232727   4.431   1.618   6.580
10610SOL     OW32728   0.648   0.787   3.516
10610SOL    HW132729   0.552   0.767   3.494
10610SOL    HW232730   0.653   0.876   3.561
10611SOL     OW32731   3.853   5.668   4.366
10611SOL    HW132732   3.789   5.651   4.292
10611SOL    HW232733   3.896   5.758   4.353
10612SOL     OW32734   6.256   1.991   3.525
10612SOL    HW132735   6.251   1.952   3.617
10612SOL    HW232736   6.211   2.081   3.524
10613SOL     OW32737   4.309   6.036   4.657
10613SOL    HW132738   4.255   6.086   4.724
10613SOL    HW232739   4.406   6.057   4.670
10614SOL     OW32740   3.875   1.188   5.892
10614SOL    HW132741   3.776   1.176   5.893
10614SOL    HW232742   3.901   1.256   5.961
10615SOL     OW32743   1.458   1.492   5.641
10615SOL    HW132744   1.543   1.543   5.629
10615SOL    HW232745   1.464   1.405   5.594
10616SOL     OW32746   2.273   6.454   0.029
10616SOL    HW132747   2.220   6.378   7.014
10616SOL    HW232748   2.212   6.518   0.075
10617SOL     OW32749   2.481   3.414   1.495
10617SOL    HW132750   2.421   3.367   1.560
10617SOL    HW232751   2.564   3.361   1.483
10618SOL     OW32752   1.500   4.980   3.870
10618SOL    HW132753   1.400   4.987   3.872
10618SOL    HW232754   1.539   5.071   3.881
10619SOL     OW32755   2.021   2.267   2.349
10619SOL    HW132756   2.119   2.253   2.334
10619SOL    HW232757   1.970   2.206   2.288
10620SOL     OW32758   3.087   1.101   6.205
10620SOL    HW132759   3.039   1.080   6.290
10620SOL    HW232760   3.076   1.198   6.183
10621SOL     OW32761   0.292   3.690   3.502
10621SOL    HW132762   0.340   3.604   3.522
10621SOL    HW232763   0.340   3.738   3.428
10622SOL     OW32764   4.308   2.268   0.021
10622SOL    HW132765   4.309   2.298   6.949
10622SOL    HW232766   4.257   2.183   0.030
10623SOL     OW32767   4.848   6.571   6.019
10623SOL    HW132768   4.836   6.487   5.966
10623SOL    HW232769   4.773   6.579   6.085
10624SOL     OW32770   0.363   1.871   6.778
10624SOL    HW132771   0.435   1.941   6.786
10624SOL    HW232772   0.351   1.826   6.866
10625SOL     OW32773   5.440   4.693   0.043
10625SOL    HW132774   5.504   4.624   0.078
10625SOL    HW232775   5.369   4.709   0.111
10626SOL     OW32776   5.239   3.159   0.958
10626SOL    HW132777   5.210   3.191   1.048
10626SOL    HW232778   5.164   3.110   0.913
10627SOL     OW32779   6.045   5.387   5.981
10627SOL    HW132780   6.100   5.332   6.044
10627SOL    HW232781   5.952   5.350   5.979
10628SOL     OW32782   3.821   6.712   0.775
10628SOL    HW132783   3.804   6.667   0.863
10628SOL    HW232784   3.736   6.720   0.724
10629SOL     OW32785   3.234   5.532   4.451
10629SOL    HW132786   3.214   5.582   4.536
10629SOL    HW232787   3.182   5.572   4.376
10630SOL     OW32788   3.763   1.023   2.214
10630SOL    HW132789   3.693   1.008   2.283
10630SOL    HW232790   3.799   1.116   2.222
10631SOL     OW32791   4.160   6.111   6.986
10631SOL    HW132792   4.138   6.178   6.915
10631SOL    HW232793   4.141   6.150   0.053
10632SOL     OW32794   4.653   6.270   3.453
10632SOL    HW132795   4.747   6.284   3.423
10632SOL    HW232796   4.607   6.204   3.393
10633SOL     OW32797   1.447   2.894   1.536
10633SOL    HW132798   1.395   2.825   1.485
10633SOL    HW232799   1.386   2.940   1.600
10634SOL     OW32800   0.571   3.464   6.969
10634SOL    HW132801   0.515   3.396   6.922
10634SOL    HW232802   0.552   3.555   6.931
10635SOL     OW32803   2.391   4.530   6.225
10635SOL    HW132804   2.351   4.615   6.258
10635SOL    HW232805   2.487   4.546   6.199
10636SOL     OW32806   6.477   2.449   6.261
10636SOL    HW132807   6.414   2.384   6.304
10636SOL    HW232808   6.571   2.415   6.270
10637SOL     OW32809   3.049   0.903   0.082
10637SOL    HW132810   2.956   0.869   0.096
10637SOL    HW232811   3.072   0.900   7.008
10638SOL     OW32812   6.953   5.969   1.866
10638SOL    HW132813   6.928   6.057   1.905
10638SOL    HW232814   6.901   5.897   1.911
10639SOL     OW32815   1.547   4.469   1.628
10639SOL    HW132816   1.608   4.449   1.551
10639SOL    HW232817   1.454   4.484   1.594
10640SOL     OW32818   4.408   6.956   3.526
10640SOL    HW132819   4.479   6.974   3.594
10640SOL    HW232820   4.323   6.930   3.573
10641SOL     OW32821   1.311   1.016   3.809
10641SOL    HW132822   1.394   0.961   3.817
10641SOL    HW232823   1.282   1.018   3.713
10642SOL     OW32824   5.618   2.122   6.568
10642SOL    HW132825   5.666   2.104   6.654
10642SOL    HW232826   5.598   2.220   6.561
10643SOL     OW32827   1.861   4.831   5.555
10643SOL    HW132828   1.862   4.736   5.526
10643SOL    HW232829   1.766   4.863   5.562
10644SOL     OW32830   6.464   2.497   2.947
10644SOL    HW132831   6.491   2.502   2.851
10644SOL    HW232832   6.374   2.540   2.958
10645SOL     OW32833   2.771   2.330   3.657
10645SOL    HW132834   2.701   2.401   3.667
10645SOL    HW232835   2.731   2.248   3.617
10646SOL     OW32836   5.268   0.826   3.716
10646SOL    HW132837   5.362   0.840   3.747
10646SOL    HW232838   5.236   0.737   3.748
10647SOL     OW32839   3.581   5.003   4.757
10647SOL    HW132840   3.509   4.975   4.695
10647SOL    HW232841   3.545   5.069   4.823
10648SOL     OW32842   5.083   5.243   5.349
10648SOL    HW132843   5.083   5.200   5.259
10648SOL    HW232844   5.177   5.253   5.381
10649SOL     OW32845   6.265   3.135   2.978
10649SOL    HW132846   6.350   3.104   2.935
10649SOL    HW232847   6.190   3.073   2.953
10650SOL     OW32848   0.651   0.346   3.762
10650SOL    HW132849   0.632   0.248   3.764
10650SOL    HW232850   0.678   0.374   3.670
10651SOL     OW32851   4.095   6.132   6.101
10651SOL    HW132852   4.001   6.109   6.074
10651SOL    HW232853   4.098   6.147   6.200
10652SOL     OW32854   1.858   0.273   6.754
10652SOL    HW132855   1.900   0.238   6.838
10652SOL    HW232856   1.787   0.339   6.777
10653SOL     OW32857   4.404   5.602   3.920
10653SOL    HW132858   4.410   5.693   3.878
10653SOL    HW232859   4.496   5.569   3.940
10654SOL     OW32860   5.703   1.658   4.114
10654SOL    HW132861   5.641   1.620   4.183
10654SOL    HW232862   5.797   1.655   4.148
10655SOL     OW32863   0.586   4.878   1.190
10655SOL    HW132864   0.555   4.823   1.112
10655SOL    HW232865   0.632   4.961   1.157
10656SOL     OW32866   6.200   2.043   3.123
10656SOL    HW132867   6.286   2.088   3.147
10656SOL    HW232868   6.180   1.971   3.190
10657SOL     OW32869   5.215   6.427   4.496
10657SOL    HW132870   5.154   6.351   4.474
10657SOL    HW232871   5.302   6.392   4.529
10658SOL     OW32872   0.526   3.174   5.427
10658SOL    HW132873   0.615   3.134   5.408
10658SOL    HW232874   0.472   3.112   5.483
10659SOL     OW32875   0.966   5.213   0.809
10659SOL    HW132876   0.972   5.113   0.802
10659SOL    HW232877   0.976   5.253   0.718
10660SOL     OW32878   5.965   3.146   5.274
10660SOL    HW132879   5.982   3.224   5.335
10660SOL    HW232880   5.891   3.169   5.211
10661SOL     OW32881   1.752   4.828   5.847
10661SOL    HW132882   1.768   4.837   5.946
10661SOL    HW232883   1.735   4.918   5.807
10662SOL     OW32884   2.398   1.169   2.804
10662SOL    HW132885   2.391   1.265   2.828
10662SOL    HW232886   2.336   1.116   2.863
10663SOL     OW32887   1.674   1.817   4.053
10663SOL    HW132888   1.745   1.747   4.043
10663SOL    HW232889   1.696   1.876   4.131
10664SOL     OW32890   1.471   5.333   4.386
10664SOL    HW132891   1.459   5.274   4.306
10664SOL    HW232892   1.521   5.416   4.359
10665SOL     OW32893   2.039   2.744   5.963
10665SOL    HW132894   2.071   2.811   5.896
10665SOL    HW232895   1.976   2.680   5.918
10666SOL     OW32896   3.429   3.561   1.812
10666SOL    HW132897   3.408   3.601   1.723
10666SOL    HW232898   3.383   3.612   1.884
10667SOL     OW32899   5.698   2.026   3.450
10667SOL    HW132900   5.600   2.044   3.461
10667SOL    HW232901   5.742   2.030   3.540
10668SOL     OW32902   3.029   2.401   5.396
10668SOL    HW132903   2.997   2.496   5.391
10668SOL    HW232904   3.102   2.387   5.329
10669SOL     OW32905   6.471   1.406   0.925
10669SOL    HW132906   6.550   1.457   0.960
10669SOL    HW232907   6.496   1.361   0.839
10670SOL     OW32908   5.051   3.241   4.460
10670SOL    HW132909   5.149   3.254   4.469
10670SOL    HW232910   5.010   3.322   4.419
10671SOL     OW32911   1.354   3.357   4.049
10671SOL    HW132912   1.349   3.261   4.022
10671SOL    HW232913   1.425   3.368   4.118
10672SOL     OW32914   6.131   3.423   1.256
10672SOL    HW132915   6.198   3.481   1.302
10672SOL    HW232916   6.074   3.376   1.324
10673SOL     OW32917   2.311   1.104   1.055
10673SOL    HW132918   2.361   1.054   1.126
10673SOL    HW232919   2.315   1.052   0.969
10674SOL     OW32920   3.452   4.132   4.236
10674SOL    HW132921   3.435   4.218   4.285
10674SOL    HW232922   3.549   4.112   4.236
10675SOL     OW32923   3.869   7.007   5.476
10675SOL    HW132924   3.935   0.058   5.461
10675SOL    HW232925   3.889   6.931   5.415
10676SOL     OW32926   2.284   6.119   5.709
10676SOL    HW132927   2.185   6.110   5.711
10676SOL    HW232928   2.315   6.169   5.790
10677SOL     OW32929   0.206   1.400   0.995
10677SOL    HW132930   0.122   1.356   0.966
10677SOL    HW232931   0.282   1.369   0.938
10678SOL     OW32932   4.412   5.466   3.645
10678SOL    HW132933   4.338   5.459   3.578
10678SOL    HW232934   4.373   5.482   3.735
10679SOL     OW32935   3.822   3.397   6.733
10679SOL    HW132936   3.778   3.312   6.703
10679SOL    HW232937   3.771   3.475   6.698
10680SOL     OW32938   4.250   1.112   3.972
10680SOL    HW132939   4.340   1.078   3.998
10680SOL    HW232940   4.248   1.130   3.874
10681SOL     OW32941   1.257   3.209   6.002
10681SOL    HW132942   1.181   3.144   6.005
10681SOL    HW232943   1.270   3.249   6.092
10682SOL     OW32944   5.767   2.924   6.128
10682SOL    HW132945   5.859   2.957   6.145
10682SOL    HW232946   5.710   2.939   6.209
10683SOL     OW32947   3.472   6.981   3.639
10683SOL    HW132948   3.551   7.015   3.588
10683SOL    HW232949   3.392   0.015   3.618
10684SOL     OW32950   4.319   4.721   1.708
10684SOL    HW132951   4.313   4.621   1.714
10684SOL    HW232952   4.375   4.756   1.784
10685SOL     OW32953   0.986   6.011   1.563
10685SOL    HW132954   1.050   5.934   1.563
10685SOL    HW232955   0.910   5.992   1.500
10686SOL     OW32956   2.455   3.130   0.141
10686SOL    HW132957   2.395   3.141   0.062
10686SOL    HW232958   2.454   3.035   0.171
10687SOL     OW32959   0.562   4.436   3.278
10687SOL    HW132960   0.558   4.346   3.321
10687SOL    HW232961   0.544   4.507   3.347
10688SOL     OW32962   5.279   1.625   2.274
10688SOL    HW132963   5.216   1.547   2.284
10688SOL    HW232964   5.261   1.692   2.346
10689SOL     OW32965   6.785   6.866   2.542
10689SOL    HW132966   6.876   6.899   2.516
10689SOL    HW232967   6.772   6.773   2.508
10690SOL     OW32968   6.941   6.398   3.769
10690SOL    HW132969   6.901   6.306   3.771
10690SOL    HW232970   6.878   6.460   3.722
10691SOL     OW32971   3.194   1.512   2.870
10691SOL    HW132972   3.202   1.612   2.867
10691SOL    HW232973   3.194   1.481   2.965
10692SOL     OW32974   2.782   1.072   4.285
10692SOL    HW132975   2.848   1.104   4.216
10692SOL    HW232976   2.695   1.051   4.240
10693SOL     OW32977   1.466   5.646   0.804
10693SOL    HW132978   1.504   5.649   0.712
10693SOL    HW232979   1.535   5.676   0.870
10694SOL     OW32980   4.863   6.546   5.630
10694SOL    HW132981   4.793   6.617   5.645
10694SOL    HW232982   4.943   6.566   5.687
10695SOL     OW32983   0.130   3.760   1.363
10695SOL    HW132984   0.055   3.714   1.412
10695SOL    HW232985   0.153   3.706   1.281
10696SOL     OW32986   0.121   4.267   4.817
10696SOL    HW132987   0.139   4.362   4.790
10696SOL    HW232988   0.026   4.244   4.799
10697SOL     OW32989   1.414   5.161   4.997
10697SOL    HW132990   1.364   5.148   4.911
10697SOL    HW232991   1.437   5.257   5.008
10698SOL     OW32992   4.615   3.431   0.095
10698SOL    HW132993   4.604   3.415   7.019
10698SOL    HW232994   4.601   3.528   0.114
10699SOL     OW32995   3.363   4.198   0.652
10699SOL    HW132996   3.457   4.180   0.681
10699SOL    HW232997   3.300   4.140   0.703
10700SOL     OW32998   5.427   6.975   0.455
10700SOL    HW132999   5.409   6.981   0.553
10700SOL    HW233000   5.414   6.881   0.424
10701SOL     OW33001   2.932   0.259   6.289
10701SOL    HW133002   2.895   0.232   6.378
10701SOL    HW233003   2.965   0.354   6.294
10702SOL     OW33004   4.943   2.704   2.361
10702SOL    HW133005   4.913   2.750   2.277
10702SOL    HW233006   4.889   2.622   2.375
10703SOL     OW33007   1.841   2.526   6.139
10703SOL    HW133008   1.763   2.579   6.174
10703SOL    HW233009   1.842   2.531   6.039
10704SOL     OW33010   6.997   6.538   2.527
10704SOL    HW133011   6.979   6.561   2.623
10704SOL    HW233012   6.969   6.443   2.510
10705SOL     OW33013   5.658   4.654   1.164
10705SOL    HW133014   5.724   4.586   1.197
10705SOL    HW233015   5.689   4.745   1.189
10706SOL     OW33016   5.059   0.422   2.260
10706SOL    HW133017   5.143   0.476   2.248
10706SOL    HW233018   5.012   0.414   2.173
10707SOL     OW33019   6.115   6.834   4.005
10707SOL    HW133020   6.111   6.836   4.105
10707SOL    HW233021   6.025   6.808   3.969
10708SOL     OW33022   4.614   2.646   2.555
10708SOL    HW133023   4.559   2.726   2.529
10708SOL    HW233024   4.621   2.642   2.655
10709SOL     OW33025   6.042   5.590   4.184
10709SOL    HW133026   6.083   5.511   4.229
10709SOL    HW233027   6.054   5.671   4.242
10710SOL     OW33028   4.857   1.110   2.911
10710SOL    HW133029   4.809   1.057   2.841
10710SOL    HW233030   4.926   1.052   2.954
10711SOL     OW33031   3.531   6.671   1.985
10711SOL    HW133032   3.541   6.572   1.973
10711SOL    HW233033   3.616   6.708   2.025
10712SOL     OW33034   3.367   0.258   2.903
10712SOL    HW133035   3.419   0.335   2.866
10712SOL    HW233036   3.428   0.196   2.952
10713SOL     OW33037   1.114   3.620   0.813
10713SOL    HW133038   1.195   3.677   0.818
10713SOL    HW233039   1.061   3.629   0.897
10714SOL     OW33040   3.598   3.081   3.980
10714SOL    HW133041   3.547   3.098   3.896
10714SOL    HW233042   3.639   3.166   4.013
10715SOL     OW33043   5.700   0.682   2.240
10715SOL    HW133044   5.641   0.602   2.236
10715SOL    HW233045   5.750   0.691   2.153
10716SOL     OW33046   6.682   2.310   2.996
10716SOL    HW133047   6.591   2.343   2.972
10716SOL    HW233048   6.681   2.276   3.090
10717SOL     OW33049   1.024   2.773   0.720
10717SOL    HW133050   1.034   2.766   0.621
10717SOL    HW233051   1.090   2.713   0.765
10718SOL     OW33052   0.896   4.576   6.185
10718SOL    HW133053   0.823   4.634   6.147
10718SOL    HW233054   0.910   4.599   6.281
10719SOL     OW33055   6.477   5.857   3.764
10719SOL    HW133056   6.540   5.798   3.814
10719SOL    HW233057   6.525   5.899   3.688
10720SOL     OW33058   5.782   5.469   4.238
10720SOL    HW133059   5.800   5.500   4.332
10720SOL    HW233060   5.860   5.492   4.180
10721SOL     OW33061   4.910   3.948   5.297
10721SOL    HW133062   4.942   3.868   5.348
10721SOL    HW233063   4.873   4.015   5.361
10722SOL     OW33064   6.523   3.997   6.323
10722SOL    HW133065   6.618   4.028   6.320
10722SOL    HW233066   6.465   4.062   6.274
10723SOL     OW33067   0.117   1.233   6.933
10723SOL    HW133068   0.074   1.308   6.983
10723SOL    HW233069   0.175   1.180   6.995
10724SOL     OW33070   0.348   6.749   0.530
10724SOL    HW133071   0.348   6.847   0.515
10724SOL    HW233072   0.382   6.729   0.622
10725SOL     OW33073   2.696   5.313   5.263
10725SOL    HW133074   2.612   5.309   5.316
10725SOL    HW233075   2.771   5.346   5.321
10726SOL     OW33076   5.076   0.954   3.539
10726SOL    HW133077   5.048   1.050   3.547
10726SOL    HW233078   5.169   0.943   3.573
10727SOL     OW33079   1.435   5.472   5.912
10727SOL    HW133080   1.490   5.550   5.883
10727SOL    HW233081   1.488   5.412   5.971
10728SOL     OW33082   6.783   5.191   0.564
10728SOL    HW133083   6.751   5.254   0.493
10728SOL    HW233084   6.823   5.244   0.639
10729SOL     OW33085   6.211   2.172   1.615
10729SOL    HW133086   6.256   2.150   1.528
10729SOL    HW233087   6.172   2.264   1.610
10730SOL     OW33088   3.868   0.629   1.649
10730SOL    HW133089   3.888   0.709   1.706
10730SOL    HW233090   3.860   0.548   1.707
10731SOL     OW33091   4.229   1.058   0.878
10731SOL    HW133092   4.257   1.116   0.802
10731SOL    HW233093   4.307   1.043   0.939
10732SOL     OW33094   0.213   5.026   5.294
10732SOL    HW133095   0.253   5.102   5.345
10732SOL    HW233096   0.200   5.052   5.199
10733SOL     OW33097   5.619   1.422   6.506
10733SOL    HW133098   5.572   1.426   6.418
10733SOL    HW233099   5.565   1.470   6.576
10734SOL     OW33100   0.852   1.774   0.975
10734SOL    HW133101   0.939   1.786   1.024
10734SOL    HW233102   0.780   1.753   1.041
10735SOL     OW33103   0.384   2.601   1.764
10735SOL    HW133104   0.353   2.532   1.700
10735SOL    HW233105   0.324   2.681   1.759
10736SOL     OW33106   2.122   0.066   3.940
10736SOL    HW133107   2.078   7.008   3.902
10736SOL    HW233108   2.211   0.079   3.897
10737SOL     OW33109   0.541   1.936   1.602
10737SOL    HW133110   0.459   1.885   1.626
10737SOL    HW233111   0.559   2.006   1.672
10738SOL     OW33112   3.701   6.073   2.871
10738SOL    HW133113   3.662   6.018   2.945
10738SOL    HW233114   3.785   6.116   2.901
10739SOL     OW33115   1.528   2.617   1.243
10739SOL    HW133116   1.463   2.584   1.175
10739SOL    HW233117   1.621   2.605   1.209
10740SOL     OW33118   5.743   5.020   5.105
10740SOL    HW133119   5.712   5.048   5.014
10740SOL    HW233120   5.781   5.099   5.153
10741SOL     OW33121   4.228   0.738   2.563
10741SOL    HW133122   4.214   0.752   2.662
10741SOL    HW233123   4.201   0.645   2.539
10742SOL     OW33124   5.766   5.319   1.180
10742SOL    HW133125   5.703   5.393   1.203
10742SOL    HW233126   5.818   5.342   1.098
10743SOL     OW33127   2.044   2.230   4.036
10743SOL    HW133128   1.975   2.298   4.060
10743SOL    HW233129   2.135   2.271   4.047
10744SOL     OW33130   3.070   1.653   1.238
10744SOL    HW133131   3.133   1.603   1.297
10744SOL    HW233132   3.078   1.751   1.256
10745SOL     OW33133   0.235   5.449   5.862
10745SOL    HW133134   0.146   5.409   5.839
10745SOL    HW233135   0.277   5.397   5.937
10746SOL     OW33136   1.296   3.824   5.836
10746SOL    HW133137   1.385   3.782   5.852
10746SOL    HW233138   1.225   3.754   5.843
10747SOL     OW33139   3.053   0.834   4.529
10747SOL    HW133140   3.114   0.913   4.518
10747SOL    HW233141   2.958   0.865   4.523
10748SOL     OW33142   6.318   1.298   2.642
10748SOL    HW133143   6.340   1.303   2.544
10748SOL    HW233144   6.220   1.317   2.655
10749SOL     OW33145   0.965   6.151   5.545
10749SOL    HW133146   0.985   6.106   5.458
10749SOL    HW233147   1.011   6.102   5.619
10750SOL     OW33148   4.025   0.277   5.104
10750SOL    HW133149   4.046   0.359   5.052
10750SOL    HW233150   3.936   0.287   5.149
10751SOL     OW33151   2.094   4.440   4.135
10751SOL    HW133152   2.182   4.447   4.183
10751SOL    HW233153   2.107   4.460   4.038
10752SOL     OW33154   5.244   4.965   5.506
10752SOL    HW133155   5.159   4.918   5.527
10752SOL    HW233156   5.247   4.988   5.409
10753SOL     OW33157   0.642   3.923   4.406
10753SOL    HW133158   0.556   3.902   4.360
10753SOL    HW233159   0.682   3.839   4.442
10754SOL     OW33160   0.980   0.129   3.181
10754SOL    HW133161   1.048   0.076   3.131
10754SOL    HW233162   0.960   0.214   3.132
10755SOL     OW33163   6.872   6.769   1.966
10755SOL    HW133164   6.888   6.776   1.867
10755SOL    HW233165   6.906   6.851   2.011
10756SOL     OW33166   6.971   5.678   5.481
10756SOL    HW133167   0.005   5.706   5.558
10756SOL    HW233168   6.967   5.752   5.413
10757SOL     OW33169   1.987   2.701   0.124
10757SOL    HW133170   1.957   2.641   0.050
10757SOL    HW233171   1.911   2.713   0.189
10758SOL     OW33172   0.373   6.145   3.249
10758SOL    HW133173   0.470   6.166   3.251
10758SOL    HW233174   0.360   6.046   3.251
10759SOL     OW33175   0.916   3.255   0.626
10759SOL    HW133176   0.879   3.173   0.670
10759SOL    HW233177   0.860   3.277   0.546
10760SOL     OW33178   6.041   1.423   3.588
10760SOL    HW133179   6.039   1.465   3.679
10760SOL    HW233180   5.954   1.442   3.541
10761SOL     OW33181   1.897   5.239   6.181
10761SOL    HW133182   1.953   5.171   6.228
10761SOL    HW233183   1.805   5.202   6.167
10762SOL     OW33184   2.954   0.118   5.345
10762SOL    HW133185   2.919   0.079   5.430
10762SOL    HW233186   2.987   0.211   5.362
10763SOL     OW33187   3.455   0.610   3.609
10763SOL    HW133188   3.535   0.649   3.563
10763SOL    HW233189   3.470   0.512   3.623
10764SOL     OW33190   5.022   1.159   4.493
10764SOL    HW133191   5.034   1.232   4.561
10764SOL    HW233192   5.030   1.070   4.538
10765SOL     OW33193   5.013   3.056   0.843
10765SOL    HW133194   5.054   2.970   0.814
10765SOL    HW233195   4.944   3.084   0.776
10766SOL     OW33196   3.841   4.322   0.656
10766SOL    HW133197   3.876   4.411   0.687
10766SOL    HW233198   3.913   4.253   0.666
10767SOL     OW33199   2.650   0.237   0.636
10767SOL    HW133200   2.558   0.198   0.639
10767SOL    HW233201   2.652   0.322   0.689
10768SOL     OW33202   6.528   4.952   0.988
10768SOL    HW133203   6.529   5.011   0.907
10768SOL    HW233204   6.590   4.875   0.975
10769SOL     OW33205   1.709   3.339   5.860
10769SOL    HW133206   1.738   3.426   5.900
10769SOL    HW233207   1.751   3.330   5.770
10770SOL     OW33208   4.770   5.237   2.950
10770SOL    HW133209   4.691   5.203   2.898
10770SOL    HW233210   4.793   5.329   2.920
10771SOL     OW33211   3.983   6.920   3.939
10771SOL    HW133212   3.999   7.019   3.939
10771SOL    HW233213   3.952   6.891   4.030
10772SOL     OW33214   7.019   5.928   3.823
10772SOL    HW133215   0.087   5.956   3.793
10772SOL    HW233216   7.013   5.936   3.923
10773SOL     OW33217   5.942   4.463   5.303
10773SOL    HW133218   5.910   4.397   5.371
10773SOL    HW233219   5.874   4.472   5.231
10774SOL     OW33220   1.568   1.205   4.226
10774SOL    HW133221   1.643   1.148   4.259
10774SOL    HW233222   1.505   1.225   4.301
10775SOL     OW33223   1.001   4.204   1.716
10775SOL    HW133224   0.951   4.168   1.637
10775SOL    HW233225   0.990   4.304   1.719
10776SOL     OW33226   1.732   1.089   5.862
10776SOL    HW133227   1.796   1.108   5.788
10776SOL    HW233228   1.747   0.996   5.896
10777SOL     OW33229   3.792   4.940   1.367
10777SOL    HW133230   3.884   4.902   1.368
10777SOL    HW233231   3.751   4.926   1.276
10778SOL     OW33232   5.423   6.304   4.031
10778SOL    HW133233   5.348   6.340   4.086
10778SOL    HW233234   5.446   6.212   4.062
10779SOL     OW33235   6.117   2.836   3.112
10779SOL    HW133236   6.091   2.925   3.074
10779SOL    HW233237   6.069   2.822   3.198
10780SOL     OW33238   1.263   0.749   4.039
10780SOL    HW133239   1.212   0.799   3.969
10780SOL    HW233240   1.326   0.813   4.086
10781SOL     OW33241   3.959   0.199   3.907
10781SOL    HW133242   3.951   0.247   3.820
10781SOL    HW233243   3.921   0.256   3.980
10782SOL     OW33244   6.399   6.818   4.152
10782SOL    HW133245   6.352   6.750   4.097
10782SOL    HW233246   6.490   6.835   4.114
10783SOL     OW33247   0.393   2.657   2.846
10783SOL    HW133248   0.487   2.622   2.850
10783SOL    HW233249   0.357   2.666   2.939
10784SOL     OW33250   2.890   1.341   3.814
10784SOL    HW133251   2.832   1.259   3.821
10784SOL    HW233252   2.848   1.416   3.865
10785SOL     OW33253   0.980   3.963   0.209
10785SOL    HW133254   0.960   4.061   0.198
10785SOL    HW233255   0.954   3.914   0.126
10786SOL     OW33256   6.028   6.017   3.255
10786SOL    HW133257   6.072   5.929   3.238
10786SOL    HW233258   6.093   6.091   3.236
10787SOL     OW33259   0.588   0.510   5.754
10787SOL    HW133260   0.535   0.542   5.676
10787SOL    HW233261   0.680   0.548   5.750
10788SOL     OW33262   0.525   3.750   6.908
10788SOL    HW133263   0.460   3.819   6.941
10788SOL    HW233264   0.606   3.794   6.872
10789SOL     OW33265   6.941   2.502   6.956
10789SOL    HW133266   6.945   2.599   6.977
10789SOL    HW233267   6.884   2.455   0.001
10790SOL     OW33268   0.499   6.709   1.681
10790SOL    HW133269   0.485   6.646   1.758
10790SOL    HW233270   0.493   6.803   1.714
10791SOL     OW33271   6.399   6.245   2.178
10791SOL    HW133272   6.453   6.254   2.094
10791SOL    HW233273   6.444   6.296   2.252
10792SOL     OW33274   3.849   3.576   5.343
10792SOL    HW133275   3.909   3.655   5.352
10792SOL    HW233276   3.898   3.493   5.371
10793SOL     OW33277   5.413   3.620   5.690
10793SOL    HW133278   5.467   3.537   5.702
10793SOL    HW233279   5.346   3.628   5.763
10794SOL     OW33280   3.677   3.740   3.716
10794SOL    HW133281   3.708   3.694   3.800
10794SOL    HW233282   3.582   3.768   3.727
10795SOL     OW33283   0.988   4.184   2.644
10795SOL    HW133284   0.918   4.230   2.590
10795SOL    HW233285   0.967   4.193   2.741
10796SOL     OW33286   0.726   6.317   5.501
10796SOL    HW133287   0.753   6.410   5.528
10796SOL    HW233288   0.808   6.263   5.482
10797SOL     OW33289   4.113   2.685   0.690
10797SOL    HW133290   4.087   2.597   0.730
10797SOL    HW233291   4.206   2.680   0.654
10798SOL     OW33292   1.885   1.541   0.829
10798SOL    HW133293   1.800   1.544   0.882
10798SOL    HW233294   1.873   1.483   0.749
10799SOL     OW33295   3.804   0.568   2.949
10799SOL    HW133296   3.791   0.479   2.906
10799SOL    HW233297   3.767   0.567   3.041
10800SOL     OW33298   1.243   6.074   0.216
10800SOL    HW133299   1.266   6.005   0.148
10800SOL    HW233300   1.264   6.039   0.308
10801SOL     OW33301   1.449   0.900   0.414
10801SOL    HW133302   1.361   0.866   0.445
10801SOL    HW233303   1.491   0.956   0.485
10802SOL     OW33304   6.327   6.580   3.976
10802SOL    HW133305   6.264   6.512   3.940
10802SOL    HW233306   6.315   6.667   3.927
10803SOL     OW33307   1.618   5.450   6.714
10803SOL    HW133308   1.613   5.468   6.813
10803SOL    HW233309   1.702   5.492   6.678
10804SOL     OW33310   0.089   2.961   3.643
10804SOL    HW133311   0.093   2.992   3.738
10804SOL    HW233312   0.181   2.947   3.608
10805SOL     OW33313   5.846   0.872   4.456
10805SOL    HW133314   5.929   0.818   4.470
10805SOL    HW233315   5.795   0.876   4.541
10806SOL     OW33316   2.993   5.197   6.644
10806SOL    HW133317   3.086   5.160   6.655
10806SOL    HW233318   2.951   5.206   6.734
10807SOL     OW33319   2.314   5.900   3.662
10807SOL    HW133320   2.375   5.943   3.595
10807SOL    HW233321   2.299   5.963   3.738
10808SOL     OW33322   6.912   2.169   6.103
10808SOL    HW133323   6.872   2.245   6.052
10808SOL    HW233324   6.989   2.202   6.157
10809SOL     OW33325   2.551   4.735   4.399
10809SOL    HW133326   2.487   4.740   4.476
10809SOL    HW233327   2.643   4.760   4.430
10810SOL     OW33328   0.298   0.374   3.846
10810SOL    HW133329   0.394   0.362   3.870
10810SOL    HW233330   0.289   0.383   3.746
10811SOL     OW33331   4.930   5.335   4.952
10811SOL    HW133332   4.844   5.359   4.998
10811SOL    HW233333   4.998   5.405   4.970
10812SOL     OW33334   6.964   3.200   6.378
10812SOL    HW133335   6.998   3.110   6.349
10812SOL    HW233336   0.015   3.267   6.370
10813SOL     OW33337   0.443   3.702   5.844
10813SOL    HW133338   0.419   3.642   5.767
10813SOL    HW233339   0.487   3.649   5.916
10814SOL     OW33340   1.818   0.349   0.217
10814SOL    HW133341   1.797   0.252   0.225
10814SOL    HW233342   1.732   0.401   0.210
10815SOL     OW33343   5.282   1.497   3.838
10815SOL    HW133344   5.300   1.418   3.780
10815SOL    HW233345   5.283   1.580   3.783
10816SOL     OW33346   3.126   3.043   3.536
10816SOL    HW133347   3.085   3.128   3.569
10816SOL    HW233348   3.128   3.044   3.436
10817SOL     OW33349   2.583   0.375   3.399
10817SOL    HW133350   2.501   0.411   3.354
10817SOL    HW233351   2.662   0.429   3.371
10818SOL     OW33352   4.867   5.337   6.118
10818SOL    HW133353   4.886   5.418   6.174
10818SOL    HW233354   4.952   5.296   6.087
10819SOL     OW33355   0.156   5.416   6.554
10819SOL    HW133356   0.232   5.430   6.617
10819SOL    HW233357   0.184   5.442   6.461
10820SOL     OW33358   1.262   5.395   5.497
10820SOL    HW133359   1.291   5.337   5.421
10820SOL    HW233360   1.338   5.452   5.526
10821SOL     OW33361   4.268   5.321   2.637
10821SOL    HW133362   4.218   5.235   2.647
10821SOL    HW233363   4.248   5.361   2.548
10822SOL     OW33364   5.858   2.378   0.415
10822SOL    HW133365   5.927   2.425   0.359
10822SOL    HW233366   5.798   2.325   0.356
10823SOL     OW33367   0.134   6.949   3.143
10823SOL    HW133368   0.035   6.936   3.142
10823SOL    HW233369   0.156   0.015   3.183
10824SOL     OW33370   1.367   0.887   4.528
10824SOL    HW133371   1.285   0.901   4.584
10824SOL    HW233372   1.347   0.821   4.456
10825SOL     OW33373   1.069   1.982   0.569
10825SOL    HW133374   1.094   1.972   0.666
10825SOL    HW233375   1.041   2.076   0.551
10826SOL     OW33376   1.601   1.965   2.394
10826SOL    HW133377   1.631   2.021   2.317
10826SOL    HW233378   1.679   1.946   2.454
10827SOL     OW33379   6.430   3.769   5.322
10827SOL    HW133380   6.348   3.726   5.360
10827SOL    HW233381   6.407   3.814   5.236
10828SOL     OW33382   6.604   3.604   6.811
10828SOL    HW133383   6.673   3.532   6.802
10828SOL    HW233384   6.569   3.605   6.904
10829SOL     OW33385   4.776   3.431   6.621
10829SOL    HW133386   4.850   3.376   6.584
10829SOL    HW233387   4.770   3.518   6.571
10830SOL     OW33388   4.799   1.458   3.472
10830SOL    HW133389   4.862   1.421   3.405
10830SOL    HW233390   4.789   1.395   3.548
10831SOL     OW33391   4.173   0.853   2.804
10831SOL    HW133392   4.165   0.932   2.744
10831SOL    HW233393   4.141   0.877   2.895
10832SOL     OW33394   6.621   3.485   0.702
10832SOL    HW133395   6.700   3.479   0.764
10832SOL    HW233396   6.539   3.505   0.756
10833SOL     OW33397   0.758   1.448   0.779
10833SOL    HW133398   0.822   1.525   0.771
10833SOL    HW233399   0.670   1.474   0.739
10834SOL     OW33400   6.718   6.728   0.648
10834SOL    HW133401   6.707   6.814   0.698
10834SOL    HW233402   6.815   6.711   0.633
10835SOL     OW33403   5.792   3.400   6.380
10835SOL    HW133404   5.833   3.441   6.299
10835SOL    HW233405   5.714   3.343   6.353
10836SOL     OW33406   0.872   1.675   3.218
10836SOL    HW133407   0.812   1.599   3.194
10836SOL    HW233408   0.911   1.659   3.309
10837SOL     OW33409   6.963   4.355   2.436
10837SOL    HW133410   6.870   4.369   2.401
10837SOL    HW233411   6.979   4.257   2.447
10838SOL     OW33412   5.954   5.832   3.562
10838SOL    HW133413   5.938   5.797   3.470
10838SOL    HW233414   6.052   5.841   3.577
10839SOL     OW33415   4.938   3.816   0.372
10839SOL    HW133416   4.867   3.859   0.316
10839SOL    HW233417   4.973   3.882   0.438
10840SOL     OW33418   3.090   0.098   0.784
10840SOL    HW133419   3.179   0.143   0.789
10840SOL    HW233420   3.030   0.150   0.724
10841SOL     OW33421   0.983   5.143   4.954
10841SOL    HW133422   1.082   5.153   4.940
10841SOL    HW233423   0.940   5.115   4.869
10842SOL     OW33424   4.744   4.103   1.291
10842SOL    HW133425   4.749   4.203   1.297
10842SOL    HW233426   4.656   4.072   1.328
10843SOL     OW33427   1.910   1.711   1.168
10843SOL    HW133428   1.843   1.664   1.225
10843SOL    HW233429   1.899   1.681   1.073
10844SOL     OW33430   1.094   5.692   4.856
10844SOL    HW133431   1.059   5.622   4.919
10844SOL    HW233432   1.048   5.682   4.768
10845SOL     OW33433   4.707   6.178   5.302
10845SOL    HW133434   4.672   6.106   5.362
10845SOL    HW233435   4.768   6.138   5.234
10846SOL     OW33436   5.305   6.427   0.594
10846SOL    HW133437   5.255   6.513   0.589
10846SOL    HW233438   5.345   6.407   0.505
10847SOL     OW33439   1.647   1.712   6.955
10847SOL    HW133440   1.657   1.801   6.999
10847SOL    HW233441   1.731   1.689   6.906
10848SOL     OW33442   1.653   4.133   1.143
10848SOL    HW133443   1.746   4.098   1.157
10848SOL    HW233444   1.589   4.057   1.142
10849SOL     OW33445   2.997   5.618   3.951
10849SOL    HW133446   3.018   5.521   3.935
10849SOL    HW233447   2.904   5.627   3.984
10850SOL     OW33448   4.100   6.247   0.180
10850SOL    HW133449   4.120   6.195   0.262
10850SOL    HW233450   4.003   6.274   0.181
10851SOL     OW33451   2.225   4.360   2.117
10851SOL    HW133452   2.256   4.418   2.192
10851SOL    HW233453   2.179   4.416   2.049
10852SOL     OW33454   2.247   1.783   1.036
10852SOL    HW133455   2.246   1.692   0.994
10852SOL    HW233456   2.164   1.832   1.009
10853SOL     OW33457   2.297   2.370   6.301
10853SOL    HW133458   2.214   2.320   6.327
10853SOL    HW233459   2.271   2.457   6.260
10854SOL     OW33460   4.195   6.028   5.228
10854SOL    HW133461   4.176   5.943   5.179
10854SOL    HW233462   4.252   6.088   5.172
10855SOL     OW33463   3.166   1.384   0.684
10855SOL    HW133464   3.230   1.406   0.757
10855SOL    HW233465   3.157   1.285   0.676
10856SOL     OW33466   0.010   0.455   0.068
10856SOL    HW133467   6.990   0.430   7.004
10856SOL    HW233468   0.007   0.554   0.079
10857SOL     OW33469   6.652   1.274   2.485
10857SOL    HW133470   6.560   1.248   2.455
10857SOL    HW233471   6.646   1.323   2.571
10858SOL     OW33472   2.729   5.973   1.455
10858SOL    HW133473   2.638   5.999   1.422
10858SOL    HW233474   2.757   6.036   1.527
10859SOL     OW33475   0.905   5.373   4.079
10859SOL    HW133476   0.842   5.313   4.127
10859SOL    HW233477   0.971   5.411   4.143
10860SOL     OW33478   6.590   2.816   2.427
10860SOL    HW133479   6.643   2.899   2.411
10860SOL    HW233480   6.622   2.770   2.509
10861SOL     OW33481   3.277   3.087   4.283
10861SOL    HW133482   3.330   3.022   4.228
10861SOL    HW233483   3.314   3.089   4.376
10862SOL     OW33484   1.915   0.067   5.235
10862SOL    HW133485   1.939   0.067   5.332
10862SOL    HW233486   1.851   0.141   5.217
10863SOL     OW33487   3.384   5.805   4.800
10863SOL    HW133488   3.477   5.828   4.773
10863SOL    HW233489   3.341   5.884   4.844
10864SOL     OW33490   3.414   6.776   2.304
10864SOL    HW133491   3.402   6.853   2.366
10864SOL    HW233492   3.499   6.727   2.328
10865SOL     OW33493   5.873   1.314   6.543
10865SOL    HW133494   5.902   1.379   6.613
10865SOL    HW233495   5.791   1.347   6.498
10866SOL     OW33496   5.207   4.856   0.206
10866SOL    HW133497   5.172   4.779   0.152
10866SOL    HW233498   5.178   4.942   0.164
10867SOL     OW33499   3.425   3.781   0.603
10867SOL    HW133500   3.356   3.728   0.554
10867SOL    HW233501   3.512   3.731   0.602
10868SOL     OW33502   3.255   1.705   3.427
10868SOL    HW133503   3.276   1.610   3.450
10868SOL    HW233504   3.259   1.760   3.511
10869NA      NA33505   5.932   2.283   5.500
10870NA      NA33506   4.377   4.671   5.265
10871NA      NA33507   2.061   3.597   1.417
10872NA      NA33508   4.684   3.838   5.223
10873NA      NA33509   4.352   2.424   5.251
10874NA      NA33510   3.629   4.657   1.655
10875NA      NA33511   6.751   5.555   5.563
10876NA      NA33512   3.647   3.619   5.195
10877NA      NA33513   4.958   6.718   6.808
10878NA      NA33514   3.696   0.039   5.622
10879NA      NA33515   6.521   4.757   2.351
10880NA      NA33516   2.297   0.550   3.701
10881NA      NA33517   3.479   4.754   1.347
10882NA      NA33518   3.488   3.669   2.714
   7.02275   7.02275   7.02275
