Generated by trjconv : CNT in water t= 120.00000
33518
    1C        C    1   2.852   2.778   4.750
    1C        C    2   2.899   2.721   4.871
    1C        C    3   2.843   2.775   4.987
    1C        C    4   2.852   2.773   4.262
    1C        C    5   2.902   2.724   4.385
    1C        C    6   2.852   2.775   4.507
    1C        C    7   3.014   2.641   4.628
    1C        C    8   2.897   2.721   4.629
    1C        C    9   3.078   2.607   4.749
    1C        C   10   3.008   2.631   4.869
    1C        C   11   3.182   2.498   4.982
    1C        C   12   3.057   2.561   4.980
    1C        C   13   2.855   2.770   3.775
    1C        C   14   2.906   2.718   3.896
    1C        C   15   2.854   2.771   4.016
    1C        C   16   3.016   2.640   4.141
    1C        C   17   2.902   2.723   4.140
    1C        C   18   3.079   2.605   4.263
    1C        C   19   3.015   2.639   4.384
    1C        C   20   3.204   2.549   4.508
    1C        C   21   3.072   2.600   4.507
    1C        C   22   3.275   2.528   4.628
    1C        C   23   3.210   2.554   4.751
    1C        C   24   3.412   2.484   4.868
    1C        C   25   3.270   2.503   4.869
    1C        C   26   3.489   2.483   4.985
    1C        C   27   2.857   2.774   3.284
    1C        C   28   2.911   2.729   3.406
    1C        C   29   2.857   2.772   3.529
    1C        C   30   3.021   2.641   3.651
    1C        C   31   2.907   2.725   3.652
    1C        C   32   3.080   2.601   3.773
    1C        C   33   3.019   2.633   3.896
    1C        C   34   3.210   2.550   4.017
    1C        C   35   3.078   2.601   4.020
    1C        C   36   3.278   2.529   4.139
    1C        C   37   3.212   2.557   4.261
    1C        C   38   3.413   2.512   4.384
    1C        C   39   3.274   2.533   4.386
    1C        C   40   3.486   2.499   4.504
    1C        C   41   3.414   2.500   4.626
    1C        C   42   3.628   2.484   4.743
    1C        C   43   3.486   2.483   4.746
    1C        C   44   3.702   2.487   4.863
    1C        C   45   3.628   2.480   4.982
    1C        C   46   2.840   2.755   2.795
    1C        C   47   2.898   2.714   2.917
    1C        C   48   2.847   2.763   3.040
    1C        C   49   3.016   2.635   3.162
    1C        C   50   2.903   2.719   3.162
    1C        C   51   3.080   2.603   3.284
    1C        C   52   3.025   2.645   3.407
    1C        C   53   3.210   2.543   3.528
    1C        C   54   3.083   2.605   3.529
    1C        C   55   3.279   2.522   3.650
    1C        C   56   3.209   2.543   3.772
    1C        C   57   3.415   2.501   3.894
    1C        C   58   3.275   2.524   3.895
    1C        C   59   3.484   2.496   4.017
    1C        C   60   3.416   2.502   4.141
    1C        C   61   3.627   2.501   4.260
    1C        C   62   3.486   2.498   4.264
    1C        C   63   3.699   2.507   4.381
    1C        C   64   3.627   2.501   4.503
    1C        C   65   3.835   2.546   4.624
    1C        C   66   3.701   2.504   4.624
    1C        C   67   3.904   2.565   4.746
    1C        C   68   3.838   2.526   4.864
    1C        C   69   4.051   2.585   4.975
    1C        C   70   3.922   2.529   4.976
    1C        C   71   2.829   2.739   2.309
    1C        C   72   2.888   2.699   2.430
    1C        C   73   2.839   2.751   2.552
    1C        C   74   3.010   2.624   2.674
    1C        C   75   2.893   2.705   2.675
    1C        C   76   3.071   2.591   2.797
    1C        C   77   3.013   2.632   2.919
    1C        C   78   3.206   2.540   3.037
    1C        C   79   3.077   2.598   3.040
    1C        C   80   3.276   2.523   3.159
    1C        C   81   3.209   2.546   3.282
    1C        C   82   3.413   2.498   3.401
    1C        C   83   3.274   2.520   3.404
    1C        C   84   3.484   2.489   3.524
    1C        C   85   3.417   2.496   3.648
    1C        C   86   3.627   2.503   3.769
    1C        C   87   3.486   2.495   3.772
    1C        C   88   3.693   2.513   3.894
    1C        C   89   3.625   2.506   4.017
    1C        C   90   3.834   2.550   4.136
    1C        C   91   3.697   2.513   4.138
    1C        C   92   3.902   2.570   4.259
    1C        C   93   3.836   2.542   4.380
    1C        C   94   4.027   2.636   4.497
    1C        C   95   3.903   2.568   4.502
    1C        C   96   4.089   2.670   4.619
    1C        C   97   4.031   2.629   4.742
    1C        C   98   4.199   2.762   4.860
    1C        C   99   4.100   2.659   4.863
    1C        C  100   4.221   2.839   4.975
    1C        C  101   2.823   2.732   2.072
    1C        C  102   2.987   2.586   2.193
    1C        C  103   2.880   2.681   2.190
    1C        C  104   3.060   2.564   2.313
    1C        C  105   3.001   2.614   2.431
    1C        C  106   3.200   2.534   2.552
    1C        C  107   3.069   2.585   2.552
    1C        C  108   3.271   2.519   2.673
    1C        C  109   3.202   2.538   2.795
    1C        C  110   3.412   2.494   2.913
    1C        C  111   3.272   2.515   2.915
    1C        C  112   3.483   2.492   3.035
    1C        C  113   3.416   2.504   3.159
    1C        C  114   3.628   2.493   3.281
    1C        C  115   3.487   2.495   3.280
    1C        C  116   3.696   2.508   3.405
    1C        C  117   3.624   2.502   3.526
    1C        C  118   3.836   2.540   3.647
    1C        C  119   3.698   2.509   3.647
    1C        C  120   3.900   2.567   3.770
    1C        C  121   3.831   2.544   3.891
    1C        C  122   4.023   2.636   4.011
    1C        C  123   3.900   2.568   4.012
    1C        C  124   4.084   2.675   4.132
    1C        C  125   4.025   2.639   4.255
    1C        C  126   4.198   2.763   4.375
    1C        C  127   4.091   2.672   4.376
    1C        C  128   4.242   2.818   4.498
    1C        C  129   4.187   2.772   4.619
    1C        C  130   4.325   2.937   4.739
    1C        C  131   4.245   2.820   4.739
    1C        C  132   4.361   3.003   4.859
    1C        C  133   4.293   2.958   4.973
    1C        C  134   3.172   2.465   2.083
    1C        C  135   3.037   2.505   2.086
    1C        C  136   3.260   2.480   2.191
    1C        C  137   3.194   2.518   2.311
    1C        C  138   3.407   2.485   2.427
    1C        C  139   3.268   2.506   2.431
    1C        C  140   3.481   2.483   2.548
    1C        C  141   3.411   2.497   2.670
    1C        C  142   3.624   2.491   2.792
    1C        C  143   3.483   2.490   2.791
    1C        C  144   3.695   2.503   2.914
    1C        C  145   3.625   2.498   3.036
    1C        C  146   3.833   2.537   3.153
    1C        C  147   3.696   2.502   3.158
    1C        C  148   3.897   2.563   3.276
    1C        C  149   3.833   2.543   3.400
    1C        C  150   4.026   2.628   3.522
    1C        C  151   3.899   2.566   3.523
    1C        C  152   4.088   2.666   3.643
    1C        C  153   4.025   2.634   3.765
    1C        C  154   4.192   2.762   3.886
    1C        C  155   4.082   2.675   3.888
    1C        C  156   4.245   2.811   4.007
    1C        C  157   4.196   2.761   4.130
    1C        C  158   4.335   2.922   4.252
    1C        C  159   4.249   2.810   4.252
    1C        C  160   4.372   2.983   4.374
    1C        C  161   4.333   2.926   4.498
    1C        C  162   4.435   3.118   4.614
    1C        C  163   4.367   2.995   4.617
    1C        C  164   4.466   3.185   4.735
    1C        C  165   4.430   3.126   4.858
    1C        C  166   4.519   3.320   4.973
    1C        C  167   4.483   3.186   4.973
    1C        C  168   3.477   2.436   2.074
    1C        C  169   3.399   2.458   2.188
    1C        C  170   3.619   2.471   2.307
    1C        C  171   3.477   2.472   2.305
    1C        C  172   3.693   2.493   2.426
    1C        C  173   3.622   2.492   2.548
    1C        C  174   3.829   2.539   2.666
    1C        C  175   3.693   2.502   2.669
    1C        C  176   3.897   2.561   2.787
    1C        C  177   3.831   2.539   2.910
    1C        C  178   4.025   2.629   3.031
    1C        C  179   3.900   2.564   3.032
    1C        C  180   4.084   2.665   3.155
    1C        C  181   4.022   2.630   3.277
    1C        C  182   4.194   2.752   3.397
    1C        C  183   4.085   2.663   3.399
    1C        C  184   4.242   2.807   3.518
    1C        C  185   4.197   2.755   3.642
    1C        C  186   4.336   2.918   3.764
    1C        C  187   4.247   2.808   3.763
    1C        C  188   4.374   2.978   3.886
    1C        C  189   4.332   2.923   4.009
    1C        C  190   4.445   3.104   4.127
    1C        C  191   4.377   2.979   4.130
    1C        C  192   4.472   3.169   4.249
    1C        C  193   4.440   3.106   4.372
    1C        C  194   4.508   3.314   4.491
    1C        C  195   4.467   3.178   4.491
    1C        C  196   4.519   3.389   4.610
    1C        C  197   4.504   3.322   4.734
    1C        C  198   4.553   3.535   4.852
    1C        C  199   4.530   3.394   4.854
    1C        C  200   4.585   3.623   4.961
    1C        C  201   3.615   2.411   2.075
    1C        C  202   3.824   2.514   2.182
    1C        C  203   3.693   2.459   2.186
    1C        C  204   3.898   2.544   2.301
    1C        C  205   3.832   2.519   2.423
    1C        C  206   4.024   2.617   2.542
    1C        C  207   3.898   2.553   2.543
    1C        C  208   4.083   2.658   2.664
    1C        C  209   4.025   2.622   2.788
    1C        C  210   4.200   2.746   2.906
    1C        C  211   4.087   2.661   2.908
    1C        C  212   4.247   2.796   3.029
    1C        C  213   4.197   2.749   3.152
    1C        C  214   4.337   2.908   3.274
    1C        C  215   4.251   2.796   3.275
    1C        C  216   4.370   2.973   3.395
    1C        C  217   4.332   2.916   3.518
    1C        C  218   4.438   3.099   3.638
    1C        C  219   4.375   2.973   3.640
    1C        C  220   4.464   3.167   3.759
    1C        C  221   4.440   3.103   3.883
    1C        C  222   4.505   3.306   4.001
    1C        C  223   4.467   3.170   4.004
    1C        C  224   4.515   3.376   4.123
    1C        C  225   4.504   3.307   4.246
    1C        C  226   4.519   3.521   4.367
    1C        C  227   4.514   3.380   4.366
    1C        C  228   4.521   3.596   4.487
    1C        C  229   4.528   3.530   4.611
    1C        C  230   4.498   3.742   4.727
    1C        C  231   4.539   3.606   4.729
    1C        C  232   4.495   3.819   4.845
    1C        C  233   4.545   3.757   4.961
    1C        C  234   4.017   2.613   2.062
    1C        C  235   3.892   2.551   2.065
    1C        C  236   4.087   2.649   2.178
    1C        C  237   4.024   2.610   2.298
    1C        C  238   4.198   2.736   2.419
    1C        C  239   4.084   2.650   2.419
    1C        C  240   4.255   2.783   2.539
    1C        C  241   4.199   2.739   2.661
    1C        C  242   4.334   2.906   2.784
    1C        C  243   4.249   2.793   2.782
    1C        C  244   4.381   2.958   2.907
    1C        C  245   4.338   2.905   3.030
    1C        C  246   4.437   3.094   3.147
    1C        C  247   4.377   2.966   3.151
    1C        C  248   4.455   3.164   3.268
    1C        C  249   4.427   3.102   3.392
    1C        C  250   4.498   3.301   3.515
    1C        C  251   4.458   3.166   3.515
    1C        C  252   4.510   3.373   3.636
    1C        C  253   4.501   3.303   3.758
    1C        C  254   4.521   3.517   3.879
    1C        C  255   4.515   3.376   3.879
    1C        C  256   4.514   3.588   4.001
    1C        C  257   4.520   3.517   4.123
    1C        C  258   4.489   3.730   4.241
    1C        C  259   4.513   3.590   4.244
    1C        C  260   4.466   3.800   4.362
    1C        C  261   4.487   3.733   4.485
    1C        C  262   4.420   3.938   4.603
    1C        C  263   4.464   3.804   4.605
    1C        C  264   4.395   4.008   4.723
    1C        C  265   4.430   3.944   4.845
    1C        C  266   4.314   4.132   4.956
    1C        C  267   4.389   4.015   4.959
    1C        C  268   4.263   2.778   2.062
    1C        C  269   4.201   2.732   2.179
    1C        C  270   4.350   2.889   2.298
    1C        C  271   4.256   2.782   2.299
    1C        C  272   4.387   2.948   2.421
    1C        C  273   4.347   2.890   2.543
    1C        C  274   4.445   3.085   2.659
    1C        C  275   4.380   2.960   2.662
    1C        C  276   4.471   3.152   2.781
    1C        C  277   4.442   3.086   2.902
    1C        C  278   4.502   3.292   3.024
    1C        C  279   4.463   3.156   3.022
    1C        C  280   4.517   3.364   3.145
    1C        C  281   4.495   3.299   3.268
    1C        C  282   4.516   3.510   3.388
    1C        C  283   4.508   3.369   3.391
    1C        C  284   4.516   3.581   3.511
    1C        C  285   4.517   3.514   3.635
    1C        C  286   4.490   3.726   3.753
    1C        C  287   4.516   3.587   3.756
    1C        C  288   4.477   3.796   3.876
    1C        C  289   4.491   3.728   3.999
    1C        C  290   4.423   3.931   4.118
    1C        C  291   4.473   3.799   4.119
    1C        C  292   4.394   3.998   4.239
    1C        C  293   4.423   3.934   4.362
    1C        C  294   4.324   4.127   4.479
    1C        C  295   4.393   4.003   4.481
    1C        C  296   4.283   4.192   4.598
    1C        C  297   4.323   4.131   4.719
    1C        C  298   4.201   4.315   4.840
    1C        C  299   4.285   4.199   4.837
    1C        C  300   4.165   4.401   4.949
    1C        C  301   4.351   2.886   2.060
    1C        C  302   4.479   3.065   2.175
    1C        C  303   4.400   2.945   2.178
    1C        C  304   4.492   3.137   2.297
    1C        C  305   4.455   3.072   2.417
    1C        C  306   4.510   3.283   2.535
    1C        C  307   4.478   3.145   2.536
    1C        C  308   4.513   3.357   2.655
    1C        C  309   4.504   3.289   2.779
    1C        C  310   4.520   3.501   2.900
    1C        C  311   4.518   3.359   2.901
    1C        C  312   4.515   3.573   3.022
    1C        C  313   4.524   3.505   3.145
    1C        C  314   4.490   3.718   3.265
    1C        C  315   4.517   3.579   3.265
    1C        C  316   4.475   3.788   3.386
    1C        C  317   4.499   3.721   3.508
    1C        C  318   4.426   3.923   3.628
    1C        C  319   4.478   3.792   3.628
    1C        C  320   4.392   3.988   3.749
    1C        C  321   4.418   3.924   3.872
    1C        C  322   4.318   4.111   3.996
    1C        C  323   4.392   3.991   3.994
    1C        C  324   4.275   4.170   4.117
    1C        C  325   4.325   4.121   4.240
    1C        C  326   4.185   4.289   4.353
    1C        C  327   4.283   4.186   4.358
    1C        C  328   4.135   4.342   4.473
    1C        C  329   4.194   4.301   4.595
    1C        C  330   4.029   4.438   4.713
    1C        C  331   4.144   4.355   4.716
    1C        C  332   3.972   4.496   4.828
    1C        C  333   4.052   4.484   4.942
    1C        C  334   4.559   3.265   2.065
    1C        C  335   4.538   3.127   2.061
    1C        C  336   4.538   3.349   2.176
    1C        C  337   4.516   3.277   2.296
    1C        C  338   4.523   3.496   2.413
    1C        C  339   4.519   3.355   2.414
    1C        C  340   4.520   3.570   2.533
    1C        C  341   4.516   3.498   2.655
    1C        C  342   4.497   3.709   2.775
    1C        C  343   4.517   3.569   2.777
    1C        C  344   4.475   3.779   2.896
    1C        C  345   4.493   3.713   3.019
    1C        C  346   4.420   3.914   3.139
    1C        C  347   4.472   3.783   3.140
    1C        C  348   4.389   3.979   3.261
    1C        C  349   4.420   3.918   3.385
    1C        C  350   4.315   4.104   3.505
    1C        C  351   4.392   3.985   3.506
    1C        C  352   4.272   4.163   3.626
    1C        C  353   4.316   4.107   3.748
    1C        C  354   4.177   4.264   3.869
    1C        C  355   4.274   4.162   3.871
    1C        C  356   4.123   4.317   3.988
    1C        C  357   4.180   4.275   4.111
    1C        C  358   4.009   4.404   4.229
    1C        C  359   4.131   4.333   4.230
    1C        C  360   3.950   4.448   4.350
    1C        C  361   4.017   4.420   4.471
    1C        C  362   3.830   4.519   4.592
    1C        C  363   3.961   4.465   4.592
    1C        C  364   3.763   4.550   4.712
    1C        C  365   3.837   4.538   4.832
    1C        C  366   3.630   4.592   4.950
    1C        C  367   3.768   4.574   4.948
    1C        C  368   4.505   3.564   2.053
    1C        C  369   4.517   3.488   2.171
    1C        C  370   4.498   3.704   2.291
    1C        C  371   4.519   3.564   2.290
    1C        C  372   4.480   3.777   2.410
    1C        C  373   4.503   3.711   2.533
    1C        C  374   4.422   3.908   2.650
    1C        C  375   4.481   3.780   2.654
    1C        C  376   4.390   3.972   2.772
    1C        C  377   4.423   3.911   2.894
    1C        C  378   4.321   4.098   3.013
    1C        C  379   4.393   3.977   3.016
    1C        C  380   4.275   4.156   3.134
    1C        C  381   4.315   4.099   3.257
    1C        C  382   4.176   4.258   3.379
    1C        C  383   4.272   4.154   3.380
    1C        C  384   4.124   4.310   3.499
    1C        C  385   4.176   4.266   3.623
    1C        C  386   4.010   4.395   3.743
    1C        C  387   4.124   4.312   3.747
    1C        C  388   3.943   4.430   3.863
    1C        C  389   4.008   4.399   3.984
    1C        C  390   3.821   4.495   4.109
    1C        C  391   3.950   4.438   4.106
    1C        C  392   3.753   4.522   4.229
    1C        C  393   3.823   4.509   4.351
    1C        C  394   3.620   4.570   4.475
    1C        C  395   3.758   4.542   4.473
    1C        C  396   3.547   4.576   4.596
    1C        C  397   3.623   4.570   4.715
    1C        C  398   3.413   4.547   4.839
    1C        C  399   3.551   4.579   4.836
    1C        C  400   3.342   4.522   4.956
    1C        C  401   4.506   3.703   2.054
    1C        C  402   4.451   3.914   2.170
    1C        C  403   4.489   3.778   2.171
    1C        C  404   4.409   3.977   2.289
    1C        C  405   4.427   3.907   2.411
    1C        C  406   4.324   4.098   2.525
    1C        C  407   4.398   3.978   2.529
    1C        C  408   4.280   4.153   2.648
    1C        C  409   4.318   4.093   2.770
    1C        C  410   4.174   4.252   2.888
    1C        C  411   4.275   4.153   2.891
    1C        C  412   4.125   4.300   3.011
    1C        C  413   4.176   4.257   3.135
    1C        C  414   4.008   4.387   3.252
    1C        C  415   4.121   4.302   3.257
    1C        C  416   3.948   4.426   3.374
    1C        C  417   4.006   4.389   3.498
    1C        C  418   3.817   4.481   3.621
    1C        C  419   3.948   4.428   3.620
    1C        C  420   3.747   4.506   3.741
    1C        C  421   3.812   4.483   3.864
    1C        C  422   3.612   4.543   3.986
    1C        C  423   3.750   4.514   3.988
    1C        C  424   3.544   4.544   4.110
    1C        C  425   3.613   4.542   4.233
    1C        C  426   3.404   4.548   4.355
    1C        C  427   3.545   4.558   4.356
    1C        C  428   3.334   4.548   4.478
    1C        C  429   3.407   4.558   4.599
    1C        C  430   3.198   4.512   4.723
    1C        C  431   3.337   4.542   4.720
    1C        C  432   3.127   4.492   4.845
    1C        C  433   3.205   4.498   4.961
    1C        C  434   4.378   4.115   2.048
    1C        C  435   4.450   3.995   2.056
    1C        C  436   4.299   4.160   2.159
    1C        C  437   4.332   4.097   2.282
    1C        C  438   4.185   4.255   2.401
    1C        C  439   4.280   4.151   2.402
    1C        C  440   4.131   4.301   2.523
    1C        C  441   4.182   4.255   2.646
    1C        C  442   4.009   4.384   2.766
    1C        C  443   4.124   4.302   2.766
    1C        C  444   3.945   4.416   2.888
    1C        C  445   4.007   4.378   3.009
    1C        C  446   3.816   4.475   3.131
    1C        C  447   3.943   4.415   3.130
    1C        C  448   3.750   4.500   3.254
    1C        C  449   3.817   4.478   3.376
    1C        C  450   3.612   4.530   3.496
    1C        C  451   3.751   4.504   3.498
    1C        C  452   3.541   4.540   3.618
    1C        C  453   3.610   4.538   3.741
    1C        C  454   3.400   4.549   3.867
    1C        C  455   3.541   4.548   3.864
    1C        C  456   3.331   4.541   3.990
    1C        C  457   3.403   4.541   4.112
    1C        C  458   3.197   4.497   4.237
    1C        C  459   3.332   4.537   4.234
    1C        C  460   3.134   4.475   4.361
    1C        C  461   3.197   4.515   4.481
    1C        C  462   2.998   4.436   4.604
    1C        C  463   3.127   4.492   4.602
    1C        C  464   2.930   4.403   4.724
    1C        C  465   2.993   4.442   4.845
    1C        C  466   2.804   4.337   4.961
    1C        C  467   2.904   4.436   4.957
    1C        C  468   4.124   4.288   2.042
    1C        C  469   4.188   4.250   2.160
    1C        C  470   4.003   4.369   2.281
    1C        C  471   4.126   4.297   2.279
    1C        C  472   3.946   4.412   2.403
    1C        C  473   4.012   4.378   2.523
    1C        C  474   3.816   4.468   2.644
    1C        C  475   3.946   4.414   2.643
    1C        C  476   3.746   4.494   2.764
    1C        C  477   3.814   4.470   2.886
    1C        C  478   3.611   4.520   3.011
    1C        C  479   3.750   4.499   3.008
    1C        C  480   3.538   4.534   3.131
    1C        C  481   3.612   4.529   3.251
    1C        C  482   3.400   4.533   3.376
    1C        C  483   3.541   4.533   3.373
    1C        C  484   3.329   4.528   3.499
    1C        C  485   3.400   4.538   3.621
    1C        C  486   3.195   4.498   3.748
    1C        C  487   3.331   4.537   3.744
    1C        C  488   3.131   4.468   3.870
    1C        C  489   3.197   4.496   3.991
    1C        C  490   3.007   4.406   4.116
    1C        C  491   3.131   4.473   4.114
    1C        C  492   2.946   4.376   4.240
    1C        C  493   3.005   4.417   4.362
    1C        C  494   2.830   4.300   4.484
    1C        C  495   2.941   4.387   4.484
    1C        C  496   2.774   4.255   4.606
    1C        C  497   2.819   4.314   4.726
    1C        C  498   2.664   4.166   4.846
    1C        C  499   2.758   4.272   4.846
    1C        C  500   2.600   4.119   4.962
    1C        C  501   4.004   4.359   2.038
    1C        C  502   3.820   4.469   2.158
    1C        C  503   3.943   4.401   2.157
    1C        C  504   3.750   4.493   2.278
    1C        C  505   3.817   4.470   2.400
    1C        C  506   3.611   4.522   2.523
    1C        C  507   3.747   4.485   2.522
    1C        C  508   3.538   4.524   2.643
    1C        C  509   3.607   4.518   2.767
    1C        C  510   3.396   4.519   2.886
    1C        C  511   3.537   4.524   2.890
    1C        C  512   3.325   4.517   3.008
    1C        C  513   3.396   4.529   3.130
    1C        C  514   3.193   4.488   3.256
    1C        C  515   3.330   4.522   3.254
    1C        C  516   3.126   4.465   3.379
    1C        C  517   3.192   4.494   3.500
    1C        C  518   3.005   4.406   3.627
    1C        C  519   3.130   4.471   3.625
    1C        C  520   2.945   4.367   3.749
    1C        C  521   3.007   4.399   3.871
    1C        C  522   2.833   4.281   3.997
    1C        C  523   2.946   4.365   3.994
    1C        C  524   2.784   4.236   4.122
    1C        C  525   2.833   4.291   4.242
    1C        C  526   2.697   4.131   4.365
    1C        C  527   2.777   4.248   4.364
    1C        C  528   2.654   4.077   4.488
    1C        C  529   2.687   4.144   4.608
    1C        C  530   2.583   3.960   4.735
    1C        C  531   2.637   4.092   4.729
    1C        C  532   2.542   3.901   4.857
    1C        C  533   2.528   3.998   4.961
    1C        C  534   3.620   4.547   2.039
    1C        C  535   3.756   4.513   2.041
    1C        C  536   3.538   4.531   2.156
    1C        C  537   3.609   4.513   2.278
    1C        C  538   3.399   4.516   2.400
    1C        C  539   3.540   4.521   2.400
    1C        C  540   3.325   4.511   2.520
    1C        C  541   3.397   4.522   2.641
    1C        C  542   3.189   4.479   2.764
    1C        C  543   3.327   4.512   2.763
    1C        C  544   3.126   4.454   2.888
    1C        C  545   3.189   4.479   3.012
    1C        C  546   2.999   4.396   3.136
    1C        C  547   3.123   4.463   3.136
    1C        C  548   2.943   4.357   3.260
    1C        C  549   3.000   4.400   3.381
    1C        C  550   2.835   4.276   3.508
    1C        C  551   2.943   4.367   3.506
    1C        C  552   2.781   4.229   3.630
    1C        C  553   2.831   4.283   3.750
    1C        C  554   2.696   4.123   3.876
    1C        C  555   2.783   4.234   3.874
    1C        C  556   2.658   4.064   3.999
    1C        C  557   2.697   4.124   4.120
    1C        C  558   2.590   3.945   4.248
    1C        C  559   2.659   4.068   4.244
    1C        C  560   2.571   3.879   4.371
    1C        C  561   2.599   3.947   4.492
    1C        C  562   2.533   3.750   4.616
    1C        C  563   2.562   3.889   4.615
    1C        C  564   2.521   3.683   4.740
    1C        C  565   2.519   3.759   4.860
    1C        C  566   2.529   3.548   4.982
    1C        C  567   2.519   3.686   4.979
    1C        C  568   3.330   4.479   2.040
    1C        C  569   3.398   4.510   2.159
    1C        C  570   3.187   4.469   2.280
    1C        C  571   3.325   4.504   2.281
    1C        C  572   3.117   4.453   2.402
    1C        C  573   3.186   4.482   2.522
    1C        C  574   2.992   4.398   2.647
    1C        C  575   3.119   4.458   2.644
    1C        C  576   2.937   4.353   2.770
    1C        C  577   3.000   4.390   2.891
    1C        C  578   2.828   4.269   3.016
    1C        C  579   2.939   4.357   3.014
    1C        C  580   2.779   4.220   3.139
    1C        C  581   2.831   4.271   3.261
    1C        C  582   2.696   4.116   3.385
    1C        C  583   2.782   4.228   3.386
    1C        C  584   2.653   4.061   3.508
    1C        C  585   2.693   4.118   3.631
    1C        C  586   2.593   3.935   3.757
    1C        C  587   2.653   4.063   3.755
    1C        C  588   2.567   3.874   3.882
    1C        C  589   2.593   3.939   4.005
    1C        C  590   2.528   3.739   4.129
    1C        C  591   2.565   3.875   4.127
    1C        C  592   2.519   3.672   4.253
    1C        C  593   2.535   3.743   4.374
    1C        C  594   2.511   3.535   4.499
    1C        C  595   2.517   3.676   4.497
    1C        C  596   2.519   3.466   4.622
    1C        C  597   2.518   3.541   4.742
    1C        C  598   2.535   3.330   4.864
    1C        C  599   2.524   3.471   4.864
    1C        C  600   2.537   3.249   4.977
    1C        C  601   3.198   4.441   2.042
    1C        C  602   2.984   4.396   2.159
    1C        C  603   3.120   4.438   2.159
    1C        C  604   2.926   4.355   2.283
    1C        C  605   2.991   4.390   2.403
    1C        C  606   2.821   4.268   2.529
    1C        C  607   2.930   4.357   2.527
    1C        C  608   2.770   4.217   2.651
    1C        C  609   2.828   4.264   2.771
    1C        C  610   2.686   4.110   2.894
    1C        C  611   2.778   4.217   2.895
    1C        C  612   2.645   4.057   3.019
    1C        C  613   2.686   4.113   3.142
    1C        C  614   2.585   3.930   3.267
    1C        C  615   2.655   4.053   3.266
    1C        C  616   2.560   3.867   3.391
    1C        C  617   2.591   3.934   3.511
    1C        C  618   2.524   3.735   3.639
    1C        C  619   2.565   3.871   3.635
    1C        C  620   2.512   3.667   3.762
    1C        C  621   2.526   3.738   3.883
    1C        C  622   2.514   3.528   4.009
    1C        C  623   2.517   3.669   4.006
    1C        C  624   2.518   3.459   4.132
    1C        C  625   2.510   3.531   4.253
    1C        C  626   2.541   3.325   4.381
    1C        C  627   2.514   3.463   4.377
    1C        C  628   2.559   3.254   4.502
    1C        C  629   2.544   3.327   4.622
    1C        C  630   2.595   3.121   4.745
    1C        C  631   2.553   3.257   4.745
    1C        C  632   2.620   3.052   4.867
    1C        C  633   2.555   3.110   4.981
    1C        C  634   2.780   4.304   2.052
    1C        C  635   2.892   4.389   2.050
    1C        C  636   2.748   4.232   2.167
    1C        C  637   2.812   4.271   2.287
    1C        C  638   2.670   4.114   2.410
    1C        C  639   2.761   4.222   2.409
    1C        C  640   2.636   4.049   2.531
    1C        C  641   2.678   4.110   2.651
    1C        C  642   2.583   3.922   2.778
    1C        C  643   2.643   4.050   2.774
    1C        C  644   2.556   3.861   2.902
    1C        C  645   2.585   3.929   3.023
    1C        C  646   2.527   3.726   3.147
    1C        C  647   2.561   3.863   3.145
    1C        C  648   2.512   3.660   3.271
    1C        C  649   2.522   3.731   3.393
    1C        C  650   2.513   3.523   3.519
    1C        C  651   2.515   3.664   3.517
    1C        C  652   2.516   3.454   3.642
    1C        C  653   2.512   3.526   3.764
    1C        C  654   2.542   3.317   3.890
    1C        C  655   2.515   3.456   3.887
    1C        C  656   2.564   3.252   4.014
    1C        C  657   2.543   3.320   4.136
    1C        C  658   2.615   3.124   4.260
    1C        C  659   2.561   3.254   4.260
    1C        C  660   2.643   3.059   4.383
    1C        C  661   2.604   3.121   4.504
    1C        C  662   2.713   2.939   4.624
    1C        C  663   2.634   3.055   4.626
    1C        C  664   2.754   2.881   4.746
    1C        C  665   2.702   2.935   4.867
    1C        C  666   2.742   2.870   4.985
    1C        C  667   2.672   4.028   2.053
    1C        C  668   2.682   4.107   2.168
    1C        C  669   2.595   3.912   2.291
    1C        C  670   2.650   4.043   2.290
    1C        C  671   2.560   3.849   2.413
    1C        C  672   2.579   3.920   2.534
    1C        C  673   2.518   3.718   2.659
    1C        C  674   2.555   3.854   2.657
    1C        C  675   2.504   3.650   2.782
    1C        C  676   2.522   3.724   2.901
    1C        C  677   2.505   3.514   3.028
    1C        C  678   2.515   3.655   3.025
    1C        C  679   2.513   3.446   3.152
    1C        C  680   2.514   3.518   3.273
    1C        C  681   2.536   3.311   3.400
    1C        C  682   2.518   3.451   3.397
    1C        C  683   2.560   3.246   3.523
    1C        C  684   2.545   3.315   3.646
    1C        C  685   2.613   3.116   3.771
    1C        C  686   2.562   3.248   3.769
    1C        C  687   2.642   3.054   3.894
    1C        C  688   2.617   3.121   4.016
    1C        C  689   2.722   2.939   4.139
    1C        C  690   2.646   3.058   4.139
    1C        C  691   2.757   2.878   4.261
    1C        C  692   2.715   2.938   4.382
    1C        C  693   2.755   2.878   4.504
    1C        C  694   2.631   3.894   2.059
    1C        C  695   2.521   3.706   2.176
    1C        C  696   2.574   3.837   2.173
    1C        C  697   2.501   3.640   2.298
    1C        C  698   2.515   3.716   2.417
    1C        C  699   2.486   3.506   2.540
    1C        C  700   2.499   3.647   2.539
    1C        C  701   2.495   3.439   2.664
    1C        C  702   2.493   3.510   2.787
    1C        C  703   2.525   3.299   2.911
    1C        C  704   2.503   3.439   2.909
    1C        C  705   2.545   3.233   3.035
    1C        C  706   2.534   3.306   3.155
    1C        C  707   2.605   3.110   3.279
    1C        C  708   2.552   3.241   3.279
    1C        C  709   2.641   3.052   3.403
    1C        C  710   2.612   3.114   3.527
    1C        C  711   2.721   2.933   3.653
    1C        C  712   2.646   3.053   3.649
    1C        C  713   2.760   2.874   3.775
    1C        C  714   2.715   2.933   3.896
    1C        C  715   2.762   2.878   4.017
    1C        C  716   2.456   3.498   2.060
    1C        C  717   2.498   3.631   2.059
    1C        C  718   2.464   3.424   2.182
    1C        C  719   2.480   3.499   2.302
    1C        C  720   2.514   3.290   2.425
    1C        C  721   2.480   3.427   2.423
    1C        C  722   2.537   3.227   2.549
    1C        C  723   2.523   3.301   2.669
    1C        C  724   2.603   3.102   2.791
    1C        C  725   2.545   3.231   2.789
    1C        C  726   2.633   3.041   2.915
    1C        C  727   2.599   3.103   3.038
    1C        C  728   2.707   2.920   3.161
    1C        C  729   2.630   3.039   3.160
    1C        C  730   2.760   2.877   3.285
    1C        C  731   2.723   2.937   3.407
    1C        C  732   2.763   2.879   3.529
    1C        C  733   2.489   3.197   2.073
    1C        C  734   2.485   3.282   2.184
    1C        C  735   2.588   3.090   2.308
    1C        C  736   2.529   3.219   2.304
    1C        C  737   2.617   3.024   2.429
    1C        C  738   2.590   3.095   2.548
    1C        C  739   2.704   2.916   2.672
    1C        C  740   2.630   3.035   2.670
    1C        C  741   2.742   2.857   2.795
    1C        C  742   2.706   2.920   2.916
    1C        C  743   2.748   2.863   3.038
    1C        C  744   2.541   3.068   2.077
    1C        C  745   2.690   2.902   2.189
    1C        C  746   2.608   3.017   2.189
    1C        C  747   2.733   2.845   2.310
    1C        C  748   2.690   2.903   2.431
    1C        C  749   2.738   2.849   2.552
    1C        C  750   2.739   2.843   2.072
    1C        C  751   3.651   2.277   2.023
    1C        O  752   3.661   2.167   2.083
    1C        O  753   3.682   2.253   1.889
    1C        C  754   4.633   3.049   1.978
    1C        O  755   4.609   2.983   1.874
    1C        O  756   4.768   3.055   2.016
    1C        C  757   4.406   4.195   1.927
    1C        O  758   4.478   4.299   1.922
    1C        O  759   4.360   4.168   1.798
    1C        C  760   3.602   4.664   1.949
    1C        O  761   3.654   4.777   1.965
    1C        O  762   3.521   4.671   1.836
    1C        C  763   2.871   4.496   1.949
    1C        O  764   2.905   4.492   1.828
    1C        O  765   2.772   4.591   1.973
    1C        C  766   2.336   3.482   1.975
    1C        O  767   2.344   3.469   1.850
    1C        O  768   2.228   3.568   1.999
    1C        C  769   4.699   3.595   5.050
    1C        O  770   4.688   3.551   5.167
    1C        O  771   4.827   3.646   5.023
    1C        C  772   4.276   4.469   5.020
    1C        O  773   4.283   4.486   5.145
    1C        O  774   4.383   4.529   4.953
    1C        C  775   4.143   2.529   5.077
    1C        O  776   4.235   2.445   5.060
    1C        O  777   4.121   2.555   5.213
    1C        C  778   2.869   4.564   5.022
    1C        O  779   2.764   4.632   5.007
    1C        O  780   2.929   4.587   5.147
    1C        C  781   2.445   3.045   5.057
    1C        O  782   2.336   3.018   5.000
    1C        O  783   2.461   2.974   5.175
    1C        C  784   2.398   4.012   5.029
    1C        O  785   2.286   4.009   4.970
    1C        O  786   2.386   3.971   5.162
    1C        C  787   2.939   2.421   2.014
    1C        O  788   2.854   2.461   1.930
    1C        O  789   2.953   2.283   2.019
    1C        C  790   3.177   2.376   5.066
    1C        O  791   3.146   2.260   5.027
    1C        O  792   3.163   2.393   5.204
    1C        H  793   4.251   3.030   5.039
    1C        H  794   4.235   2.785   5.066
    1C        H  795   4.518   3.132   5.059
    1C        H  796   4.515   3.369   5.068
    1C        H  797   4.591   3.814   5.039
    1C        H  798   4.433   3.989   5.053
    1C        H  799   4.269   4.157   5.050
    1C        H  800   4.043   4.565   5.012
    1C        H  801   3.821   4.585   5.041
    1C        H  802   3.592   4.650   5.032
    1C        H  803   3.397   4.487   5.042
    1C        H  804   3.152   4.532   5.048
    1C        H  805   3.895   2.477   5.065
    1C        H  806   3.674   2.431   5.066
    1C        H  807   2.993   2.548   5.065
    1C        H  808   3.459   2.548   5.064
    1C        H  809   2.889   2.751   5.080
    1C        H  810   2.684   2.867   5.075
    1C        H  811   2.488   3.289   5.063
    1C        H  812   2.611   3.514   5.042
    1C        H  813   2.497   3.736   5.071
    1C        H  814   2.634   4.147   5.059
    1C        H  815   2.802   4.280   5.051
    1C        H  816   2.722   2.885   1.975
    1C        H  817   2.841   2.684   1.978
    1C        H  818   3.202   2.404   2.001
    1C        H  819   3.432   2.450   1.978
    1C        H  820   3.841   2.536   1.972
    1C        H  821   4.036   2.668   1.972
    1C        H  822   4.257   2.712   1.978
    1C        H  823   4.397   2.912   1.967
    1C        H  824   4.586   3.308   1.971
    1C        H  825   4.508   3.509   1.961
    1C        H  826   4.503   3.756   1.961
    1C        H  827   3.812   4.530   1.951
    1C        H  828   3.956   4.372   1.943
    1C        H  829   4.175   4.291   1.948
    1C        H  830   4.514   3.970   1.973
    1C        H  831   2.695   3.823   2.009
    1C        H  832   2.692   4.064   1.954
    1C        H  833   2.714   4.304   1.967
    1C        H  834   3.387   4.481   1.950
    1C        H  835   3.159   4.387   1.957
    1C        H  836   2.484   3.001   2.017
    1C        H  837   2.406   3.207   2.006
    1C        H  838   2.461   3.684   1.974
    2V3OU   H29  839   2.797   3.546   1.568
    2V3OU   C27  840   2.786   3.506   1.672
    2V3OU   H27  841   2.726   3.572   1.739
    2V3OU   H28  842   2.734   3.406   1.668
    2V3OU   O11  843   2.907   3.477   1.743
    2V3OU   C15  844   2.923   3.396   1.854
    2V3OU   C13  845   3.049   3.378   1.913
    2V3OU   C14  846   3.078   3.270   1.998
    2V3OU   C16  847   2.974   3.183   2.030
    2V3OU    H6  848   2.990   3.110   2.111
    2V3OU   C12  849   3.215   3.226   2.033
    2V3OU    O2  850   3.241   3.127   2.103
    2V3OU   C10  851   3.325   3.307   1.979
    2V3OU    C8  852   3.458   3.272   1.997
    2V3OU   O10  853   3.489   3.150   2.050
    2V3OU   H26  854   3.406   3.113   2.084
    2V3OU    C6  855   3.567   3.354   1.954
    2V3OU    C5  856   3.538   3.474   1.890
    2V3OU    C4  857   3.704   3.295   1.961
    2V3OU    H4  858   3.722   3.237   2.056
    2V3OU    H5  859   3.715   3.221   1.877
    2V3OU    C2  860   3.815   3.400   1.952
    2V3OU    O6  861   3.807   3.475   2.074
    2V3OU   H21  862   3.773   3.560   2.043
    2V3OU    C3  863   3.783   3.497   1.838
    2V3OU    H2  864   3.860   3.577   1.827
    2V3OU    H3  865   3.784   3.440   1.742
    2V3OU   C25  866   3.949   3.328   1.940
    2V3OU    O7  867   3.993   3.296   1.830
    2V3OU   C26  868   4.036   3.293   2.059
    2V3OU   H22  869   4.069   3.377   2.127
    2V3OU   H23  870   4.120   3.227   2.027
    2V3OU    O8  871   3.970   3.205   2.147
    2V3OU   H24  872   3.929   3.260   2.216
    2V3OU    C1  873   3.649   3.568   1.852
    2V3OU    H1  874   3.624   3.619   1.755
    2V3OU    O3  875   3.669   3.657   1.963
    2V3OU   C19  876   3.620   3.789   1.939
    2V3OU    H9  877   3.522   3.791   1.883
    2V3OU    O4  878   3.716   3.846   1.852
    2V3OU   C20  879   3.845   3.874   1.908
    2V3OU   H10  880   3.899   3.776   1.923
    2V3OU   C24  881   3.615   3.851   2.079
    2V3OU   H16  882   3.549   3.791   2.147
    2V3OU   H17  883   3.574   3.955   2.069
    2V3OU   C23  884   3.750   3.875   2.145
    2V3OU   H15  885   3.792   3.773   2.176
    2V3OU    N1  886   3.737   3.954   2.266
    2V3OU   H19  887   3.804   3.938   2.338
    2V3OU   H20  888   3.652   3.937   2.316
    2V3OU   C21  889   3.844   3.946   2.042
    2V3OU   H11  890   3.948   3.925   2.082
    2V3OU    O5  891   3.821   4.086   2.049
    2V3OU   H18  892   3.781   4.105   2.135
    2V3OU   C22  893   3.912   3.948   1.793
    2V3OU   H12  894   3.860   4.045   1.774
    2V3OU   H13  895   3.903   3.891   1.698
    2V3OU   H14  896   4.021   3.960   1.820
    2V3OU   C11  897   3.161   3.468   1.880
    2V3OU    O1  898   3.134   3.584   1.843
    2V3OU    C9  899   3.300   3.425   1.903
    2V3OU    C7  900   3.403   3.509   1.862
    2V3OU    O9  901   3.384   3.620   1.782
    2V3OU   H25  902   3.287   3.628   1.770
    2V3OU   C17  903   2.819   3.307   1.889
    2V3OU    H7  904   2.717   3.345   1.880
    2V3OU   C18  905   2.847   3.204   1.979
    2V3OU    H8  906   2.761   3.144   2.012
    3SOL     OW  907   2.195   4.506   1.494
    3SOL    HW1  908   2.234   4.442   1.428
    3SOL    HW2  909   2.103   4.533   1.465
    4SOL     OW  910   6.226   7.010   1.628
    4SOL    HW1  911   6.127   7.012   1.615
    4SOL    HW2  912   6.254   6.920   1.661
    5SOL     OW  913   4.388   1.242   1.642
    5SOL    HW1  914   4.375   1.272   1.548
    5SOL    HW2  915   4.340   1.156   1.657
    6SOL     OW  916   3.538   2.069   2.342
    6SOL    HW1  917   3.441   2.047   2.330
    6SOL    HW2  918   3.571   2.118   2.262
    7SOL     OW  919   5.971   2.218   1.912
    7SOL    HW1  920   5.948   2.148   1.979
    7SOL    HW2  921   6.069   2.238   1.917
    8SOL     OW  922   2.317   6.693   4.677
    8SOL    HW1  923   2.315   6.748   4.594
    8SOL    HW2  924   2.401   6.639   4.679
    9SOL     OW  925   1.619   5.619   5.634
    9SOL    HW1  926   1.691   5.609   5.565
    9SOL    HW2  927   1.577   5.530   5.651
   10SOL     OW  928   0.626   4.597   6.177
   10SOL    HW1  929   0.625   4.524   6.246
   10SOL    HW2  930   0.532   4.625   6.157
   11SOL     OW  931   3.525   6.972   0.030
   11SOL    HW1  932   3.618   6.946   0.003
   11SOL    HW2  933   3.466   6.892   0.028
   12SOL     OW  934   4.900   5.914   3.106
   12SOL    HW1  935   4.956   5.968   3.042
   12SOL    HW2  936   4.906   5.955   3.197
   13SOL     OW  937   2.901   6.571   4.459
   13SOL    HW1  938   2.903   6.518   4.374
   13SOL    HW2  939   2.983   6.629   4.464
   14SOL     OW  940   3.643   5.916   6.834
   14SOL    HW1  941   3.677   5.889   6.924
   14SOL    HW2  942   3.682   6.005   6.809
   15SOL     OW  943   0.993   6.315   6.984
   15SOL    HW1  944   0.928   6.368   0.014
   15SOL    HW2  945   1.086   6.334   7.014
   16SOL     OW  946   6.378   1.992   5.953
   16SOL    HW1  947   6.441   2.054   5.906
   16SOL    HW2  948   6.422   1.904   5.968
   17SOL     OW  949   4.893   6.485   4.151
   17SOL    HW1  950   4.882   6.406   4.212
   17SOL    HW2  951   4.899   6.568   4.206
   18SOL     OW  952   2.550   2.391   5.882
   18SOL    HW1  953   2.495   2.396   5.965
   18SOL    HW2  954   2.645   2.415   5.903
   19SOL     OW  955   0.123   0.029   3.316
   19SOL    HW1  956   0.027   0.036   3.343
   19SOL    HW2  957   0.152   0.113   3.271
   20SOL     OW  958   3.654   0.907   4.280
   20SOL    HW1  959   3.649   1.003   4.308
   20SOL    HW2  960   3.598   0.852   4.341
   21SOL     OW  961   3.120   1.730   1.984
   21SOL    HW1  962   3.022   1.713   1.991
   21SOL    HW2  963   3.156   1.754   2.074
   22SOL     OW  964   2.013   6.812   6.108
   22SOL    HW1  965   1.994   6.890   6.167
   22SOL    HW2  966   1.964   6.731   6.140
   23SOL     OW  967   4.273   6.482   3.721
   23SOL    HW1  968   4.241   6.503   3.629
   23SOL    HW2  969   4.369   6.509   3.730
   24SOL     OW  970   5.363   1.039   4.451
   24SOL    HW1  971   5.459   1.012   4.443
   24SOL    HW2  972   5.326   1.054   4.359
   25SOL     OW  973   3.134   5.903   0.226
   25SOL    HW1  974   3.203   5.870   0.162
   25SOL    HW2  975   3.079   5.974   0.181
   26SOL     OW  976   6.206   1.188   1.862
   26SOL    HW1  977   6.227   1.108   1.805
   26SOL    HW2  978   6.160   1.158   1.945
   27SOL     OW  979   6.671   0.503   2.477
   27SOL    HW1  980   6.698   0.407   2.474
   27SOL    HW2  981   6.706   0.546   2.561
   28SOL     OW  982   4.369   0.447   6.201
   28SOL    HW1  983   4.296   0.393   6.243
   28SOL    HW2  984   4.332   0.494   6.120
   29SOL     OW  985   5.274   2.455   2.108
   29SOL    HW1  986   5.334   2.472   2.030
   29SOL    HW2  987   5.236   2.362   2.101
   30SOL     OW  988   2.567   0.059   5.824
   30SOL    HW1  989   2.589   0.097   5.914
   30SOL    HW2  990   2.649   0.059   5.767
   31SOL     OW  991   0.820   0.907   5.583
   31SOL    HW1  992   0.895   0.909   5.517
   31SOL    HW2  993   0.806   0.813   5.613
   32SOL     OW  994   0.870   2.033   2.985
   32SOL    HW1  995   0.872   2.128   3.016
   32SOL    HW2  996   0.963   2.004   2.962
   33SOL     OW  997   1.627   2.773   5.784
   33SOL    HW1  998   1.604   2.687   5.738
   33SOL    HW2  999   1.607   2.850   5.723
   34SOL     OW 1000   2.135   0.312   4.859
   34SOL    HW1 1001   2.216   0.368   4.844
   34SOL    HW2 1002   2.057   0.352   4.809
   35SOL     OW 1003   4.181   2.144   6.464
   35SOL    HW1 1004   4.083   2.163   6.472
   35SOL    HW2 1005   4.226   2.161   6.552
   36SOL     OW 1006   1.363   0.527   6.424
   36SOL    HW1 1007   1.327   0.601   6.480
   36SOL    HW2 1008   1.450   0.555   6.383
   37SOL     OW 1009   2.483   6.869   1.109
   37SOL    HW1 1010   2.570   6.871   1.060
   37SOL    HW2 1011   2.409   6.891   1.045
   38SOL     OW 1012   0.024   6.179   2.922
   38SOL    HW1 1013   0.117   6.169   2.887
   38SOL    HW2 1014   7.004   6.256   2.876
   39SOL     OW 1015   6.537   3.703   6.158
   39SOL    HW1 1016   6.448   3.724   6.118
   39SOL    HW2 1017   6.602   3.681   6.085
   40SOL     OW 1018   6.223   1.504   2.538
   40SOL    HW1 1019   6.309   1.533   2.579
   40SOL    HW2 1020   6.177   1.440   2.600
   41SOL     OW 1021   2.059   6.411   4.200
   41SOL    HW1 1022   2.150   6.422   4.238
   41SOL    HW2 1023   2.016   6.330   4.240
   42SOL     OW 1024   3.251   7.015   6.236
   42SOL    HW1 1025   3.196   6.931   6.235
   42SOL    HW2 1026   3.343   6.995   6.201
   43SOL     OW 1027   5.890   5.965   5.406
   43SOL    HW1 1028   5.845   5.877   5.424
   43SOL    HW2 1029   5.873   5.993   5.312
   44SOL     OW 1030   0.004   2.717   6.368
   44SOL    HW1 1031   0.029   2.810   6.395
   44SOL    HW2 1032   7.017   2.661   6.450
   45SOL     OW 1033   3.217   0.488   2.686
   45SOL    HW1 1034   3.314   0.465   2.675
   45SOL    HW2 1035   3.162   0.406   2.679
   46SOL     OW 1036   1.034   3.469   4.533
   46SOL    HW1 1037   1.107   3.414   4.573
   46SOL    HW2 1038   1.068   3.561   4.512
   47SOL     OW 1039   6.229   3.929   3.963
   47SOL    HW1 1040   6.209   3.837   3.930
   47SOL    HW2 1041   6.288   3.923   4.043
   48SOL     OW 1042   0.372   2.458   4.769
   48SOL    HW1 1043   0.384   2.466   4.868
   48SOL    HW2 1044   0.416   2.374   4.737
   49SOL     OW 1045   4.543   4.169   1.017
   49SOL    HW1 1046   4.484   4.142   0.941
   49SOL    HW2 1047   4.487   4.195   1.096
   50SOL     OW 1048   6.894   3.440   4.774
   50SOL    HW1 1049   6.914   3.538   4.777
   50SOL    HW2 1050   6.871   3.408   4.866
   51SOL     OW 1051   3.396   5.025   2.833
   51SOL    HW1 1052   3.336   4.945   2.830
   51SOL    HW2 1053   3.343   5.107   2.812
   52SOL     OW 1054   3.014   1.794   2.913
   52SOL    HW1 1055   2.986   1.698   2.918
   52SOL    HW2 1056   2.945   1.851   2.958
   53SOL     OW 1057   4.520   0.083   3.775
   53SOL    HW1 1058   4.470   0.010   3.821
   53SOL    HW2 1059   4.497   0.082   3.678
   54SOL     OW 1060   2.966   4.921   6.211
   54SOL    HW1 1061   2.870   4.894   6.212
   54SOL    HW2 1062   2.972   5.021   6.201
   55SOL     OW 1063   3.699   1.043   5.759
   55SOL    HW1 1064   3.754   0.978   5.811
   55SOL    HW2 1065   3.611   1.057   5.805
   56SOL     OW 1066   1.975   0.500   2.113
   56SOL    HW1 1067   1.953   0.595   2.137
   56SOL    HW2 1068   1.891   0.453   2.086
   57SOL     OW 1069   5.182   0.533   0.810
   57SOL    HW1 1070   5.218   0.449   0.850
   57SOL    HW2 1071   5.229   0.612   0.848
   58SOL     OW 1072   0.299   5.877   6.929
   58SOL    HW1 1073   0.297   5.903   6.832
   58SOL    HW2 1074   0.208   5.889   6.969
   59SOL     OW 1075   1.739   0.341   6.446
   59SOL    HW1 1076   1.836   0.361   6.430
   59SOL    HW2 1077   1.730   0.274   6.519
   60SOL     OW 1078   4.463   0.130   5.908
   60SOL    HW1 1079   4.453   0.198   5.835
   60SOL    HW2 1080   4.496   0.045   5.869
   61SOL     OW 1081   4.932   0.173   4.227
   61SOL    HW1 1082   4.850   0.116   4.221
   61SOL    HW2 1083   4.937   0.233   4.146
   62SOL     OW 1084   0.939   0.632   3.962
   62SOL    HW1 1085   1.002   0.622   3.885
   62SOL    HW2 1086   0.911   0.541   3.995
   63SOL     OW 1087   6.409   2.139   3.413
   63SOL    HW1 1088   6.348   2.135   3.491
   63SOL    HW2 1089   6.359   2.171   3.333
   64SOL     OW 1090   6.756   3.647   5.998
   64SOL    HW1 1091   6.742   3.573   5.931
   64SOL    HW2 1092   6.836   3.700   5.972
   65SOL     OW 1093   6.623   4.149   5.221
   65SOL    HW1 1094   6.590   4.213   5.291
   65SOL    HW2 1095   6.696   4.092   5.259
   66SOL     OW 1096   3.697   0.879   6.842
   66SOL    HW1 1097   3.672   0.783   6.856
   66SOL    HW2 1098   3.763   0.908   6.912
   67SOL     OW 1099   5.819   6.376   5.093
   67SOL    HW1 1100   5.844   6.364   5.189
   67SOL    HW2 1101   5.758   6.302   5.064
   68SOL     OW 1102   6.133   1.570   6.642
   68SOL    HW1 1103   6.061   1.510   6.676
   68SOL    HW2 1104   6.172   1.530   6.559
   69SOL     OW 1105   1.782   4.181   6.844
   69SOL    HW1 1106   1.874   4.204   6.878
   69SOL    HW2 1107   1.790   4.129   6.760
   70SOL     OW 1108   6.597   5.972   2.499
   70SOL    HW1 1109   6.689   5.970   2.538
   70SOL    HW2 1110   6.540   6.035   2.552
   71SOL     OW 1111   3.051   2.045   3.864
   71SOL    HW1 1112   2.969   1.989   3.855
   71SOL    HW2 1113   3.066   2.068   3.960
   72SOL     OW 1114   2.942   5.879   3.891
   72SOL    HW1 1115   2.946   5.814   3.815
   72SOL    HW2 1116   3.008   5.852   3.961
   73SOL     OW 1117   3.128   2.737   6.871
   73SOL    HW1 1118   3.193   2.665   6.894
   73SOL    HW2 1119   3.037   2.698   6.859
   74SOL     OW 1120   5.178   6.760   0.318
   74SOL    HW1 1121   5.223   6.770   0.229
   74SOL    HW2 1122   5.156   6.850   0.355
   75SOL     OW 1123   3.572   5.171   5.010
   75SOL    HW1 1124   3.595   5.266   5.030
   75SOL    HW2 1125   3.648   5.127   4.963
   76SOL     OW 1126   2.045   2.530   1.069
   76SOL    HW1 1127   2.120   2.463   1.071
   76SOL    HW2 1128   2.017   2.551   1.163
   77SOL     OW 1129   5.217   5.756   4.600
   77SOL    HW1 1130   5.184   5.684   4.662
   77SOL    HW2 1131   5.246   5.714   4.514
   78SOL     OW 1132   6.625   6.916   6.210
   78SOL    HW1 1133   6.538   6.931   6.258
   78SOL    HW2 1134   6.622   6.826   6.165
   79SOL     OW 1135   3.477   0.095   0.543
   79SOL    HW1 1136   3.464   7.021   0.544
   79SOL    HW2 1137   3.492   0.127   0.637
   80SOL     OW 1138   6.454   0.788   5.117
   80SOL    HW1 1139   6.532   0.733   5.086
   80SOL    HW2 1140   6.403   0.737   5.187
   81SOL     OW 1141   2.189   0.649   2.928
   81SOL    HW1 1142   2.107   0.706   2.929
   81SOL    HW2 1143   2.164   0.554   2.948
   82SOL     OW 1144   6.782   5.361   0.239
   82SOL    HW1 1145   6.746   5.407   0.320
   82SOL    HW2 1146   6.708   5.348   0.173
   83SOL     OW 1147   6.955   6.724   0.521
   83SOL    HW1 1148   6.900   6.650   0.561
   83SOL    HW2 1149   6.920   6.746   0.430
   84SOL     OW 1150   5.312   3.528   2.395
   84SOL    HW1 1151   5.288   3.543   2.491
   84SOL    HW2 1152   5.228   3.520   2.342
   85SOL     OW 1153   0.909   0.898   4.941
   85SOL    HW1 1154   1.006   0.922   4.950
   85SOL    HW2 1155   0.854   0.982   4.945
   86SOL     OW 1156   0.374   0.550   5.667
   86SOL    HW1 1157   0.313   0.482   5.626
   86SOL    HW2 1158   0.351   0.641   5.631
   87SOL     OW 1159   4.579   2.639   0.005
   87SOL    HW1 1160   4.555   2.724   0.053
   87SOL    HW2 1161   4.641   2.585   0.063
   88SOL     OW 1162   4.732   1.833   6.997
   88SOL    HW1 1163   4.738   1.735   7.013
   88SOL    HW2 1164   4.695   1.850   6.906
   89SOL     OW 1165   2.009   2.713   6.973
   89SOL    HW1 1166   1.923   2.764   6.966
   89SOL    HW2 1167   2.085   2.777   6.979
   90SOL     OW 1168   4.721   0.010   4.172
   90SOL    HW1 1169   4.657   0.019   4.249
   90SOL    HW2 1170   4.737   6.938   4.153
   91SOL     OW 1171   4.817   4.481   3.662
   91SOL    HW1 1172   4.861   4.431   3.588
   91SOL    HW2 1173   4.764   4.557   3.624
   92SOL     OW 1174   2.956   5.812   0.661
   92SOL    HW1 1175   2.913   5.853   0.741
   92SOL    HW2 1176   2.917   5.852   0.578
   93SOL     OW 1177   2.859   4.253   5.867
   93SOL    HW1 1178   2.862   4.214   5.958
   93SOL    HW2 1179   2.865   4.180   5.799
   94SOL     OW 1180   3.184   5.378   6.716
   94SOL    HW1 1181   3.213   5.393   6.811
   94SOL    HW2 1182   3.085   5.388   6.709
   95SOL     OW 1183   0.334   1.641   3.800
   95SOL    HW1 1184   0.328   1.591   3.714
   95SOL    HW2 1185   0.334   1.739   3.782
   96SOL     OW 1186   2.415   0.237   5.693
   96SOL    HW1 1187   2.476   0.163   5.719
   96SOL    HW2 1188   2.469   0.317   5.666
   97SOL     OW 1189   6.761   4.039   4.837
   97SOL    HW1 1190   6.718   3.980   4.768
   97SOL    HW2 1191   6.761   3.991   4.925
   98SOL     OW 1192   5.881   3.231   6.582
   98SOL    HW1 1193   5.853   3.271   6.670
   98SOL    HW2 1194   5.974   3.260   6.561
   99SOL     OW 1195   4.331   2.959   1.275
   99SOL    HW1 1196   4.246   2.985   1.320
   99SOL    HW2 1197   4.381   2.893   1.332
  100SOL     OW 1198   0.072   6.830   6.775
  100SOL    HW1 1199   0.127   6.912   6.757
  100SOL    HW2 1200   0.123   6.749   6.748
  101SOL     OW 1201   0.901   5.748   2.765
  101SOL    HW1 1202   0.916   5.826   2.705
  101SOL    HW2 1203   0.988   5.700   2.779
  102SOL     OW 1204   4.325   0.703   3.043
  102SOL    HW1 1205   4.342   0.800   3.027
  102SOL    HW2 1206   4.325   0.653   2.957
  103SOL     OW 1207   4.502   1.431   1.809
  103SOL    HW1 1208   4.458   1.355   1.762
  103SOL    HW2 1209   4.466   1.518   1.774
  104SOL     OW 1210   6.373   5.882   3.003
  104SOL    HW1 1211   6.388   5.841   2.913
  104SOL    HW2 1212   6.366   5.810   3.072
  105SOL     OW 1213   6.613   0.890   6.686
  105SOL    HW1 1214   6.656   0.962   6.631
  105SOL    HW2 1215   6.588   0.927   6.776
  106SOL     OW 1216   2.921   6.496   6.233
  106SOL    HW1 1217   2.878   6.496   6.143
  106SOL    HW2 1218   3.019   6.475   6.223
  107SOL     OW 1219   1.855   2.071   1.518
  107SOL    HW1 1220   1.792   2.087   1.594
  107SOL    HW2 1221   1.908   2.154   1.501
  108SOL     OW 1222   4.813   4.321   0.205
  108SOL    HW1 1223   4.750   4.341   0.130
  108SOL    HW2 1224   4.891   4.270   0.169
  109SOL     OW 1225   0.767   0.380   1.501
  109SOL    HW1 1226   0.809   0.320   1.568
  109SOL    HW2 1227   0.828   0.457   1.481
  110SOL     OW 1228   4.061   5.485   5.432
  110SOL    HW1 1229   3.963   5.503   5.438
  110SOL    HW2 1230   4.077   5.401   5.381
  111SOL     OW 1231   3.842   0.444   3.927
  111SOL    HW1 1232   3.820   0.521   3.987
  111SOL    HW2 1233   3.918   0.392   3.965
  112SOL     OW 1234   5.774   5.717   5.475
  112SOL    HW1 1235   5.721   5.669   5.405
  112SOL    HW2 1236   5.768   5.667   5.561
  113SOL     OW 1237   6.165   4.897   3.767
  113SOL    HW1 1238   6.106   4.829   3.812
  113SOL    HW2 1239   6.129   4.917   3.676
  114SOL     OW 1240   1.015   0.482   0.795
  114SOL    HW1 1241   1.093   0.435   0.838
  114SOL    HW2 1242   1.048   0.538   0.719
  115SOL     OW 1243   4.649   1.088   4.158
  115SOL    HW1 1244   4.644   1.113   4.062
  115SOL    HW2 1245   4.606   0.999   4.173
  116SOL     OW 1246   6.178   5.030   2.410
  116SOL    HW1 1247   6.239   5.107   2.424
  116SOL    HW2 1248   6.228   4.956   2.363
  117SOL     OW 1249   0.575   1.034   6.534
  117SOL    HW1 1250   0.621   0.983   6.462
  117SOL    HW2 1251   0.581   1.132   6.514
  118SOL     OW 1252   0.322   1.037   1.649
  118SOL    HW1 1253   0.382   0.978   1.703
  118SOL    HW2 1254   0.237   1.053   1.700
  119SOL     OW 1255   0.048   2.146   6.701
  119SOL    HW1 1256   6.983   2.177   6.734
  119SOL    HW2 1257   0.120   2.191   6.753
  120SOL     OW 1258   6.789   0.054   1.145
  120SOL    HW1 1259   6.861   7.009   1.141
  120SOL    HW2 1260   6.703   0.014   1.111
  121SOL     OW 1261   2.337   3.778   6.916
  121SOL    HW1 1262   2.342   3.733   6.827
  121SOL    HW2 1263   2.294   3.867   6.906
  122SOL     OW 1264   1.657   3.809   5.550
  122SOL    HW1 1265   1.641   3.727   5.495
  122SOL    HW2 1266   1.570   3.850   5.575
  123SOL     OW 1267   0.101   2.397   0.976
  123SOL    HW1 1268   0.123   2.382   0.879
  123SOL    HW2 1269   0.177   2.443   1.021
  124SOL     OW 1270   5.279   3.315   0.518
  124SOL    HW1 1271   5.326   3.238   0.562
  124SOL    HW2 1272   5.346   3.377   0.478
  125SOL     OW 1273   2.101   2.204   3.027
  125SOL    HW1 1274   2.139   2.294   3.044
  125SOL    HW2 1275   2.174   2.135   3.032
  126SOL     OW 1276   3.262   4.611   0.779
  126SOL    HW1 1277   3.194   4.548   0.817
  126SOL    HW2 1278   3.299   4.668   0.853
  127SOL     OW 1279   0.020   4.635   5.874
  127SOL    HW1 1280   6.987   4.570   5.825
  127SOL    HW2 1281   0.108   4.591   5.896
  128SOL     OW 1282   4.636   2.504   1.754
  128SOL    HW1 1283   4.578   2.551   1.821
  128SOL    HW2 1284   4.706   2.567   1.721
  129SOL     OW 1285   4.315   3.432   6.118
  129SOL    HW1 1286   4.329   3.531   6.126
  129SOL    HW2 1287   4.385   3.384   6.170
  130SOL     OW 1288   0.627   0.688   4.523
  130SOL    HW1 1289   0.547   0.748   4.524
  130SOL    HW2 1290   0.706   0.739   4.489
  131SOL     OW 1291   4.579   1.220   2.950
  131SOL    HW1 1292   4.604   1.125   2.968
  131SOL    HW2 1293   4.657   1.268   2.911
  132SOL     OW 1294   1.523   2.933   0.738
  132SOL    HW1 1295   1.570   2.845   0.740
  132SOL    HW2 1296   1.580   3.003   0.781
  133SOL     OW 1297   5.530   6.470   3.182
  133SOL    HW1 1298   5.467   6.406   3.138
  133SOL    HW2 1299   5.615   6.473   3.129
  134SOL     OW 1300   5.943   2.607   2.723
  134SOL    HW1 1301   6.040   2.605   2.701
  134SOL    HW2 1302   5.890   2.617   2.639
  135SOL     OW 1303   5.156   1.951   2.836
  135SOL    HW1 1304   5.132   1.969   2.741
  135SOL    HW2 1305   5.167   1.852   2.850
  136SOL     OW 1306   4.548   4.394   5.902
  136SOL    HW1 1307   4.595   4.306   5.912
  136SOL    HW2 1308   4.561   4.428   5.809
  137SOL     OW 1309   4.202   6.896   5.226
  137SOL    HW1 1310   4.237   6.847   5.146
  137SOL    HW2 1311   4.111   6.931   5.205
  138SOL     OW 1312   0.315   5.015   4.246
  138SOL    HW1 1313   0.261   4.959   4.183
  138SOL    HW2 1314   0.394   5.053   4.197
  139SOL     OW 1315   2.462   5.809   5.584
  139SOL    HW1 1316   2.497   5.743   5.519
  139SOL    HW2 1317   2.377   5.774   5.625
  140SOL     OW 1318   6.419   5.139   4.325
  140SOL    HW1 1319   6.431   5.048   4.285
  140SOL    HW2 1320   6.501   5.194   4.308
  141SOL     OW 1321   0.582   1.707   5.618
  141SOL    HW1 1322   0.571   1.633   5.552
  141SOL    HW2 1323   0.630   1.783   5.574
  142SOL     OW 1324   1.934   6.271   1.431
  142SOL    HW1 1325   1.984   6.286   1.346
  142SOL    HW2 1326   1.988   6.211   1.492
  143SOL     OW 1327   5.391   4.092   2.265
  143SOL    HW1 1328   5.422   4.184   2.238
  143SOL    HW2 1329   5.468   4.041   2.303
  144SOL     OW 1330   1.622   6.710   6.331
  144SOL    HW1 1331   1.622   6.776   6.255
  144SOL    HW2 1332   1.612   6.618   6.295
  145SOL     OW 1333   1.312   5.340   0.686
  145SOL    HW1 1334   1.318   5.391   0.772
  145SOL    HW2 1335   1.398   5.290   0.672
  146SOL     OW 1336   4.771   6.042   6.779
  146SOL    HW1 1337   4.834   6.119   6.771
  146SOL    HW2 1338   4.708   6.058   6.855
  147SOL     OW 1339   6.278   2.731   0.410
  147SOL    HW1 1340   6.288   2.646   0.358
  147SOL    HW2 1341   6.359   2.787   0.398
  148SOL     OW 1342   0.509   4.740   5.557
  148SOL    HW1 1343   0.470   4.832   5.565
  148SOL    HW2 1344   0.533   4.722   5.462
  149SOL     OW 1345   2.659   1.143   4.292
  149SOL    HW1 1346   2.659   1.242   4.302
  149SOL    HW2 1347   2.568   1.112   4.264
  150SOL     OW 1348   0.094   4.896   6.149
  150SOL    HW1 1349   0.004   4.853   6.143
  150SOL    HW2 1350   0.121   4.929   6.058
  151SOL     OW 1351   3.917   1.995   1.413
  151SOL    HW1 1352   3.826   2.008   1.375
  151SOL    HW2 1353   3.913   1.930   1.489
  152SOL     OW 1354   2.061   0.910   4.663
  152SOL    HW1 1355   1.995   0.865   4.723
  152SOL    HW2 1356   2.122   0.842   4.623
  153SOL     OW 1357   2.150   0.108   2.507
  153SOL    HW1 1358   2.181   0.135   2.416
  153SOL    HW2 1359   2.123   0.189   2.558
  154SOL     OW 1360   6.736   2.891   1.749
  154SOL    HW1 1361   6.812   2.851   1.801
  154SOL    HW2 1362   6.760   2.983   1.719
  155SOL     OW 1363   0.188   1.363   3.527
  155SOL    HW1 1364   0.155   1.457   3.537
  155SOL    HW2 1365   0.244   1.357   3.444
  156SOL     OW 1366   6.757   1.396   1.461
  156SOL    HW1 1367   6.789   1.491   1.464
  156SOL    HW2 1368   6.743   1.363   1.555
  157SOL     OW 1369   6.367   3.431   2.320
  157SOL    HW1 1370   6.303   3.493   2.275
  157SOL    HW2 1371   6.420   3.382   2.252
  158SOL     OW 1372   3.017   0.309   2.265
  158SOL    HW1 1373   2.963   0.383   2.303
  158SOL    HW2 1374   2.959   0.250   2.210
  159SOL     OW 1375   4.805   4.362   1.236
  159SOL    HW1 1376   4.862   4.412   1.301
  159SOL    HW2 1377   4.768   4.426   1.168
  160SOL     OW 1378   6.604   4.696   6.764
  160SOL    HW1 1379   6.565   4.654   6.846
  160SOL    HW2 1380   6.681   4.642   6.731
  161SOL     OW 1381   1.830   5.243   5.082
  161SOL    HW1 1382   1.831   5.308   5.006
  161SOL    HW2 1383   1.921   5.240   5.125
  162SOL     OW 1384   3.951   6.826   0.252
  162SOL    HW1 1385   4.012   6.757   0.292
  162SOL    HW2 1386   3.916   6.793   0.165
  163SOL     OW 1387   4.305   6.076   1.313
  163SOL    HW1 1388   4.307   6.077   1.413
  163SOL    HW2 1389   4.383   6.024   1.279
  164SOL     OW 1390   6.536   3.831   1.293
  164SOL    HW1 1391   6.588   3.788   1.366
  164SOL    HW2 1392   6.450   3.866   1.330
  165SOL     OW 1393   5.059   2.977   0.492
  165SOL    HW1 1394   5.105   2.914   0.554
  165SOL    HW2 1395   4.983   2.930   0.446
  166SOL     OW 1396   0.214   5.776   3.581
  166SOL    HW1 1397   0.157   5.695   3.566
  166SOL    HW2 1398   0.306   5.747   3.610
  167SOL     OW 1399   5.836   1.955   0.345
  167SOL    HW1 1400   5.779   2.017   0.399
  167SOL    HW2 1401   5.778   1.902   0.283
  168SOL     OW 1402   2.821   3.760   0.643
  168SOL    HW1 1403   2.850   3.853   0.667
  168SOL    HW2 1404   2.840   3.698   0.719
  169SOL     OW 1405   3.058   0.146   1.721
  169SOL    HW1 1406   2.968   0.181   1.695
  169SOL    HW2 1407   3.092   0.084   1.650
  170SOL     OW 1408   0.563   1.695   3.945
  170SOL    HW1 1409   0.474   1.674   3.904
  170SOL    HW2 1410   0.564   1.792   3.972
  171SOL     OW 1411   3.403   3.948   0.286
  171SOL    HW1 1412   3.463   3.967   0.364
  171SOL    HW2 1413   3.389   4.032   0.234
  172SOL     OW 1414   6.519   1.377   4.755
  172SOL    HW1 1415   6.450   1.444   4.784
  172SOL    HW2 1416   6.568   1.413   4.676
  173SOL     OW 1417   6.703   0.322   4.380
  173SOL    HW1 1418   6.762   0.330   4.460
  173SOL    HW2 1419   6.734   0.245   4.323
  174SOL     OW 1420   3.071   5.506   3.372
  174SOL    HW1 1421   2.978   5.536   3.355
  174SOL    HW2 1422   3.070   5.418   3.420
  175SOL     OW 1423   1.711   6.699   1.893
  175SOL    HW1 1424   1.618   6.664   1.899
  175SOL    HW2 1425   1.710   6.799   1.902
  176SOL     OW 1426   2.375   4.112   1.055
  176SOL    HW1 1427   2.397   4.038   1.119
  176SOL    HW2 1428   2.448   4.120   0.987
  177SOL     OW 1429   5.643   2.915   3.167
  177SOL    HW1 1430   5.660   2.964   3.081
  177SOL    HW2 1431   5.664   2.976   3.244
  178SOL     OW 1432   4.766   3.962   6.366
  178SOL    HW1 1433   4.818   4.037   6.407
  178SOL    HW2 1434   4.768   3.969   6.267
  179SOL     OW 1435   3.081   1.050   6.643
  179SOL    HW1 1436   3.053   1.086   6.554
  179SOL    HW2 1437   3.004   1.055   6.707
  180SOL     OW 1438   0.921   1.216   6.827
  180SOL    HW1 1439   0.984   1.267   6.885
  180SOL    HW2 1440   0.973   1.153   6.769
  181SOL     OW 1441   3.742   1.841   6.639
  181SOL    HW1 1442   3.647   1.859   6.666
  181SOL    HW2 1443   3.746   1.824   6.540
  182SOL     OW 1444   4.400   2.365   4.106
  182SOL    HW1 1445   4.327   2.301   4.127
  182SOL    HW2 1446   4.405   2.435   4.177
  183SOL     OW 1447   3.711   6.958   1.979
  183SOL    HW1 1448   3.739   0.025   2.009
  183SOL    HW2 1449   3.682   6.905   2.058
  184SOL     OW 1450   1.602   5.777   3.902
  184SOL    HW1 1451   1.513   5.822   3.908
  184SOL    HW2 1452   1.673   5.840   3.934
  185SOL     OW 1453   1.139   3.171   6.685
  185SOL    HW1 1454   1.134   3.253   6.627
  185SOL    HW2 1455   1.232   3.134   6.683
  186SOL     OW 1456   6.541   0.438   3.543
  186SOL    HW1 1457   6.569   0.498   3.619
  186SOL    HW2 1458   6.582   0.471   3.458
  187SOL     OW 1459   5.610   0.653   3.826
  187SOL    HW1 1460   5.675   0.721   3.862
  187SOL    HW2 1461   5.555   0.617   3.901
  188SOL     OW 1462   5.914   2.860   3.138
  188SOL    HW1 1463   5.919   2.803   3.056
  188SOL    HW2 1464   5.819   2.885   3.155
  189SOL     OW 1465   1.891   5.685   2.772
  189SOL    HW1 1466   1.822   5.614   2.760
  189SOL    HW2 1467   1.847   5.768   2.806
  190SOL     OW 1468   3.726   1.103   4.760
  190SOL    HW1 1469   3.679   1.026   4.803
  190SOL    HW2 1470   3.812   1.071   4.720
  191SOL     OW 1471   5.738   5.243   5.885
  191SOL    HW1 1472   5.669   5.255   5.956
  191SOL    HW2 1473   5.827   5.276   5.918
  192SOL     OW 1474   0.164   6.426   1.967
  192SOL    HW1 1475   0.261   6.418   1.991
  192SOL    HW2 1476   0.142   6.361   1.895
  193SOL     OW 1477   5.269   2.847   6.468
  193SOL    HW1 1478   5.213   2.851   6.385
  193SOL    HW2 1479   5.363   2.824   6.444
  194SOL     OW 1480   3.603   0.616   2.977
  194SOL    HW1 1481   3.638   0.524   2.990
  194SOL    HW2 1482   3.575   0.629   2.882
  195SOL     OW 1483   1.696   6.101   3.407
  195SOL    HW1 1484   1.760   6.059   3.342
  195SOL    HW2 1485   1.695   6.200   3.394
  196SOL     OW 1486   2.011   2.160   6.923
  196SOL    HW1 1487   2.068   2.234   6.885
  196SOL    HW2 1488   1.916   2.191   6.928
  197SOL     OW 1489   2.365   1.868   0.948
  197SOL    HW1 1490   2.365   1.777   0.906
  197SOL    HW2 1491   2.314   1.865   1.033
  198SOL     OW 1492   4.297   0.781   3.318
  198SOL    HW1 1493   4.282   0.764   3.221
  198SOL    HW2 1494   4.213   0.819   3.358
  199SOL     OW 1495   1.997   2.544   4.260
  199SOL    HW1 1496   2.027   2.497   4.343
  199SOL    HW2 1497   1.918   2.496   4.221
  200SOL     OW 1498   0.659   2.296   0.977
  200SOL    HW1 1499   0.659   2.218   1.040
  200SOL    HW2 1500   0.744   2.295   0.923
  201SOL     OW 1501   0.437   1.007   5.786
  201SOL    HW1 1502   0.463   0.976   5.878
  201SOL    HW2 1503   0.342   0.982   5.768
  202SOL     OW 1504   4.779   0.518   6.404
  202SOL    HW1 1505   4.696   0.482   6.446
  202SOL    HW2 1506   4.780   0.618   6.414
  203SOL     OW 1507   5.783   2.844   5.401
  203SOL    HW1 1508   5.725   2.781   5.350
  203SOL    HW2 1509   5.808   2.802   5.488
  204SOL     OW 1510   0.193   0.403   5.538
  204SOL    HW1 1511   0.131   0.390   5.615
  204SOL    HW2 1512   0.140   0.430   5.457
  205SOL     OW 1513   1.280   2.176   2.692
  205SOL    HW1 1514   1.332   2.249   2.735
  205SOL    HW2 1515   1.268   2.196   2.594
  206SOL     OW 1516   0.529   3.307   1.907
  206SOL    HW1 1517   0.499   3.360   1.828
  206SOL    HW2 1518   0.563   3.218   1.877
  207SOL     OW 1519   4.873   1.895   3.237
  207SOL    HW1 1520   4.843   1.978   3.189
  207SOL    HW2 1521   4.973   1.890   3.236
  208SOL     OW 1522   0.476   4.046   5.213
  208SOL    HW1 1523   0.465   4.119   5.280
  208SOL    HW2 1524   0.537   4.077   5.140
  209SOL     OW 1525   6.613   4.545   2.681
  209SOL    HW1 1526   6.533   4.496   2.646
  209SOL    HW2 1527   6.602   4.564   2.778
  210SOL     OW 1528   4.356   2.238   0.391
  210SOL    HW1 1529   4.275   2.211   0.444
  210SOL    HW2 1530   4.437   2.230   0.449
  211SOL     OW 1531   1.833   0.501   3.109
  211SOL    HW1 1532   1.741   0.485   3.073
  211SOL    HW2 1533   1.831   0.574   3.177
  212SOL     OW 1534   1.134   3.718   2.595
  212SOL    HW1 1535   1.058   3.658   2.570
  212SOL    HW2 1536   1.217   3.664   2.606
  213SOL     OW 1537   1.658   5.972   1.024
  213SOL    HW1 1538   1.630   5.953   1.118
  213SOL    HW2 1539   1.712   6.056   1.021
  214SOL     OW 1540   4.190   5.326   2.082
  214SOL    HW1 1541   4.199   5.231   2.053
  214SOL    HW2 1542   4.280   5.368   2.089
  215SOL     OW 1543   2.586   4.949   1.424
  215SOL    HW1 1544   2.534   4.879   1.472
  215SOL    HW2 1545   2.544   5.039   1.440
  216SOL     OW 1546   1.329   0.426   2.616
  216SOL    HW1 1547   1.319   0.485   2.536
  216SOL    HW2 1548   1.386   0.347   2.593
  217SOL     OW 1549   1.125   2.604   5.565
  217SOL    HW1 1550   1.142   2.665   5.488
  217SOL    HW2 1551   1.135   2.654   5.650
  218SOL     OW 1552   0.643   2.255   5.351
  218SOL    HW1 1553   0.656   2.216   5.260
  218SOL    HW2 1554   0.706   2.212   5.415
  219SOL     OW 1555   3.927   0.628   0.281
  219SOL    HW1 1556   3.952   0.717   0.319
  219SOL    HW2 1557   3.914   0.562   0.355
  220SOL     OW 1558   3.138   0.751   0.849
  220SOL    HW1 1559   3.127   0.843   0.887
  220SOL    HW2 1560   3.177   0.691   0.918
  221SOL     OW 1561   5.881   5.087   1.321
  221SOL    HW1 1562   5.966   5.075   1.372
  221SOL    HW2 1563   5.840   5.175   1.344
  222SOL     OW 1564   1.901   4.718   6.926
  222SOL    HW1 1565   1.923   4.798   6.871
  222SOL    HW2 1566   1.896   4.743   7.022
  223SOL     OW 1567   6.855   2.788   5.327
  223SOL    HW1 1568   6.803   2.873   5.341
  223SOL    HW2 1569   6.913   2.798   5.246
  224SOL     OW 1570   3.388   2.264   6.020
  224SOL    HW1 1571   3.335   2.304   5.945
  224SOL    HW2 1572   3.457   2.328   6.050
  225SOL     OW 1573   4.539   3.790   5.835
  225SOL    HW1 1574   4.532   3.737   5.751
  225SOL    HW2 1575   4.455   3.780   5.888
  226SOL     OW 1576   1.011   1.657   6.489
  226SOL    HW1 1577   1.043   1.720   6.559
  226SOL    HW2 1578   1.081   1.647   6.418
  227SOL     OW 1579   2.202   4.123   2.597
  227SOL    HW1 1580   2.251   4.054   2.543
  227SOL    HW2 1581   2.132   4.078   2.652
  228SOL     OW 1582   2.084   0.958   3.139
  228SOL    HW1 1583   1.989   0.987   3.126
  228SOL    HW2 1584   2.101   0.942   3.236
  229SOL     OW 1585   5.295   4.669   6.747
  229SOL    HW1 1586   5.385   4.709   6.731
  229SOL    HW2 1587   5.283   4.590   6.687
  230SOL     OW 1588   4.563   6.035   4.388
  230SOL    HW1 1589   4.474   6.072   4.362
  230SOL    HW2 1590   4.610   6.101   4.448
  231SOL     OW 1591   5.523   1.220   6.859
  231SOL    HW1 1592   5.448   1.286   6.867
  231SOL    HW2 1593   5.491   1.131   6.890
  232SOL     OW 1594   0.222   2.866   6.724
  232SOL    HW1 1595   0.132   2.908   6.738
  232SOL    HW2 1596   0.210   2.777   6.679
  233SOL     OW 1597   3.148   2.177   3.617
  233SOL    HW1 1598   3.142   2.137   3.708
  233SOL    HW2 1599   3.100   2.119   3.551
  234SOL     OW 1600   5.610   0.989   6.031
  234SOL    HW1 1601   5.617   0.957   6.125
  234SOL    HW2 1602   5.657   1.077   6.022
  235SOL     OW 1603   4.783   2.899   2.519
  235SOL    HW1 1604   4.796   2.924   2.423
  235SOL    HW2 1605   4.835   2.962   2.577
  236SOL     OW 1606   4.742   3.673   6.825
  236SOL    HW1 1607   4.733   3.651   6.728
  236SOL    HW2 1608   4.788   3.598   6.872
  237SOL     OW 1609   6.968   4.427   2.415
  237SOL    HW1 1610   0.019   4.362   2.407
  237SOL    HW2 1611   6.932   4.424   2.508
  238SOL     OW 1612   6.559   0.978   0.255
  238SOL    HW1 1613   6.519   0.997   0.345
  238SOL    HW2 1614   6.541   1.054   0.194
  239SOL     OW 1615   0.840   4.277   0.617
  239SOL    HW1 1616   0.749   4.319   0.615
  239SOL    HW2 1617   0.832   4.181   0.643
  240SOL     OW 1618   6.945   3.412   3.519
  240SOL    HW1 1619   6.999   3.396   3.601
  240SOL    HW2 1620   6.987   3.485   3.465
  241SOL     OW 1621   2.777   2.344   4.159
  241SOL    HW1 1622   2.871   2.320   4.184
  241SOL    HW2 1623   2.736   2.268   4.109
  242SOL     OW 1624   3.908   3.646   3.505
  242SOL    HW1 1625   3.857   3.564   3.479
  242SOL    HW2 1626   3.944   3.634   3.598
  243SOL     OW 1627   4.706   1.568   6.994
  243SOL    HW1 1628   4.669   1.529   0.053
  243SOL    HW2 1629   4.641   1.554   6.919
  244SOL     OW 1630   5.901   3.002   6.436
  244SOL    HW1 1631   5.856   3.087   6.463
  244SOL    HW2 1632   5.982   2.988   6.492
  245SOL     OW 1633   3.733   1.854   3.859
  245SOL    HW1 1634   3.752   1.901   3.946
  245SOL    HW2 1635   3.751   1.756   3.870
  246SOL     OW 1636   5.286   1.728   3.667
  246SOL    HW1 1637   5.360   1.669   3.635
  246SOL    HW2 1638   5.277   1.719   3.766
  247SOL     OW 1639   2.459   2.124   0.577
  247SOL    HW1 1640   2.514   2.047   0.545
  247SOL    HW2 1641   2.395   2.092   0.647
  248SOL     OW 1642   2.654   1.312   2.882
  248SOL    HW1 1643   2.577   1.249   2.892
  248SOL    HW2 1644   2.716   1.302   2.960
  249SOL     OW 1645   5.036   6.922   5.360
  249SOL    HW1 1646   5.114   6.934   5.422
  249SOL    HW2 1647   5.043   6.832   5.316
  250SOL     OW 1648   3.762   3.206   1.177
  250SOL    HW1 1649   3.748   3.163   1.266
  250SOL    HW2 1650   3.737   3.303   1.182
  251SOL     OW 1651   4.604   3.347   5.402
  251SOL    HW1 1652   4.627   3.259   5.360
  251SOL    HW2 1653   4.570   3.409   5.332
  252SOL     OW 1654   6.416   6.991   5.657
  252SOL    HW1 1655   6.320   6.963   5.658
  252SOL    HW2 1656   6.443   7.024   5.747
  253SOL     OW 1657   3.896   4.700   5.699
  253SOL    HW1 1658   3.912   4.672   5.794
  253SOL    HW2 1659   3.797   4.700   5.681
  254SOL     OW 1660   6.835   2.645   3.431
  254SOL    HW1 1661   6.772   2.582   3.477
  254SOL    HW2 1662   6.821   2.639   3.332
  255SOL     OW 1663   1.367   4.875   6.037
  255SOL    HW1 1664   1.381   4.790   6.088
  255SOL    HW2 1665   1.272   4.879   6.005
  256SOL     OW 1666   5.591   3.033   6.090
  256SOL    HW1 1667   5.603   2.986   6.003
  256SOL    HW2 1668   5.678   3.074   6.118
  257SOL     OW 1669   5.142   6.787   3.124
  257SOL    HW1 1670   5.069   6.737   3.078
  257SOL    HW2 1671   5.225   6.782   3.069
  258SOL     OW 1672   2.335   4.078   5.593
  258SOL    HW1 1673   2.249   4.123   5.616
  258SOL    HW2 1674   2.368   4.110   5.504
  259SOL     OW 1675   5.276   0.866   2.075
  259SOL    HW1 1676   5.265   0.849   2.173
  259SOL    HW2 1677   5.188   0.854   2.029
  260SOL     OW 1678   3.663   5.133   3.184
  260SOL    HW1 1679   3.575   5.157   3.142
  260SOL    HW2 1680   3.653   5.048   3.235
  261SOL     OW 1681   5.583   4.791   1.604
  261SOL    HW1 1682   5.632   4.813   1.519
  261SOL    HW2 1683   5.533   4.705   1.591
  262SOL     OW 1684   1.584   3.909   0.970
  262SOL    HW1 1685   1.571   3.878   1.064
  262SOL    HW2 1686   1.661   3.972   0.966
  263SOL     OW 1687   1.342   0.329   3.810
  263SOL    HW1 1688   1.361   0.425   3.792
  263SOL    HW2 1689   1.367   0.306   3.904
  264SOL     OW 1690   6.555   2.764   0.354
  264SOL    HW1 1691   6.623   2.810   0.410
  264SOL    HW2 1692   6.556   2.802   0.261
  265SOL     OW 1693   6.246   6.636   3.193
  265SOL    HW1 1694   6.236   6.721   3.141
  265SOL    HW2 1695   6.219   6.558   3.136
  266SOL     OW 1696   4.634   3.150   6.049
  266SOL    HW1 1697   4.632   3.058   6.011
  266SOL    HW2 1698   4.644   3.217   5.975
  267SOL     OW 1699   1.341   0.796   5.173
  267SOL    HW1 1700   1.353   0.697   5.161
  267SOL    HW2 1701   1.400   0.829   5.246
  268SOL     OW 1702   3.654   1.102   6.137
  268SOL    HW1 1703   3.725   1.171   6.124
  268SOL    HW2 1704   3.696   1.018   6.170
  269SOL     OW 1705   3.111   2.350   0.102
  269SOL    HW1 1706   3.071   2.310   0.185
  269SOL    HW2 1707   3.056   2.326   0.023
  270SOL     OW 1708   0.808   6.045   0.502
  270SOL    HW1 1709   0.821   5.975   0.432
  270SOL    HW2 1710   0.761   6.124   0.462
  271SOL     OW 1711   0.423   1.642   6.283
  271SOL    HW1 1712   0.476   1.596   6.354
  271SOL    HW2 1713   0.418   1.739   6.302
  272SOL     OW 1714   3.479   6.086   3.926
  272SOL    HW1 1715   3.534   6.032   3.990
  272SOL    HW2 1716   3.539   6.146   3.873
  273SOL     OW 1717   1.682   5.157   5.648
  273SOL    HW1 1718   1.724   5.067   5.654
  273SOL    HW2 1719   1.680   5.187   5.552
  274SOL     OW 1720   4.055   0.844   3.644
  274SOL    HW1 1721   4.091   0.937   3.642
  274SOL    HW2 1722   4.012   0.823   3.556
  275SOL     OW 1723   0.075   6.335   2.518
  275SOL    HW1 1724   0.003   6.327   2.587
  275SOL    HW2 1725   0.133   6.413   2.540
  276SOL     OW 1726   0.501   6.849   3.896
  276SOL    HW1 1727   0.402   6.842   3.881
  276SOL    HW2 1728   0.521   6.833   3.993
  277SOL     OW 1729   1.560   3.061   0.152
  277SOL    HW1 1730   1.620   2.982   0.144
  277SOL    HW2 1731   1.588   3.116   0.230
  278SOL     OW 1732   0.330   3.321   3.284
  278SOL    HW1 1733   0.240   3.278   3.279
  278SOL    HW2 1734   0.322   3.418   3.259
  279SOL     OW 1735   5.178   2.878   4.412
  279SOL    HW1 1736   5.219   2.822   4.484
  279SOL    HW2 1737   5.170   2.972   4.444
  280SOL     OW 1738   2.360   5.527   1.610
  280SOL    HW1 1739   2.432   5.597   1.608
  280SOL    HW2 1740   2.304   5.535   1.528
  281SOL     OW 1741   2.054   4.351   1.656
  281SOL    HW1 1742   2.114   4.416   1.609
  281SOL    HW2 1743   2.105   4.307   1.731
  282SOL     OW 1744   3.272   0.957   5.201
  282SOL    HW1 1745   3.179   0.993   5.198
  282SOL    HW2 1746   3.335   1.029   5.230
  283SOL     OW 1747   5.553   2.680   6.626
  283SOL    HW1 1748   5.463   2.645   6.599
  283SOL    HW2 1749   5.554   2.779   6.618
  284SOL     OW 1750   0.702   3.874   3.438
  284SOL    HW1 1751   0.705   3.828   3.349
  284SOL    HW2 1752   0.674   3.808   3.508
  285SOL     OW 1753   5.200   4.874   4.005
  285SOL    HW1 1754   5.274   4.857   4.070
  285SOL    HW2 1755   5.239   4.897   3.916
  286SOL     OW 1756   3.159   3.962   6.724
  286SOL    HW1 1757   3.097   4.004   6.658
  286SOL    HW2 1758   3.233   4.025   6.745
  287SOL     OW 1759   1.727   3.352   0.983
  287SOL    HW1 1760   1.672   3.416   1.037
  287SOL    HW2 1761   1.679   3.264   0.979
  288SOL     OW 1762   4.002   1.400   6.606
  288SOL    HW1 1763   3.925   1.392   6.543
  288SOL    HW2 1764   4.033   1.495   6.609
  289SOL     OW 1765   1.846   4.504   5.743
  289SOL    HW1 1766   1.910   4.538   5.674
  289SOL    HW2 1767   1.759   4.482   5.699
  290SOL     OW 1768   6.994   1.663   5.071
  290SOL    HW1 1769   0.011   1.575   5.090
  290SOL    HW2 1770   0.013   1.734   5.127
  291SOL     OW 1771   1.002   1.705   3.924
  291SOL    HW1 1772   0.937   1.655   3.981
  291SOL    HW2 1773   0.966   1.796   3.903
  292SOL     OW 1774   2.186   0.493   3.525
  292SOL    HW1 1775   2.141   0.438   3.596
  292SOL    HW2 1776   2.124   0.563   3.493
  293SOL     OW 1777   4.506   5.838   4.204
  293SOL    HW1 1778   4.532   5.900   4.278
  293SOL    HW2 1779   4.520   5.743   4.232
  294SOL     OW 1780   5.382   5.937   6.710
  294SOL    HW1 1781   5.391   5.883   6.627
  294SOL    HW2 1782   5.363   6.032   6.686
  295SOL     OW 1783   4.936   0.697   3.622
  295SOL    HW1 1784   4.864   0.765   3.612
  295SOL    HW2 1785   5.013   0.737   3.673
  296SOL     OW 1786   3.291   1.334   2.809
  296SOL    HW1 1787   3.242   1.352   2.724
  296SOL    HW2 1788   3.279   1.411   2.872
  297SOL     OW 1789   1.644   3.769   3.354
  297SOL    HW1 1790   1.704   3.835   3.398
  297SOL    HW2 1791   1.656   3.772   3.255
  298SOL     OW 1792   6.307   5.797   0.891
  298SOL    HW1 1793   6.219   5.827   0.854
  298SOL    HW2 1794   6.363   5.877   0.913
  299SOL     OW 1795   6.146   2.520   4.683
  299SOL    HW1 1796   6.164   2.461   4.761
  299SOL    HW2 1797   6.232   2.559   4.649
  300SOL     OW 1798   6.106   0.446   3.001
  300SOL    HW1 1799   6.055   0.412   2.922
  300SOL    HW2 1800   6.096   0.545   3.008
  301SOL     OW 1801   5.971   3.516   6.975
  301SOL    HW1 1802   5.927   3.516   0.041
  301SOL    HW2 1803   6.049   3.578   6.976
  302SOL     OW 1804   0.937   0.281   4.052
  302SOL    HW1 1805   0.860   0.333   4.015
  302SOL    HW2 1806   0.943   0.296   4.151
  303SOL     OW 1807   4.809   0.524   2.939
  303SOL    HW1 1808   4.867   0.591   2.986
  303SOL    HW2 1809   4.783   0.452   3.003
  304SOL     OW 1810   2.376   0.092   3.231
  304SOL    HW1 1811   2.425   0.092   3.318
  304SOL    HW2 1812   2.361   0.186   3.201
  305SOL     OW 1813   1.271   4.162   0.048
  305SOL    HW1 1814   1.345   4.212   0.002
  305SOL    HW2 1815   1.183   4.197   0.018
  306SOL     OW 1816   2.482   0.923   3.530
  306SOL    HW1 1817   2.429   0.959   3.453
  306SOL    HW2 1818   2.467   0.981   3.611
  307SOL     OW 1819   4.554   0.404   1.277
  307SOL    HW1 1820   4.455   0.414   1.288
  307SOL    HW2 1821   4.600   0.439   1.359
  308SOL     OW 1822   1.206   6.383   3.267
  308SOL    HW1 1823   1.137   6.336   3.211
  308SOL    HW2 1824   1.212   6.479   3.239
  309SOL     OW 1825   3.633   4.595   5.377
  309SOL    HW1 1826   3.713   4.649   5.351
  309SOL    HW2 1827   3.554   4.655   5.386
  310SOL     OW 1828   0.408   6.576   5.714
  310SOL    HW1 1829   0.480   6.555   5.780
  310SOL    HW2 1830   0.420   6.669   5.680
  311SOL     OW 1831   0.789   5.933   1.533
  311SOL    HW1 1832   0.823   6.013   1.581
  311SOL    HW2 1833   0.825   5.850   1.577
  312SOL     OW 1834   5.181   1.592   5.181
  312SOL    HW1 1835   5.251   1.612   5.249
  312SOL    HW2 1836   5.210   1.514   5.126
  313SOL     OW 1837   1.737   4.116   2.108
  313SOL    HW1 1838   1.769   4.199   2.063
  313SOL    HW2 1839   1.707   4.050   2.039
  314SOL     OW 1840   3.624   5.605   0.389
  314SOL    HW1 1841   3.578   5.535   0.444
  314SOL    HW2 1842   3.699   5.645   0.441
  315SOL     OW 1843   0.377   2.839   3.644
  315SOL    HW1 1844   0.451   2.905   3.641
  315SOL    HW2 1845   0.341   2.832   3.738
  316SOL     OW 1846   2.309   2.838   3.785
  316SOL    HW1 1847   2.325   2.794   3.874
  316SOL    HW2 1848   2.265   2.926   3.799
  317SOL     OW 1849   6.646   1.542   6.731
  317SOL    HW1 1850   6.590   1.543   6.648
  317SOL    HW2 1851   6.598   1.494   6.804
  318SOL     OW 1852   1.720   4.130   0.611
  318SOL    HW1 1853   1.688   4.208   0.666
  318SOL    HW2 1854   1.799   4.158   0.556
  319SOL     OW 1855   1.398   0.203   1.109
  319SOL    HW1 1856   1.486   0.234   1.072
  319SOL    HW2 1857   1.385   0.241   1.200
  320SOL     OW 1858   6.104   3.331   0.863
  320SOL    HW1 1859   6.177   3.324   0.795
  320SOL    HW2 1860   6.068   3.240   0.883
  321SOL     OW 1861   1.856   2.344   1.891
  321SOL    HW1 1862   1.868   2.262   1.947
  321SOL    HW2 1863   1.806   2.413   1.943
  322SOL     OW 1864   3.847   3.028   4.911
  322SOL    HW1 1865   3.853   3.115   4.961
  322SOL    HW2 1866   3.851   2.952   4.975
  323SOL     OW 1867   6.706   4.309   1.150
  323SOL    HW1 1868   6.689   4.271   1.241
  323SOL    HW2 1869   6.626   4.294   1.092
  324SOL     OW 1870   1.234   3.323   4.672
  324SOL    HW1 1871   1.164   3.251   4.679
  324SOL    HW2 1872   1.311   3.289   4.618
  325SOL     OW 1873   2.062   2.706   1.793
  325SOL    HW1 1874   2.069   2.610   1.765
  325SOL    HW2 1875   2.063   2.764   1.711
  326SOL     OW 1876   2.283   5.989   6.556
  326SOL    HW1 1877   2.342   5.938   6.619
  326SOL    HW2 1878   2.337   6.058   6.508
  327SOL     OW 1879   6.177   5.045   5.464
  327SOL    HW1 1880   6.148   5.006   5.376
  327SOL    HW2 1881   6.121   5.007   5.537
  328SOL     OW 1882   4.253   4.777   1.733
  328SOL    HW1 1883   4.176   4.814   1.785
  328SOL    HW2 1884   4.221   4.702   1.675
  329SOL     OW 1885   3.623   3.921   3.306
  329SOL    HW1 1886   3.705   3.976   3.318
  329SOL    HW2 1887   3.590   3.930   3.212
  330SOL     OW 1888   3.171   6.967   1.524
  330SOL    HW1 1889   3.196   6.888   1.581
  330SOL    HW2 1890   3.076   6.958   1.495
  331SOL     OW 1891   4.869   5.159   5.869
  331SOL    HW1 1892   4.804   5.202   5.806
  331SOL    HW2 1893   4.928   5.097   5.818
  332SOL     OW 1894   2.835   1.651   3.868
  332SOL    HW1 1895   2.847   1.750   3.879
  332SOL    HW2 1896   2.909   1.602   3.914
  333SOL     OW 1897   3.749   6.320   6.101
  333SOL    HW1 1898   3.764   6.243   6.039
  333SOL    HW2 1899   3.798   6.304   6.187
  334SOL     OW 1900   3.486   6.978   2.336
  334SOL    HW1 1901   3.400   7.009   2.294
  334SOL    HW2 1902   3.468   6.895   2.388
  335SOL     OW 1903   3.202   6.076   3.457
  335SOL    HW1 1904   3.153   5.992   3.434
  335SOL    HW2 1905   3.221   6.077   3.555
  336SOL     OW 1906   3.251   0.882   3.392
  336SOL    HW1 1907   3.167   0.879   3.338
  336SOL    HW2 1908   3.294   0.972   3.383
  337SOL     OW 1909   0.000   3.107   1.474
  337SOL    HW1 1910   6.947   3.129   1.416
  337SOL    HW2 1911   0.007   3.175   1.547
  338SOL     OW 1912   2.817   2.954   1.539
  338SOL    HW1 1913   2.763   2.923   1.617
  338SOL    HW2 1914   2.914   2.940   1.559
  339SOL     OW 1915   3.863   6.488   2.822
  339SOL    HW1 1916   3.956   6.484   2.858
  339SOL    HW2 1917   3.800   6.445   2.887
  340SOL     OW 1918   4.925   3.678   4.662
  340SOL    HW1 1919   4.938   3.617   4.740
  340SOL    HW2 1920   4.930   3.624   4.577
  341SOL     OW 1921   5.225   5.343   3.953
  341SOL    HW1 1922   5.190   5.420   3.900
  341SOL    HW2 1923   5.152   5.277   3.969
  342SOL     OW 1924   6.436   5.258   0.539
  342SOL    HW1 1925   6.362   5.268   0.605
  342SOL    HW2 1926   6.514   5.314   0.567
  343SOL     OW 1927   3.809   6.911   1.574
  343SOL    HW1 1928   3.771   6.876   1.488
  343SOL    HW2 1929   3.871   6.843   1.613
  344SOL     OW 1930   1.961   4.731   0.531
  344SOL    HW1 1931   1.979   4.688   0.443
  344SOL    HW2 1932   1.895   4.676   0.582
  345SOL     OW 1933   0.869   0.585   5.291
  345SOL    HW1 1934   0.778   0.581   5.332
  345SOL    HW2 1935   0.860   0.610   5.194
  346SOL     OW 1936   1.485   0.224   2.624
  346SOL    HW1 1937   1.508   0.162   2.549
  346SOL    HW2 1938   1.456   0.171   2.703
  347SOL     OW 1939   5.402   6.976   6.821
  347SOL    HW1 1940   5.502   6.985   6.823
  347SOL    HW2 1941   5.360   0.037   6.848
  348SOL     OW 1942   3.396   5.331   1.124
  348SOL    HW1 1943   3.487   5.292   1.116
  348SOL    HW2 1944   3.330   5.273   1.076
  349SOL     OW 1945   0.558   4.999   2.567
  349SOL    HW1 1946   0.524   5.091   2.546
  349SOL    HW2 1947   0.516   4.933   2.505
  350SOL     OW 1948   3.956   3.561   1.491
  350SOL    HW1 1949   3.890   3.487   1.479
  350SOL    HW2 1950   3.913   3.648   1.465
  351SOL     OW 1951   2.659   1.631   7.022
  351SOL    HW1 1952   2.594   1.677   0.058
  351SOL    HW2 1953   2.609   1.570   6.960
  352SOL     OW 1954   3.209   0.481   5.982
  352SOL    HW1 1955   3.291   0.530   5.952
  352SOL    HW2 1956   3.167   0.434   5.904
  353SOL     OW 1957   1.697   5.993   0.437
  353SOL    HW1 1958   1.638   5.942   0.499
  353SOL    HW2 1959   1.664   5.982   0.343
  354SOL     OW 1960   4.312   1.408   0.199
  354SOL    HW1 1961   4.290   1.349   0.121
  354SOL    HW2 1962   4.250   1.388   0.274
  355SOL     OW 1963   0.099   3.604   2.724
  355SOL    HW1 1964   0.046   3.665   2.783
  355SOL    HW2 1965   0.036   3.548   2.669
  356SOL     OW 1966   4.127   5.081   3.640
  356SOL    HW1 1967   4.067   5.132   3.580
  356SOL    HW2 1968   4.150   4.993   3.597
  357SOL     OW 1969   0.217   5.792   5.081
  357SOL    HW1 1970   0.230   5.720   5.014
  357SOL    HW2 1971   0.297   5.852   5.082
  358SOL     OW 1972   5.660   0.448   2.030
  358SOL    HW1 1973   5.581   0.440   1.970
  358SOL    HW2 1974   5.736   0.490   1.981
  359SOL     OW 1975   1.289   1.679   2.180
  359SOL    HW1 1976   1.275   1.769   2.223
  359SOL    HW2 1977   1.360   1.629   2.229
  360SOL     OW 1978   4.304   6.918   0.140
  360SOL    HW1 1979   4.302   6.850   0.213
  360SOL    HW2 1980   4.321   6.872   0.052
  361SOL     OW 1981   4.834   6.541   2.322
  361SOL    HW1 1982   4.908   6.502   2.267
  361SOL    HW2 1983   4.850   6.640   2.333
  362SOL     OW 1984   3.198   3.332   1.121
  362SOL    HW1 1985   3.183   3.375   1.032
  362SOL    HW2 1986   3.117   3.343   1.178
  363SOL     OW 1987   4.065   5.111   3.936
  363SOL    HW1 1988   4.082   5.098   3.838
  363SOL    HW2 1989   4.152   5.110   3.986
  364SOL     OW 1990   1.386   5.305   6.082
  364SOL    HW1 1991   1.370   5.239   6.009
  364SOL    HW2 1992   1.477   5.290   6.121
  365SOL     OW 1993   5.152   6.356   1.945
  365SOL    HW1 1994   5.213   6.405   1.882
  365SOL    HW2 1995   5.085   6.304   1.893
  366SOL     OW 1996   5.811   1.056   0.059
  366SOL    HW1 1997   5.820   1.127   0.128
  366SOL    HW2 1998   5.788   1.098   6.995
  367SOL     OW 1999   5.469   3.149   1.319
  367SOL    HW1 2000   5.459   3.209   1.398
  367SOL    HW2 2001   5.502   3.203   1.241
  368SOL     OW 2002   1.392   4.684   5.205
  368SOL    HW1 2003   1.327   4.614   5.176
  368SOL    HW2 2004   1.352   4.739   5.278
  369SOL     OW 2005   0.666   4.107   2.064
  369SOL    HW1 2006   0.581   4.072   2.025
  369SOL    HW2 2007   0.706   4.174   2.002
  370SOL     OW 2008   3.362   1.730   5.435
  370SOL    HW1 2009   3.347   1.828   5.421
  370SOL    HW2 2010   3.289   1.678   5.390
  371SOL     OW 2011   3.136   3.511   0.106
  371SOL    HW1 2012   3.155   3.528   0.203
  371SOL    HW2 2013   3.221   3.490   0.059
  372SOL     OW 2014   7.004   6.753   6.011
  372SOL    HW1 2015   0.001   6.686   6.081
  372SOL    HW2 2016   6.906   6.753   5.993
  373SOL     OW 2017   0.080   6.322   0.657
  373SOL    HW1 2018   0.174   6.348   0.635
  373SOL    HW2 2019   0.046   6.261   0.585
  374SOL     OW 2020   3.766   0.668   1.660
  374SOL    HW1 2021   3.701   0.714   1.721
  374SOL    HW2 2022   3.736   0.679   1.565
  375SOL     OW 2023   6.837   5.029   3.486
  375SOL    HW1 2024   6.755   5.026   3.542
  375SOL    HW2 2025   6.915   4.994   3.538
  376SOL     OW 2026   2.158   2.823   4.309
  376SOL    HW1 2027   2.221   2.777   4.371
  376SOL    HW2 2028   2.083   2.762   4.286
  377SOL     OW 2029   4.921   2.239   3.367
  377SOL    HW1 2030   4.828   2.259   3.399
  377SOL    HW2 2031   4.982   2.227   3.445
  378SOL     OW 2032   4.649   3.077   5.301
  378SOL    HW1 2033   4.571   3.015   5.309
  378SOL    HW2 2034   4.734   3.025   5.306
  379SOL     OW 2035   5.407   3.755   0.911
  379SOL    HW1 2036   5.357   3.683   0.958
  379SOL    HW2 2037   5.365   3.773   0.822
  380SOL     OW 2038   1.730   1.993   1.289
  380SOL    HW1 2039   1.654   2.056   1.275
  380SOL    HW2 2040   1.775   2.014   1.376
  381SOL     OW 2041   3.331   3.831   1.012
  381SOL    HW1 2042   3.382   3.763   1.064
  381SOL    HW2 2043   3.349   3.819   0.914
  382SOL     OW 2044   3.065   6.129   0.542
  382SOL    HW1 2045   2.994   6.061   0.521
  382SOL    HW2 2046   3.153   6.083   0.549
  383SOL     OW 2047   6.539   2.482   0.329
  383SOL    HW1 2048   6.440   2.469   0.319
  383SOL    HW2 2049   6.560   2.580   0.329
  384SOL     OW 2050   1.148   5.448   4.867
  384SOL    HW1 2051   1.241   5.414   4.883
  384SOL    HW2 2052   1.083   5.371   4.870
  385SOL     OW 2053   4.697   6.402   0.436
  385SOL    HW1 2054   4.692   6.489   0.387
  385SOL    HW2 2055   4.604   6.370   0.458
  386SOL     OW 2056   3.473   6.366   5.798
  386SOL    HW1 2057   3.481   6.429   5.875
  386SOL    HW2 2058   3.540   6.390   5.728
  387SOL     OW 2059   0.222   0.688   5.291
  387SOL    HW1 2060   0.232   0.737   5.378
  387SOL    HW2 2061   0.291   0.616   5.286
  388SOL     OW 2062   6.493   2.464   5.071
  388SOL    HW1 2063   6.535   2.554   5.078
  388SOL    HW2 2064   6.552   2.403   5.018
  389SOL     OW 2065   4.224   4.905   1.397
  389SOL    HW1 2066   4.295   4.973   1.415
  389SOL    HW2 2067   4.135   4.942   1.423
  390SOL     OW 2068   3.187   1.937   0.508
  390SOL    HW1 2069   3.188   1.845   0.469
  390SOL    HW2 2070   3.247   1.996   0.454
  391SOL     OW 2071   3.290   4.148   6.049
  391SOL    HW1 2072   3.236   4.153   5.965
  391SOL    HW2 2073   3.379   4.193   6.034
  392SOL     OW 2074   1.116   3.627   1.818
  392SOL    HW1 2075   1.021   3.602   1.835
  392SOL    HW2 2076   1.169   3.614   1.902
  393SOL     OW 2077   1.203   4.800   1.235
  393SOL    HW1 2078   1.120   4.748   1.216
  393SOL    HW2 2079   1.184   4.898   1.225
  394SOL     OW 2080   6.243   0.954   6.279
  394SOL    HW1 2081   6.247   1.054   6.269
  394SOL    HW2 2082   6.312   0.925   6.345
  395SOL     OW 2083   5.584   4.671   1.297
  395SOL    HW1 2084   5.650   4.606   1.260
  395SOL    HW2 2085   5.629   4.759   1.312
  396SOL     OW 2086   2.813   1.282   2.297
  396SOL    HW1 2087   2.823   1.342   2.376
  396SOL    HW2 2088   2.894   1.290   2.239
  397SOL     OW 2089   4.366   1.681   5.470
  397SOL    HW1 2090   4.371   1.698   5.568
  397SOL    HW2 2091   4.420   1.600   5.447
  398SOL     OW 2092   2.267   1.384   4.344
  398SOL    HW1 2093   2.327   1.399   4.421
  398SOL    HW2 2094   2.290   1.298   4.299
  399SOL     OW 2095   5.639   6.214   3.899
  399SOL    HW1 2096   5.543   6.211   3.925
  399SOL    HW2 2097   5.647   6.238   3.802
  400SOL     OW 2098   6.743   0.556   4.724
  400SOL    HW1 2099   6.668   0.490   4.729
  400SOL    HW2 2100   6.802   0.545   4.804
  401SOL     OW 2101   6.884   5.633   5.740
  401SOL    HW1 2102   6.796   5.666   5.776
  401SOL    HW2 2103   6.952   5.632   5.814
  402SOL     OW 2104   6.762   0.251   2.393
  402SOL    HW1 2105   6.786   0.158   2.365
  402SOL    HW2 2106   6.736   0.304   2.312
  403SOL     OW 2107   2.180   1.092   5.469
  403SOL    HW1 2108   2.272   1.113   5.434
  403SOL    HW2 2109   2.165   0.993   5.467
  404SOL     OW 2110   3.804   4.946   3.685
  404SOL    HW1 2111   3.866   4.904   3.618
  404SOL    HW2 2112   3.810   4.895   3.772
  405SOL     OW 2113   2.850   4.787   3.870
  405SOL    HW1 2114   2.947   4.809   3.878
  405SOL    HW2 2115   2.830   4.758   3.776
  406SOL     OW 2116   0.686   5.522   5.897
  406SOL    HW1 2117   0.696   5.574   5.981
  406SOL    HW2 2118   0.687   5.584   5.819
  407SOL     OW 2119   2.179   3.160   4.625
  407SOL    HW1 2120   2.175   3.240   4.566
  407SOL    HW2 2121   2.157   3.187   4.719
  408SOL     OW 2122   2.611   1.468   3.868
  408SOL    HW1 2123   2.540   1.537   3.883
  408SOL    HW2 2124   2.700   1.513   3.859
  409SOL     OW 2125   0.955   3.439   2.803
  409SOL    HW1 2126   0.925   3.484   2.720
  409SOL    HW2 2127   0.906   3.352   2.814
  410SOL     OW 2128   2.332   1.965   1.608
  410SOL    HW1 2129   2.279   2.047   1.585
  410SOL    HW2 2130   2.337   1.955   1.708
  411SOL     OW 2131   0.877   2.711   1.194
  411SOL    HW1 2132   0.891   2.620   1.155
  411SOL    HW2 2133   0.942   2.726   1.269
  412SOL     OW 2134   1.867   4.865   1.432
  412SOL    HW1 2135   1.880   4.926   1.510
  412SOL    HW2 2136   1.777   4.823   1.437
  413SOL     OW 2137   5.307   5.402   2.796
  413SOL    HW1 2138   5.365   5.456   2.857
  413SOL    HW2 2139   5.348   5.312   2.781
  414SOL     OW 2140   2.383   6.378   3.270
  414SOL    HW1 2141   2.312   6.447   3.260
  414SOL    HW2 2142   2.471   6.418   3.245
  415SOL     OW 2143   6.692   0.994   0.780
  415SOL    HW1 2144   6.726   1.026   0.869
  415SOL    HW2 2145   6.643   0.908   0.793
  416SOL     OW 2146   4.994   3.178   4.992
  416SOL    HW1 2147   4.943   3.220   5.068
  416SOL    HW2 2148   4.963   3.084   4.979
  417SOL     OW 2149   3.081   2.068   5.967
  417SOL    HW1 2150   2.997   2.037   6.011
  417SOL    HW2 2151   3.081   2.168   5.960
  418SOL     OW 2152   3.787   5.615   4.809
  418SOL    HW1 2153   3.808   5.618   4.711
  418SOL    HW2 2154   3.700   5.567   4.822
  419SOL     OW 2155   1.057   6.682   1.253
  419SOL    HW1 2156   1.116   6.607   1.282
  419SOL    HW2 2157   0.996   6.651   1.181
  420SOL     OW 2158   5.205   1.451   5.965
  420SOL    HW1 2159   5.281   1.514   5.982
  420SOL    HW2 2160   5.222   1.365   6.012
  421SOL     OW 2161   5.515   3.346   2.446
  421SOL    HW1 2162   5.447   3.414   2.419
  421SOL    HW2 2163   5.501   3.321   2.542
  422SOL     OW 2164   4.944   3.236   1.934
  422SOL    HW1 2165   5.025   3.232   1.993
  422SOL    HW2 2166   4.873   3.176   1.972
  423SOL     OW 2167   3.723   1.271   6.488
  423SOL    HW1 2168   3.739   1.216   6.569
  423SOL    HW2 2169   3.641   1.238   6.441
  424SOL     OW 2170   1.029   3.732   3.235
  424SOL    HW1 2171   0.941   3.691   3.214
  424SOL    HW2 2172   1.018   3.803   3.304
  425SOL     OW 2173   2.564   0.933   5.372
  425SOL    HW1 2174   2.630   0.966   5.304
  425SOL    HW2 2175   2.513   1.010   5.410
  426SOL     OW 2176   2.593   2.142   4.387
  426SOL    HW1 2177   2.535   2.116   4.309
  426SOL    HW2 2178   2.590   2.070   4.456
  427SOL     OW 2179   3.530   2.034   3.246
  427SOL    HW1 2180   3.486   2.085   3.321
  427SOL    HW2 2181   3.480   2.051   3.161
  428SOL     OW 2182   2.383   1.775   5.572
  428SOL    HW1 2183   2.433   1.703   5.524
  428SOL    HW2 2184   2.397   1.862   5.525
  429SOL     OW 2185   1.363   5.936   3.853
  429SOL    HW1 2186   1.290   5.875   3.823
  429SOL    HW2 2187   1.411   5.971   3.772
  430SOL     OW 2188   1.520   0.134   3.599
  430SOL    HW1 2189   1.547   0.117   3.504
  430SOL    HW2 2190   1.420   0.133   3.605
  431SOL     OW 2191   2.664   1.877   1.645
  431SOL    HW1 2192   2.587   1.920   1.599
  431SOL    HW2 2193   2.748   1.927   1.624
  432SOL     OW 2194   4.027   2.183   2.284
  432SOL    HW1 2195   4.082   2.207   2.204
  432SOL    HW2 2196   3.947   2.130   2.254
  433SOL     OW 2197   2.433   5.807   0.262
  433SOL    HW1 2198   2.493   5.817   0.342
  433SOL    HW2 2199   2.347   5.856   0.279
  434SOL     OW 2200   3.807   6.096   3.742
  434SOL    HW1 2201   3.751   6.163   3.791
  434SOL    HW2 2202   3.894   6.137   3.715
  435SOL     OW 2203   3.501   1.782   6.390
  435SOL    HW1 2204   3.453   1.817   6.470
  435SOL    HW2 2205   3.449   1.706   6.351
  436SOL     OW 2206   5.040   0.077   2.789
  436SOL    HW1 2207   5.009   0.059   2.883
  436SOL    HW2 2208   5.029   7.018   2.734
  437SOL     OW 2209   6.882   0.501   4.969
  437SOL    HW1 2210   6.836   0.432   5.026
  437SOL    HW2 2211   6.968   0.528   5.013
  438SOL     OW 2212   0.430   4.656   2.792
  438SOL    HW1 2213   0.367   4.644   2.869
  438SOL    HW2 2214   0.379   4.662   2.707
  439SOL     OW 2215   6.419   0.067   4.029
  439SOL    HW1 2216   6.405   0.125   4.109
  439SOL    HW2 2217   6.347   7.023   4.024
  440SOL     OW 2218   3.764   1.092   0.759
  440SOL    HW1 2219   3.687   1.059   0.813
  440SOL    HW2 2220   3.739   1.177   0.714
  441SOL     OW 2221   0.077   4.179   2.368
  441SOL    HW1 2222   0.146   4.161   2.298
  441SOL    HW2 2223   0.110   4.148   2.457
  442SOL     OW 2224   5.508   3.408   6.078
  442SOL    HW1 2225   5.416   3.431   6.109
  442SOL    HW2 2226   5.511   3.408   5.978
  443SOL     OW 2227   5.054   3.143   2.358
  443SOL    HW1 2228   4.968   3.092   2.353
  443SOL    HW2 2229   5.053   3.201   2.440
  444SOL     OW 2230   4.235   0.985   1.594
  444SOL    HW1 2231   4.178   0.910   1.628
  444SOL    HW2 2232   4.185   1.036   1.524
  445SOL     OW 2233   1.313   5.719   1.840
  445SOL    HW1 2234   1.388   5.736   1.904
  445SOL    HW2 2235   1.227   5.716   1.891
  446SOL     OW 2236   5.405   0.151   1.618
  446SOL    HW1 2237   5.399   0.251   1.622
  446SOL    HW2 2238   5.454   0.124   1.536
  447SOL     OW 2239   6.159   4.567   0.902
  447SOL    HW1 2240   6.146   4.620   0.818
  447SOL    HW2 2241   6.240   4.509   0.894
  448SOL     OW 2242   2.682   6.789   3.224
  448SOL    HW1 2243   2.704   6.748   3.136
  448SOL    HW2 2244   2.635   6.723   3.282
  449SOL     OW 2245   1.475   4.000   5.232
  449SOL    HW1 2246   1.569   3.983   5.260
  449SOL    HW2 2247   1.469   4.090   5.189
  450SOL     OW 2248   0.600   5.306   3.636
  450SOL    HW1 2249   0.577   5.212   3.660
  450SOL    HW2 2250   0.568   5.325   3.544
  451SOL     OW 2251   0.892   2.008   2.559
  451SOL    HW1 2252   0.915   2.042   2.650
  451SOL    HW2 2253   0.974   1.972   2.515
  452SOL     OW 2254   4.873   5.421   1.933
  452SOL    HW1 2255   4.935   5.432   1.855
  452SOL    HW2 2256   4.818   5.339   1.920
  453SOL     OW 2257   3.467   0.556   6.304
  453SOL    HW1 2258   3.488   0.623   6.233
  453SOL    HW2 2259   3.384   0.507   6.280
  454SOL     OW 2260   6.415   3.238   6.457
  454SOL    HW1 2261   6.325   3.261   6.420
  454SOL    HW2 2262   6.485   3.266   6.392
  455SOL     OW 2263   6.046   4.437   6.556
  455SOL    HW1 2264   6.018   4.453   6.650
  455SOL    HW2 2265   6.057   4.525   6.509
  456SOL     OW 2266   2.829   1.010   2.216
  456SOL    HW1 2267   2.872   0.945   2.279
  456SOL    HW2 2268   2.796   1.090   2.267
  457SOL     OW 2269   2.735   0.455   6.963
  457SOL    HW1 2270   2.796   0.498   6.896
  457SOL    HW2 2271   2.754   0.357   6.967
  458SOL     OW 2272   3.218   1.392   3.382
  458SOL    HW1 2273   3.131   1.350   3.359
  458SOL    HW2 2274   3.263   1.424   3.298
  459SOL     OW 2275   3.484   6.924   3.906
  459SOL    HW1 2276   3.455   7.018   3.922
  459SOL    HW2 2277   3.579   6.922   3.875
  460SOL     OW 2278   1.234   1.311   5.932
  460SOL    HW1 2279   1.150   1.335   5.883
  460SOL    HW2 2280   1.236   1.212   5.947
  461SOL     OW 2281   0.898   5.048   5.532
  461SOL    HW1 2282   0.928   5.039   5.628
  461SOL    HW2 2283   0.948   4.983   5.476
  462SOL     OW 2284   2.853   3.859   5.235
  462SOL    HW1 2285   2.859   3.898   5.143
  462SOL    HW2 2286   2.871   3.931   5.302
  463SOL     OW 2287   5.319   6.919   2.759
  463SOL    HW1 2288   5.383   6.972   2.703
  463SOL    HW2 2289   5.339   6.822   2.748
  464SOL     OW 2290   4.009   5.275   6.236
  464SOL    HW1 2291   3.956   5.310   6.312
  464SOL    HW2 2292   4.011   5.343   6.163
  465SOL     OW 2293   0.811   3.599   1.218
  465SOL    HW1 2294   0.888   3.536   1.217
  465SOL    HW2 2295   0.836   3.683   1.169
  466SOL     OW 2296   3.970   5.299   4.706
  466SOL    HW1 2297   3.968   5.394   4.673
  466SOL    HW2 2298   4.065   5.268   4.713
  467SOL     OW 2299   6.591   0.035   1.741
  467SOL    HW1 2300   6.590   0.128   1.777
  467SOL    HW2 2301   6.600   0.038   1.641
  468SOL     OW 2302   2.986   0.127   6.239
  468SOL    HW1 2303   2.971   0.139   6.141
  468SOL    HW2 2304   3.039   0.044   6.255
  469SOL     OW 2305   3.219   4.706   5.860
  469SOL    HW1 2306   3.193   4.620   5.816
  469SOL    HW2 2307   3.319   4.715   5.858
  470SOL     OW 2308   2.191   5.017   3.035
  470SOL    HW1 2309   2.175   4.926   2.996
  470SOL    HW2 2310   2.279   5.017   3.083
  471SOL     OW 2311   1.678   2.271   4.273
  471SOL    HW1 2312   1.727   2.308   4.194
  471SOL    HW2 2313   1.727   2.295   4.357
  472SOL     OW 2314   5.831   3.633   6.197
  472SOL    HW1 2315   5.838   3.707   6.265
  472SOL    HW2 2316   5.773   3.560   6.234
  473SOL     OW 2317   6.927   2.766   1.898
  473SOL    HW1 2318   6.890   2.757   1.990
  473SOL    HW2 2319   6.948   2.676   1.860
  474SOL     OW 2320   5.087   6.198   3.811
  474SOL    HW1 2321   5.014   6.233   3.753
  474SOL    HW2 2322   5.056   6.115   3.858
  475SOL     OW 2323   5.978   1.734   0.626
  475SOL    HW1 2324   5.878   1.742   0.633
  475SOL    HW2 2325   6.018   1.823   0.606
  476SOL     OW 2326   0.972   4.849   1.556
  476SOL    HW1 2327   0.932   4.872   1.467
  476SOL    HW2 2328   1.072   4.848   1.549
  477SOL     OW 2329   1.819   4.722   3.428
  477SOL    HW1 2330   1.873   4.806   3.435
  477SOL    HW2 2331   1.728   4.737   3.468
  478SOL     OW 2332   5.043   5.740   1.920
  478SOL    HW1 2333   5.052   5.672   1.848
  478SOL    HW2 2334   4.988   5.703   1.995
  479SOL     OW 2335   3.517   4.118   3.885
  479SOL    HW1 2336   3.450   4.184   3.919
  479SOL    HW2 2337   3.475   4.028   3.879
  480SOL     OW 2338   1.868   0.796   2.937
  480SOL    HW1 2339   1.854   0.861   3.012
  480SOL    HW2 2340   1.910   0.844   2.860
  481SOL     OW 2341   0.215   6.926   0.729
  481SOL    HW1 2342   0.241   6.976   0.646
  481SOL    HW2 2343   0.275   6.953   0.804
  482SOL     OW 2344   3.965   5.020   1.352
  482SOL    HW1 2345   3.971   5.018   1.252
  482SOL    HW2 2346   3.880   4.977   1.381
  483SOL     OW 2347   5.492   1.904   3.918
  483SOL    HW1 2348   5.558   1.967   3.878
  483SOL    HW2 2349   5.418   1.887   3.853
  484SOL     OW 2350   2.262   4.741   4.683
  484SOL    HW1 2351   2.309   4.681   4.748
  484SOL    HW2 2352   2.316   4.824   4.670
  485SOL     OW 2353   5.589   3.226   1.771
  485SOL    HW1 2354   5.509   3.281   1.795
  485SOL    HW2 2355   5.574   3.131   1.801
  486SOL     OW 2356   6.250   6.157   6.540
  486SOL    HW1 2357   6.335   6.198   6.508
  486SOL    HW2 2358   6.173   6.215   6.513
  487SOL     OW 2359   6.821   7.019   5.863
  487SOL    HW1 2360   6.838   7.002   5.960
  487SOL    HW2 2361   6.797   6.933   5.818
  488SOL     OW 2362   1.898   6.113   2.931
  488SOL    HW1 2363   1.960   6.102   3.009
  488SOL    HW2 2364   1.821   6.170   2.958
  489SOL     OW 2365   1.121   5.705   6.386
  489SOL    HW1 2366   1.091   5.699   6.482
  489SOL    HW2 2367   1.208   5.753   6.382
  490SOL     OW 2368   1.091   4.410   4.520
  490SOL    HW1 2369   1.126   4.430   4.428
  490SOL    HW2 2370   1.168   4.398   4.583
  491SOL     OW 2371   0.535   2.728   0.912
  491SOL    HW1 2372   0.565   2.779   0.993
  491SOL    HW2 2373   0.613   2.682   0.870
  492SOL     OW 2374   1.212   2.386   5.914
  492SOL    HW1 2375   1.181   2.348   6.001
  492SOL    HW2 2376   1.205   2.485   5.916
  493SOL     OW 2377   2.387   5.691   5.054
  493SOL    HW1 2378   2.408   5.780   5.014
  493SOL    HW2 2379   2.471   5.638   5.062
  494SOL     OW 2380   2.370   6.752   5.253
  494SOL    HW1 2381   2.332   6.673   5.204
  494SOL    HW2 2382   2.321   6.835   5.225
  495SOL     OW 2383   3.850   3.941   5.907
  495SOL    HW1 2384   3.791   3.979   5.978
  495SOL    HW2 2385   3.802   3.945   5.819
  496SOL     OW 2386   4.809   1.273   3.329
  496SOL    HW1 2387   4.874   1.344   3.358
  496SOL    HW2 2388   4.848   1.183   3.348
  497SOL     OW 2389   4.099   2.096   0.054
  497SOL    HW1 2390   4.036   2.033   0.008
  497SOL    HW2 2391   4.193   2.071   0.034
  498SOL     OW 2392   0.892   6.830   1.507
  498SOL    HW1 2393   0.860   6.894   1.437
  498SOL    HW2 2394   0.992   6.831   1.509
  499SOL     OW 2395   2.898   6.227   6.718
  499SOL    HW1 2396   2.970   6.199   6.782
  499SOL    HW2 2397   2.814   6.245   6.770
  500SOL     OW 2398   6.078   1.967   0.496
  500SOL    HW1 2399   5.994   1.983   0.444
  500SOL    HW2 2400   6.143   2.040   0.477
  501SOL     OW 2401   1.033   1.281   4.000
  501SOL    HW1 2402   1.077   1.350   4.057
  501SOL    HW2 2403   1.058   1.296   3.904
  502SOL     OW 2404   2.135   5.029   6.513
  502SOL    HW1 2405   2.109   5.115   6.558
  502SOL    HW2 2406   2.219   4.993   6.555
  503SOL     OW 2407   3.767   4.889   0.169
  503SOL    HW1 2408   3.717   4.817   0.216
  503SOL    HW2 2409   3.819   4.849   0.093
  504SOL     OW 2410   6.101   6.518   1.509
  504SOL    HW1 2411   6.048   6.599   1.535
  504SOL    HW2 2412   6.086   6.446   1.576
  505SOL     OW 2413   4.362   6.213   4.680
  505SOL    HW1 2414   4.413   6.220   4.594
  505SOL    HW2 2415   4.293   6.285   4.685
  506SOL     OW 2416   4.443   4.916   2.398
  506SOL    HW1 2417   4.443   4.825   2.357
  506SOL    HW2 2418   4.349   4.943   2.419
  507SOL     OW 2419   2.745   0.760   0.584
  507SOL    HW1 2420   2.656   0.718   0.565
  507SOL    HW2 2421   2.816   0.689   0.586
  508SOL     OW 2422   0.059   4.621   3.499
  508SOL    HW1 2423   7.008   4.608   3.435
  508SOL    HW2 2424   0.051   4.556   3.574
  509SOL     OW 2425   4.573   6.821   6.464
  509SOL    HW1 2426   4.657   6.858   6.424
  509SOL    HW2 2427   4.494   6.873   6.431
  510SOL     OW 2428   6.524   3.941   0.371
  510SOL    HW1 2429   6.458   3.888   0.424
  510SOL    HW2 2430   6.511   4.038   0.390
  511SOL     OW 2431   0.872   2.149   0.665
  511SOL    HW1 2432   0.878   2.214   0.590
  511SOL    HW2 2433   0.779   2.112   0.669
  512SOL     OW 2434   0.167   2.258   5.162
  512SOL    HW1 2435   0.084   2.202   5.163
  512SOL    HW2 2436   0.153   2.339   5.218
  513SOL     OW 2437   5.795   1.017   3.239
  513SOL    HW1 2438   5.706   0.990   3.275
  513SOL    HW2 2439   5.807   0.980   3.147
  514SOL     OW 2440   6.264   0.075   4.640
  514SOL    HW1 2441   6.287   0.003   4.575
  514SOL    HW2 2442   6.339   0.087   4.705
  515SOL     OW 2443   3.885   0.465   5.719
  515SOL    HW1 2444   3.949   0.525   5.671
  515SOL    HW2 2445   3.919   0.446   5.811
  516SOL     OW 2446   2.345   5.976   1.515
  516SOL    HW1 2447   2.331   5.968   1.614
  516SOL    HW2 2448   2.419   6.040   1.497
  517SOL     OW 2449   3.647   5.651   0.872
  517SOL    HW1 2450   3.603   5.699   0.796
  517SOL    HW2 2451   3.660   5.715   0.948
  518SOL     OW 2452   2.149   3.378   3.909
  518SOL    HW1 2453   2.156   3.475   3.884
  518SOL    HW2 2454   2.103   3.370   3.997
  519SOL     OW 2455   0.315   0.253   2.728
  519SOL    HW1 2456   0.278   0.309   2.654
  519SOL    HW2 2457   0.402   0.291   2.758
  520SOL     OW 2458   0.993   3.590   0.671
  520SOL    HW1 2459   1.020   3.507   0.623
  520SOL    HW2 2460   0.964   3.659   0.604
  521SOL     OW 2461   6.486   6.465   5.156
  521SOL    HW1 2462   6.554   6.438   5.223
  521SOL    HW2 2463   6.473   6.391   5.090
  522SOL     OW 2464   3.608   4.023   1.626
  522SOL    HW1 2465   3.641   3.976   1.707
  522SOL    HW2 2466   3.686   4.055   1.572
  523SOL     OW 2467   0.975   0.136   1.201
  523SOL    HW1 2468   1.019   0.061   1.250
  523SOL    HW2 2469   0.995   0.128   1.103
  524SOL     OW 2470   6.975   2.294   1.849
  524SOL    HW1 2471   7.008   2.351   1.774
  524SOL    HW2 2472   7.022   2.206   1.848
  525SOL     OW 2473   1.254   3.346   5.491
  525SOL    HW1 2474   1.254   3.326   5.589
  525SOL    HW2 2475   1.274   3.443   5.477
  526SOL     OW 2476   3.186   6.941   4.335
  526SOL    HW1 2477   3.110   6.890   4.375
  526SOL    HW2 2478   3.209   6.902   4.246
  527SOL     OW 2479   0.140   1.092   0.788
  527SOL    HW1 2480   0.110   1.024   0.854
  527SOL    HW2 2481   0.115   1.183   0.821
  528SOL     OW 2482   6.862   3.436   4.063
  528SOL    HW1 2483   6.786   3.395   4.012
  528SOL    HW2 2484   6.856   3.409   4.159
  529SOL     OW 2485   1.652   1.172   0.319
  529SOL    HW1 2486   1.729   1.235   0.331
  529SOL    HW2 2487   1.661   1.096   0.383
  530SOL     OW 2488   4.116   3.965   0.910
  530SOL    HW1 2489   4.105   3.867   0.895
  530SOL    HW2 2490   4.141   4.009   0.824
  531SOL     OW 2491   1.368   0.842   1.100
  531SOL    HW1 2492   1.292   0.791   1.141
  531SOL    HW2 2493   1.451   0.824   1.153
  532SOL     OW 2494   1.728   2.325   0.260
  532SOL    HW1 2495   1.737   2.418   0.225
  532SOL    HW2 2496   1.817   2.281   0.262
  533SOL     OW 2497   3.754   0.449   4.524
  533SOL    HW1 2498   3.736   0.544   4.549
  533SOL    HW2 2499   3.835   0.417   4.573
  534SOL     OW 2500   1.498   4.862   1.230
  534SOL    HW1 2501   1.433   4.791   1.255
  534SOL    HW2 2502   1.450   4.939   1.188
  535SOL     OW 2503   5.224   3.687   3.805
  535SOL    HW1 2504   5.215   3.623   3.881
  535SOL    HW2 2505   5.133   3.713   3.772
  536SOL     OW 2506   6.905   6.803   2.229
  536SOL    HW1 2507   6.823   6.759   2.193
  536SOL    HW2 2508   6.977   6.735   2.245
  537SOL     OW 2509   3.997   1.397   4.383
  537SOL    HW1 2510   4.015   1.369   4.477
  537SOL    HW2 2511   4.059   1.347   4.322
  538SOL     OW 2512   3.108   4.762   5.559
  538SOL    HW1 2513   3.079   4.753   5.464
  538SOL    HW2 2514   3.071   4.847   5.598
  539SOL     OW 2515   1.283   0.228   0.117
  539SOL    HW1 2516   1.295   0.270   0.207
  539SOL    HW2 2517   1.261   0.131   0.129
  540SOL     OW 2518   0.935   0.371   4.303
  540SOL    HW1 2519   1.005   0.426   4.348
  540SOL    HW2 2520   0.845   0.399   4.336
  541SOL     OW 2521   4.252   5.550   4.575
  541SOL    HW1 2522   4.321   5.521   4.641
  541SOL    HW2 2523   4.230   5.474   4.514
  542SOL     OW 2524   3.431   0.597   5.807
  542SOL    HW1 2525   3.518   0.646   5.812
  542SOL    HW2 2526   3.406   0.583   5.711
  543SOL     OW 2527   6.135   2.212   4.440
  543SOL    HW1 2528   6.169   2.255   4.524
  543SOL    HW2 2529   6.081   2.131   4.465
  544SOL     OW 2530   1.373   4.065   1.319
  544SOL    HW1 2531   1.441   4.103   1.381
  544SOL    HW2 2532   1.410   3.981   1.278
  545SOL     OW 2533   5.746   1.245   1.075
  545SOL    HW1 2534   5.785   1.334   1.050
  545SOL    HW2 2535   5.771   1.224   1.170
  546SOL     OW 2536   0.186   4.348   2.608
  546SOL    HW1 2537   0.280   4.323   2.583
  546SOL    HW2 2538   0.132   4.265   2.618
  547SOL     OW 2539   4.342   0.816   6.233
  547SOL    HW1 2540   4.428   0.845   6.275
  547SOL    HW2 2541   4.267   0.829   6.298
  548SOL     OW 2542   3.531   2.212   6.848
  548SOL    HW1 2543   3.435   2.230   6.828
  548SOL    HW2 2544   3.587   2.240   6.770
  549SOL     OW 2545   6.211   1.476   1.490
  549SOL    HW1 2546   6.308   1.462   1.472
  549SOL    HW2 2547   6.170   1.525   1.413
  550SOL     OW 2548   6.993   5.244   3.284
  550SOL    HW1 2549   6.924   5.217   3.351
  550SOL    HW2 2550   6.964   5.216   3.192
  551SOL     OW 2551   6.568   0.634   0.516
  551SOL    HW1 2552   6.537   0.565   0.452
  551SOL    HW2 2553   6.571   0.596   0.608
  552SOL     OW 2554   6.403   5.186   5.513
  552SOL    HW1 2555   6.325   5.133   5.480
  552SOL    HW2 2556   6.371   5.264   5.567
  553SOL     OW 2557   2.996   1.061   6.229
  553SOL    HW1 2558   3.047   1.141   6.260
  553SOL    HW2 2559   3.014   1.048   6.131
  554SOL     OW 2560   5.808   6.356   1.107
  554SOL    HW1 2561   5.823   6.328   1.012
  554SOL    HW2 2562   5.834   6.452   1.118
  555SOL     OW 2563   1.385   3.878   5.637
  555SOL    HW1 2564   1.399   3.790   5.682
  555SOL    HW2 2565   1.300   3.876   5.584
  556SOL     OW 2566   5.336   0.348   4.250
  556SOL    HW1 2567   5.263   0.304   4.302
  556SOL    HW2 2568   5.359   0.436   4.291
  557SOL     OW 2569   6.492   4.347   6.825
  557SOL    HW1 2570   6.547   4.271   6.857
  557SOL    HW2 2571   6.402   4.346   6.869
  558SOL     OW 2572   2.995   3.929   2.294
  558SOL    HW1 2573   2.985   3.879   2.208
  558SOL    HW2 2574   2.907   3.934   2.341
  559SOL     OW 2575   6.108   6.642   5.707
  559SOL    HW1 2576   6.138   6.602   5.794
  559SOL    HW2 2577   6.018   6.606   5.684
  560SOL     OW 2578   6.513   3.297   3.107
  560SOL    HW1 2579   6.433   3.289   3.166
  560SOL    HW2 2580   6.519   3.217   3.047
  561SOL     OW 2581   0.793   3.232   6.980
  561SOL    HW1 2582   0.725   3.270   6.918
  561SOL    HW2 2583   0.884   3.242   6.940
  562SOL     OW 2584   4.041   0.332   5.502
  562SOL    HW1 2585   3.954   0.289   5.526
  562SOL    HW2 2586   4.048   0.338   5.402
  563SOL     OW 2587   2.238   1.662   4.257
  563SOL    HW1 2588   2.157   1.672   4.200
  563SOL    HW2 2589   2.247   1.566   4.285
  564SOL     OW 2590   6.851   2.049   5.538
  564SOL    HW1 2591   6.873   2.143   5.513
  564SOL    HW2 2592   6.934   1.993   5.538
  565SOL     OW 2593   4.020   3.349   3.332
  565SOL    HW1 2594   4.037   3.332   3.429
  565SOL    HW2 2595   4.075   3.426   3.301
  566SOL     OW 2596   3.496   6.741   2.931
  566SOL    HW1 2597   3.561   6.739   2.854
  566SOL    HW2 2598   3.543   6.774   3.013
  567SOL     OW 2599   1.972   3.173   6.739
  567SOL    HW1 2600   1.994   3.114   6.661
  567SOL    HW2 2601   1.889   3.140   6.784
  568SOL     OW 2602   6.823   6.488   0.603
  568SOL    HW1 2603   6.740   6.539   0.582
  568SOL    HW2 2604   6.825   6.403   0.552
  569SOL     OW 2605   6.403   2.194   0.634
  569SOL    HW1 2606   6.454   2.278   0.648
  569SOL    HW2 2607   6.384   2.151   0.722
  570SOL     OW 2608   2.345   0.873   5.673
  570SOL    HW1 2609   2.383   0.965   5.681
  570SOL    HW2 2610   2.281   0.870   5.597
  571SOL     OW 2611   2.168   4.975   2.359
  571SOL    HW1 2612   2.220   5.008   2.438
  571SOL    HW2 2613   2.231   4.957   2.283
  572SOL     OW 2614   2.737   0.070   3.986
  572SOL    HW1 2615   2.696   0.148   3.939
  572SOL    HW2 2616   2.677   0.039   4.059
  573SOL     OW 2617   0.151   1.114   5.504
  573SOL    HW1 2618   0.069   1.162   5.535
  573SOL    HW2 2619   0.230   1.174   5.513
  574SOL     OW 2620   2.371   2.046   5.465
  574SOL    HW1 2621   2.436   2.108   5.511
  574SOL    HW2 2622   2.386   2.050   5.366
  575SOL     OW 2623   3.145   3.206   0.363
  575SOL    HW1 2624   3.150   3.304   0.383
  575SOL    HW2 2625   3.208   3.156   0.423
  576SOL     OW 2626   2.174   3.115   2.962
  576SOL    HW1 2627   2.134   3.094   2.872
  576SOL    HW2 2628   2.158   3.038   3.024
  577SOL     OW 2629   0.988   1.405   2.104
  577SOL    HW1 2630   0.931   1.388   2.184
  577SOL    HW2 2631   0.968   1.337   2.033
  578SOL     OW 2632   2.170   6.329   6.656
  578SOL    HW1 2633   2.223   6.411   6.636
  578SOL    HW2 2634   2.155   6.323   6.755
  579SOL     OW 2635   2.312   4.737   1.880
  579SOL    HW1 2636   2.337   4.784   1.796
  579SOL    HW2 2637   2.384   4.672   1.906
  580SOL     OW 2638   4.200   5.029   4.587
  580SOL    HW1 2639   4.229   4.935   4.604
  580SOL    HW2 2640   4.189   5.076   4.674
  581SOL     OW 2641   1.878   2.742   4.421
  581SOL    HW1 2642   1.871   2.650   4.383
  581SOL    HW2 2643   1.914   2.736   4.515
  582SOL     OW 2644   5.845   5.601   3.744
  582SOL    HW1 2645   5.868   5.584   3.840
  582SOL    HW2 2646   5.780   5.677   3.738
  583SOL     OW 2647   3.782   5.192   5.833
  583SOL    HW1 2648   3.849   5.118   5.844
  583SOL    HW2 2649   3.747   5.219   5.923
  584SOL     OW 2650   4.330   0.751   5.749
  584SOL    HW1 2651   4.390   0.809   5.804
  584SOL    HW2 2652   4.244   0.798   5.732
  585SOL     OW 2653   3.053   6.954   1.926
  585SOL    HW1 2654   3.026   0.005   1.865
  585SOL    HW2 2655   3.152   6.942   1.921
  586SOL     OW 2656   4.579   0.384   1.014
  586SOL    HW1 2657   4.496   0.419   0.972
  586SOL    HW2 2658   4.570   0.388   1.114
  587SOL     OW 2659   5.119   1.903   2.183
  587SOL    HW1 2660   5.035   1.956   2.195
  587SOL    HW2 2661   5.098   1.805   2.190
  588SOL     OW 2662   1.159   5.618   2.315
  588SOL    HW1 2663   1.077   5.673   2.328
  588SOL    HW2 2664   1.134   5.524   2.294
  589SOL     OW 2665   3.507   6.094   1.119
  589SOL    HW1 2666   3.553   6.158   1.180
  589SOL    HW2 2667   3.454   6.146   1.052
  590SOL     OW 2668   4.649   1.725   0.470
  590SOL    HW1 2669   4.637   1.674   0.555
  590SOL    HW2 2670   4.560   1.760   0.440
  591SOL     OW 2671   3.764   5.990   4.601
  591SOL    HW1 2672   3.669   5.959   4.599
  591SOL    HW2 2673   3.805   5.978   4.511
  592SOL     OW 2674   4.399   2.316   3.818
  592SOL    HW1 2675   4.378   2.294   3.913
  592SOL    HW2 2676   4.327   2.281   3.758
  593SOL     OW 2677   3.222   1.394   6.007
  593SOL    HW1 2678   3.158   1.458   5.965
  593SOL    HW2 2679   3.316   1.423   5.990
  594SOL     OW 2680   5.788   1.586   1.822
  594SOL    HW1 2681   5.699   1.542   1.808
  594SOL    HW2 2682   5.856   1.517   1.847
  595SOL     OW 2683   5.383   6.117   2.351
  595SOL    HW1 2684   5.341   6.164   2.274
  595SOL    HW2 2685   5.417   6.184   2.417
  596SOL     OW 2686   6.472   4.885   4.240
  596SOL    HW1 2687   6.518   4.862   4.154
  596SOL    HW2 2688   6.404   4.814   4.260
  597SOL     OW 2689   2.979   0.551   6.129
  597SOL    HW1 2690   2.999   0.638   6.174
  597SOL    HW2 2691   3.063   0.513   6.090
  598SOL     OW 2692   3.102   3.313   4.238
  598SOL    HW1 2693   3.149   3.250   4.299
  598SOL    HW2 2694   3.023   3.352   4.284
  599SOL     OW 2695   1.502   5.930   1.758
  599SOL    HW1 2696   1.421   5.872   1.760
  599SOL    HW2 2697   1.474   6.026   1.764
  600SOL     OW 2698   7.007   3.914   4.629
  600SOL    HW1 2699   0.057   3.885   4.689
  600SOL    HW2 2700   6.997   4.014   4.634
  601SOL     OW 2701   1.651   6.946   5.066
  601SOL    HW1 2702   1.591   7.024   5.078
  601SOL    HW2 2703   1.608   6.864   5.105
  602SOL     OW 2704   2.775   6.539   3.852
  602SOL    HW1 2705   2.736   6.611   3.910
  602SOL    HW2 2706   2.741   6.450   3.883
  603SOL     OW 2707   1.594   1.061   5.553
  603SOL    HW1 2708   1.499   1.089   5.537
  603SOL    HW2 2709   1.656   1.124   5.507
  604SOL     OW 2710   6.382   2.515   1.654
  604SOL    HW1 2711   6.416   2.604   1.684
  604SOL    HW2 2712   6.336   2.469   1.730
  605SOL     OW 2713   0.307   5.692   2.615
  605SOL    HW1 2714   0.240   5.724   2.683
  605SOL    HW2 2715   0.384   5.756   2.613
  606SOL     OW 2716   3.731   6.654   5.004
  606SOL    HW1 2717   3.788   6.732   4.978
  606SOL    HW2 2718   3.698   6.608   4.922
  607SOL     OW 2719   0.916   4.476   6.390
  607SOL    HW1 2720   0.915   4.518   6.299
  607SOL    HW2 2721   0.931   4.378   6.381
  608SOL     OW 2722   2.965   1.362   5.337
  608SOL    HW1 2723   2.947   1.283   5.279
  608SOL    HW2 2724   2.917   1.351   5.424
  609SOL     OW 2725   3.403   2.827   1.894
  609SOL    HW1 2726   3.441   2.835   1.987
  609SOL    HW2 2727   3.321   2.770   1.896
  610SOL     OW 2728   4.876   3.433   0.604
  610SOL    HW1 2729   4.883   3.517   0.550
  610SOL    HW2 2730   4.842   3.454   0.695
  611SOL     OW 2731   3.972   0.257   2.675
  611SOL    HW1 2732   3.890   0.312   2.689
  611SOL    HW2 2733   4.002   0.219   2.763
  612SOL     OW 2734   4.031   4.590   5.944
  612SOL    HW1 2735   4.119   4.608   5.988
  612SOL    HW2 2736   4.045   4.526   5.868
  613SOL     OW 2737   4.376   5.115   5.312
  613SOL    HW1 2738   4.341   5.128   5.219
  613SOL    HW2 2739   4.317   5.050   5.360
  614SOL     OW 2740   4.191   5.153   5.966
  614SOL    HW1 2741   4.227   5.158   6.059
  614SOL    HW2 2742   4.115   5.088   5.963
  615SOL     OW 2743   0.647   5.390   1.786
  615SOL    HW1 2744   0.745   5.378   1.772
  615SOL    HW2 2745   0.604   5.418   1.700
  616SOL     OW 2746   5.791   3.472   3.054
  616SOL    HW1 2747   5.775   3.429   3.142
  616SOL    HW2 2748   5.885   3.507   3.051
  617SOL     OW 2749   2.597   5.353   6.293
  617SOL    HW1 2750   2.693   5.359   6.267
  617SOL    HW2 2751   2.550   5.438   6.269
  618SOL     OW 2752   1.592   0.920   2.436
  618SOL    HW1 2753   1.560   0.972   2.515
  618SOL    HW2 2754   1.520   0.917   2.366
  619SOL     OW 2755   1.106   1.119   6.649
  619SOL    HW1 2756   1.096   1.117   6.550
  619SOL    HW2 2757   1.155   1.037   6.679
  620SOL     OW 2758   4.850   3.606   0.368
  620SOL    HW1 2759   4.835   3.529   0.305
  620SOL    HW2 2760   4.817   3.690   0.327
  621SOL     OW 2761   0.430   4.713   1.911
  621SOL    HW1 2762   0.459   4.808   1.907
  621SOL    HW2 2763   0.402   4.691   2.005
  622SOL     OW 2764   1.651   1.505   0.155
  622SOL    HW1 2765   1.698   1.459   0.080
  622SOL    HW2 2766   1.557   1.470   0.162
  623SOL     OW 2767   0.524   4.486   6.798
  623SOL    HW1 2768   0.500   4.412   6.735
  623SOL    HW2 2769   0.623   4.490   6.810
  624SOL     OW 2770   1.074   2.776   3.109
  624SOL    HW1 2771   1.123   2.709   3.053
  624SOL    HW2 2772   0.980   2.743   3.125
  625SOL     OW 2773   2.364   1.721   2.063
  625SOL    HW1 2774   2.424   1.668   2.122
  625SOL    HW2 2775   2.324   1.662   1.993
  626SOL     OW 2776   2.765   6.448   4.640
  626SOL    HW1 2777   2.826   6.494   4.577
  626SOL    HW2 2778   2.818   6.399   4.710
  627SOL     OW 2779   5.632   0.839   0.306
  627SOL    HW1 2780   5.671   0.819   0.395
  627SOL    HW2 2781   5.536   0.811   0.304
  628SOL     OW 2782   4.943   3.889   3.752
  628SOL    HW1 2783   4.915   3.795   3.769
  628SOL    HW2 2784   4.935   3.909   3.654
  629SOL     OW 2785   1.030   0.449   1.210
  629SOL    HW1 2786   0.973   0.443   1.128
  629SOL    HW2 2787   1.060   0.357   1.236
  630SOL     OW 2788   4.019   1.912   1.163
  630SOL    HW1 2789   4.002   1.938   1.258
  630SOL    HW2 2790   4.118   1.903   1.148
  631SOL     OW 2791   2.110   0.260   5.350
  631SOL    HW1 2792   2.195   0.287   5.305
  631SOL    HW2 2793   2.045   0.228   5.281
  632SOL     OW 2794   1.776   1.409   0.904
  632SOL    HW1 2795   1.722   1.493   0.909
  632SOL    HW2 2796   1.718   1.331   0.927
  633SOL     OW 2797   2.630   0.122   6.100
  633SOL    HW1 2798   2.616   0.193   6.169
  633SOL    HW2 2799   2.626   0.032   6.144
  634SOL     OW 2800   3.717   5.916   0.589
  634SOL    HW1 2801   3.679   5.980   0.523
  634SOL    HW2 2802   3.650   5.844   0.608
  635SOL     OW 2803   3.427   0.253   2.503
  635SOL    HW1 2804   3.515   0.225   2.464
  635SOL    HW2 2805   3.359   0.258   2.430
  636SOL     OW 2806   5.288   5.213   0.274
  636SOL    HW1 2807   5.213   5.190   0.213
  636SOL    HW2 2808   5.372   5.229   0.221
  637SOL     OW 2809   4.434   4.794   0.951
  637SOL    HW1 2810   4.451   4.884   0.992
  637SOL    HW2 2811   4.438   4.724   1.022
  638SOL     OW 2812   4.873   1.432   2.425
  638SOL    HW1 2813   4.843   1.526   2.408
  638SOL    HW2 2814   4.819   1.369   2.369
  639SOL     OW 2815   4.386   4.552   1.927
  639SOL    HW1 2816   4.419   4.458   1.934
  639SOL    HW2 2817   4.341   4.565   1.839
  640SOL     OW 2818   3.086   4.324   5.236
  640SOL    HW1 2819   3.161   4.349   5.296
  640SOL    HW2 2820   3.045   4.406   5.197
  641SOL     OW 2821   6.982   6.114   4.849
  641SOL    HW1 2822   7.007   6.094   4.943
  641SOL    HW2 2823   6.884   6.100   4.836
  642SOL     OW 2824   0.773   5.277   4.760
  642SOL    HW1 2825   0.846   5.257   4.825
  642SOL    HW2 2826   0.716   5.352   4.795
  643SOL     OW 2827   6.020   5.713   5.595
  643SOL    HW1 2828   6.023   5.802   5.640
  643SOL    HW2 2829   5.936   5.705   5.542
  644SOL     OW 2830   1.245   6.487   2.397
  644SOL    HW1 2831   1.193   6.452   2.475
  644SOL    HW2 2832   1.182   6.509   2.322
  645SOL     OW 2833   5.672   2.888   3.577
  645SOL    HW1 2834   5.772   2.892   3.584
  645SOL    HW2 2835   5.644   2.796   3.552
  646SOL     OW 2836   1.771   1.679   4.488
  646SOL    HW1 2837   1.694   1.720   4.439
  646SOL    HW2 2838   1.779   1.722   4.578
  647SOL     OW 2839   6.193   3.459   0.457
  647SOL    HW1 2840   6.096   3.473   0.441
  647SOL    HW2 2841   6.231   3.401   0.385
  648SOL     OW 2842   6.040   3.597   1.752
  648SOL    HW1 2843   6.070   3.670   1.813
  648SOL    HW2 2844   6.029   3.512   1.804
  649SOL     OW 2845   4.226   4.705   0.784
  649SOL    HW1 2846   4.309   4.738   0.828
  649SOL    HW2 2847   4.234   4.715   0.685
  650SOL     OW 2848   4.748   4.971   0.649
  650SOL    HW1 2849   4.842   5.004   0.657
  650SOL    HW2 2850   4.723   4.920   0.732
  651SOL     OW 2851   0.948   6.119   6.804
  651SOL    HW1 2852   0.942   6.198   6.865
  651SOL    HW2 2853   1.031   6.067   6.825
  652SOL     OW 2854   3.923   1.357   2.381
  652SOL    HW1 2855   3.897   1.401   2.295
  652SOL    HW2 2856   3.948   1.262   2.363
  653SOL     OW 2857   3.509   4.920   3.617
  653SOL    HW1 2858   3.468   4.914   3.709
  653SOL    HW2 2859   3.602   4.956   3.625
  654SOL     OW 2860   6.622   4.380   0.224
  654SOL    HW1 2861   6.522   4.379   0.223
  654SOL    HW2 2862   6.656   4.410   0.134
  655SOL     OW 2863   0.775   0.627   1.120
  655SOL    HW1 2864   0.706   0.654   1.188
  655SOL    HW2 2865   0.731   0.573   1.048
  656SOL     OW 2866   3.088   6.515   1.993
  656SOL    HW1 2867   3.025   6.581   1.953
  656SOL    HW2 2868   3.050   6.479   2.078
  657SOL     OW 2869   3.196   1.668   6.934
  657SOL    HW1 2870   3.098   1.689   6.936
  657SOL    HW2 2871   3.211   1.585   6.880
  658SOL     OW 2872   3.108   4.142   6.251
  658SOL    HW1 2873   3.023   4.124   6.201
  658SOL    HW2 2874   3.185   4.143   6.188
  659SOL     OW 2875   2.271   6.902   6.721
  659SOL    HW1 2876   2.318   6.967   6.661
  659SOL    HW2 2877   2.292   6.809   6.693
  660SOL     OW 2878   3.443   5.266   2.591
  660SOL    HW1 2879   3.502   5.248   2.512
  660SOL    HW2 2880   3.347   5.254   2.565
  661SOL     OW 2881   4.815   5.522   2.841
  661SOL    HW1 2882   4.885   5.485   2.779
  661SOL    HW2 2883   4.858   5.547   2.927
  662SOL     OW 2884   3.443   1.238   6.744
  662SOL    HW1 2885   3.344   1.243   6.752
  662SOL    HW2 2886   3.479   1.326   6.716
  663SOL     OW 2887   2.263   4.381   5.086
  663SOL    HW1 2888   2.252   4.437   5.169
  663SOL    HW2 2889   2.324   4.304   5.106
  664SOL     OW 2890   6.258   0.589   6.660
  664SOL    HW1 2891   6.175   0.641   6.676
  664SOL    HW2 2892   6.279   0.533   6.740
  665SOL     OW 2893   2.303   5.728   2.996
  665SOL    HW1 2894   2.341   5.796   2.933
  665SOL    HW2 2895   2.279   5.645   2.945
  666SOL     OW 2896   4.344   0.629   2.053
  666SOL    HW1 2897   4.307   0.649   2.144
  666SOL    HW2 2898   4.421   0.689   2.034
  667SOL     OW 2899   0.768   7.004   2.691
  667SOL    HW1 2900   0.788   6.985   2.787
  667SOL    HW2 2901   0.853   7.005   2.639
  668SOL     OW 2902   5.513   3.689   6.891
  668SOL    HW1 2903   5.574   3.633   6.835
  668SOL    HW2 2904   5.447   3.735   6.832
  669SOL     OW 2905   5.023   1.489   2.906
  669SOL    HW1 2906   5.037   1.400   2.948
  669SOL    HW2 2907   4.926   1.515   2.914
  670SOL     OW 2908   1.981   2.383   3.342
  670SOL    HW1 2909   2.054   2.451   3.349
  670SOL    HW2 2910   2.016   2.294   3.372
  671SOL     OW 2911   2.724   6.551   1.359
  671SOL    HW1 2912   2.764   6.465   1.326
  671SOL    HW2 2913   2.663   6.588   1.289
  672SOL     OW 2914   0.982   6.975   2.534
  672SOL    HW1 2915   0.973   7.020   2.445
  672SOL    HW2 2916   1.079   6.969   2.558
  673SOL     OW 2917   5.175   6.923   0.643
  673SOL    HW1 2918   5.188   7.012   0.600
  673SOL    HW2 2919   5.254   6.902   0.702
  674SOL     OW 2920   0.286   0.613   4.720
  674SOL    HW1 2921   0.333   0.536   4.763
  674SOL    HW2 2922   0.312   0.698   4.767
  675SOL     OW 2923   6.413   3.333   2.697
  675SOL    HW1 2924   6.340   3.402   2.688
  675SOL    HW2 2925   6.372   3.244   2.715
  676SOL     OW 2926   2.181   6.038   5.775
  676SOL    HW1 2927   2.280   6.027   5.779
  676SOL    HW2 2928   2.151   6.096   5.851
  677SOL     OW 2929   4.612   1.099   1.013
  677SOL    HW1 2930   4.665   1.153   0.947
  677SOL    HW2 2931   4.623   1.002   0.993
  678SOL     OW 2932   1.721   4.657   5.143
  678SOL    HW1 2933   1.751   4.728   5.080
  678SOL    HW2 2934   1.800   4.616   5.188
  679SOL     OW 2935   4.977   2.012   5.352
  679SOL    HW1 2936   4.975   1.950   5.273
  679SOL    HW2 2937   4.888   2.011   5.398
  680SOL     OW 2938   4.403   6.886   3.981
  680SOL    HW1 2939   4.368   6.818   4.045
  680SOL    HW2 2940   4.386   6.855   3.887
  681SOL     OW 2941   4.837   5.277   2.338
  681SOL    HW1 2942   4.809   5.360   2.290
  681SOL    HW2 2943   4.810   5.197   2.286
  682SOL     OW 2944   0.851   0.959   3.381
  682SOL    HW1 2945   0.912   1.021   3.332
  682SOL    HW2 2946   0.838   0.992   3.475
  683SOL     OW 2947   4.224   3.542   1.373
  683SOL    HW1 2948   4.182   3.547   1.464
  683SOL    HW2 2949   4.175   3.601   1.310
  684SOL     OW 2950   6.428   0.283   5.745
  684SOL    HW1 2951   6.487   0.364   5.752
  684SOL    HW2 2952   6.475   0.204   5.783
  685SOL     OW 2953   3.651   0.203   3.154
  685SOL    HW1 2954   3.606   0.254   3.227
  685SOL    HW2 2955   3.583   0.148   3.106
  686SOL     OW 2956   4.371   0.859   4.836
  686SOL    HW1 2957   4.336   0.872   4.743
  686SOL    HW2 2958   4.420   0.773   4.842
  687SOL     OW 2959   1.558   1.776   4.357
  687SOL    HW1 2960   1.499   1.853   4.336
  687SOL    HW2 2961   1.571   1.720   4.275
  688SOL     OW 2962   5.998   1.324   6.733
  688SOL    HW1 2963   6.067   1.299   6.664
  688SOL    HW2 2964   6.030   1.296   6.823
  689SOL     OW 2965   1.553   5.372   5.765
  689SOL    HW1 2966   1.580   5.294   5.708
  689SOL    HW2 2967   1.626   5.393   5.829
  690SOL     OW 2968   5.720   3.465   2.592
  690SOL    HW1 2969   5.774   3.389   2.629
  690SOL    HW2 2970   5.666   3.434   2.514
  691SOL     OW 2971   4.547   1.399   6.768
  691SOL    HW1 2972   4.526   1.331   6.839
  691SOL    HW2 2973   4.467   1.412   6.710
  692SOL     OW 2974   2.745   1.149   4.597
  692SOL    HW1 2975   2.771   1.093   4.675
  692SOL    HW2 2976   2.802   1.126   4.518
  693SOL     OW 2977   5.366   6.140   3.937
  693SOL    HW1 2978   5.390   6.043   3.937
  693SOL    HW2 2979   5.270   6.151   3.964
  694SOL     OW 2980   4.205   5.389   5.007
  694SOL    HW1 2981   4.251   5.424   5.088
  694SOL    HW2 2982   4.132   5.453   4.981
  695SOL     OW 2983   3.386   6.801   4.495
  695SOL    HW1 2984   3.425   6.820   4.585
  695SOL    HW2 2985   3.313   6.868   4.476
  696SOL     OW 2986   4.630   4.564   3.071
  696SOL    HW1 2987   4.589   4.636   3.128
  696SOL    HW2 2988   4.724   4.589   3.048
  697SOL     OW 2989   0.409   5.226   2.470
  697SOL    HW1 2990   0.429   5.319   2.441
  697SOL    HW2 2991   0.358   5.179   2.398
  698SOL     OW 2992   5.685   0.210   1.216
  698SOL    HW1 2993   5.685   0.182   1.120
  698SOL    HW2 2994   5.649   0.303   1.224
  699SOL     OW 2995   2.252   2.356   1.079
  699SOL    HW1 2996   2.323   2.297   1.040
  699SOL    HW2 2997   2.220   2.316   1.166
  700SOL     OW 2998   3.777   6.835   2.484
  700SOL    HW1 2999   3.761   6.830   2.385
  700SOL    HW2 3000   3.863   6.884   2.502
  701SOL     OW 3001   6.198   5.357   1.207
  701SOL    HW1 3002   6.215   5.429   1.140
  701SOL    HW2 3003   6.101   5.355   1.230
  702SOL     OW 3004   2.772   1.031   4.072
  702SOL    HW1 3005   2.871   1.049   4.075
  702SOL    HW2 3006   2.729   1.065   4.155
  703SOL     OW 3007   3.068   2.672   6.155
  703SOL    HW1 3008   3.026   2.726   6.228
  703SOL    HW2 3009   3.083   2.578   6.188
  704SOL     OW 3010   1.371   2.870   5.990
  704SOL    HW1 3011   1.291   2.878   6.050
  704SOL    HW2 3012   1.451   2.846   6.045
  705SOL     OW 3013   0.191   6.302   4.556
  705SOL    HW1 3014   0.161   6.209   4.533
  705SOL    HW2 3015   0.142   6.333   4.638
  706SOL     OW 3016   4.698   1.011   5.139
  706SOL    HW1 3017   4.616   1.055   5.102
  706SOL    HW2 3018   4.707   1.033   5.236
  707SOL     OW 3019   3.266   4.904   3.243
  707SOL    HW1 3020   3.203   4.875   3.171
  707SOL    HW2 3021   3.311   4.989   3.215
  708SOL     OW 3022   3.194   0.481   3.554
  708SOL    HW1 3023   3.250   0.447   3.629
  708SOL    HW2 3024   3.252   0.533   3.490
  709SOL     OW 3025   2.311   0.206   1.515
  709SOL    HW1 3026   2.236   0.176   1.573
  709SOL    HW2 3027   2.275   0.248   1.432
  710SOL     OW 3028   4.876   2.890   1.752
  710SOL    HW1 3029   4.944   2.930   1.813
  710SOL    HW2 3030   4.786   2.896   1.794
  711SOL     OW 3031   0.107   2.285   5.667
  711SOL    HW1 3032   0.130   2.327   5.579
  711SOL    HW2 3033   0.189   2.281   5.724
  712SOL     OW 3034   5.081   3.216   0.360
  712SOL    HW1 3035   5.146   3.275   0.409
  712SOL    HW2 3036   5.064   3.134   0.414
  713SOL     OW 3037   3.905   2.710   5.291
  713SOL    HW1 3038   3.979   2.650   5.259
  713SOL    HW2 3039   3.918   2.801   5.253
  714SOL     OW 3040   5.417   4.981   3.312
  714SOL    HW1 3041   5.392   5.051   3.245
  714SOL    HW2 3042   5.502   5.007   3.358
  715SOL     OW 3043   6.310   5.374   5.715
  715SOL    HW1 3044   6.236   5.345   5.776
  715SOL    HW2 3045   6.301   5.472   5.696
  716SOL     OW 3046   1.900   1.367   2.390
  716SOL    HW1 3047   1.915   1.414   2.477
  716SOL    HW2 3048   1.953   1.282   2.388
  717SOL     OW 3049   5.282   4.915   3.736
  717SOL    HW1 3050   5.220   4.920   3.658
  717SOL    HW2 3051   5.368   4.963   3.714
  718SOL     OW 3052   5.453   1.994   4.404
  718SOL    HW1 3053   5.434   1.948   4.490
  718SOL    HW2 3054   5.400   1.951   4.331
  719SOL     OW 3055   5.581   0.372   3.453
  719SOL    HW1 3056   5.524   0.350   3.533
  719SOL    HW2 3057   5.672   0.332   3.464
  720SOL     OW 3058   1.832   1.087   6.996
  720SOL    HW1 3059   1.845   1.012   6.931
  720SOL    HW2 3060   1.916   1.100   0.024
  721SOL     OW 3061   6.864   2.430   2.698
  721SOL    HW1 3062   6.805   2.457   2.622
  721SOL    HW2 3063   6.945   2.383   2.662
  722SOL     OW 3064   4.491   6.603   0.239
  722SOL    HW1 3065   4.402   6.641   0.266
  722SOL    HW2 3066   4.493   6.590   0.140
  723SOL     OW 3067   2.546   5.595   3.856
  723SOL    HW1 3068   2.589   5.664   3.913
  723SOL    HW2 3069   2.457   5.627   3.824
  724SOL     OW 3070   1.161   1.224   3.634
  724SOL    HW1 3071   1.099   1.301   3.647
  724SOL    HW2 3072   1.188   1.219   3.537
  725SOL     OW 3073   1.686   3.814   2.264
  725SOL    HW1 3074   1.613   3.757   2.303
  725SOL    HW2 3075   1.720   3.876   2.335
  726SOL     OW 3076   2.093   4.255   0.743
  726SOL    HW1 3077   2.057   4.240   0.651
  726SOL    HW2 3078   2.186   4.219   0.749
  727SOL     OW 3079   4.258   5.128   5.051
  727SOL    HW1 3080   4.171   5.085   5.072
  727SOL    HW2 3081   4.242   5.221   5.017
  728SOL     OW 3082   6.975   3.086   4.270
  728SOL    HW1 3083   6.929   2.998   4.281
  728SOL    HW2 3084   6.908   3.160   4.274
  729SOL     OW 3085   0.335   4.069   1.515
  729SOL    HW1 3086   0.384   4.106   1.435
  729SOL    HW2 3087   0.336   3.969   1.511
  730SOL     OW 3088   4.952   0.422   3.546
  730SOL    HW1 3089   4.966   0.415   3.447
  730SOL    HW2 3090   4.947   0.518   3.572
  731SOL     OW 3091   4.353   4.278   6.110
  731SOL    HW1 3092   4.432   4.332   6.080
  731SOL    HW2 3093   4.292   4.335   6.165
  732SOL     OW 3094   4.959   1.487   3.414
  732SOL    HW1 3095   5.043   1.443   3.384
  732SOL    HW2 3096   4.981   1.574   3.458
  733SOL     OW 3097   6.212   6.606   3.461
  733SOL    HW1 3098   6.118   6.572   3.461
  733SOL    HW2 3099   6.246   6.611   3.367
  734SOL     OW 3100   5.451   6.103   2.703
  734SOL    HW1 3101   5.546   6.128   2.683
  734SOL    HW2 3102   5.441   6.004   2.700
  735SOL     OW 3103   4.878   0.607   2.146
  735SOL    HW1 3104   4.873   0.632   2.243
  735SOL    HW2 3105   4.917   0.683   2.094
  736SOL     OW 3106   1.357   1.366   4.253
  736SOL    HW1 3107   1.448   1.325   4.250
  736SOL    HW2 3108   1.309   1.335   4.335
  737SOL     OW 3109   5.294   1.306   6.611
  737SOL    HW1 3110   5.378   1.312   6.558
  737SOL    HW2 3111   5.297   1.223   6.668
  738SOL     OW 3112   2.709   4.317   1.211
  738SOL    HW1 3113   2.735   4.282   1.122
  738SOL    HW2 3114   2.651   4.398   1.199
  739SOL     OW 3115   2.839   6.775   4.884
  739SOL    HW1 3116   2.929   6.792   4.845
  739SOL    HW2 3117   2.835   6.682   4.921
  740SOL     OW 3118   5.398   2.827   3.230
  740SOL    HW1 3119   5.495   2.849   3.232
  740SOL    HW2 3120   5.387   2.727   3.228
  741SOL     OW 3121   2.827   0.332   3.411
  741SOL    HW1 3122   2.919   0.370   3.399
  741SOL    HW2 3123   2.811   0.260   3.343
  742SOL     OW 3124   2.059   6.909   1.441
  742SOL    HW1 3125   2.130   6.847   1.407
  742SOL    HW2 3126   2.000   6.936   1.365
  743SOL     OW 3127   0.823   6.355   3.566
  743SOL    HW1 3128   0.794   6.381   3.658
  743SOL    HW2 3129   0.914   6.313   3.571
  744SOL     OW 3130   4.676   1.301   0.388
  744SOL    HW1 3131   4.648   1.327   0.295
  744SOL    HW2 3132   4.597   1.265   0.438
  745SOL     OW 3133   2.792   6.204   5.177
  745SOL    HW1 3134   2.756   6.214   5.270
  745SOL    HW2 3135   2.718   6.222   5.112
  746SOL     OW 3136   5.805   4.508   5.626
  746SOL    HW1 3137   5.716   4.553   5.628
  746SOL    HW2 3138   5.858   4.537   5.706
  747SOL     OW 3139   5.542   5.755   2.993
  747SOL    HW1 3140   5.448   5.726   3.013
  747SOL    HW2 3141   5.572   5.821   3.061
  748SOL     OW 3142   5.483   5.308   2.394
  748SOL    HW1 3143   5.436   5.246   2.331
  748SOL    HW2 3144   5.419   5.378   2.424
  749SOL     OW 3145   5.148   3.895   3.396
  749SOL    HW1 3146   5.096   3.980   3.403
  749SOL    HW2 3147   5.197   3.894   3.309
  750SOL     OW 3148   2.323   1.930   1.880
  750SOL    HW1 3149   2.294   2.005   1.940
  750SOL    HW2 3150   2.335   1.847   1.934
  751SOL     OW 3151   4.740   0.449   7.022
  751SOL    HW1 3152   4.647   0.470   0.028
  751SOL    HW2 3153   4.752   0.349   7.020
  752SOL     OW 3154   3.415   2.592   5.545
  752SOL    HW1 3155   3.425   2.685   5.579
  752SOL    HW2 3156   3.345   2.590   5.473
  753SOL     OW 3157   3.929   4.000   5.159
  753SOL    HW1 3158   3.884   4.089   5.144
  753SOL    HW2 3159   3.978   3.973   5.077
  754SOL     OW 3160   5.662   0.413   6.751
  754SOL    HW1 3161   5.678   0.407   6.652
  754SOL    HW2 3162   5.707   0.495   6.786
  755SOL     OW 3163   4.131   4.696   5.270
  755SOL    HW1 3164   4.181   4.622   5.225
  755SOL    HW2 3165   4.142   4.688   5.369
  756SOL     OW 3166   2.084   4.837   6.066
  756SOL    HW1 3167   2.030   4.793   6.138
  756SOL    HW2 3168   2.165   4.879   6.106
  757SOL     OW 3169   2.549   6.956   2.698
  757SOL    HW1 3170   2.599   6.976   2.783
  757SOL    HW2 3171   2.451   6.954   2.717
  758SOL     OW 3172   3.244   1.852   3.914
  758SOL    HW1 3173   3.193   1.797   3.980
  758SOL    HW2 3174   3.186   1.923   3.877
  759SOL     OW 3175   0.392   2.868   4.503
  759SOL    HW1 3176   0.416   2.957   4.466
  759SOL    HW2 3177   0.293   2.863   4.518
  760SOL     OW 3178   6.737   6.116   3.763
  760SOL    HW1 3179   6.707   6.038   3.819
  760SOL    HW2 3180   6.806   6.086   3.698
  761SOL     OW 3181   4.622   3.634   5.589
  761SOL    HW1 3182   4.537   3.593   5.556
  761SOL    HW2 3183   4.679   3.661   5.511
  762SOL     OW 3184   3.099   5.769   4.643
  762SOL    HW1 3185   3.014   5.818   4.661
  762SOL    HW2 3186   3.096   5.731   4.550
  763SOL     OW 3187   5.594   0.475   0.055
  763SOL    HW1 3188   5.515   0.515   0.010
  763SOL    HW2 3189   5.672   0.538   0.050
  764SOL     OW 3190   5.269   6.820   5.118
  764SOL    HW1 3191   5.283   6.832   5.020
  764SOL    HW2 3192   5.291   6.905   5.166
  765SOL     OW 3193   0.176   6.675   0.624
  765SOL    HW1 3194   0.081   6.688   0.594
  765SOL    HW2 3195   0.210   6.760   0.664
  766SOL     OW 3196   1.804   2.234   5.385
  766SOL    HW1 3197   1.892   2.189   5.367
  766SOL    HW2 3198   1.746   2.175   5.440
  767SOL     OW 3199   0.604   6.815   4.168
  767SOL    HW1 3200   0.691   6.816   4.118
  767SOL    HW2 3201   0.590   6.725   4.208
  768SOL     OW 3202   2.628   5.488   2.206
  768SOL    HW1 3203   2.670   5.578   2.218
  768SOL    HW2 3204   2.681   5.435   2.140
  769SOL     OW 3205   2.900   2.154   5.114
  769SOL    HW1 3206   2.982   2.161   5.057
  769SOL    HW2 3207   2.884   2.240   5.161
  770SOL     OW 3208   2.014   4.870   4.925
  770SOL    HW1 3209   1.917   4.850   4.939
  770SOL    HW2 3210   2.060   4.787   4.893
  771SOL     OW 3211   1.157   5.952   3.274
  771SOL    HW1 3212   1.214   6.032   3.252
  771SOL    HW2 3213   1.090   5.938   3.202
  772SOL     OW 3214   5.536   4.456   0.413
  772SOL    HW1 3215   5.544   4.543   0.461
  772SOL    HW2 3216   5.440   4.426   0.414
  773SOL     OW 3217   0.276   3.864   3.770
  773SOL    HW1 3218   0.252   3.794   3.702
  773SOL    HW2 3219   0.342   3.826   3.835
  774SOL     OW 3220   2.254   0.346   3.177
  774SOL    HW1 3221   2.185   0.376   3.111
  774SOL    HW2 3222   2.286   0.424   3.231
  775SOL     OW 3223   2.069   4.362   3.529
  775SOL    HW1 3224   1.978   4.324   3.548
  775SOL    HW2 3225   2.139   4.292   3.543
  776SOL     OW 3226   2.486   5.611   6.677
  776SOL    HW1 3227   2.462   5.577   6.586
  776SOL    HW2 3228   2.417   5.582   6.742
  777SOL     OW 3229   1.715   3.575   0.195
  777SOL    HW1 3230   1.664   3.565   0.109
  777SOL    HW2 3231   1.792   3.512   0.195
  778SOL     OW 3232   2.911   6.976   1.459
  778SOL    HW1 3233   2.872   6.977   1.367
  778SOL    HW2 3234   2.837   6.976   1.527
  779SOL     OW 3235   0.329   1.812   3.392
  779SOL    HW1 3236   0.322   1.849   3.300
  779SOL    HW2 3237   0.361   1.884   3.454
  780SOL     OW 3238   0.895   1.539   4.979
  780SOL    HW1 3239   0.945   1.509   5.059
  780SOL    HW2 3240   0.944   1.614   4.934
  781SOL     OW 3241   0.779   4.201   1.078
  781SOL    HW1 3242   0.770   4.299   1.060
  781SOL    HW2 3243   0.773   4.151   0.992
  782SOL     OW 3244   1.873   3.483   5.732
  782SOL    HW1 3245   1.944   3.419   5.762
  782SOL    HW2 3246   1.902   3.527   5.647
  783SOL     OW 3247   5.880   4.860   6.667
  783SOL    HW1 3248   5.846   4.954   6.657
  783SOL    HW2 3249   5.822   4.810   6.731
  784SOL     OW 3250   2.878   6.586   0.493
  784SOL    HW1 3251   2.890   6.652   0.418
  784SOL    HW2 3252   2.948   6.515   0.487
  785SOL     OW 3253   1.221   6.722   4.622
  785SOL    HW1 3254   1.131   6.762   4.638
  785SOL    HW2 3255   1.212   6.639   4.568
  786SOL     OW 3256   7.002   1.298   3.298
  786SOL    HW1 3257   0.017   1.351   3.222
  786SOL    HW2 3258   0.051   1.267   3.358
  787SOL     OW 3259   2.930   0.094   0.618
  787SOL    HW1 3260   2.952   0.055   0.708
  787SOL    HW2 3261   2.888   0.184   0.630
  788SOL     OW 3262   3.821   2.985   1.407
  788SOL    HW1 3263   3.831   3.079   1.440
  788SOL    HW2 3264   3.742   2.942   1.451
  789SOL     OW 3265   4.199   5.234   1.263
  789SOL    HW1 3266   4.165   5.310   1.207
  789SOL    HW2 3267   4.297   5.223   1.248
  790SOL     OW 3268   0.879   2.791   2.830
  790SOL    HW1 3269   0.932   2.709   2.850
  790SOL    HW2 3270   0.851   2.791   2.734
  791SOL     OW 3271   3.368   4.988   4.894
  791SOL    HW1 3272   3.404   5.077   4.865
  791SOL    HW2 3273   3.269   4.985   4.879
  792SOL     OW 3274   1.081   0.887   1.328
  792SOL    HW1 3275   1.104   0.808   1.271
  792SOL    HW2 3276   1.026   0.952   1.276
  793SOL     OW 3277   3.212   6.094   4.025
  793SOL    HW1 3278   3.310   6.094   4.005
  793SOL    HW2 3279   3.187   6.007   4.068
  794SOL     OW 3280   3.275   3.716   3.402
  794SOL    HW1 3281   3.181   3.729   3.431
  794SOL    HW2 3282   3.278   3.658   3.321
  795SOL     OW 3283   3.970   6.747   6.222
  795SOL    HW1 3284   4.061   6.786   6.239
  795SOL    HW2 3285   3.961   6.724   6.126
  796SOL     OW 3286   0.765   3.247   6.447
  796SOL    HW1 3287   0.693   3.231   6.515
  796SOL    HW2 3288   0.730   3.308   6.376
  797SOL     OW 3289   5.078   6.637   0.983
  797SOL    HW1 3290   5.121   6.552   0.954
  797SOL    HW2 3291   5.035   6.624   1.073
  798SOL     OW 3292   3.707   6.595   0.672
  798SOL    HW1 3293   3.678   6.575   0.579
  798SOL    HW2 3294   3.676   6.687   0.697
  799SOL     OW 3295   1.384   2.137   6.120
  799SOL    HW1 3296   1.339   2.211   6.169
  799SOL    HW2 3297   1.382   2.054   6.177
  800SOL     OW 3298   6.254   2.419   1.873
  800SOL    HW1 3299   6.164   2.464   1.879
  800SOL    HW2 3300   6.293   2.410   1.964
  801SOL     OW 3301   2.266   5.321   5.876
  801SOL    HW1 3302   2.205   5.335   5.797
  801SOL    HW2 3303   2.211   5.309   5.959
  802SOL     OW 3304   5.863   2.697   6.839
  802SOL    HW1 3305   5.815   2.693   6.927
  802SOL    HW2 3306   5.841   2.784   6.794
  803SOL     OW 3307   2.510   1.554   5.424
  803SOL    HW1 3308   2.590   1.601   5.386
  803SOL    HW2 3309   2.446   1.533   5.350
  804SOL     OW 3310   6.152   0.844   2.130
  804SOL    HW1 3311   6.077   0.810   2.188
  804SOL    HW2 3312   6.175   0.938   2.158
  805SOL     OW 3313   3.680   0.296   3.742
  805SOL    HW1 3314   3.743   0.341   3.805
  805SOL    HW2 3315   3.653   0.360   3.670
  806SOL     OW 3316   2.207   6.043   5.485
  806SOL    HW1 3317   2.238   5.988   5.408
  806SOL    HW2 3318   2.204   5.986   5.567
  807SOL     OW 3319   0.780   5.843   5.876
  807SOL    HW1 3320   0.706   5.869   5.937
  807SOL    HW2 3321   0.743   5.796   5.795
  808SOL     OW 3322   5.461   2.653   0.000
  808SOL    HW1 3323   5.501   2.734   0.043
  808SOL    HW2 3324   5.531   2.605   6.972
  809SOL     OW 3325   1.998   4.553   0.289
  809SOL    HW1 3326   1.966   4.484   0.353
  809SOL    HW2 3327   2.058   4.511   0.221
  810SOL     OW 3328   3.606   3.489   0.262
  810SOL    HW1 3329   3.705   3.487   0.252
  810SOL    HW2 3330   3.575   3.406   0.308
  811SOL     OW 3331   5.137   4.615   4.045
  811SOL    HW1 3332   5.150   4.712   4.026
  811SOL    HW2 3333   5.063   4.603   4.111
  812SOL     OW 3334   0.689   2.782   2.053
  812SOL    HW1 3335   0.718   2.722   1.978
  812SOL    HW2 3336   0.601   2.751   2.089
  813SOL     OW 3337   1.047   1.747   4.866
  813SOL    HW1 3338   1.062   1.846   4.871
  813SOL    HW2 3339   1.078   1.713   4.778
  814SOL     OW 3340   0.990   5.172   3.213
  814SOL    HW1 3341   0.936   5.158   3.296
  814SOL    HW2 3342   0.959   5.109   3.142
  815SOL     OW 3343   4.636   1.635   3.749
  815SOL    HW1 3344   4.735   1.639   3.737
  815SOL    HW2 3345   4.594   1.605   3.663
  816SOL     OW 3346   5.490   4.202   6.990
  816SOL    HW1 3347   5.580   4.246   6.984
  816SOL    HW2 3348   5.450   4.196   6.899
  817SOL     OW 3349   0.884   4.604   6.917
  817SOL    HW1 3350   0.872   4.531   6.850
  817SOL    HW2 3351   0.970   4.591   6.966
  818SOL     OW 3352   6.444   2.471   4.354
  818SOL    HW1 3353   6.519   2.407   4.337
  818SOL    HW2 3354   6.435   2.534   4.277
  819SOL     OW 3355   5.373   2.858   2.318
  819SOL    HW1 3356   5.425   2.889   2.238
  819SOL    HW2 3357   5.359   2.935   2.380
  820SOL     OW 3358   2.124   1.915   5.114
  820SOL    HW1 3359   2.028   1.939   5.101
  820SOL    HW2 3360   2.181   1.995   5.097
  821SOL     OW 3361   5.926   3.619   5.301
  821SOL    HW1 3362   5.829   3.642   5.286
  821SOL    HW2 3363   5.936   3.520   5.305
  822SOL     OW 3364   0.598   4.256   3.155
  822SOL    HW1 3365   0.566   4.243   3.248
  822SOL    HW2 3366   0.631   4.169   3.118
  823SOL     OW 3367   0.820   3.871   5.459
  823SOL    HW1 3368   0.736   3.833   5.421
  823SOL    HW2 3369   0.881   3.796   5.488
  824SOL     OW 3370   5.746   1.657   5.860
  824SOL    HW1 3371   5.832   1.708   5.858
  824SOL    HW2 3372   5.716   1.640   5.766
  825SOL     OW 3373   6.839   5.651   1.226
  825SOL    HW1 3374   6.815   5.684   1.317
  825SOL    HW2 3375   6.937   5.632   1.222
  826SOL     OW 3376   3.797   1.256   5.623
  826SOL    HW1 3377   3.889   1.255   5.585
  826SOL    HW2 3378   3.788   1.183   5.691
  827SOL     OW 3379   3.886   4.077   4.780
  827SOL    HW1 3380   3.794   4.100   4.748
  827SOL    HW2 3381   3.954   4.114   4.717
  828SOL     OW 3382   6.484   5.854   5.191
  828SOL    HW1 3383   6.421   5.785   5.155
  828SOL    HW2 3384   6.489   5.844   5.291
  829SOL     OW 3385   3.146   3.048   2.739
  829SOL    HW1 3386   3.183   3.140   2.727
  829SOL    HW2 3387   3.204   2.998   2.804
  830SOL     OW 3388   6.735   4.699   0.298
  830SOL    HW1 3389   6.784   4.635   0.357
  830SOL    HW2 3390   6.763   4.685   0.203
  831SOL     OW 3391   5.241   6.478   1.318
  831SOL    HW1 3392   5.200   6.437   1.399
  831SOL    HW2 3393   5.247   6.409   1.245
  832SOL     OW 3394   2.974   2.212   4.769
  832SOL    HW1 3395   2.914   2.290   4.748
  832SOL    HW2 3396   3.027   2.232   4.851
  833SOL     OW 3397   2.067   3.012   6.308
  833SOL    HW1 3398   2.044   2.918   6.282
  833SOL    HW2 3399   2.004   3.076   6.265
  834SOL     OW 3400   5.110   3.827   6.825
  834SOL    HW1 3401   5.142   3.825   6.920
  834SOL    HW2 3402   5.091   3.734   6.794
  835SOL     OW 3403   0.980   6.849   4.641
  835SOL    HW1 3404   0.958   6.916   4.570
  835SOL    HW2 3405   0.896   6.810   4.678
  836SOL     OW 3406   3.597   1.311   4.636
  836SOL    HW1 3407   3.573   1.368   4.715
  836SOL    HW2 3408   3.652   1.233   4.667
  837SOL     OW 3409   1.399   0.897   0.832
  837SOL    HW1 3410   1.307   0.935   0.819
  837SOL    HW2 3411   1.421   0.896   0.930
  838SOL     OW 3412   2.089   5.841   3.176
  838SOL    HW1 3413   2.080   5.767   3.243
  838SOL    HW2 3414   2.139   5.808   3.096
  839SOL     OW 3415   1.283   2.304   0.314
  839SOL    HW1 3416   1.348   2.234   0.285
  839SOL    HW2 3417   1.202   2.260   0.353
  840SOL     OW 3418   5.313   5.754   6.898
  840SOL    HW1 3419   5.328   5.827   6.831
  840SOL    HW2 3420   5.215   5.736   6.906
  841SOL     OW 3421   3.868   4.735   6.157
  841SOL    HW1 3422   3.911   4.659   6.109
  841SOL    HW2 3423   3.827   4.702   6.243
  842SOL     OW 3424   3.541   0.006   6.710
  842SOL    HW1 3425   3.489   0.037   6.631
  842SOL    HW2 3426   3.481   6.983   6.774
  843SOL     OW 3427   1.391   1.410   2.329
  843SOL    HW1 3428   1.309   1.434   2.381
  843SOL    HW2 3429   1.471   1.415   2.389
  844SOL     OW 3430   6.155   0.173   1.383
  844SOL    HW1 3431   6.215   0.206   1.310
  844SOL    HW2 3432   6.200   0.099   1.432
  845SOL     OW 3433   3.266   1.510   2.534
  845SOL    HW1 3434   3.198   1.572   2.573
  845SOL    HW2 3435   3.320   1.560   2.466
  846SOL     OW 3436   2.701   2.517   0.327
  846SOL    HW1 3437   2.702   2.443   0.395
  846SOL    HW2 3438   2.610   2.558   0.323
  847SOL     OW 3439   2.681   4.594   1.448
  847SOL    HW1 3440   2.596   4.579   1.399
  847SOL    HW2 3441   2.687   4.530   1.525
  848SOL     OW 3442   6.960   5.472   6.842
  848SOL    HW1 3443   6.941   5.465   6.744
  848SOL    HW2 3444   6.970   5.380   6.880
  849SOL     OW 3445   6.156   3.699   6.899
  849SOL    HW1 3446   6.254   3.714   6.887
  849SOL    HW2 3447   6.110   3.786   6.914
  850SOL     OW 3448   0.657   0.560   5.441
  850SOL    HW1 3449   0.653   0.489   5.510
  850SOL    HW2 3450   0.576   0.554   5.382
  851SOL     OW 3451   6.877   3.118   6.164
  851SOL    HW1 3452   6.814   3.152   6.094
  851SOL    HW2 3453   6.842   3.033   6.203
  852SOL     OW 3454   0.622   4.132   2.359
  852SOL    HW1 3455   0.631   4.217   2.307
  852SOL    HW2 3456   0.713   4.102   2.388
  853SOL     OW 3457   2.849   4.114   6.817
  853SOL    HW1 3458   2.877   4.026   6.779
  853SOL    HW2 3459   2.802   4.099   6.904
  854SOL     OW 3460   5.398   6.299   6.504
  854SOL    HW1 3461   5.316   6.247   6.527
  854SOL    HW2 3462   5.455   6.246   6.442
  855SOL     OW 3463   6.266   1.029   6.966
  855SOL    HW1 3464   6.354   1.029   6.919
  855SOL    HW2 3465   6.276   0.984   0.030
  856SOL     OW 3466   1.799   6.235   0.157
  856SOL    HW1 3467   1.861   6.181   0.215
  856SOL    HW2 3468   1.804   6.201   0.063
  857SOL     OW 3469   6.138   5.133   4.948
  857SOL    HW1 3470   6.175   5.083   4.869
  857SOL    HW2 3471   6.124   5.069   5.024
  858SOL     OW 3472   3.880   3.525   0.329
  858SOL    HW1 3473   3.898   3.573   0.415
  858SOL    HW2 3474   3.951   3.548   0.263
  859SOL     OW 3475   4.343   6.566   5.526
  859SOL    HW1 3476   4.429   6.569   5.577
  859SOL    HW2 3477   4.276   6.511   5.576
  860SOL     OW 3478   6.040   3.228   5.995
  860SOL    HW1 3479   5.971   3.291   5.959
  860SOL    HW2 3480   6.104   3.205   5.922
  861SOL     OW 3481   2.681   6.209   2.380
  861SOL    HW1 3482   2.622   6.276   2.424
  861SOL    HW2 3483   2.664   6.208   2.281
  862SOL     OW 3484   1.224   4.499   3.741
  862SOL    HW1 3485   1.266   4.525   3.654
  862SOL    HW2 3486   1.133   4.541   3.748
  863SOL     OW 3487   6.843   0.653   6.719
  863SOL    HW1 3488   6.804   0.739   6.687
  863SOL    HW2 3489   6.931   0.637   6.674
  864SOL     OW 3490   5.595   0.122   4.762
  864SOL    HW1 3491   5.666   0.193   4.764
  864SOL    HW2 3492   5.635   0.035   4.736
  865SOL     OW 3493   2.130   6.316   4.626
  865SOL    HW1 3494   2.062   6.251   4.593
  865SOL    HW2 3495   2.094   6.410   4.616
  866SOL     OW 3496   2.861   6.279   2.058
  866SOL    HW1 3497   2.908   6.190   2.054
  866SOL    HW2 3498   2.872   6.326   1.970
  867SOL     OW 3499   6.089   1.938   0.182
  867SOL    HW1 3500   6.079   1.862   0.119
  867SOL    HW2 3501   6.005   1.949   0.236
  868SOL     OW 3502   0.184   2.560   2.055
  868SOL    HW1 3503   0.136   2.570   2.142
  868SOL    HW2 3504   0.244   2.639   2.040
  869SOL     OW 3505   6.799   4.049   3.768
  869SOL    HW1 3506   6.794   3.957   3.806
  869SOL    HW2 3507   6.764   4.114   3.835
  870SOL     OW 3508   3.440   5.291   1.629
  870SOL    HW1 3509   3.469   5.368   1.686
  870SOL    HW2 3510   3.440   5.207   1.685
  871SOL     OW 3511   4.539   1.988   3.382
  871SOL    HW1 3512   4.464   1.969   3.447
  871SOL    HW2 3513   4.569   2.083   3.394
  872SOL     OW 3514   0.214   3.029   4.148
  872SOL    HW1 3515   0.133   3.069   4.188
  872SOL    HW2 3516   0.207   2.929   4.150
  873SOL     OW 3517   4.580   6.373   6.266
  873SOL    HW1 3518   4.630   6.459   6.276
  873SOL    HW2 3519   4.640   6.304   6.225
  874SOL     OW 3520   5.075   4.446   0.552
  874SOL    HW1 3521   5.058   4.544   0.545
  874SOL    HW2 3522   4.988   4.399   0.571
  875SOL     OW 3523   4.851   5.654   0.425
  875SOL    HW1 3524   4.841   5.562   0.462
  875SOL    HW2 3525   4.872   5.717   0.499
  876SOL     OW 3526   0.138   6.119   1.811
  876SOL    HW1 3527   0.125   6.035   1.864
  876SOL    HW2 3528   0.235   6.143   1.809
  877SOL     OW 3529   2.692   4.282   6.641
  877SOL    HW1 3530   2.667   4.374   6.672
  877SOL    HW2 3531   2.753   4.240   6.708
  878SOL     OW 3532   3.977   6.678   4.372
  878SOL    HW1 3533   3.969   6.777   4.384
  878SOL    HW2 3534   3.891   6.643   4.335
  879SOL     OW 3535   5.953   0.363   0.660
  879SOL    HW1 3536   5.883   0.295   0.682
  879SOL    HW2 3537   5.945   0.440   0.723
  880SOL     OW 3538   2.937   3.550   3.149
  880SOL    HW1 3539   2.907   3.491   3.074
  880SOL    HW2 3540   2.870   3.546   3.224
  881SOL     OW 3541   4.525   2.092   6.442
  881SOL    HW1 3542   4.554   2.126   6.532
  881SOL    HW2 3543   4.438   2.043   6.450
  882SOL     OW 3544   0.765   3.496   4.503
  882SOL    HW1 3545   0.864   3.481   4.502
  882SOL    HW2 3546   0.726   3.453   4.585
  883SOL     OW 3547   3.033   0.273   2.653
  883SOL    HW1 3548   3.048   0.179   2.623
  883SOL    HW2 3549   2.940   0.283   2.688
  884SOL     OW 3550   4.647   2.615   5.045
  884SOL    HW1 3551   4.682   2.634   4.953
  884SOL    HW2 3552   4.718   2.637   5.112
  885SOL     OW 3553   3.106   1.635   6.430
  885SOL    HW1 3554   3.097   1.540   6.458
  885SOL    HW2 3555   3.177   1.642   6.359
  886SOL     OW 3556   3.191   0.664   0.377
  886SOL    HW1 3557   3.284   0.668   0.339
  886SOL    HW2 3558   3.135   0.735   0.335
  887SOL     OW 3559   4.261   0.701   3.743
  887SOL    HW1 3560   4.197   0.754   3.686
  887SOL    HW2 3561   4.226   0.695   3.836
  888SOL     OW 3562   0.486   0.618   3.212
  888SOL    HW1 3563   0.399   0.581   3.243
  888SOL    HW2 3564   0.560   0.554   3.235
  889SOL     OW 3565   0.810   3.874   6.809
  889SOL    HW1 3566   0.888   3.830   6.767
  889SOL    HW2 3567   0.828   3.889   6.906
  890SOL     OW 3568   2.405   6.063   3.793
  890SOL    HW1 3569   2.451   6.091   3.877
  890SOL    HW2 3570   2.307   6.054   3.809
  891SOL     OW 3571   5.719   5.897   0.892
  891SOL    HW1 3572   5.626   5.930   0.875
  891SOL    HW2 3573   5.754   5.852   0.810
  892SOL     OW 3574   2.628   3.903   5.820
  892SOL    HW1 3575   2.714   3.951   5.801
  892SOL    HW2 3576   2.581   3.884   5.734
  893SOL     OW 3577   2.777   6.505   2.725
  893SOL    HW1 3578   2.758   6.521   2.628
  893SOL    HW2 3579   2.692   6.486   2.773
  894SOL     OW 3580   1.504   4.151   1.762
  894SOL    HW1 3581   1.415   4.114   1.737
  894SOL    HW2 3582   1.551   4.087   1.822
  895SOL     OW 3583   0.250   6.138   3.380
  895SOL    HW1 3584   0.324   6.071   3.368
  895SOL    HW2 3585   0.181   6.123   3.309
  896SOL     OW 3586   6.467   6.054   6.298
  896SOL    HW1 3587   6.519   6.019   6.220
  896SOL    HW2 3588   6.502   6.144   6.324
  897SOL     OW 3589   5.406   1.015   6.977
  897SOL    HW1 3590   5.424   0.919   6.995
  897SOL    HW2 3591   5.324   1.044   0.001
  898SOL     OW 3592   3.320   5.532   3.216
  898SOL    HW1 3593   3.237   5.530   3.271
  898SOL    HW2 3594   3.394   5.487   3.266
  899SOL     OW 3595   0.841   4.950   6.088
  899SOL    HW1 3596   0.751   4.917   6.117
  899SOL    HW2 3597   0.830   5.010   6.008
  900SOL     OW 3598   6.057   6.816   0.458
  900SOL    HW1 3599   6.054   6.841   0.361
  900SOL    HW2 3600   6.060   6.899   0.513
  901SOL     OW 3601   1.938   1.104   2.377
  901SOL    HW1 3602   2.017   1.052   2.344
  901SOL    HW2 3603   1.865   1.101   2.308
  902SOL     OW 3604   6.218   3.922   1.250
  902SOL    HW1 3605   6.210   3.858   1.174
  902SOL    HW2 3606   6.129   3.932   1.295
  903SOL     OW 3607   6.850   1.869   0.509
  903SOL    HW1 3608   6.807   1.956   0.536
  903SOL    HW2 3609   6.922   1.846   0.574
  904SOL     OW 3610   3.422   2.140   3.734
  904SOL    HW1 3611   3.331   2.178   3.716
  904SOL    HW2 3612   3.429   2.116   3.831
  905SOL     OW 3613   5.912   2.668   0.123
  905SOL    HW1 3614   5.887   2.661   0.220
  905SOL    HW2 3615   5.959   2.585   0.095
  906SOL     OW 3616   0.182   2.766   5.272
  906SOL    HW1 3617   0.099   2.730   5.231
  906SOL    HW2 3618   0.198   2.722   5.360
  907SOL     OW 3619   4.833   3.421   6.915
  907SOL    HW1 3620   4.804   3.329   6.890
  907SOL    HW2 3621   4.898   3.415   6.991
  908SOL     OW 3622   2.703   4.670   2.262
  908SOL    HW1 3623   2.749   4.642   2.178
  908SOL    HW2 3624   2.615   4.711   2.239
  909SOL     OW 3625   4.460   4.923   6.095
  909SOL    HW1 3626   4.487   4.827   6.091
  909SOL    HW2 3627   4.537   4.978   6.128
  910SOL     OW 3628   2.681   2.750   1.677
  910SOL    HW1 3629   2.617   2.740   1.753
  910SOL    HW2 3630   2.705   2.660   1.641
  911SOL     OW 3631   1.748   5.792   6.050
  911SOL    HW1 3632   1.763   5.762   5.956
  911SOL    HW2 3633   1.835   5.789   6.101
  912SOL     OW 3634   4.884   2.568   3.317
  912SOL    HW1 3635   4.872   2.548   3.220
  912SOL    HW2 3636   4.838   2.654   3.339
  913SOL     OW 3637   5.220   6.531   3.369
  913SOL    HW1 3638   5.200   6.439   3.402
  913SOL    HW2 3639   5.148   6.561   3.307
  914SOL     OW 3640   2.713   0.482   6.518
  914SOL    HW1 3641   2.741   0.577   6.504
  914SOL    HW2 3642   2.613   0.475   6.510
  915SOL     OW 3643   5.832   5.836   0.665
  915SOL    HW1 3644   5.928   5.845   0.694
  915SOL    HW2 3645   5.820   5.748   0.619
  916SOL     OW 3646   1.262   2.285   2.421
  916SOL    HW1 3647   1.164   2.268   2.412
  916SOL    HW2 3648   1.292   2.352   2.353
  917SOL     OW 3649   0.361   0.405   0.652
  917SOL    HW1 3650   0.334   0.336   0.719
  917SOL    HW2 3651   0.458   0.426   0.663
  918SOL     OW 3652   1.528   6.413   0.723
  918SOL    HW1 3653   1.597   6.342   0.706
  918SOL    HW2 3654   1.563   6.477   0.792
  919SOL     OW 3655   5.858   1.660   3.651
  919SOL    HW1 3656   5.912   1.735   3.614
  919SOL    HW2 3657   5.782   1.639   3.589
  920SOL     OW 3658   2.658   5.023   2.063
  920SOL    HW1 3659   2.611   5.059   2.144
  920SOL    HW2 3660   2.735   4.966   2.092
  921SOL     OW 3661   4.951   5.478   4.345
  921SOL    HW1 3662   5.007   5.553   4.380
  921SOL    HW2 3663   4.936   5.491   4.247
  922SOL     OW 3664   3.864   3.649   3.809
  922SOL    HW1 3665   3.939   3.610   3.863
  922SOL    HW2 3666   3.804   3.576   3.778
  923SOL     OW 3667   2.072   2.907   5.563
  923SOL    HW1 3668   2.110   2.897   5.471
  923SOL    HW2 3669   1.974   2.890   5.561
  924SOL     OW 3670   6.777   3.748   2.379
  924SOL    HW1 3671   6.782   3.648   2.383
  924SOL    HW2 3672   6.697   3.776   2.327
  925SOL     OW 3673   6.080   1.503   0.299
  925SOL    HW1 3674   5.988   1.523   0.332
  925SOL    HW2 3675   6.146   1.565   0.343
  926SOL     OW 3676   0.683   1.355   2.122
  926SOL    HW1 3677   0.593   1.397   2.111
  926SOL    HW2 3678   0.729   1.350   2.034
  927SOL     OW 3679   5.721   3.763   3.492
  927SOL    HW1 3680   5.626   3.796   3.488
  927SOL    HW2 3681   5.777   3.832   3.538
  928SOL     OW 3682   3.303   6.153   6.715
  928SOL    HW1 3683   3.281   6.171   6.619
  928SOL    HW2 3684   3.360   6.071   6.721
  929SOL     OW 3685   6.696   1.482   5.700
  929SOL    HW1 3686   6.702   1.456   5.796
  929SOL    HW2 3687   6.750   1.419   5.644
  930SOL     OW 3688   5.161   5.182   6.720
  930SOL    HW1 3689   5.084   5.217   6.666
  930SOL    HW2 3690   5.168   5.083   6.708
  931SOL     OW 3691   6.428   2.793   3.151
  931SOL    HW1 3692   6.485   2.711   3.152
  931SOL    HW2 3693   6.333   2.766   3.135
  932SOL     OW 3694   3.850   0.598   3.684
  932SOL    HW1 3695   3.769   0.648   3.715
  932SOL    HW2 3696   3.881   0.537   3.757
  933SOL     OW 3697   1.407   5.074   2.711
  933SOL    HW1 3698   1.492   5.031   2.681
  933SOL    HW2 3699   1.353   5.099   2.631
  934SOL     OW 3700   1.820   5.200   6.547
  934SOL    HW1 3701   1.823   5.295   6.516
  934SOL    HW2 3702   1.808   5.140   6.468
  935SOL     OW 3703   5.383   3.540   3.406
  935SOL    HW1 3704   5.284   3.542   3.388
  935SOL    HW2 3705   5.413   3.446   3.415
  936SOL     OW 3706   1.684   0.532   6.872
  936SOL    HW1 3707   1.602   0.512   6.818
  936SOL    HW2 3708   1.668   0.613   6.929
  937SOL     OW 3709   5.042   1.147   5.477
  937SOL    HW1 3710   5.125   1.119   5.429
  937SOL    HW2 3711   5.059   1.232   5.527
  938SOL     OW 3712   5.852   5.479   4.651
  938SOL    HW1 3713   5.848   5.491   4.751
  938SOL    HW2 3714   5.762   5.497   4.612
  939SOL     OW 3715   0.368   6.613   4.929
  939SOL    HW1 3716   0.366   6.518   4.897
  939SOL    HW2 3717   0.452   6.630   4.980
  940SOL     OW 3718   2.136   5.008   0.485
  940SOL    HW1 3719   2.117   4.929   0.542
  940SOL    HW2 3720   2.163   5.085   0.543
  941SOL     OW 3721   3.761   0.224   6.630
  941SOL    HW1 3722   3.766   0.178   6.718
  941SOL    HW2 3723   3.686   0.186   6.576
  942SOL     OW 3724   0.057   5.452   0.593
  942SOL    HW1 3725   0.138   5.500   0.627
  942SOL    HW2 3726   7.024   5.425   0.670
  943SOL     OW 3727   2.828   4.748   2.997
  943SOL    HW1 3728   2.791   4.671   2.945
  943SOL    HW2 3729   2.801   4.833   2.953
  944SOL     OW 3730   0.864   6.502   4.414
  944SOL    HW1 3731   0.858   6.411   4.373
  944SOL    HW2 3732   0.777   6.526   4.455
  945SOL     OW 3733   0.860   5.387   6.217
  945SOL    HW1 3734   0.952   5.378   6.255
  945SOL    HW2 3735   0.852   5.328   6.137
  946SOL     OW 3736   4.907   3.634   3.841
  946SOL    HW1 3737   4.820   3.656   3.885
  946SOL    HW2 3738   4.896   3.554   3.783
  947SOL     OW 3739   3.985   3.848   4.662
  947SOL    HW1 3740   3.947   3.826   4.572
  947SOL    HW2 3741   3.945   3.933   4.695
  948SOL     OW 3742   4.840   1.074   2.826
  948SOL    HW1 3743   4.873   1.157   2.779
  948SOL    HW2 3744   4.884   1.066   2.915
  949SOL     OW 3745   3.032   6.552   6.680
  949SOL    HW1 3746   3.069   6.525   6.592
  949SOL    HW2 3747   2.938   6.520   6.689
  950SOL     OW 3748   0.415   6.366   2.081
  950SOL    HW1 3749   0.489   6.304   2.105
  950SOL    HW2 3750   0.447   6.461   2.087
  951SOL     OW 3751   1.878   6.796   3.141
  951SOL    HW1 3752   1.925   6.883   3.127
  951SOL    HW2 3753   1.818   6.804   3.221
  952SOL     OW 3754   3.376   1.469   1.920
  952SOL    HW1 3755   3.353   1.540   1.853
  952SOL    HW2 3756   3.299   1.455   1.982
  953SOL     OW 3757   6.490   4.927   4.973
  953SOL    HW1 3758   6.441   5.002   5.018
  953SOL    HW2 3759   6.579   4.960   4.941
  954SOL     OW 3760   5.010   5.877   2.527
  954SOL    HW1 3761   4.918   5.875   2.565
  954SOL    HW2 3762   5.027   5.966   2.483
  955SOL     OW 3763   1.560   4.316   0.206
  955SOL    HW1 3764   1.568   4.321   0.107
  955SOL    HW2 3765   1.464   4.329   0.233
  956SOL     OW 3766   6.078   0.620   1.774
  956SOL    HW1 3767   6.071   0.680   1.695
  956SOL    HW2 3768   6.172   0.621   1.808
  957SOL     OW 3769   6.190   2.736   3.661
  957SOL    HW1 3770   6.108   2.782   3.693
  957SOL    HW2 3771   6.167   2.643   3.632
  958SOL     OW 3772   5.133   0.382   1.962
  958SOL    HW1 3773   5.046   0.368   2.010
  958SOL    HW2 3774   5.144   0.311   1.893
  959SOL     OW 3775   3.878   6.935   4.337
  959SOL    HW1 3776   3.888   0.005   4.368
  959SOL    HW2 3777   3.781   6.915   4.323
  960SOL     OW 3778   0.857   0.575   0.156
  960SOL    HW1 3779   0.874   0.588   0.058
  960SOL    HW2 3780   0.871   0.479   0.180
  961SOL     OW 3781   3.343   6.428   2.663
  961SOL    HW1 3782   3.255   6.382   2.668
  961SOL    HW2 3783   3.330   6.527   2.660
  962SOL     OW 3784   6.505   0.309   4.610
  962SOL    HW1 3785   6.538   0.242   4.677
  962SOL    HW2 3786   6.567   0.311   4.532
  963SOL     OW 3787   4.729   2.962   1.082
  963SOL    HW1 3788   4.776   2.926   1.163
  963SOL    HW2 3789   4.680   2.887   1.036
  964SOL     OW 3790   4.674   4.320   5.149
  964SOL    HW1 3791   4.731   4.320   5.231
  964SOL    HW2 3792   4.703   4.247   5.087
  965SOL     OW 3793   5.804   2.573   3.882
  965SOL    HW1 3794   5.866   2.647   3.908
  965SOL    HW2 3795   5.854   2.486   3.882
  966SOL     OW 3796   5.230   1.948   4.031
  966SOL    HW1 3797   5.192   1.972   3.942
  966SOL    HW2 3798   5.259   2.031   4.079
  967SOL     OW 3799   5.571   4.141   6.381
  967SOL    HW1 3800   5.576   4.048   6.418
  967SOL    HW2 3801   5.492   4.188   6.420
  968SOL     OW 3802   3.817   0.511   1.884
  968SOL    HW1 3803   3.823   0.592   1.824
  968SOL    HW2 3804   3.730   0.464   1.868
  969SOL     OW 3805   3.662   4.014   5.706
  969SOL    HW1 3806   3.686   4.098   5.659
  969SOL    HW2 3807   3.650   3.940   5.640
  970SOL     OW 3808   5.955   0.383   6.098
  970SOL    HW1 3809   5.958   0.310   6.030
  970SOL    HW2 3810   5.936   0.344   6.188
  971SOL     OW 3811   5.622   3.884   3.035
  971SOL    HW1 3812   5.551   3.952   3.053
  971SOL    HW2 3813   5.688   3.922   2.970
  972SOL     OW 3814   0.243   2.826   0.999
  972SOL    HW1 3815   0.261   2.769   0.919
  972SOL    HW2 3816   0.157   2.876   0.986
  973SOL     OW 3817   0.025   3.459   5.844
  973SOL    HW1 3818   0.107   3.426   5.892
  973SOL    HW2 3819   0.011   3.406   5.761
  974SOL     OW 3820   6.977   5.498   4.193
  974SOL    HW1 3821   7.024   5.578   4.231
  974SOL    HW2 3822   0.019   5.431   4.162
  975SOL     OW 3823   2.512   6.464   2.073
  975SOL    HW1 3824   2.488   6.532   2.142
  975SOL    HW2 3825   2.452   6.474   1.994
  976SOL     OW 3826   6.563   3.766   2.182
  976SOL    HW1 3827   6.484   3.762   2.120
  976SOL    HW2 3828   6.624   3.840   2.154
  977SOL     OW 3829   7.019   1.069   2.480
  977SOL    HW1 3830   0.036   1.133   2.545
  977SOL    HW2 3831   6.971   0.998   2.530
  978SOL     OW 3832   5.580   2.582   1.977
  978SOL    HW1 3833   5.571   2.604   2.074
  978SOL    HW2 3834   5.649   2.511   1.964
  979SOL     OW 3835   6.685   3.781   0.044
  979SOL    HW1 3836   6.740   3.863   0.060
  979SOL    HW2 3837   6.688   3.756   6.972
  980SOL     OW 3838   3.568   1.866   5.254
  980SOL    HW1 3839   3.480   1.819   5.268
  980SOL    HW2 3840   3.562   1.959   5.291
  981SOL     OW 3841   6.666   6.645   5.534
  981SOL    HW1 3842   6.712   6.647   5.445
  981SOL    HW2 3843   6.567   6.648   5.520
  982SOL     OW 3844   6.835   1.221   5.045
  982SOL    HW1 3845   6.789   1.247   5.131
  982SOL    HW2 3846   6.800   1.278   4.971
  983SOL     OW 3847   0.095   4.356   4.291
  983SOL    HW1 3848   0.003   4.326   4.312
  983SOL    HW2 3849   0.132   4.408   4.369
  984SOL     OW 3850   1.500   1.939   2.858
  984SOL    HW1 3851   1.446   1.856   2.869
  984SOL    HW2 3852   1.580   1.934   2.917
  985SOL     OW 3853   6.409   4.063   4.388
  985SOL    HW1 3854   6.349   3.986   4.408
  985SOL    HW2 3855   6.478   4.072   4.459
  986SOL     OW 3856   5.312   4.703   1.132
  986SOL    HW1 3857   5.380   4.766   1.169
  986SOL    HW2 3858   5.342   4.608   1.147
  987SOL     OW 3859   5.567   5.078   3.720
  987SOL    HW1 3860   5.623   5.000   3.746
  987SOL    HW2 3861   5.572   5.090   3.621
  988SOL     OW 3862   3.089   4.171   1.511
  988SOL    HW1 3863   3.110   4.153   1.608
  988SOL    HW2 3864   3.012   4.234   1.505
  989SOL     OW 3865   0.248   1.394   1.136
  989SOL    HW1 3866   0.190   1.357   1.209
  989SOL    HW2 3867   0.272   1.488   1.157
  990SOL     OW 3868   4.155   0.030   3.594
  990SOL    HW1 3869   4.214   0.108   3.619
  990SOL    HW2 3870   4.093   0.058   3.521
  991SOL     OW 3871   6.820   4.672   4.036
  991SOL    HW1 3872   6.860   4.599   3.982
  991SOL    HW2 3873   6.863   4.675   4.126
  992SOL     OW 3874   0.323   2.434   1.353
  992SOL    HW1 3875   0.249   2.385   1.400
  992SOL    HW2 3876   0.409   2.384   1.366
  993SOL     OW 3877   1.945   5.338   0.658
  993SOL    HW1 3878   1.954   5.366   0.563
  993SOL    HW2 3879   1.849   5.346   0.686
  994SOL     OW 3880   2.980   6.827   0.328
  994SOL    HW1 3881   3.051   6.888   0.293
  994SOL    HW2 3882   2.896   6.880   0.342
  995SOL     OW 3883   5.907   2.974   5.801
  995SOL    HW1 3884   5.992   2.955   5.752
  995SOL    HW2 3885   5.849   3.033   5.745
  996SOL     OW 3886   3.811   6.092   5.965
  996SOL    HW1 3887   3.905   6.125   5.964
  996SOL    HW2 3888   3.784   6.064   5.873
  997SOL     OW 3889   1.901   5.674   3.976
  997SOL    HW1 3890   1.966   5.621   4.031
  997SOL    HW2 3891   1.808   5.658   4.009
  998SOL     OW 3892   6.096   0.134   6.286
  998SOL    HW1 3893   6.182   0.184   6.299
  998SOL    HW2 3894   6.087   0.064   6.356
  999SOL     OW 3895   4.959   3.856   1.974
  999SOL    HW1 3896   4.991   3.848   2.069
  999SOL    HW2 3897   4.949   3.765   1.935
 1000SOL     OW 3898   4.174   1.886   1.556
 1000SOL    HW1 3899   4.107   1.900   1.628
 1000SOL    HW2 3900   4.165   1.793   1.519
 1001SOL     OW 3901   2.806   6.588   2.164
 1001SOL    HW1 3902   2.728   6.615   2.108
 1001SOL    HW2 3903   2.813   6.489   2.166
 1002SOL     OW 3904   5.567   2.902   1.399
 1002SOL    HW1 3905   5.524   2.989   1.374
 1002SOL    HW2 3906   5.667   2.912   1.394
 1003SOL     OW 3907   0.466   6.732   2.839
 1003SOL    HW1 3908   0.528   6.809   2.821
 1003SOL    HW2 3909   0.432   6.695   2.753
 1004SOL     OW 3910   5.282   1.235   3.596
 1004SOL    HW1 3911   5.353   1.175   3.560
 1004SOL    HW2 3912   5.262   1.210   3.691
 1005SOL     OW 3913   1.483   4.566   3.829
 1005SOL    HW1 3914   1.482   4.664   3.846
 1005SOL    HW2 3915   1.390   4.534   3.809
 1006SOL     OW 3916   2.364   3.546   1.022
 1006SOL    HW1 3917   2.388   3.571   0.928
 1006SOL    HW2 3918   2.437   3.576   1.084
 1007SOL     OW 3919   4.654   1.424   6.330
 1007SOL    HW1 3920   4.646   1.522   6.316
 1007SOL    HW2 3921   4.720   1.406   6.404
 1008SOL     OW 3922   0.363   4.949   4.711
 1008SOL    HW1 3923   0.400   4.867   4.755
 1008SOL    HW2 3924   0.431   4.985   4.647
 1009SOL     OW 3925   6.568   5.136   6.060
 1009SOL    HW1 3926   6.543   5.189   6.141
 1009SOL    HW2 3927   6.550   5.189   5.978
 1010SOL     OW 3928   2.266   3.355   1.418
 1010SOL    HW1 3929   2.212   3.421   1.367
 1010SOL    HW2 3930   2.275   3.271   1.364
 1011SOL     OW 3931   0.128   5.059   2.935
 1011SOL    HW1 3932   0.197   4.997   2.972
 1011SOL    HW2 3933   0.170   5.120   2.868
 1012SOL     OW 3934   5.513   0.247   2.481
 1012SOL    HW1 3935   5.464   0.324   2.522
 1012SOL    HW2 3936   5.600   0.235   2.528
 1013SOL     OW 3937   6.376   0.817   6.534
 1013SOL    HW1 3938   6.470   0.822   6.567
 1013SOL    HW2 3939   6.334   0.732   6.565
 1014SOL     OW 3940   1.607   5.046   4.675
 1014SOL    HW1 3941   1.602   5.140   4.710
 1014SOL    HW2 3942   1.676   4.995   4.726
 1015SOL     OW 3943   3.422   6.396   6.970
 1015SOL    HW1 3944   3.364   6.435   6.898
 1015SOL    HW2 3945   3.365   6.368   0.022
 1016SOL     OW 3946   5.521   4.279   1.813
 1016SOL    HW1 3947   5.568   4.366   1.827
 1016SOL    HW2 3948   5.566   4.227   1.741
 1017SOL     OW 3949   2.251   1.572   2.816
 1017SOL    HW1 3950   2.320   1.519   2.767
 1017SOL    HW2 3951   2.285   1.595   2.907
 1018SOL     OW 3952   0.445   5.117   3.389
 1018SOL    HW1 3953   0.351   5.120   3.423
 1018SOL    HW2 3954   0.476   5.210   3.369
 1019SOL     OW 3955   0.115   5.242   1.123
 1019SOL    HW1 3956   0.116   5.312   1.052
 1019SOL    HW2 3957   0.048   5.267   1.193
 1020SOL     OW 3958   6.975   6.936   0.843
 1020SOL    HW1 3959   0.045   6.915   0.820
 1020SOL    HW2 3960   6.937   6.996   0.773
 1021SOL     OW 3961   6.306   6.103   1.383
 1021SOL    HW1 3962   6.305   6.035   1.457
 1021SOL    HW2 3963   6.358   6.183   1.412
 1022SOL     OW 3964   2.491   6.747   6.325
 1022SOL    HW1 3965   2.401   6.713   6.301
 1022SOL    HW2 3966   2.533   6.686   6.393
 1023SOL     OW 3967   0.683   2.105   3.429
 1023SOL    HW1 3968   0.678   2.172   3.356
 1023SOL    HW2 3969   0.666   2.013   3.392
 1024SOL     OW 3970   1.146   2.020   5.180
 1024SOL    HW1 3971   1.150   2.017   5.080
 1024SOL    HW2 3972   1.102   2.104   5.209
 1025SOL     OW 3973   4.681   3.483   0.111
 1025SOL    HW1 3974   4.702   3.472   0.014
 1025SOL    HW2 3975   4.712   3.401   0.160
 1026SOL     OW 3976   2.731   2.837   1.323
 1026SOL    HW1 3977   2.634   2.826   1.345
 1026SOL    HW2 3978   2.775   2.891   1.395
 1027SOL     OW 3979   0.374   6.369   0.808
 1027SOL    HW1 3980   0.416   6.454   0.839
 1027SOL    HW2 3981   0.347   6.314   0.888
 1028SOL     OW 3982   0.838   6.179   2.863
 1028SOL    HW1 3983   0.881   6.269   2.850
 1028SOL    HW2 3984   0.775   6.183   2.940
 1029SOL     OW 3985   1.291   1.430   6.204
 1029SOL    HW1 3986   1.249   1.376   6.131
 1029SOL    HW2 3987   1.358   1.493   6.164
 1030SOL     OW 3988   3.182   3.552   1.520
 1030SOL    HW1 3989   3.188   3.469   1.576
 1030SOL    HW2 3990   3.101   3.546   1.461
 1031SOL     OW 3991   3.243   3.247   1.649
 1031SOL    HW1 3992   3.148   3.271   1.626
 1031SOL    HW2 3993   3.244   3.159   1.696
 1032SOL     OW 3994   1.929   1.473   6.201
 1032SOL    HW1 3995   1.849   1.417   6.177
 1032SOL    HW2 3996   1.943   1.542   6.130
 1033SOL     OW 3997   0.687   6.156   1.909
 1033SOL    HW1 3998   0.761   6.216   1.879
 1033SOL    HW2 3999   0.725   6.078   1.959
 1034SOL     OW 4000   3.249   6.843   4.953
 1034SOL    HW1 4001   3.247   6.941   4.932
 1034SOL    HW2 4002   3.279   6.829   5.047
 1035SOL     OW 4003   0.796   1.947   5.871
 1035SOL    HW1 4004   0.763   1.881   5.939
 1035SOL    HW2 4005   0.855   1.900   5.805
 1036SOL     OW 4006   4.808   1.531   0.966
 1036SOL    HW1 4007   4.901   1.520   1.001
 1036SOL    HW2 4008   4.759   1.445   0.973
 1037SOL     OW 4009   1.373   2.427   2.854
 1037SOL    HW1 4010   1.407   2.480   2.776
 1037SOL    HW2 4011   1.433   2.442   2.933
 1038SOL     OW 4012   2.943   0.019   0.029
 1038SOL    HW1 4013   2.926   0.083   0.104
 1038SOL    HW2 4014   3.034   7.005   0.038
 1039SOL     OW 4015   3.584   3.219   3.464
 1039SOL    HW1 4016   3.555   3.132   3.506
 1039SOL    HW2 4017   3.510   3.255   3.408
 1040SOL     OW 4018   4.264   0.988   3.018
 1040SOL    HW1 4019   4.205   0.988   2.937
 1040SOL    HW2 4020   4.216   1.030   3.095
 1041SOL     OW 4021   6.790   6.274   5.933
 1041SOL    HW1 4022   6.818   6.179   5.928
 1041SOL    HW2 4023   6.692   6.279   5.956
 1042SOL     OW 4024   5.154   4.793   2.294
 1042SOL    HW1 4025   5.158   4.886   2.256
 1042SOL    HW2 4026   5.201   4.730   2.232
 1043SOL     OW 4027   3.707   1.418   3.913
 1043SOL    HW1 4028   3.610   1.410   3.937
 1043SOL    HW2 4029   3.745   1.500   3.955
 1044SOL     OW 4030   5.720   5.416   1.432
 1044SOL    HW1 4031   5.679   5.484   1.370
 1044SOL    HW2 4032   5.677   5.327   1.417
 1045SOL     OW 4033   2.486   0.628   3.791
 1045SOL    HW1 4034   2.388   0.623   3.805
 1045SOL    HW2 4035   2.505   0.648   3.695
 1046SOL     OW 4036   2.844   1.314   0.836
 1046SOL    HW1 4037   2.874   1.242   0.773
 1046SOL    HW2 4038   2.919   1.336   0.899
 1047SOL     OW 4039   3.694   6.712   2.732
 1047SOL    HW1 4040   3.749   6.636   2.767
 1047SOL    HW2 4041   3.740   6.754   2.654
 1048SOL     OW 4042   1.602   6.262   1.934
 1048SOL    HW1 4043   1.608   6.303   1.842
 1048SOL    HW2 4044   1.694   6.249   1.970
 1049SOL     OW 4045   4.059   6.458   5.042
 1049SOL    HW1 4046   4.026   6.551   5.024
 1049SOL    HW2 4047   4.146   6.445   4.995
 1050SOL     OW 4048   3.080   5.433   3.673
 1050SOL    HW1 4049   3.019   5.358   3.648
 1050SOL    HW2 4050   3.172   5.414   3.639
 1051SOL     OW 4051   0.434   0.360   0.303
 1051SOL    HW1 4052   0.475   0.424   0.237
 1051SOL    HW2 4053   0.386   0.412   0.373
 1052SOL     OW 4054   3.833   0.542   6.706
 1052SOL    HW1 4055   3.808   0.451   6.673
 1052SOL    HW2 4056   3.767   0.572   6.775
 1053SOL     OW 4057   6.001   3.325   2.725
 1053SOL    HW1 4058   6.061   3.308   2.804
 1053SOL    HW2 4059   6.056   3.331   2.642
 1054SOL     OW 4060   3.243   4.400   6.881
 1054SOL    HW1 4061   3.259   4.343   6.800
 1054SOL    HW2 4062   3.302   4.480   6.879
 1055SOL     OW 4063   4.573   5.842   6.705
 1055SOL    HW1 4064   4.639   5.916   6.721
 1055SOL    HW2 4065   4.565   5.786   6.787
 1056SOL     OW 4066   2.551   4.019   6.793
 1056SOL    HW1 4067   2.481   3.951   6.774
 1056SOL    HW2 4068   2.640   3.985   6.762
 1057SOL     OW 4069   3.297   1.871   1.489
 1057SOL    HW1 4070   3.267   1.966   1.498
 1057SOL    HW2 4071   3.304   1.847   1.392
 1058SOL     OW 4072   2.265   2.269   2.760
 1058SOL    HW1 4073   2.193   2.202   2.779
 1058SOL    HW2 4074   2.346   2.249   2.815
 1059SOL     OW 4075   2.551   6.125   1.468
 1059SOL    HW1 4076   2.599   6.153   1.551
 1059SOL    HW2 4077   2.614   6.078   1.407
 1060SOL     OW 4078   6.509   6.370   5.736
 1060SOL    HW1 4079   6.591   6.375   5.680
 1060SOL    HW2 4080   6.433   6.335   5.680
 1061SOL     OW 4081   6.807   3.996   0.122
 1061SOL    HW1 4082   6.903   4.011   0.100
 1061SOL    HW2 4083   6.783   4.046   0.205
 1062SOL     OW 4084   3.616   6.397   5.568
 1062SOL    HW1 4085   3.706   6.437   5.547
 1062SOL    HW2 4086   3.578   6.357   5.484
 1063SOL     OW 4087   1.681   6.323   5.903
 1063SOL    HW1 4088   1.744   6.248   5.925
 1063SOL    HW2 4089   1.607   6.325   5.970
 1064SOL     OW 4090   1.014   4.483   0.744
 1064SOL    HW1 4091   1.092   4.484   0.682
 1064SOL    HW2 4092   0.972   4.392   0.742
 1065SOL     OW 4093   4.464   0.459   4.475
 1065SOL    HW1 4094   4.409   0.386   4.436
 1065SOL    HW2 4095   4.546   0.472   4.418
 1066SOL     OW 4096   4.590   6.956   2.112
 1066SOL    HW1 4097   4.525   6.881   2.100
 1066SOL    HW2 4098   4.544   0.008   2.158
 1067SOL     OW 4099   2.689   0.965   0.354
 1067SOL    HW1 4100   2.715   1.024   0.430
 1067SOL    HW2 4101   2.639   0.886   0.388
 1068SOL     OW 4102   6.146   3.209   1.363
 1068SOL    HW1 4103   6.212   3.244   1.296
 1068SOL    HW2 4104   6.073   3.160   1.315
 1069SOL     OW 4105   6.689   4.021   2.028
 1069SOL    HW1 4106   6.657   4.104   2.072
 1069SOL    HW2 4107   6.779   4.037   1.988
 1070SOL     OW 4108   1.123   0.680   2.228
 1070SOL    HW1 4109   1.090   0.766   2.188
 1070SOL    HW2 4110   1.046   0.617   2.238
 1071SOL     OW 4111   6.764   2.551   5.202
 1071SOL    HW1 4112   6.773   2.625   5.268
 1071SOL    HW2 4113   6.743   2.590   5.112
 1072SOL     OW 4114   2.991   1.173   2.722
 1072SOL    HW1 4115   2.950   1.082   2.719
 1072SOL    HW2 4116   3.074   1.174   2.666
 1073SOL     OW 4117   5.167   1.311   3.358
 1073SOL    HW1 4118   5.200   1.234   3.303
 1073SOL    HW2 4119   5.172   1.288   3.455
 1074SOL     OW 4120   3.043   5.004   2.120
 1074SOL    HW1 4121   3.123   4.961   2.162
 1074SOL    HW2 4122   2.992   4.936   2.067
 1075SOL     OW 4123   5.967   3.324   5.307
 1075SOL    HW1 4124   6.064   3.307   5.320
 1075SOL    HW2 4125   5.920   3.237   5.291
 1076SOL     OW 4126   2.093   3.827   5.010
 1076SOL    HW1 4127   2.172   3.888   5.002
 1076SOL    HW2 4128   2.105   3.748   4.950
 1077SOL     OW 4129   6.879   0.004   0.277
 1077SOL    HW1 4130   6.965   7.004   0.323
 1077SOL    HW2 4131   6.813   0.036   0.345
 1078SOL     OW 4132   6.734   5.776   3.976
 1078SOL    HW1 4133   6.652   5.811   3.930
 1078SOL    HW2 4134   6.815   5.812   3.930
 1079SOL     OW 4135   0.952   5.994   2.613
 1079SOL    HW1 4136   0.948   6.072   2.676
 1079SOL    HW2 4137   1.041   5.949   2.621
 1080SOL     OW 4138   1.774   4.908   6.043
 1080SOL    HW1 4139   1.872   4.891   6.032
 1080SOL    HW2 4140   1.723   4.824   6.026
 1081SOL     OW 4141   5.924   5.649   4.423
 1081SOL    HW1 4142   5.954   5.636   4.518
 1081SOL    HW2 4143   5.837   5.698   4.422
 1082SOL     OW 4144   5.425   0.111   6.353
 1082SOL    HW1 4145   5.340   0.081   6.309
 1082SOL    HW2 4146   5.502   0.094   6.292
 1083SOL     OW 4147   5.502   4.619   0.723
 1083SOL    HW1 4148   5.449   4.694   0.685
 1083SOL    HW2 4149   5.441   4.546   0.752
 1084SOL     OW 4150   0.355   0.151   6.529
 1084SOL    HW1 4151   0.429   0.218   6.522
 1084SOL    HW2 4152   0.311   0.141   6.439
 1085SOL     OW 4153   2.244   4.064   3.958
 1085SOL    HW1 4154   2.228   3.978   4.006
 1085SOL    HW2 4155   2.229   4.140   4.021
 1086SOL     OW 4156   6.228   4.570   0.332
 1086SOL    HW1 4157   6.153   4.601   0.274
 1086SOL    HW2 4158   6.312   4.618   0.307
 1087SOL     OW 4159   2.074   0.593   5.396
 1087SOL    HW1 4160   2.095   0.496   5.396
 1087SOL    HW2 4161   2.022   0.616   5.478
 1088SOL     OW 4162   7.015   4.834   3.653
 1088SOL    HW1 4163   7.002   4.759   3.589
 1088SOL    HW2 4164   0.086   4.836   3.683
 1089SOL     OW 4165   6.386   4.317   4.800
 1089SOL    HW1 4166   6.448   4.293   4.875
 1089SOL    HW2 4167   6.389   4.245   4.731
 1090SOL     OW 4168   5.217   1.523   4.532
 1090SOL    HW1 4169   5.297   1.535   4.591
 1090SOL    HW2 4170   5.173   1.612   4.518
 1091SOL     OW 4171   2.305   2.890   3.409
 1091SOL    HW1 4172   2.337   2.877   3.315
 1091SOL    HW2 4173   2.352   2.826   3.470
 1092SOL     OW 4174   0.876   4.944   0.511
 1092SOL    HW1 4175   0.821   4.967   0.592
 1092SOL    HW2 4176   0.870   5.018   0.444
 1093SOL     OW 4177   2.634   0.041   1.287
 1093SOL    HW1 4178   2.723   0.026   1.244
 1093SOL    HW2 4179   2.569   6.996   1.257
 1094SOL     OW 4180   1.334   0.380   3.098
 1094SOL    HW1 4181   1.249   0.337   3.066
 1094SOL    HW2 4182   1.326   0.479   3.090
 1095SOL     OW 4183   0.084   3.368   0.436
 1095SOL    HW1 4184   0.154   3.297   0.447
 1095SOL    HW2 4185   0.126   3.458   0.451
 1096SOL     OW 4186   3.324   5.746   1.612
 1096SOL    HW1 4187   3.345   5.838   1.646
 1096SOL    HW2 4188   3.297   5.688   1.689
 1097SOL     OW 4189   2.806   5.161   3.672
 1097SOL    HW1 4190   2.763   5.248   3.693
 1097SOL    HW2 4191   2.801   5.101   3.752
 1098SOL     OW 4192   6.407   4.936   0.487
 1098SOL    HW1 4193   6.367   4.881   0.560
 1098SOL    HW2 4194   6.384   5.032   0.502
 1099SOL     OW 4195   4.540   0.923   6.394
 1099SOL    HW1 4196   4.525   1.006   6.447
 1099SOL    HW2 4197   4.634   0.890   6.408
 1100SOL     OW 4198   3.570   1.118   3.924
 1100SOL    HW1 4199   3.579   1.215   3.945
 1100SOL    HW2 4200   3.488   1.103   3.869
 1101SOL     OW 4201   6.388   2.799   5.696
 1101SOL    HW1 4202   6.365   2.759   5.785
 1101SOL    HW2 4203   6.369   2.732   5.624
 1102SOL     OW 4204   2.421   1.045   4.189
 1102SOL    HW1 4205   2.326   1.049   4.219
 1102SOL    HW2 4206   2.425   1.030   4.090
 1103SOL     OW 4207   3.382   0.523   6.780
 1103SOL    HW1 4208   3.399   0.591   6.709
 1103SOL    HW2 4209   3.284   0.522   6.802
 1104SOL     OW 4210   0.254   3.628   3.629
 1104SOL    HW1 4211   0.301   3.607   3.543
 1104SOL    HW2 4212   0.302   3.583   3.704
 1105SOL     OW 4213   5.279   1.117   4.816
 1105SOL    HW1 4214   5.307   1.056   4.742
 1105SOL    HW2 4215   5.361   1.157   4.858
 1106SOL     OW 4216   0.272   1.669   0.744
 1106SOL    HW1 4217   0.327   1.706   0.819
 1106SOL    HW2 4218   0.284   1.727   0.663
 1107SOL     OW 4219   0.728   0.707   0.355
 1107SOL    HW1 4220   0.746   0.805   0.356
 1107SOL    HW2 4221   0.787   0.663   0.288
 1108SOL     OW 4222   2.818   6.460   4.167
 1108SOL    HW1 4223   2.893   6.430   4.107
 1108SOL    HW2 4224   2.764   6.530   4.121
 1109SOL     OW 4225   5.435   1.565   4.684
 1109SOL    HW1 4226   5.457   1.555   4.781
 1109SOL    HW2 4227   5.513   1.533   4.629
 1110SOL     OW 4228   3.535   0.742   2.403
 1110SOL    HW1 4229   3.450   0.758   2.453
 1110SOL    HW2 4230   3.545   0.644   2.386
 1111SOL     OW 4231   5.027   3.638   6.188
 1111SOL    HW1 4232   4.976   3.651   6.103
 1111SOL    HW2 4233   4.968   3.659   6.266
 1112SOL     OW 4234   5.326   0.458   2.172
 1112SOL    HW1 4235   5.258   0.425   2.107
 1112SOL    HW2 4236   5.388   0.384   2.196
 1113SOL     OW 4237   6.096   4.418   2.696
 1113SOL    HW1 4238   6.072   4.451   2.787
 1113SOL    HW2 4239   6.057   4.479   2.627
 1114SOL     OW 4240   4.508   3.323   5.636
 1114SOL    HW1 4241   4.540   3.332   5.542
 1114SOL    HW2 4242   4.470   3.232   5.650
 1115SOL     OW 4243   3.211   4.231   5.797
 1115SOL    HW1 4244   3.305   4.265   5.792
 1115SOL    HW2 4245   3.156   4.275   5.726
 1116SOL     OW 4246   4.933   0.194   6.351
 1116SOL    HW1 4247   4.920   0.257   6.275
 1116SOL    HW2 4248   5.011   0.223   6.407
 1117SOL     OW 4249   1.115   2.864   1.802
 1117SOL    HW1 4250   1.067   2.904   1.724
 1117SOL    HW2 4251   1.068   2.890   1.886
 1118SOL     OW 4252   3.030   4.606   6.948
 1118SOL    HW1 4253   3.006   4.529   6.888
 1118SOL    HW2 4254   3.118   4.644   6.919
 1119SOL     OW 4255   3.770   5.209   3.670
 1119SOL    HW1 4256   3.779   5.110   3.682
 1119SOL    HW2 4257   3.853   5.245   3.629
 1120SOL     OW 4258   6.762   5.299   1.057
 1120SOL    HW1 4259   6.811   5.243   0.992
 1120SOL    HW2 4260   6.823   5.327   1.131
 1121SOL     OW 4261   0.093   5.063   4.570
 1121SOL    HW1 4262   0.007   5.049   4.521
 1121SOL    HW2 4263   0.080   5.042   4.667
 1122SOL     OW 4264   5.446   2.668   1.751
 1122SOL    HW1 4265   5.474   2.635   1.841
 1122SOL    HW2 4266   5.392   2.752   1.762
 1123SOL     OW 4267   4.059   2.157   3.389
 1123SOL    HW1 4268   4.085   2.061   3.400
 1123SOL    HW2 4269   3.959   2.164   3.385
 1124SOL     OW 4270   2.125   3.215   4.915
 1124SOL    HW1 4271   2.184   3.163   4.977
 1124SOL    HW2 4272   2.111   3.306   4.952
 1125SOL     OW 4273   1.006   3.922   4.003
 1125SOL    HW1 4274   1.015   3.823   3.993
 1125SOL    HW2 4275   0.978   3.961   3.915
 1126SOL     OW 4276   3.768   5.219   5.252
 1126SOL    HW1 4277   3.723   5.292   5.200
 1126SOL    HW2 4278   3.864   5.242   5.267
 1127SOL     OW 4279   5.746   6.599   3.023
 1127SOL    HW1 4280   5.800   6.629   3.102
 1127SOL    HW2 4281   5.718   6.679   2.970
 1128SOL     OW 4282   6.223   2.070   3.585
 1128SOL    HW1 4283   6.156   2.105   3.519
 1128SOL    HW2 4284   6.230   1.971   3.576
 1129SOL     OW 4285   1.915   0.458   1.331
 1129SOL    HW1 4286   1.941   0.425   1.240
 1129SOL    HW2 4287   1.990   0.513   1.369
 1130SOL     OW 4288   2.226   5.484   2.882
 1130SOL    HW1 4289   2.178   5.494   2.794
 1130SOL    HW2 4290   2.306   5.425   2.870
 1131SOL     OW 4291   1.572   6.547   4.430
 1131SOL    HW1 4292   1.665   6.517   4.450
 1131SOL    HW2 4293   1.509   6.469   4.434
 1132SOL     OW 4294   3.491   1.567   2.706
 1132SOL    HW1 4295   3.498   1.480   2.755
 1132SOL    HW2 4296   3.421   1.559   2.635
 1133SOL     OW 4297   1.331   6.728   5.040
 1133SOL    HW1 4298   1.278   6.694   5.118
 1133SOL    HW2 4299   1.348   6.825   5.051
 1134SOL     OW 4300   4.754   0.480   1.519
 1134SOL    HW1 4301   4.773   0.513   1.611
 1134SOL    HW2 4302   4.839   0.443   1.479
 1135SOL     OW 4303   2.117   6.097   3.840
 1135SOL    HW1 4304   2.111   6.045   3.924
 1135SOL    HW2 4305   2.036   6.079   3.784
 1136SOL     OW 4306   2.769   5.892   1.808
 1136SOL    HW1 4307   2.800   5.833   1.733
 1136SOL    HW2 4308   2.726   5.836   1.879
 1137SOL     OW 4309   0.397   5.531   6.132
 1137SOL    HW1 4310   0.456   5.603   6.169
 1137SOL    HW2 4311   0.395   5.538   6.033
 1138SOL     OW 4312   1.882   3.131   4.840
 1138SOL    HW1 4313   1.866   3.034   4.823
 1138SOL    HW2 4314   1.981   3.147   4.848
 1139SOL     OW 4315   2.832   5.145   4.182
 1139SOL    HW1 4316   2.915   5.093   4.161
 1139SOL    HW2 4317   2.856   5.240   4.201
 1140SOL     OW 4318   1.469   1.216   1.756
 1140SOL    HW1 4319   1.376   1.248   1.735
 1140SOL    HW2 4320   1.486   1.227   1.854
 1141SOL     OW 4321   6.261   4.485   6.139
 1141SOL    HW1 4322   6.347   4.481   6.190
 1141SOL    HW2 4323   6.264   4.562   6.075
 1142SOL     OW 4324   2.732   6.919   2.908
 1142SOL    HW1 4325   2.818   6.888   2.867
 1142SOL    HW2 4326   2.692   6.845   2.963
 1143SOL     OW 4327   0.867   3.617   1.891
 1143SOL    HW1 4328   0.813   3.698   1.870
 1143SOL    HW2 4329   0.828   3.570   1.970
 1144SOL     OW 4330   5.519   4.334   2.488
 1144SOL    HW1 4331   5.523   4.235   2.473
 1144SOL    HW2 4332   5.428   4.359   2.520
 1145SOL     OW 4333   0.652   1.830   0.173
 1145SOL    HW1 4334   0.619   1.866   0.086
 1145SOL    HW2 4335   0.628   1.733   0.180
 1146SOL     OW 4336   0.564   1.325   1.415
 1146SOL    HW1 4337   0.503   1.404   1.414
 1146SOL    HW2 4338   0.531   1.259   1.482
 1147SOL     OW 4339   3.241   6.700   0.835
 1147SOL    HW1 4340   3.224   6.769   0.905
 1147SOL    HW2 4341   3.205   6.733   0.747
 1148SOL     OW 4342   3.729   5.702   2.541
 1148SOL    HW1 4343   3.707   5.773   2.474
 1148SOL    HW2 4344   3.644   5.658   2.572
 1149SOL     OW 4345   5.096   2.079   1.427
 1149SOL    HW1 4346   5.098   2.157   1.489
 1149SOL    HW2 4347   5.079   2.111   1.333
 1150SOL     OW 4348   1.555   4.320   6.955
 1150SOL    HW1 4349   1.569   4.416   6.930
 1150SOL    HW2 4350   1.623   4.263   6.909
 1151SOL     OW 4351   6.372   5.448   3.686
 1151SOL    HW1 4352   6.375   5.531   3.741
 1151SOL    HW2 4353   6.327   5.375   3.738
 1152SOL     OW 4354   4.976   6.791   6.674
 1152SOL    HW1 4355   5.017   6.726   6.738
 1152SOL    HW2 4356   5.008   6.884   6.695
 1153SOL     OW 4357   6.267   0.516   1.234
 1153SOL    HW1 4358   6.324   0.570   1.172
 1153SOL    HW2 4359   6.255   0.424   1.197
 1154SOL     OW 4360   1.784   3.045   1.990
 1154SOL    HW1 4361   1.740   3.014   1.906
 1154SOL    HW2 4362   1.818   3.139   1.978
 1155SOL     OW 4363   2.521   6.520   4.732
 1155SOL    HW1 4364   2.614   6.507   4.698
 1155SOL    HW2 4365   2.510   6.473   4.820
 1156SOL     OW 4366   4.171   1.905   4.365
 1156SOL    HW1 4367   4.092   1.859   4.406
 1156SOL    HW2 4368   4.245   1.910   4.432
 1157SOL     OW 4369   3.697   0.684   5.731
 1157SOL    HW1 4370   3.742   0.595   5.721
 1157SOL    HW2 4371   3.730   0.746   5.659
 1158SOL     OW 4372   5.901   6.375   3.049
 1158SOL    HW1 4373   5.856   6.285   3.051
 1158SOL    HW2 4374   5.832   6.446   3.036
 1159SOL     OW 4375   6.414   6.348   2.422
 1159SOL    HW1 4376   6.454   6.352   2.514
 1159SOL    HW2 4377   6.402   6.252   2.396
 1160SOL     OW 4378   4.498   0.581   0.657
 1160SOL    HW1 4379   4.572   0.514   0.658
 1160SOL    HW2 4380   4.450   0.577   0.569
 1161SOL     OW 4381   0.668   5.434   6.706
 1161SOL    HW1 4382   0.605   5.439   6.628
 1161SOL    HW2 4383   0.695   5.526   6.734
 1162SOL     OW 4384   1.899   3.049   5.111
 1162SOL    HW1 4385   1.911   3.097   5.025
 1162SOL    HW2 4386   1.981   3.061   5.168
 1163SOL     OW 4387   5.962   4.035   1.973
 1163SOL    HW1 4388   6.002   4.115   2.018
 1163SOL    HW2 4389   5.892   3.995   2.031
 1164SOL     OW 4390   4.999   1.705   4.445
 1164SOL    HW1 4391   4.914   1.678   4.400
 1164SOL    HW2 4392   5.060   1.749   4.380
 1165SOL     OW 4393   3.743   6.032   3.450
 1165SOL    HW1 4394   3.751   6.033   3.549
 1165SOL    HW2 4395   3.647   6.023   3.424
 1166SOL     OW 4396   2.495   6.158   6.487
 1166SOL    HW1 4397   2.485   6.197   6.395
 1166SOL    HW2 4398   2.585   6.115   6.495
 1167SOL     OW 4399   5.318   4.822   2.514
 1167SOL    HW1 4400   5.271   4.904   2.546
 1167SOL    HW2 4401   5.261   4.776   2.446
 1168SOL     OW 4402   6.061   2.417   3.103
 1168SOL    HW1 4403   6.060   2.375   3.012
 1168SOL    HW2 4404   5.972   2.406   3.146
 1169SOL     OW 4405   5.529   0.512   4.770
 1169SOL    HW1 4406   5.462   0.487   4.839
 1169SOL    HW2 4407   5.620   0.482   4.799
 1170SOL     OW 4408   4.910   0.090   3.544
 1170SOL    HW1 4409   4.851   0.163   3.578
 1170SOL    HW2 4410   4.943   0.114   3.452
 1171SOL     OW 4411   1.476   0.506   1.472
 1171SOL    HW1 4412   1.521   0.436   1.527
 1171SOL    HW2 4413   1.544   0.570   1.436
 1172SOL     OW 4414   6.867   3.561   6.642
 1172SOL    HW1 4415   6.883   3.466   6.615
 1172SOL    HW2 4416   6.924   3.622   6.586
 1173SOL     OW 4417   3.221   1.754   1.271
 1173SOL    HW1 4418   3.133   1.712   1.294
 1173SOL    HW2 4419   3.242   1.736   1.175
 1174SOL     OW 4420   3.774   3.887   1.056
 1174SOL    HW1 4421   3.784   3.966   1.116
 1174SOL    HW2 4422   3.843   3.818   1.079
 1175SOL     OW 4423   3.592   3.358   4.947
 1175SOL    HW1 4424   3.682   3.359   4.904
 1175SOL    HW2 4425   3.521   3.376   4.878
 1176SOL     OW 4426   5.430   4.043   6.142
 1176SOL    HW1 4427   5.490   4.090   6.207
 1176SOL    HW2 4428   5.364   3.986   6.191
 1177SOL     OW 4429   6.373   2.253   4.727
 1177SOL    HW1 4430   6.446   2.239   4.794
 1177SOL    HW2 4431   6.380   2.345   4.688
 1178SOL     OW 4432   2.917   4.652   0.338
 1178SOL    HW1 4433   3.012   4.624   0.326
 1178SOL    HW2 4434   2.885   4.698   0.254
 1179SOL     OW 4435   2.689   5.025   0.529
 1179SOL    HW1 4436   2.705   5.077   0.613
 1179SOL    HW2 4437   2.774   4.979   0.502
 1180SOL     OW 4438   2.796   5.539   0.850
 1180SOL    HW1 4439   2.842   5.596   0.782
 1180SOL    HW2 4440   2.858   5.466   0.880
 1181SOL     OW 4441   0.194   5.576   6.330
 1181SOL    HW1 4442   0.260   5.546   6.262
 1181SOL    HW2 4443   0.132   5.643   6.290
 1182SOL     OW 4444   3.677   5.198   2.735
 1182SOL    HW1 4445   3.693   5.293   2.708
 1182SOL    HW2 4446   3.579   5.177   2.728
 1183SOL     OW 4447   2.080   3.916   6.403
 1183SOL    HW1 4448   2.005   3.905   6.338
 1183SOL    HW2 4449   2.166   3.887   6.360
 1184SOL     OW 4450   1.654   0.307   5.070
 1184SOL    HW1 4451   1.707   0.387   5.096
 1184SOL    HW2 4452   1.622   0.317   4.976
 1185SOL     OW 4453   6.711   1.176   6.653
 1185SOL    HW1 4454   6.790   1.238   6.651
 1185SOL    HW2 4455   6.690   1.153   6.748
 1186SOL     OW 4456   4.764   5.833   4.418
 1186SOL    HW1 4457   4.700   5.908   4.401
 1186SOL    HW2 4458   4.732   5.779   4.496
 1187SOL     OW 4459   6.542   0.058   5.899
 1187SOL    HW1 4460   6.492   7.022   5.961
 1187SOL    HW2 4461   6.640   0.042   5.909
 1188SOL     OW 4462   2.928   6.471   4.927
 1188SOL    HW1 4463   2.957   6.418   4.848
 1188SOL    HW2 4464   3.007   6.492   4.985
 1189SOL     OW 4465   6.511   3.568   3.028
 1189SOL    HW1 4466   6.514   3.469   3.044
 1189SOL    HW2 4467   6.511   3.616   3.115
 1190SOL     OW 4468   2.236   6.350   2.867
 1190SOL    HW1 4469   2.220   6.425   2.932
 1190SOL    HW2 4470   2.225   6.263   2.915
 1191SOL     OW 4471   4.255   5.443   3.162
 1191SOL    HW1 4472   4.209   5.527   3.132
 1191SOL    HW2 4473   4.221   5.365   3.109
 1192SOL     OW 4474   4.185   5.788   2.753
 1192SOL    HW1 4475   4.153   5.883   2.748
 1192SOL    HW2 4476   4.255   5.781   2.824
 1193SOL     OW 4477   5.831   4.833   4.400
 1193SOL    HW1 4478   5.763   4.845   4.472
 1193SOL    HW2 4479   5.915   4.880   4.425
 1194SOL     OW 4480   5.360   0.692   1.470
 1194SOL    HW1 4481   5.307   0.710   1.386
 1194SOL    HW2 4482   5.309   0.726   1.549
 1195SOL     OW 4483   6.095   3.775   1.950
 1195SOL    HW1 4484   6.193   3.766   1.971
 1195SOL    HW2 4485   6.069   3.871   1.951
 1196SOL     OW 4486   6.578   6.351   3.781
 1196SOL    HW1 4487   6.655   6.291   3.761
 1196SOL    HW2 4488   6.582   6.431   3.721
 1197SOL     OW 4489   3.520   0.204   0.149
 1197SOL    HW1 4490   3.424   0.210   0.173
 1197SOL    HW2 4491   3.538   0.115   0.107
 1198SOL     OW 4492   1.571   2.133   0.795
 1198SOL    HW1 4493   1.566   2.198   0.719
 1198SOL    HW2 4494   1.576   2.040   0.759
 1199SOL     OW 4495   5.032   5.127   1.294
 1199SOL    HW1 4496   5.078   5.191   1.232
 1199SOL    HW2 4497   5.016   5.041   1.247
 1200SOL     OW 4498   3.222   3.290   2.697
 1200SOL    HW1 4499   3.315   3.322   2.682
 1200SOL    HW2 4500   3.164   3.368   2.722
 1201SOL     OW 4501   1.335   1.400   4.971
 1201SOL    HW1 4502   1.272   1.409   4.894
 1201SOL    HW2 4503   1.374   1.308   4.971
 1202SOL     OW 4504   0.729   5.175   6.774
 1202SOL    HW1 4505   0.768   5.175   6.866
 1202SOL    HW2 4506   0.705   5.269   6.748
 1203SOL     OW 4507   4.979   6.117   5.924
 1203SOL    HW1 4508   5.030   6.079   5.847
 1203SOL    HW2 4509   5.018   6.084   6.010
 1204SOL     OW 4510   2.453   0.754   1.977
 1204SOL    HW1 4511   2.375   0.693   1.993
 1204SOL    HW2 4512   2.525   0.704   1.928
 1205SOL     OW 4513   5.099   4.048   1.528
 1205SOL    HW1 4514   5.058   4.110   1.462
 1205SOL    HW2 4515   5.197   4.065   1.534
 1206SOL     OW 4516   2.924   3.442   4.637
 1206SOL    HW1 4517   2.906   3.540   4.638
 1206SOL    HW2 4518   2.912   3.405   4.729
 1207SOL     OW 4519   2.326   6.721   1.610
 1207SOL    HW1 4520   2.325   6.757   1.517
 1207SOL    HW2 4521   2.355   6.625   1.609
 1208SOL     OW 4522   3.695   3.722   0.593
 1208SOL    HW1 4523   3.622   3.660   0.564
 1208SOL    HW2 4524   3.780   3.671   0.606
 1209SOL     OW 4525   3.554   0.319   5.526
 1209SOL    HW1 4526   3.504   0.405   5.524
 1209SOL    HW2 4527   3.496   0.247   5.566
 1210SOL     OW 4528   2.867   6.942   3.363
 1210SOL    HW1 4529   2.940   6.878   3.386
 1210SOL    HW2 4530   2.788   6.890   3.329
 1211SOL     OW 4531   0.787   3.862   1.106
 1211SOL    HW1 4532   0.847   3.905   1.039
 1211SOL    HW2 4533   0.699   3.910   1.108
 1212SOL     OW 4534   0.381   0.199   6.963
 1212SOL    HW1 4535   0.430   0.160   6.885
 1212SOL    HW2 4536   0.334   0.126   7.012
 1213SOL     OW 4537   5.753   2.773   0.598
 1213SOL    HW1 4538   5.829   2.751   0.659
 1213SOL    HW2 4539   5.767   2.863   0.557
 1214SOL     OW 4540   6.801   2.021   1.174
 1214SOL    HW1 4541   6.823   2.105   1.224
 1214SOL    HW2 4542   6.878   1.995   1.116
 1215SOL     OW 4543   1.391   4.950   4.552
 1215SOL    HW1 4544   1.463   4.992   4.607
 1215SOL    HW2 4545   1.431   4.901   4.475
 1216SOL     OW 4546   4.575   0.357   6.581
 1216SOL    HW1 4547   4.530   0.268   6.587
 1216SOL    HW2 4548   4.507   0.429   6.595
 1217SOL     OW 4549   2.354   4.647   0.582
 1217SOL    HW1 4550   2.423   4.602   0.525
 1217SOL    HW2 4551   2.379   4.743   0.595
 1218SOL     OW 4552   1.271   4.765   3.959
 1218SOL    HW1 4553   1.197   4.751   3.893
 1218SOL    HW2 4554   1.325   4.845   3.931
 1219SOL     OW 4555   4.487   6.533   1.642
 1219SOL    HW1 4556   4.415   6.500   1.581
 1219SOL    HW2 4557   4.465   6.625   1.673
 1220SOL     OW 4558   1.261   5.168   3.131
 1220SOL    HW1 4559   1.165   5.190   3.146
 1220SOL    HW2 4560   1.296   5.115   3.208
 1221SOL     OW 4561   6.087   2.927   5.585
 1221SOL    HW1 4562   6.163   2.987   5.609
 1221SOL    HW2 4563   6.045   2.959   5.500
 1222SOL     OW 4564   6.408   6.414   6.790
 1222SOL    HW1 4565   6.470   6.490   6.811
 1222SOL    HW2 4566   6.356   6.435   6.707
 1223SOL     OW 4567   3.519   0.221   0.775
 1223SOL    HW1 4568   3.503   0.320   0.783
 1223SOL    HW2 4569   3.568   0.189   0.856
 1224SOL     OW 4570   2.217   0.662   0.769
 1224SOL    HW1 4571   2.255   0.602   0.840
 1224SOL    HW2 4572   2.264   0.751   0.773
 1225SOL     OW 4573   3.459   3.896   6.206
 1225SOL    HW1 4574   3.404   3.945   6.273
 1225SOL    HW2 4575   3.400   3.838   6.150
 1226SOL     OW 4576   2.113   5.083   1.530
 1226SOL    HW1 4577   2.158   5.110   1.615
 1226SOL    HW2 4578   2.142   4.991   1.505
 1227SOL     OW 4579   7.018   3.856   6.722
 1227SOL    HW1 4580   6.942   3.877   6.659
 1227SOL    HW2 4581   0.051   3.937   6.732
 1228SOL     OW 4582   3.435   2.520   6.309
 1228SOL    HW1 4583   3.515   2.567   6.344
 1228SOL    HW2 4584   3.389   2.578   6.241
 1229SOL     OW 4585   4.189   4.541   6.541
 1229SOL    HW1 4586   4.093   4.519   6.522
 1229SOL    HW2 4587   4.212   4.628   6.498
 1230SOL     OW 4588   4.211   6.527   3.443
 1230SOL    HW1 4589   4.247   6.483   3.361
 1230SOL    HW2 4590   4.206   6.626   3.429
 1231SOL     OW 4591   2.105   3.436   5.107
 1231SOL    HW1 4592   2.005   3.441   5.112
 1231SOL    HW2 4593   2.145   3.481   5.187
 1232SOL     OW 4594   1.487   2.495   5.313
 1232SOL    HW1 4595   1.447   2.448   5.392
 1232SOL    HW2 4596   1.470   2.442   5.230
 1233SOL     OW 4597   0.757   2.651   5.787
 1233SOL    HW1 4598   0.729   2.736   5.833
 1233SOL    HW2 4599   0.775   2.581   5.856
 1234SOL     OW 4600   6.148   4.420   4.933
 1234SOL    HW1 4601   6.226   4.403   4.873
 1234SOL    HW2 4602   6.124   4.518   4.931
 1235SOL     OW 4603   6.485   6.033   3.477
 1235SOL    HW1 4604   6.564   6.028   3.416
 1235SOL    HW2 4605   6.476   5.948   3.528
 1236SOL     OW 4606   5.750   0.647   6.863
 1236SOL    HW1 4607   5.695   0.687   6.790
 1236SOL    HW2 4608   5.732   0.695   6.949
 1237SOL     OW 4609   2.666   4.504   6.808
 1237SOL    HW1 4610   2.671   4.460   6.897
 1237SOL    HW2 4611   2.676   4.603   6.819
 1238SOL     OW 4612   1.777   1.689   0.920
 1238SOL    HW1 4613   1.800   1.761   0.986
 1238SOL    HW2 4614   1.860   1.645   0.888
 1239SOL     OW 4615   6.934   6.008   6.715
 1239SOL    HW1 4616   6.983   5.964   6.790
 1239SOL    HW2 4617   6.877   5.941   6.668
 1240SOL     OW 4618   5.141   6.002   1.887
 1240SOL    HW1 4619   5.066   6.057   1.851
 1240SOL    HW2 4620   5.106   5.913   1.916
 1241SOL     OW 4621   6.448   3.760   4.511
 1241SOL    HW1 4622   6.484   3.724   4.425
 1241SOL    HW2 4623   6.524   3.788   4.569
 1242SOL     OW 4624   1.752   3.737   0.564
 1242SOL    HW1 4625   1.682   3.758   0.633
 1242SOL    HW2 4626   1.758   3.813   0.499
 1243SOL     OW 4627   2.111   5.375   5.650
 1243SOL    HW1 4628   2.034   5.312   5.660
 1243SOL    HW2 4629   2.156   5.361   5.562
 1244SOL     OW 4630   0.501   1.115   3.394
 1244SOL    HW1 4631   0.575   1.150   3.451
 1244SOL    HW2 4632   0.529   1.029   3.351
 1245SOL     OW 4633   2.953   3.804   0.021
 1245SOL    HW1 4634   2.874   3.758   0.060
 1245SOL    HW2 4635   2.931   3.837   6.954
 1246SOL     OW 4636   2.283   6.439   1.888
 1246SOL    HW1 4637   2.312   6.446   1.792
 1246SOL    HW2 4638   2.220   6.362   1.898
 1247SOL     OW 4639   2.272   6.695   5.971
 1247SOL    HW1 4640   2.257   6.789   5.940
 1247SOL    HW2 4641   2.215   6.678   6.051
 1248SOL     OW 4642   1.991   5.525   2.993
 1248SOL    HW1 4643   1.941   5.569   2.918
 1248SOL    HW2 4644   2.085   5.509   2.966
 1249SOL     OW 4645   5.757   3.403   3.346
 1249SOL    HW1 4646   5.663   3.376   3.364
 1249SOL    HW2 4647   5.792   3.457   3.423
 1250SOL     OW 4648   1.110   5.046   3.754
 1250SOL    HW1 4649   1.060   5.079   3.834
 1250SOL    HW2 4650   1.100   4.947   3.747
 1251SOL     OW 4651   3.732   0.714   4.563
 1251SOL    HW1 4652   3.652   0.763   4.528
 1251SOL    HW2 4653   3.807   0.778   4.579
 1252SOL     OW 4654   2.880   4.040   5.719
 1252SOL    HW1 4655   2.974   4.022   5.747
 1252SOL    HW2 4656   2.862   3.992   5.633
 1253SOL     OW 4657   4.068   5.125   2.377
 1253SOL    HW1 4658   4.079   5.095   2.471
 1253SOL    HW2 4659   4.041   5.222   2.376
 1254SOL     OW 4660   6.236   2.001   2.969
 1254SOL    HW1 4661   6.169   1.936   3.005
 1254SOL    HW2 4662   6.316   1.952   2.935
 1255SOL     OW 4663   0.165   6.899   5.820
 1255SOL    HW1 4664   0.124   6.987   5.796
 1255SOL    HW2 4665   0.111   6.855   5.891
 1256SOL     OW 4666   6.153   6.994   3.351
 1256SOL    HW1 4667   6.188   6.906   3.383
 1256SOL    HW2 4668   6.116   6.984   3.258
 1257SOL     OW 4669   6.924   0.852   3.633
 1257SOL    HW1 4670   6.988   0.785   3.595
 1257SOL    HW2 4671   6.976   0.929   3.671
 1258SOL     OW 4672   0.642   6.950   3.487
 1258SOL    HW1 4673   0.629   6.862   3.441
 1258SOL    HW2 4674   0.690   7.012   3.426
 1259SOL     OW 4675   3.937   1.784   5.022
 1259SOL    HW1 4676   3.943   1.812   5.117
 1259SOL    HW2 4677   3.976   1.855   4.963
 1260SOL     OW 4678   0.969   1.043   0.106
 1260SOL    HW1 4679   1.046   1.070   0.048
 1260SOL    HW2 4680   0.936   1.122   0.157
 1261SOL     OW 4681   0.301   5.206   0.286
 1261SOL    HW1 4682   0.314   5.154   0.201
 1261SOL    HW2 4683   0.242   5.285   0.268
 1262SOL     OW 4684   5.579   5.844   1.776
 1262SOL    HW1 4685   5.614   5.752   1.793
 1262SOL    HW2 4686   5.654   5.909   1.775
 1263SOL     OW 4687   1.397   2.276   3.886
 1263SOL    HW1 4688   1.436   2.266   3.794
 1263SOL    HW2 4689   1.351   2.364   3.894
 1264SOL     OW 4690   0.767   2.546   5.209
 1264SOL    HW1 4691   0.856   2.535   5.253
 1264SOL    HW2 4692   0.699   2.571   5.278
 1265SOL     OW 4693   6.098   6.260   5.047
 1265SOL    HW1 4694   6.138   6.290   4.961
 1265SOL    HW2 4695   6.012   6.308   5.062
 1266SOL     OW 4696   1.737   0.599   4.752
 1266SOL    HW1 4697   1.690   0.560   4.831
 1266SOL    HW2 4698   1.670   0.619   4.681
 1267SOL     OW 4699   4.553   0.084   2.455
 1267SOL    HW1 4700   4.525   0.103   2.361
 1267SOL    HW2 4701   4.641   0.128   2.473
 1268SOL     OW 4702   4.265   2.373   5.360
 1268SOL    HW1 4703   4.352   2.420   5.373
 1268SOL    HW2 4704   4.218   2.410   5.280
 1269SOL     OW 4705   6.180   2.486   3.916
 1269SOL    HW1 4706   6.238   2.417   3.873
 1269SOL    HW2 4707   6.226   2.574   3.916
 1270SOL     OW 4708   0.672   4.768   2.868
 1270SOL    HW1 4709   0.587   4.716   2.858
 1270SOL    HW2 4710   0.695   4.775   2.965
 1271SOL     OW 4711   1.221   1.293   1.673
 1271SOL    HW1 4712   1.182   1.276   1.583
 1271SOL    HW2 4713   1.149   1.286   1.742
 1272SOL     OW 4714   6.794   4.183   0.335
 1272SOL    HW1 4715   6.757   4.271   0.304
 1272SOL    HW2 4716   6.770   4.168   0.431
 1273SOL     OW 4717   1.618   4.506   5.341
 1273SOL    HW1 4718   1.673   4.446   5.283
 1273SOL    HW2 4719   1.592   4.588   5.290
 1274SOL     OW 4720   0.826   5.028   2.445
 1274SOL    HW1 4721   0.797   5.086   2.369
 1274SOL    HW2 4722   0.757   5.031   2.518
 1275SOL     OW 4723   2.892   0.519   3.113
 1275SOL    HW1 4724   2.955   0.570   3.054
 1275SOL    HW2 4725   2.944   0.474   3.186
 1276SOL     OW 4726   5.068   4.379   3.908
 1276SOL    HW1 4727   5.162   4.399   3.936
 1276SOL    HW2 4728   5.037   4.296   3.955
 1277SOL     OW 4729   0.406   5.783   0.514
 1277SOL    HW1 4730   0.503   5.766   0.534
 1277SOL    HW2 4731   0.379   5.871   0.554
 1278SOL     OW 4732   1.487   6.043   2.667
 1278SOL    HW1 4733   1.481   6.106   2.744
 1278SOL    HW2 4734   1.439   6.081   2.588
 1279SOL     OW 4735   2.609   1.975   6.618
 1279SOL    HW1 4736   2.562   1.909   6.559
 1279SOL    HW2 4737   2.594   2.067   6.582
 1280SOL     OW 4738   2.853   1.627   3.124
 1280SOL    HW1 4739   2.952   1.626   3.136
 1280SOL    HW2 4740   2.815   1.539   3.155
 1281SOL     OW 4741   4.018   5.717   4.135
 1281SOL    HW1 4742   3.963   5.694   4.054
 1281SOL    HW2 4743   4.055   5.809   4.125
 1282SOL     OW 4744   0.324   2.535   1.063
 1282SOL    HW1 4745   0.332   2.502   1.157
 1282SOL    HW2 4746   0.331   2.634   1.061
 1283SOL     OW 4747   6.762   3.118   4.941
 1283SOL    HW1 4748   6.821   3.037   4.942
 1283SOL    HW2 4749   6.814   3.197   4.971
 1284SOL     OW 4750   4.113   1.654   1.427
 1284SOL    HW1 4751   4.183   1.604   1.377
 1284SOL    HW2 4752   4.105   1.616   1.519
 1285SOL     OW 4753   3.536   1.441   4.882
 1285SOL    HW1 4754   3.470   1.393   4.939
 1285SOL    HW2 4755   3.507   1.536   4.871
 1286SOL     OW 4756   4.538   2.066   1.828
 1286SOL    HW1 4757   4.476   2.101   1.758
 1286SOL    HW2 4758   4.494   2.072   1.918
 1287SOL     OW 4759   6.761   4.438   4.883
 1287SOL    HW1 4760   6.695   4.364   4.902
 1287SOL    HW2 4761   6.718   4.526   4.902
 1288SOL     OW 4762   4.597   4.200   6.336
 1288SOL    HW1 4763   4.552   4.289   6.342
 1288SOL    HW2 4764   4.695   4.211   6.352
 1289SOL     OW 4765   6.934   0.484   1.629
 1289SOL    HW1 4766   6.900   0.474   1.723
 1289SOL    HW2 4767   0.008   0.502   1.632
 1290SOL     OW 4768   1.279   0.086   6.804
 1290SOL    HW1 4769   1.229   0.166   6.838
 1290SOL    HW2 4770   1.217   0.007   6.800
 1291SOL     OW 4771   6.460   5.444   3.063
 1291SOL    HW1 4772   6.553   5.465   3.093
 1291SOL    HW2 4773   6.454   5.348   3.037
 1292SOL     OW 4774   1.322   6.100   2.436
 1292SOL    HW1 4775   1.350   6.029   2.372
 1292SOL    HW2 4776   1.298   6.183   2.385
 1293SOL     OW 4777   3.117   1.446   6.787
 1293SOL    HW1 4778   3.081   1.398   6.867
 1293SOL    HW2 4779   3.042   1.473   6.728
 1294SOL     OW 4780   2.161   3.863   5.528
 1294SOL    HW1 4781   2.172   3.843   5.431
 1294SOL    HW2 4782   2.225   3.934   5.555
 1295SOL     OW 4783   6.660   4.089   0.813
 1295SOL    HW1 4784   6.680   4.045   0.901
 1295SOL    HW2 4785   6.566   4.123   0.814
 1296SOL     OW 4786   5.436   6.467   5.559
 1296SOL    HW1 4787   5.490   6.436   5.481
 1296SOL    HW2 4788   5.489   6.453   5.643
 1297SOL     OW 4789   0.535   0.275   2.061
 1297SOL    HW1 4790   0.453   0.224   2.034
 1297SOL    HW2 4791   0.582   0.307   1.979
 1298SOL     OW 4792   5.666   5.519   2.354
 1298SOL    HW1 4793   5.670   5.425   2.319
 1298SOL    HW2 4794   5.577   5.559   2.332
 1299SOL     OW 4795   1.865   3.359   4.439
 1299SOL    HW1 4796   1.773   3.344   4.474
 1299SOL    HW2 4797   1.885   3.290   4.369
 1300SOL     OW 4798   1.359   4.551   1.669
 1300SOL    HW1 4799   1.366   4.493   1.588
 1300SOL    HW2 4800   1.279   4.523   1.722
 1301SOL     OW 4801   0.979   0.754   1.899
 1301SOL    HW1 4802   0.994   0.806   1.984
 1301SOL    HW2 4803   1.050   0.777   1.833
 1302SOL     OW 4804   5.554   6.413   5.316
 1302SOL    HW1 4805   5.495   6.465   5.254
 1302SOL    HW2 4806   5.563   6.319   5.283
 1303SOL     OW 4807   4.292   6.791   1.441
 1303SOL    HW1 4808   4.352   6.805   1.362
 1303SOL    HW2 4809   4.210   6.847   1.430
 1304SOL     OW 4810   0.619   1.211   1.156
 1304SOL    HW1 4811   0.659   1.125   1.187
 1304SOL    HW2 4812   0.585   1.262   1.235
 1305SOL     OW 4813   5.300   4.188   0.151
 1305SOL    HW1 4814   5.335   4.150   0.237
 1305SOL    HW2 4815   5.370   4.177   0.080
 1306SOL     OW 4816   2.325   5.643   4.447
 1306SOL    HW1 4817   2.336   5.546   4.427
 1306SOL    HW2 4818   2.230   5.661   4.473
 1307SOL     OW 4819   2.280   2.404   4.170
 1307SOL    HW1 4820   2.335   2.476   4.213
 1307SOL    HW2 4821   2.183   2.429   4.176
 1308SOL     OW 4822   6.914   5.324   6.142
 1308SOL    HW1 4823   6.985   5.361   6.083
 1308SOL    HW2 4824   6.956   5.268   6.214
 1309SOL     OW 4825   5.190   4.562   6.409
 1309SOL    HW1 4826   5.245   4.544   6.328
 1309SOL    HW2 4827   5.197   4.659   6.433
 1310SOL     OW 4828   1.093   4.287   4.146
 1310SOL    HW1 4829   1.124   4.369   4.195
 1310SOL    HW2 4830   1.171   4.227   4.128
 1311SOL     OW 4831   6.835   5.705   0.434
 1311SOL    HW1 4832   6.793   5.752   0.512
 1311SOL    HW2 4833   6.827   5.606   0.446
 1312SOL     OW 4834   1.876   0.585   5.949
 1312SOL    HW1 4835   1.894   0.539   6.036
 1312SOL    HW2 4836   1.777   0.592   5.935
 1313SOL     OW 4837   6.384   5.601   3.431
 1313SOL    HW1 4838   6.375   5.564   3.523
 1313SOL    HW2 4839   6.464   5.561   3.386
 1314SOL     OW 4840   2.575   1.765   4.902
 1314SOL    HW1 4841   2.628   1.841   4.941
 1314SOL    HW2 4842   2.493   1.801   4.858
 1315SOL     OW 4843   5.930   0.908   4.607
 1315SOL    HW1 4844   5.977   0.962   4.538
 1315SOL    HW2 4845   5.832   0.909   4.590
 1316SOL     OW 4846   4.387   0.569   4.984
 1316SOL    HW1 4847   4.420   0.486   4.938
 1316SOL    HW2 4848   4.465   0.628   5.006
 1317SOL     OW 4849   2.702   3.006   5.610
 1317SOL    HW1 4850   2.669   2.973   5.521
 1317SOL    HW2 4851   2.624   3.041   5.663
 1318SOL     OW 4852   1.833   2.648   6.741
 1318SOL    HW1 4853   1.784   2.598   6.813
 1318SOL    HW2 4854   1.885   2.723   6.782
 1319SOL     OW 4855   0.032   6.411   0.908
 1319SOL    HW1 4856   6.971   6.463   0.910
 1319SOL    HW2 4857   0.046   6.374   0.817
 1320SOL     OW 4858   3.114   2.681   5.859
 1320SOL    HW1 4859   3.088   2.698   5.954
 1320SOL    HW2 4860   3.086   2.759   5.803
 1321SOL     OW 4861   5.839   2.181   6.848
 1321SOL    HW1 4862   5.772   2.184   6.774
 1321SOL    HW2 4863   5.931   2.176   6.809
 1322SOL     OW 4864   3.473   1.439   0.300
 1322SOL    HW1 4865   3.431   1.511   0.243
 1322SOL    HW2 4866   3.424   1.353   0.286
 1323SOL     OW 4867   3.835   0.420   0.599
 1323SOL    HW1 4868   3.762   0.425   0.532
 1323SOL    HW2 4869   3.796   0.409   0.691
 1324SOL     OW 4870   0.996   3.518   0.059
 1324SOL    HW1 4871   1.053   3.514   0.141
 1324SOL    HW2 4872   1.022   3.445   7.021
 1325SOL     OW 4873   2.868   5.253   6.539
 1325SOL    HW1 4874   2.924   5.176   6.569
 1325SOL    HW2 4875   2.880   5.330   6.603
 1326SOL     OW 4876   4.847   3.758   4.109
 1326SOL    HW1 4877   4.838   3.734   4.206
 1326SOL    HW2 4878   4.834   3.857   4.099
 1327SOL     OW 4879   0.224   6.582   1.000
 1327SOL    HW1 4880   0.147   6.542   0.950
 1327SOL    HW2 4881   0.300   6.599   0.937
 1328SOL     OW 4882   0.852   3.423   5.961
 1328SOL    HW1 4883   0.933   3.474   5.992
 1328SOL    HW2 4884   0.880   3.332   5.930
 1329SOL     OW 4885   0.440   2.840   3.137
 1329SOL    HW1 4886   0.403   2.826   3.229
 1329SOL    HW2 4887   0.476   2.754   3.101
 1330SOL     OW 4888   6.287   2.660   1.031
 1330SOL    HW1 4889   6.220   2.620   1.094
 1330SOL    HW2 4890   6.379   2.645   1.067
 1331SOL     OW 4891   4.528   1.736   2.889
 1331SOL    HW1 4892   4.564   1.829   2.902
 1331SOL    HW2 4893   4.487   1.704   2.975
 1332SOL     OW 4894   1.467   7.019   0.704
 1332SOL    HW1 4895   1.524   0.076   0.695
 1332SOL    HW2 4896   1.526   6.938   0.712
 1333SOL     OW 4897   3.162   4.029   3.143
 1333SOL    HW1 4898   3.190   4.039   3.239
 1333SOL    HW2 4899   3.228   4.077   3.085
 1334SOL     OW 4900   6.961   2.186   2.188
 1334SOL    HW1 4901   6.886   2.120   2.180
 1334SOL    HW2 4902   7.002   2.202   2.098
 1335SOL     OW 4903   1.779   3.633   2.094
 1335SOL    HW1 4904   1.755   3.707   2.157
 1335SOL    HW2 4905   1.748   3.546   2.132
 1336SOL     OW 4906   3.449   0.380   5.183
 1336SOL    HW1 4907   3.446   0.391   5.084
 1336SOL    HW2 4908   3.451   0.469   5.227
 1337SOL     OW 4909   6.389   1.516   3.868
 1337SOL    HW1 4910   6.418   1.484   3.778
 1337SOL    HW2 4911   6.307   1.573   3.858
 1338SOL     OW 4912   5.807   3.773   4.916
 1338SOL    HW1 4913   5.902   3.773   4.946
 1338SOL    HW2 4914   5.772   3.679   4.916
 1339SOL     OW 4915   0.406   0.426   6.808
 1339SOL    HW1 4916   0.376   0.359   6.876
 1339SOL    HW2 4917   0.339   0.500   6.801
 1340SOL     OW 4918   5.286   1.920   1.978
 1340SOL    HW1 4919   5.223   1.898   2.053
 1340SOL    HW2 4920   5.269   1.858   1.902
 1341SOL     OW 4921   4.939   6.470   6.471
 1341SOL    HW1 4922   5.036   6.456   6.490
 1341SOL    HW2 4923   4.926   6.559   6.427
 1342SOL     OW 4924   3.061   6.121   1.184
 1342SOL    HW1 4925   3.112   6.155   1.104
 1342SOL    HW2 4926   3.091   6.169   1.266
 1343SOL     OW 4927   5.567   5.536   2.638
 1343SOL    HW1 4928   5.485   5.587   2.613
 1343SOL    HW2 4929   5.605   5.491   2.557
 1344SOL     OW 4930   0.375   6.763   4.705
 1344SOL    HW1 4931   0.291   6.766   4.651
 1344SOL    HW2 4932   0.361   6.707   4.787
 1345SOL     OW 4933   0.402   5.721   2.026
 1345SOL    HW1 4934   0.477   5.787   2.035
 1345SOL    HW2 4935   0.369   5.720   1.931
 1346SOL     OW 4936   2.480   5.115   6.169
 1346SOL    HW1 4937   2.535   5.130   6.086
 1346SOL    HW2 4938   2.492   5.193   6.230
 1347SOL     OW 4939   1.444   0.407   6.770
 1347SOL    HW1 4940   1.477   0.339   6.836
 1347SOL    HW2 4941   1.365   0.370   6.720
 1348SOL     OW 4942   0.232   5.935   5.573
 1348SOL    HW1 4943   0.231   5.909   5.670
 1348SOL    HW2 4944   0.138   5.937   5.539
 1349SOL     OW 4945   5.332   3.635   4.147
 1349SOL    HW1 4946   5.356   3.550   4.100
 1349SOL    HW2 4947   5.233   3.650   4.141
 1350SOL     OW 4948   3.035   3.699   0.483
 1350SOL    HW1 4949   3.016   3.738   0.393
 1350SOL    HW2 4950   2.957   3.717   0.544
 1351SOL     OW 4951   6.925   2.832   5.077
 1351SOL    HW1 4952   6.980   2.852   4.997
 1351SOL    HW2 4953   6.839   2.790   5.049
 1352SOL     OW 4954   7.000   0.000   2.663
 1352SOL    HW1 4955   0.009   0.042   2.579
 1352SOL    HW2 4956   0.043   6.958   2.696
 1353SOL     OW 4957   0.943   1.252   0.944
 1353SOL    HW1 4958   0.936   1.322   1.014
 1353SOL    HW2 4959   0.887   1.173   0.969
 1354SOL     OW 4960   6.088   4.244   2.125
 1354SOL    HW1 4961   6.053   4.296   2.203
 1354SOL    HW2 4962   6.187   4.233   2.134
 1355SOL     OW 4963   6.308   3.532   4.587
 1355SOL    HW1 4964   6.359   3.605   4.543
 1355SOL    HW2 4965   6.369   3.477   4.643
 1356SOL     OW 4966   3.624   3.551   1.484
 1356SOL    HW1 4967   3.588   3.462   1.513
 1356SOL    HW2 4968   3.556   3.622   1.503
 1357SOL     OW 4969   6.714   3.020   5.386
 1357SOL    HW1 4970   6.626   3.065   5.372
 1357SOL    HW2 4971   6.747   3.039   5.479
 1358SOL     OW 4972   1.202   6.526   0.059
 1358SOL    HW1 4973   1.249   6.587   0.123
 1358SOL    HW2 4974   1.262   6.505   7.007
 1359SOL     OW 4975   6.348   4.095   2.001
 1359SOL    HW1 4976   6.370   4.071   1.906
 1359SOL    HW2 4977   6.397   4.179   2.026
 1360SOL     OW 4978   2.759   2.435   6.476
 1360SOL    HW1 4979   2.732   2.524   6.440
 1360SOL    HW2 4980   2.852   2.414   6.446
 1361SOL     OW 4981   6.913   4.709   4.290
 1361SOL    HW1 4982   6.876   4.703   4.383
 1361SOL    HW2 4983   7.008   4.740   4.295
 1362SOL     OW 4984   3.351   2.916   2.925
 1362SOL    HW1 4985   3.376   2.950   3.016
 1362SOL    HW2 4986   3.359   2.817   2.923
 1363SOL     OW 4987   0.436   5.510   5.339
 1363SOL    HW1 4988   0.366   5.445   5.310
 1363SOL    HW2 4989   0.406   5.557   5.422
 1364SOL     OW 4990   4.454   4.325   0.656
 1364SOL    HW1 4991   4.385   4.311   0.727
 1364SOL    HW2 4992   4.505   4.240   0.641
 1365SOL     OW 4993   0.758   3.642   6.994
 1365SOL    HW1 4994   0.757   3.637   6.894
 1365SOL    HW2 4995   0.835   3.590   0.006
 1366SOL     OW 4996   2.077   6.940   4.883
 1366SOL    HW1 4997   2.075   6.843   4.907
 1366SOL    HW2 4998   2.084   6.995   4.966
 1367SOL     OW 4999   2.542   1.037   2.685
 1367SOL    HW1 5000   2.619   0.976   2.699
 1367SOL    HW2 5001   2.506   1.025   2.592
 1368SOL     OW 5002   6.088   6.682   4.784
 1368SOL    HW1 5003   6.111   6.603   4.728
 1368SOL    HW2 5004   6.167   6.708   4.839
 1369SOL     OW 5005   1.036   0.555   3.201
 1369SOL    HW1 5006   0.948   0.582   3.239
 1369SOL    HW2 5007   1.109   0.608   3.244
 1370SOL     OW 5008   2.829   1.035   1.410
 1370SOL    HW1 5009   2.768   1.065   1.336
 1370SOL    HW2 5010   2.778   1.034   1.496
 1371SOL     OW 5011   3.627   0.764   5.983
 1371SOL    HW1 5012   3.532   0.789   5.965
 1371SOL    HW2 5013   3.683   0.784   5.902
 1372SOL     OW 5014   3.265   1.816   2.195
 1372SOL    HW1 5015   3.219   1.852   2.276
 1372SOL    HW2 5016   3.318   1.889   2.152
 1373SOL     OW 5017   0.850   6.371   0.856
 1373SOL    HW1 5018   0.776   6.325   0.905
 1373SOL    HW2 5019   0.905   6.304   0.807
 1374SOL     OW 5020   4.609   2.232   0.521
 1374SOL    HW1 5021   4.616   2.165   0.595
 1374SOL    HW2 5022   4.589   2.322   0.561
 1375SOL     OW 5023   0.668   4.183   5.923
 1375SOL    HW1 5024   0.659   4.190   6.023
 1375SOL    HW2 5025   0.645   4.090   5.894
 1376SOL     OW 5026   4.975   2.326   2.661
 1376SOL    HW1 5027   4.880   2.356   2.663
 1376SOL    HW2 5028   5.000   2.300   2.568
 1377SOL     OW 5029   6.928   5.614   4.738
 1377SOL    HW1 5030   6.909   5.644   4.831
 1377SOL    HW2 5031   6.849   5.563   4.703
 1378SOL     OW 5032   1.413   2.058   1.033
 1378SOL    HW1 5033   1.437   2.112   1.113
 1378SOL    HW2 5034   1.484   2.068   0.964
 1379SOL     OW 5035   3.904   6.401   1.967
 1379SOL    HW1 5036   3.855   6.370   2.048
 1379SOL    HW2 5037   3.922   6.322   1.907
 1380SOL     OW 5038   6.244   6.488   2.248
 1380SOL    HW1 5039   6.307   6.435   2.304
 1380SOL    HW2 5040   6.293   6.525   2.169
 1381SOL     OW 5041   6.003   1.578   1.313
 1381SOL    HW1 5042   5.946   1.557   1.234
 1381SOL    HW2 5043   5.958   1.546   1.396
 1382SOL     OW 5044   5.551   4.537   6.449
 1382SOL    HW1 5045   5.568   4.630   6.481
 1382SOL    HW2 5046   5.551   4.475   6.527
 1383SOL     OW 5047   2.781   0.350   0.589
 1383SOL    HW1 5048   2.688   0.340   0.552
 1383SOL    HW2 5049   2.842   0.383   0.517
 1384SOL     OW 5050   3.377   2.017   3.017
 1384SOL    HW1 5051   3.314   2.032   2.941
 1384SOL    HW2 5052   3.439   1.942   2.993
 1385SOL     OW 5053   6.644   3.275   2.536
 1385SOL    HW1 5054   6.696   3.218   2.599
 1385SOL    HW2 5055   6.561   3.307   2.582
 1386SOL     OW 5056   2.093   2.477   4.514
 1386SOL    HW1 5057   2.063   2.548   4.578
 1386SOL    HW2 5058   2.163   2.421   4.557
 1387SOL     OW 5059   2.421   0.390   5.014
 1387SOL    HW1 5060   2.417   0.431   4.923
 1387SOL    HW2 5061   2.517   0.375   5.040
 1388SOL     OW 5062   6.399   0.899   4.478
 1388SOL    HW1 5063   6.438   0.973   4.531
 1388SOL    HW2 5064   6.373   0.824   4.538
 1389SOL     OW 5065   6.303   0.469   4.539
 1389SOL    HW1 5066   6.389   0.420   4.557
 1389SOL    HW2 5067   6.231   0.403   4.520
 1390SOL     OW 5068   4.587   2.580   2.690
 1390SOL    HW1 5069   4.677   2.619   2.670
 1390SOL    HW2 5070   4.580   2.563   2.789
 1391SOL     OW 5071   5.381   0.856   4.932
 1391SOL    HW1 5072   5.287   0.828   4.948
 1391SOL    HW2 5073   5.426   0.875   5.019
 1392SOL     OW 5074   4.530   5.469   6.286
 1392SOL    HW1 5075   4.536   5.448   6.189
 1392SOL    HW2 5076   4.560   5.563   6.302
 1393SOL     OW 5077   6.084   0.369   6.883
 1393SOL    HW1 5078   6.050   0.382   6.790
 1393SOL    HW2 5079   6.076   0.454   6.934
 1394SOL     OW 5080   4.074   6.813   3.894
 1394SOL    HW1 5081   4.039   6.724   3.923
 1394SOL    HW2 5082   4.139   6.800   3.820
 1395SOL     OW 5083   1.251   5.294   1.932
 1395SOL    HW1 5084   1.333   5.296   1.989
 1395SOL    HW2 5085   1.273   5.256   1.843
 1396SOL     OW 5086   1.939   1.712   3.887
 1396SOL    HW1 5087   1.917   1.632   3.832
 1396SOL    HW2 5088   2.027   1.750   3.858
 1397SOL     OW 5089   0.144   5.309   4.894
 1397SOL    HW1 5090   0.056   5.268   4.921
 1397SOL    HW2 5091   0.142   5.330   4.797
 1398SOL     OW 5092   0.554   0.176   0.527
 1398SOL    HW1 5093   0.533   0.111   0.600
 1398SOL    HW2 5094   0.493   0.255   0.534
 1399SOL     OW 5095   4.422   0.257   0.623
 1399SOL    HW1 5096   4.486   0.308   0.680
 1399SOL    HW2 5097   4.458   0.251   0.529
 1400SOL     OW 5098   6.754   0.185   4.780
 1400SOL    HW1 5099   6.813   0.182   4.861
 1400SOL    HW2 5100   6.808   0.213   4.700
 1401SOL     OW 5101   5.736   0.005   3.606
 1401SOL    HW1 5102   5.662   0.026   3.670
 1401SOL    HW2 5103   5.815   0.063   3.626
 1402SOL     OW 5104   6.934   4.843   2.129
 1402SOL    HW1 5105   6.880   4.900   2.189
 1402SOL    HW2 5106   6.986   4.900   2.066
 1403SOL     OW 5107   3.383   3.297   6.572
 1403SOL    HW1 5108   3.292   3.274   6.539
 1403SOL    HW2 5109   3.375   3.352   6.655
 1404SOL     OW 5110   4.281   6.750   0.352
 1404SOL    HW1 5111   4.295   6.807   0.432
 1404SOL    HW2 5112   4.202   6.691   0.367
 1405SOL     OW 5113   1.362   3.591   1.349
 1405SOL    HW1 5114   1.369   3.639   1.436
 1405SOL    HW2 5115   1.276   3.616   1.304
 1406SOL     OW 5116   2.376   3.226   0.696
 1406SOL    HW1 5117   2.279   3.217   0.676
 1406SOL    HW2 5118   2.390   3.231   0.795
 1407SOL     OW 5119   0.331   3.469   1.406
 1407SOL    HW1 5120   0.408   3.500   1.350
 1407SOL    HW2 5121   0.293   3.385   1.368
 1408SOL     OW 5122   5.901   6.589   1.194
 1408SOL    HW1 5123   5.979   6.628   1.244
 1408SOL    HW2 5124   5.816   6.631   1.226
 1409SOL     OW 5125   6.571   1.746   5.996
 1409SOL    HW1 5126   6.576   1.647   6.009
 1409SOL    HW2 5127   6.607   1.769   5.905
 1410SOL     OW 5128   4.117   0.794   6.083
 1410SOL    HW1 5129   4.128   0.793   5.984
 1410SOL    HW2 5130   4.207   0.797   6.127
 1411SOL     OW 5131   3.480   5.440   0.146
 1411SOL    HW1 5132   3.494   5.501   0.068
 1411SOL    HW2 5133   3.409   5.479   0.205
 1412SOL     OW 5134   2.129   3.214   0.031
 1412SOL    HW1 5135   2.130   3.122   7.017
 1412SOL    HW2 5136   2.222   3.251   0.030
 1413SOL     OW 5137   1.161   1.401   4.736
 1413SOL    HW1 5138   1.165   1.482   4.677
 1413SOL    HW2 5139   1.066   1.367   4.739
 1414SOL     OW 5140   0.872   3.983   2.635
 1414SOL    HW1 5141   0.959   3.983   2.685
 1414SOL    HW2 5142   0.860   4.072   2.589
 1415SOL     OW 5143   2.097   1.822   4.529
 1415SOL    HW1 5144   2.144   1.905   4.497
 1415SOL    HW2 5145   2.116   1.747   4.466
 1416SOL     OW 5146   4.543   0.887   4.500
 1416SOL    HW1 5147   4.625   0.925   4.542
 1416SOL    HW2 5148   4.465   0.899   4.561
 1417SOL     OW 5149   3.549   3.449   5.713
 1417SOL    HW1 5150   3.470   3.419   5.659
 1417SOL    HW2 5151   3.585   3.373   5.766
 1418SOL     OW 5152   3.968   4.385   5.783
 1418SOL    HW1 5153   3.900   4.436   5.729
 1418SOL    HW2 5154   3.998   4.305   5.731
 1419SOL     OW 5155   1.694   5.214   2.489
 1419SOL    HW1 5156   1.697   5.140   2.556
 1419SOL    HW2 5157   1.676   5.177   2.398
 1420SOL     OW 5158   2.756   6.632   2.988
 1420SOL    HW1 5159   2.750   6.602   2.893
 1420SOL    HW2 5160   2.849   6.662   3.008
 1421SOL     OW 5161   1.244   4.738   5.615
 1421SOL    HW1 5162   1.242   4.784   5.525
 1421SOL    HW2 5163   1.209   4.800   5.685
 1422SOL     OW 5164   2.296   3.347   6.046
 1422SOL    HW1 5165   2.385   3.326   6.085
 1422SOL    HW2 5166   2.301   3.433   5.995
 1423SOL     OW 5167   4.558   0.655   4.665
 1423SOL    HW1 5168   4.531   0.587   4.596
 1423SOL    HW2 5169   4.588   0.739   4.619
 1424SOL     OW 5170   6.123   3.079   0.264
 1424SOL    HW1 5171   6.207   3.133   0.264
 1424SOL    HW2 5172   6.129   3.008   0.194
 1425SOL     OW 5173   4.939   6.843   3.583
 1425SOL    HW1 5174   4.915   6.939   3.598
 1425SOL    HW2 5175   5.009   6.837   3.512
 1426SOL     OW 5176   3.180   2.059   0.079
 1426SOL    HW1 5177   3.111   2.130   0.063
 1426SOL    HW2 5178   3.239   2.086   0.155
 1427SOL     OW 5179   1.823   0.339   3.952
 1427SOL    HW1 5180   1.789   0.246   3.941
 1427SOL    HW2 5181   1.783   0.380   4.034
 1428SOL     OW 5182   0.910   3.096   4.041
 1428SOL    HW1 5183   0.844   3.143   3.983
 1428SOL    HW2 5184   0.913   2.999   4.018
 1429SOL     OW 5185   6.309   1.101   1.615
 1429SOL    HW1 5186   6.345   1.013   1.647
 1429SOL    HW2 5187   6.323   1.108   1.516
 1430SOL     OW 5188   2.157   3.583   4.286
 1430SOL    HW1 5189   2.062   3.610   4.271
 1430SOL    HW2 5190   2.168   3.546   4.378
 1431SOL     OW 5191   2.743   1.146   6.662
 1431SOL    HW1 5192   2.708   1.229   6.618
 1431SOL    HW2 5193   2.738   1.069   6.598
 1432SOL     OW 5194   3.325   0.849   2.064
 1432SOL    HW1 5195   3.229   0.868   2.083
 1432SOL    HW2 5196   3.380   0.930   2.087
 1433SOL     OW 5197   2.591   0.272   3.887
 1433SOL    HW1 5198   2.544   0.277   3.976
 1433SOL    HW2 5199   2.523   0.275   3.814
 1434SOL     OW 5200   6.987   3.168   0.672
 1434SOL    HW1 5201   0.030   3.199   0.606
 1434SOL    HW2 5202   6.898   3.208   0.649
 1435SOL     OW 5203   1.950   6.884   4.162
 1435SOL    HW1 5204   1.976   6.853   4.254
 1435SOL    HW2 5205   1.988   6.821   4.094
 1436SOL     OW 5206   5.253   1.334   6.933
 1436SOL    HW1 5207   5.252   1.430   6.903
 1436SOL    HW2 5208   5.168   1.290   6.907
 1437SOL     OW 5209   3.905   0.304   6.426
 1437SOL    HW1 5210   3.832   0.330   6.362
 1437SOL    HW2 5211   3.865   0.280   6.514
 1438SOL     OW 5212   2.727   0.602   1.937
 1438SOL    HW1 5213   2.805   0.539   1.938
 1438SOL    HW2 5214   2.719   0.646   2.026
 1439SOL     OW 5215   0.126   4.457   7.019
 1439SOL    HW1 5216   0.222   4.434   0.006
 1439SOL    HW2 5217   0.099   4.524   0.064
 1440SOL     OW 5218   3.533   3.524   2.839
 1440SOL    HW1 5219   3.532   3.448   2.774
 1440SOL    HW2 5220   3.603   3.507   2.908
 1441SOL     OW 5221   6.554   3.152   3.748
 1441SOL    HW1 5222   6.575   3.054   3.751
 1441SOL    HW2 5223   6.572   3.193   3.838
 1442SOL     OW 5224   5.934   6.231   6.646
 1442SOL    HW1 5225   6.002   6.302   6.667
 1442SOL    HW2 5226   5.914   6.178   6.728
 1443SOL     OW 5227   1.168   2.986   3.808
 1443SOL    HW1 5228   1.074   2.953   3.810
 1443SOL    HW2 5229   1.202   2.985   3.714
 1444SOL     OW 5230   5.171   1.104   4.266
 1444SOL    HW1 5231   5.152   1.184   4.322
 1444SOL    HW2 5232   5.085   1.059   4.241
 1445SOL     OW 5233   5.912   2.392   0.998
 1445SOL    HW1 5234   5.873   2.355   1.083
 1445SOL    HW2 5235   5.939   2.317   0.938
 1446SOL     OW 5236   4.661   0.817   1.247
 1446SOL    HW1 5237   4.679   0.811   1.149
 1446SOL    HW2 5238   4.579   0.873   1.262
 1447SOL     OW 5239   5.562   1.164   5.531
 1447SOL    HW1 5240   5.632   1.207   5.474
 1447SOL    HW2 5241   5.540   1.074   5.494
 1448SOL     OW 5242   5.227   0.189   6.844
 1448SOL    HW1 5243   5.304   0.242   6.806
 1448SOL    HW2 5244   5.190   0.238   6.923
 1449SOL     OW 5245   4.779   5.631   1.053
 1449SOL    HW1 5246   4.762   5.728   1.033
 1449SOL    HW2 5247   4.694   5.588   1.085
 1450SOL     OW 5248   5.540   2.578   4.012
 1450SOL    HW1 5249   5.484   2.497   3.993
 1450SOL    HW2 5250   5.633   2.563   3.979
 1451SOL     OW 5251   1.546   6.872   2.656
 1451SOL    HW1 5252   1.598   6.794   2.621
 1451SOL    HW2 5253   1.563   6.883   2.754
 1452SOL     OW 5254   4.594   0.731   5.063
 1452SOL    HW1 5255   4.586   0.715   5.161
 1452SOL    HW2 5256   4.640   0.818   5.046
 1453SOL     OW 5257   4.656   4.659   4.100
 1453SOL    HW1 5258   4.734   4.598   4.087
 1453SOL    HW2 5259   4.687   4.743   4.145
 1454SOL     OW 5260   4.283   3.901   1.338
 1454SOL    HW1 5261   4.359   3.837   1.325
 1454SOL    HW2 5262   4.319   3.990   1.367
 1455SOL     OW 5263   1.902   2.657   1.476
 1455SOL    HW1 5264   1.936   2.588   1.540
 1455SOL    HW2 5265   1.977   2.691   1.420
 1456SOL     OW 5266   6.714   5.536   4.112
 1456SOL    HW1 5267   6.718   5.620   4.057
 1456SOL    HW2 5268   6.800   5.526   4.163
 1457SOL     OW 5269   2.016   0.019   3.143
 1457SOL    HW1 5270   2.068   0.042   3.061
 1457SOL    HW2 5271   2.055   0.066   3.222
 1458SOL     OW 5272   6.660   5.456   6.851
 1458SOL    HW1 5273   6.627   5.439   6.758
 1458SOL    HW2 5274   6.752   5.494   6.847
 1459SOL     OW 5275   2.446   0.039   0.679
 1459SOL    HW1 5276   2.446   0.110   0.608
 1459SOL    HW2 5277   2.380   6.992   0.654
 1460SOL     OW 5278   0.644   6.395   0.087
 1460SOL    HW1 5279   0.590   6.419   0.006
 1460SOL    HW2 5280   0.715   6.463   0.102
 1461SOL     OW 5281   5.069   4.981   1.599
 1461SOL    HW1 5282   5.108   4.899   1.558
 1461SOL    HW2 5283   4.972   4.989   1.573
 1462SOL     OW 5284   5.050   0.578   6.037
 1462SOL    HW1 5285   5.048   0.605   5.941
 1462SOL    HW2 5286   5.144   0.562   6.065
 1463SOL     OW 5287   0.551   0.955   5.220
 1463SOL    HW1 5288   0.481   0.903   5.171
 1463SOL    HW2 5289   0.632   0.964   5.162
 1464SOL     OW 5290   0.176   6.479   1.262
 1464SOL    HW1 5291   0.231   6.517   1.188
 1464SOL    HW2 5292   0.233   6.469   1.344
 1465SOL     OW 5293   0.460   6.985   4.544
 1465SOL    HW1 5294   0.431   6.902   4.593
 1465SOL    HW2 5295   0.459   6.968   4.446
 1466SOL     OW 5296   5.743   5.359   3.957
 1466SOL    HW1 5297   5.648   5.333   3.939
 1466SOL    HW2 5298   5.798   5.276   3.972
 1467SOL     OW 5299   6.926   3.547   2.973
 1467SOL    HW1 5300   6.851   3.502   3.023
 1467SOL    HW2 5301   6.942   3.498   2.887
 1468SOL     OW 5302   5.342   6.340   2.568
 1468SOL    HW1 5303   5.371   6.265   2.626
 1468SOL    HW2 5304   5.243   6.355   2.579
 1469SOL     OW 5305   0.289   0.826   2.855
 1469SOL    HW1 5306   0.317   0.897   2.919
 1469SOL    HW2 5307   0.293   0.737   2.900
 1470SOL     OW 5308   0.288   0.902   3.357
 1470SOL    HW1 5309   0.373   0.853   3.339
 1470SOL    HW2 5310   0.305   0.976   3.421
 1471SOL     OW 5311   6.645   0.265   6.957
 1471SOL    HW1 5312   6.645   0.180   6.905
 1471SOL    HW2 5313   6.592   0.334   6.908
 1472SOL     OW 5314   4.483   6.989   4.974
 1472SOL    HW1 5315   4.478   7.010   5.072
 1472SOL    HW2 5316   4.523   0.043   4.926
 1473SOL     OW 5317   5.845   4.349   4.083
 1473SOL    HW1 5318   5.849   4.329   3.985
 1473SOL    HW2 5319   5.835   4.263   4.134
 1474SOL     OW 5320   4.879   5.155   3.222
 1474SOL    HW1 5321   4.788   5.179   3.256
 1474SOL    HW2 5322   4.948   5.203   3.277
 1475SOL     OW 5323   6.939   0.810   3.031
 1475SOL    HW1 5324   6.861   0.860   2.992
 1475SOL    HW2 5325   7.022   0.863   3.019
 1476SOL     OW 5326   6.381   2.267   1.499
 1476SOL    HW1 5327   6.464   2.221   1.469
 1476SOL    HW2 5328   6.402   2.327   1.575
 1477SOL     OW 5329   3.157   6.330   2.984
 1477SOL    HW1 5330   3.206   6.416   2.994
 1477SOL    HW2 5331   3.106   6.331   2.898
 1478SOL     OW 5332   6.653   4.481   1.960
 1478SOL    HW1 5333   6.669   4.566   2.010
 1478SOL    HW2 5334   6.592   4.499   1.883
 1479SOL     OW 5335   1.804   5.622   0.407
 1479SOL    HW1 5336   1.720   5.591   0.452
 1479SOL    HW2 5337   1.870   5.546   0.404
 1480SOL     OW 5338   3.004   0.769   6.962
 1480SOL    HW1 5339   2.952   0.730   0.013
 1480SOL    HW2 5340   3.027   0.864   6.984
 1481SOL     OW 5341   6.759   2.400   6.313
 1481SOL    HW1 5342   6.837   2.340   6.294
 1481SOL    HW2 5343   6.787   2.495   6.305
 1482SOL     OW 5344   5.686   0.458   6.468
 1482SOL    HW1 5345   5.728   0.372   6.440
 1482SOL    HW2 5346   5.689   0.523   6.392
 1483SOL     OW 5347   6.155   2.487   6.411
 1483SOL    HW1 5348   6.133   2.414   6.346
 1483SOL    HW2 5349   6.115   2.573   6.381
 1484SOL     OW 5350   6.121   6.243   2.776
 1484SOL    HW1 5351   6.037   6.247   2.721
 1484SOL    HW2 5352   6.164   6.333   2.776
 1485SOL     OW 5353   5.914   3.087   4.072
 1485SOL    HW1 5354   5.924   3.024   3.994
 1485SOL    HW2 5355   5.817   3.094   4.096
 1486SOL     OW 5356   4.717   2.326   2.540
 1486SOL    HW1 5357   4.730   2.294   2.446
 1486SOL    HW2 5358   4.679   2.419   2.539
 1487SOL     OW 5359   6.447   1.252   5.460
 1487SOL    HW1 5360   6.428   1.167   5.412
 1487SOL    HW2 5361   6.392   1.326   5.422
 1488SOL     OW 5362   3.796   1.844   2.817
 1488SOL    HW1 5363   3.843   1.812   2.734
 1488SOL    HW2 5364   3.859   1.841   2.894
 1489SOL     OW 5365   3.712   5.250   4.691
 1489SOL    HW1 5366   3.709   5.156   4.726
 1489SOL    HW2 5367   3.806   5.284   4.697
 1490SOL     OW 5368   2.020   2.702   0.558
 1490SOL    HW1 5369   2.074   2.773   0.513
 1490SOL    HW2 5370   2.046   2.696   0.655
 1491SOL     OW 5371   0.045   2.531   5.111
 1491SOL    HW1 5372   0.043   2.556   5.014
 1491SOL    HW2 5373   6.979   2.498   5.138
 1492SOL     OW 5374   5.061   2.803   2.632
 1492SOL    HW1 5375   5.113   2.758   2.561
 1492SOL    HW2 5376   4.997   2.738   2.674
 1493SOL     OW 5377   5.345   0.416   4.954
 1493SOL    HW1 5378   5.319   0.445   5.046
 1493SOL    HW2 5379   5.270   0.435   4.891
 1494SOL     OW 5380   4.961   2.888   4.961
 1494SOL    HW1 5381   4.920   2.836   5.036
 1494SOL    HW2 5382   5.055   2.857   4.945
 1495SOL     OW 5383   1.879   3.066   2.980
 1495SOL    HW1 5384   1.863   3.148   3.036
 1495SOL    HW2 5385   1.929   2.998   3.034
 1496SOL     OW 5386   0.838   0.951   2.942
 1496SOL    HW1 5387   0.846   0.851   2.940
 1496SOL    HW2 5388   0.825   0.986   2.850
 1497SOL     OW 5389   5.041   4.714   5.319
 1497SOL    HW1 5390   5.112   4.702   5.389
 1497SOL    HW2 5391   5.020   4.625   5.278
 1498SOL     OW 5392   2.415   6.407   0.592
 1498SOL    HW1 5393   2.505   6.446   0.575
 1498SOL    HW2 5394   2.396   6.409   0.690
 1499SOL     OW 5395   0.601   4.708   5.314
 1499SOL    HW1 5396   0.667   4.648   5.360
 1499SOL    HW2 5397   0.633   4.728   5.222
 1500SOL     OW 5398   4.561   6.565   5.701
 1500SOL    HW1 5399   4.481   6.557   5.760
 1500SOL    HW2 5400   4.615   6.645   5.729
 1501SOL     OW 5401   4.295   6.885   6.447
 1501SOL    HW1 5402   4.284   6.984   6.458
 1501SOL    HW2 5403   4.219   6.838   6.492
 1502SOL     OW 5404   6.493   5.994   0.338
 1502SOL    HW1 5405   6.555   6.051   0.284
 1502SOL    HW2 5406   6.499   6.021   0.434
 1503SOL     OW 5407   3.131   3.490   5.792
 1503SOL    HW1 5408   3.091   3.416   5.846
 1503SOL    HW2 5409   3.228   3.472   5.779
 1504SOL     OW 5410   2.755   5.912   4.413
 1504SOL    HW1 5411   2.841   5.894   4.366
 1504SOL    HW2 5412   2.725   6.005   4.391
 1505SOL     OW 5413   4.519   5.491   1.145
 1505SOL    HW1 5414   4.553   5.410   1.098
 1505SOL    HW2 5415   4.517   5.474   1.244
 1506SOL     OW 5416   0.703   6.356   3.049
 1506SOL    HW1 5417   0.744   6.333   3.137
 1506SOL    HW2 5418   0.666   6.449   3.053
 1507SOL     OW 5419   1.739   1.197   6.074
 1507SOL    HW1 5420   1.657   1.141   6.084
 1507SOL    HW2 5421   1.820   1.137   6.070
 1508SOL     OW 5422   4.709   0.125   0.333
 1508SOL    HW1 5423   4.679   0.219   0.352
 1508SOL    HW2 5424   4.631   0.070   0.303
 1509SOL     OW 5425   5.308   1.836   0.103
 1509SOL    HW1 5426   5.223   1.826   0.051
 1509SOL    HW2 5427   5.377   1.882   0.047
 1510SOL     OW 5428   0.256   1.473   3.997
 1510SOL    HW1 5429   0.308   1.532   3.936
 1510SOL    HW2 5430   0.187   1.423   3.944
 1511SOL     OW 5431   2.362   2.656   0.795
 1511SOL    HW1 5432   2.371   2.556   0.803
 1511SOL    HW2 5433   2.441   2.692   0.746
 1512SOL     OW 5434   6.168   0.710   2.553
 1512SOL    HW1 5435   6.093   0.647   2.571
 1512SOL    HW2 5436   6.231   0.710   2.631
 1513SOL     OW 5437   3.786   1.458   2.178
 1513SOL    HW1 5438   3.755   1.374   2.132
 1513SOL    HW2 5439   3.730   1.535   2.147
 1514SOL     OW 5440   5.336   1.665   5.395
 1514SOL    HW1 5441   5.387   1.592   5.442
 1514SOL    HW2 5442   5.400   1.734   5.362
 1515SOL     OW 5443   6.482   4.820   4.523
 1515SOL    HW1 5444   6.501   4.725   4.548
 1515SOL    HW2 5445   6.475   4.827   4.424
 1516SOL     OW 5446   0.814   1.693   1.068
 1516SOL    HW1 5447   0.813   1.704   1.168
 1516SOL    HW2 5448   0.848   1.602   1.045
 1517SOL     OW 5449   3.811   5.343   3.292
 1517SOL    HW1 5450   3.740   5.275   3.277
 1517SOL    HW2 5451   3.891   5.321   3.237
 1518SOL     OW 5452   1.098   5.054   1.188
 1518SOL    HW1 5453   1.056   5.108   1.115
 1518SOL    HW2 5454   1.034   5.047   1.265
 1519SOL     OW 5455   6.853   4.726   0.956
 1519SOL    HW1 5456   6.807   4.789   0.894
 1519SOL    HW2 5457   6.952   4.735   0.946
 1520SOL     OW 5458   1.336   3.397   3.435
 1520SOL    HW1 5459   1.349   3.491   3.405
 1520SOL    HW2 5460   1.382   3.383   3.523
 1521SOL     OW 5461   2.193   4.321   5.871
 1521SOL    HW1 5462   2.188   4.308   5.772
 1521SOL    HW2 5463   2.114   4.277   5.914
 1522SOL     OW 5464   6.543   2.387   6.729
 1522SOL    HW1 5465   6.522   2.307   6.673
 1522SOL    HW2 5466   6.547   2.360   6.825
 1523SOL     OW 5467   6.469   1.554   0.774
 1523SOL    HW1 5468   6.390   1.523   0.721
 1523SOL    HW2 5469   6.529   1.607   0.715
 1524SOL     OW 5470   6.725   1.061   2.705
 1524SOL    HW1 5471   6.669   1.041   2.786
 1524SOL    HW2 5472   6.677   1.126   2.647
 1525SOL     OW 5473   4.379   1.865   6.111
 1525SOL    HW1 5474   4.468   1.840   6.073
 1525SOL    HW2 5475   4.315   1.885   6.037
 1526SOL     OW 5476   0.026   1.990   1.784
 1526SOL    HW1 5477   0.056   1.949   1.870
 1526SOL    HW2 5478   6.973   1.939   1.748
 1527SOL     OW 5479   3.058   1.712   5.564
 1527SOL    HW1 5480   2.979   1.667   5.605
 1527SOL    HW2 5481   3.059   1.808   5.590
 1528SOL     OW 5482   5.088   6.314   3.507
 1528SOL    HW1 5483   5.125   6.229   3.542
 1528SOL    HW2 5484   4.995   6.299   3.474
 1529SOL     OW 5485   3.176   0.273   5.555
 1529SOL    HW1 5486   3.169   0.180   5.590
 1529SOL    HW2 5487   3.112   0.332   5.605
 1530SOL     OW 5488   3.494   6.735   1.440
 1530SOL    HW1 5489   3.502   6.767   1.345
 1530SOL    HW2 5490   3.559   6.661   1.456
 1531SOL     OW 5491   6.708   6.981   4.610
 1531SOL    HW1 5492   6.752   0.018   4.675
 1531SOL    HW2 5493   6.689   0.006   4.525
 1532SOL     OW 5494   3.036   1.925   4.841
 1532SOL    HW1 5495   2.975   2.002   4.821
 1532SOL    HW2 5496   3.043   1.914   4.940
 1533SOL     OW 5497   5.714   3.083   6.868
 1533SOL    HW1 5498   5.670   3.163   6.827
 1533SOL    HW2 5499   5.800   3.110   6.911
 1534SOL     OW 5500   0.554   6.568   1.402
 1534SOL    HW1 5501   0.577   6.510   1.324
 1534SOL    HW2 5502   0.631   6.571   1.465
 1535SOL     OW 5503   5.127   5.240   4.387
 1535SOL    HW1 5504   5.079   5.328   4.385
 1535SOL    HW2 5505   5.211   5.247   4.332
 1536SOL     OW 5506   2.663   5.833   3.979
 1536SOL    HW1 5507   2.653   5.922   4.023
 1536SOL    HW2 5508   2.760   5.814   3.964
 1537SOL     OW 5509   2.314   5.241   4.647
 1537SOL    HW1 5510   2.256   5.243   4.728
 1537SOL    HW2 5511   2.403   5.282   4.668
 1538SOL     OW 5512   2.308   5.233   6.408
 1538SOL    HW1 5513   2.239   5.166   6.379
 1538SOL    HW2 5514   2.390   5.185   6.438
 1539SOL     OW 5515   2.955   4.968   1.681
 1539SOL    HW1 5516   3.036   4.942   1.629
 1539SOL    HW2 5517   2.918   4.888   1.729
 1540SOL     OW 5518   0.094   6.617   4.899
 1540SOL    HW1 5519   0.049   6.697   4.859
 1540SOL    HW2 5520   0.193   6.626   4.888
 1541SOL     OW 5521   5.346   2.417   1.355
 1541SOL    HW1 5522   5.385   2.499   1.396
 1541SOL    HW2 5523   5.270   2.385   1.410
 1542SOL     OW 5524   0.877   6.620   0.965
 1542SOL    HW1 5525   0.911   6.682   0.894
 1542SOL    HW2 5526   0.874   6.527   0.929
 1543SOL     OW 5527   3.042   3.940   4.355
 1543SOL    HW1 5528   3.090   3.980   4.433
 1543SOL    HW2 5529   3.087   3.967   4.270
 1544SOL     OW 5530   3.576   3.972   2.980
 1544SOL    HW1 5531   3.676   3.963   2.975
 1544SOL    HW2 5532   3.552   4.049   3.038
 1545SOL     OW 5533   6.034   0.735   4.781
 1545SOL    HW1 5534   5.985   0.794   4.718
 1545SOL    HW2 5535   6.108   0.786   4.825
 1546SOL     OW 5536   0.567   6.557   6.008
 1546SOL    HW1 5537   0.500   6.594   6.073
 1546SOL    HW2 5538   0.543   6.463   5.985
 1547SOL     OW 5539   3.728   5.859   0.095
 1547SOL    HW1 5540   3.778   5.924   0.152
 1547SOL    HW2 5541   3.757   5.766   0.118
 1548SOL     OW 5542   5.758   4.237   4.484
 1548SOL    HW1 5543   5.739   4.200   4.575
 1548SOL    HW2 5544   5.796   4.329   4.492
 1549SOL     OW 5545   6.893   1.531   1.709
 1549SOL    HW1 5546   6.900   1.592   1.630
 1549SOL    HW2 5547   6.828   1.569   1.775
 1550SOL     OW 5548   2.683   5.505   4.471
 1550SOL    HW1 5549   2.749   5.446   4.425
 1550SOL    HW2 5550   2.629   5.554   4.403
 1551SOL     OW 5551   1.370   3.175   0.631
 1551SOL    HW1 5552   1.343   3.088   0.672
 1551SOL    HW2 5553   1.339   3.251   0.689
 1552SOL     OW 5554   0.647   0.463   0.638
 1552SOL    HW1 5555   0.698   0.547   0.619
 1552SOL    HW2 5556   0.710   0.392   0.667
 1553SOL     OW 5557   5.850   1.221   6.345
 1553SOL    HW1 5558   5.858   1.307   6.395
 1553SOL    HW2 5559   5.755   1.190   6.345
 1554SOL     OW 5560   3.325   1.707   1.030
 1554SOL    HW1 5561   3.339   1.609   1.044
 1554SOL    HW2 5562   3.334   1.729   0.933
 1555SOL     OW 5563   4.622   1.111   5.594
 1555SOL    HW1 5564   4.548   1.046   5.574
 1555SOL    HW2 5565   4.582   1.198   5.624
 1556SOL     OW 5566   3.766   2.004   0.529
 1556SOL    HW1 5567   3.821   2.069   0.477
 1556SOL    HW2 5568   3.669   2.023   0.514
 1557SOL     OW 5569   1.833   2.944   0.327
 1557SOL    HW1 5570   1.760   2.931   0.393
 1557SOL    HW2 5571   1.920   2.915   0.367
 1558SOL     OW 5572   5.499   2.804   6.339
 1558SOL    HW1 5573   5.452   2.717   6.351
 1558SOL    HW2 5574   5.517   2.819   6.241
 1559SOL     OW 5575   2.371   5.144   3.739
 1559SOL    HW1 5576   2.293   5.176   3.793
 1559SOL    HW2 5577   2.441   5.215   3.737
 1560SOL     OW 5578   3.863   1.753   0.995
 1560SOL    HW1 5579   3.921   1.796   1.064
 1560SOL    HW2 5580   3.919   1.693   0.937
 1561SOL     OW 5581   6.195   6.090   1.009
 1561SOL    HW1 5582   6.283   6.086   1.056
 1561SOL    HW2 5583   6.121   6.073   1.075
 1562SOL     OW 5584   3.660   6.549   2.152
 1562SOL    HW1 5585   3.695   6.561   2.059
 1562SOL    HW2 5586   3.575   6.496   2.149
 1563SOL     OW 5587   3.536   2.062   4.451
 1563SOL    HW1 5588   3.577   2.124   4.519
 1563SOL    HW2 5589   3.608   2.003   4.413
 1564SOL     OW 5590   1.292   2.326   3.451
 1564SOL    HW1 5591   1.364   2.264   3.484
 1564SOL    HW2 5592   1.210   2.314   3.506
 1565SOL     OW 5593   3.768   1.409   4.252
 1565SOL    HW1 5594   3.833   1.424   4.326
 1565SOL    HW2 5595   3.747   1.496   4.208
 1566SOL     OW 5596   4.800   4.876   3.333
 1566SOL    HW1 5597   4.790   4.939   3.257
 1566SOL    HW2 5598   4.894   4.842   3.337
 1567SOL     OW 5599   5.280   0.606   4.664
 1567SOL    HW1 5600   5.218   0.595   4.742
 1567SOL    HW2 5601   5.362   0.551   4.679
 1568SOL     OW 5602   2.568   5.069   1.809
 1568SOL    HW1 5603   2.601   5.081   1.903
 1568SOL    HW2 5604   2.643   5.086   1.745
 1569SOL     OW 5605   3.246   0.260   2.932
 1569SOL    HW1 5606   3.220   0.324   3.005
 1569SOL    HW2 5607   3.168   0.247   2.871
 1570SOL     OW 5608   3.228   5.916   6.098
 1570SOL    HW1 5609   3.215   5.894   6.195
 1570SOL    HW2 5610   3.315   5.877   6.067
 1571SOL     OW 5611   0.463   2.409   4.238
 1571SOL    HW1 5612   0.439   2.494   4.285
 1571SOL    HW2 5613   0.561   2.408   4.219
 1572SOL     OW 5614   2.323   4.998   2.105
 1572SOL    HW1 5615   2.392   5.060   2.141
 1572SOL    HW2 5616   2.366   4.930   2.046
 1573SOL     OW 5617   5.847   6.043   0.472
 1573SOL    HW1 5618   5.848   5.960   0.528
 1573SOL    HW2 5619   5.888   6.022   0.382
 1574SOL     OW 5620   6.569   3.635   3.661
 1574SOL    HW1 5621   6.486   3.691   3.668
 1574SOL    HW2 5622   6.576   3.596   3.570
 1575SOL     OW 5623   6.857   1.716   0.242
 1575SOL    HW1 5624   6.791   1.767   0.188
 1575SOL    HW2 5625   6.848   1.740   0.339
 1576SOL     OW 5626   0.865   0.507   1.940
 1576SOL    HW1 5627   0.871   0.528   2.038
 1576SOL    HW2 5628   0.898   0.586   1.888
 1577SOL     OW 5629   3.926   5.317   5.644
 1577SOL    HW1 5630   4.021   5.330   5.672
 1577SOL    HW2 5631   3.878   5.265   5.715
 1578SOL     OW 5632   5.022   1.332   1.299
 1578SOL    HW1 5633   5.101   1.306   1.354
 1578SOL    HW2 5634   4.939   1.328   1.354
 1579SOL     OW 5635   1.863   2.956   1.062
 1579SOL    HW1 5636   1.930   2.936   1.133
 1579SOL    HW2 5637   1.911   2.968   0.974
 1580SOL     OW 5638   3.305   3.777   2.628
 1580SOL    HW1 5639   3.227   3.752   2.571
 1580SOL    HW2 5640   3.277   3.777   2.724
 1581SOL     OW 5641   6.131   4.231   6.255
 1581SOL    HW1 5642   6.167   4.308   6.202
 1581SOL    HW2 5643   6.096   4.264   6.343
 1582SOL     OW 5644   4.547   6.437   5.399
 1582SOL    HW1 5645   4.606   6.468   5.324
 1582SOL    HW2 5646   4.451   6.454   5.376
 1583SOL     OW 5647   1.296   5.371   5.155
 1583SOL    HW1 5648   1.224   5.434   5.126
 1583SOL    HW2 5649   1.353   5.347   5.077
 1584SOL     OW 5650   0.173   4.912   0.632
 1584SOL    HW1 5651   0.139   4.887   0.541
 1584SOL    HW2 5652   0.271   4.930   0.627
 1585SOL     OW 5653   3.805   6.501   3.229
 1585SOL    HW1 5654   3.766   6.468   3.143
 1585SOL    HW2 5655   3.791   6.433   3.300
 1586SOL     OW 5656   3.306   5.316   3.581
 1586SOL    HW1 5657   3.307   5.220   3.553
 1586SOL    HW2 5658   3.361   5.369   3.518
 1587SOL     OW 5659   2.695   6.001   6.247
 1587SOL    HW1 5660   2.716   6.015   6.343
 1587SOL    HW2 5661   2.602   5.963   6.239
 1588SOL     OW 5662   6.135   1.549   3.633
 1588SOL    HW1 5663   6.037   1.561   3.650
 1588SOL    HW2 5664   6.151   1.460   3.590
 1589SOL     OW 5665   5.877   4.462   4.327
 1589SOL    HW1 5666   5.880   4.382   4.266
 1589SOL    HW2 5667   5.970   4.494   4.344
 1590SOL     OW 5668   6.181   2.624   3.334
 1590SOL    HW1 5669   6.187   2.717   3.370
 1590SOL    HW2 5670   6.270   2.580   3.341
 1591SOL     OW 5671   1.446   6.937   1.943
 1591SOL    HW1 5672   1.491   6.903   2.026
 1591SOL    HW2 5673   1.417   0.008   1.957
 1592SOL     OW 5674   0.121   4.166   6.358
 1592SOL    HW1 5675   0.187   4.165   6.282
 1592SOL    HW2 5676   0.085   4.073   6.371
 1593SOL     OW 5677   3.446   0.616   0.253
 1593SOL    HW1 5678   3.522   0.666   0.211
 1593SOL    HW2 5679   3.418   0.542   0.192
 1594SOL     OW 5680   6.387   0.044   2.686
 1594SOL    HW1 5681   6.298   0.007   2.658
 1594SOL    HW2 5682   6.388   0.142   2.669
 1595SOL     OW 5683   0.580   4.009   0.176
 1595SOL    HW1 5684   0.678   4.028   0.165
 1595SOL    HW2 5685   0.568   3.918   0.216
 1596SOL     OW 5686   4.497   4.945   2.806
 1596SOL    HW1 5687   4.507   5.036   2.765
 1596SOL    HW2 5688   4.507   4.875   2.734
 1597SOL     OW 5689   3.645   6.239   6.777
 1597SOL    HW1 5690   3.707   6.295   6.832
 1597SOL    HW2 5691   3.550   6.262   6.797
 1598SOL     OW 5692   1.798   4.963   0.218
 1598SOL    HW1 5693   1.812   4.869   0.188
 1598SOL    HW2 5694   1.833   4.974   0.311
 1599SOL     OW 5695   4.656   5.585   3.371
 1599SOL    HW1 5696   4.627   5.577   3.467
 1599SOL    HW2 5697   4.586   5.545   3.312
 1600SOL     OW 5698   4.624   6.841   2.404
 1600SOL    HW1 5699   4.641   6.939   2.393
 1600SOL    HW2 5700   4.554   6.812   2.339
 1601SOL     OW 5701   6.733   6.674   4.410
 1601SOL    HW1 5702   6.718   6.754   4.351
 1601SOL    HW2 5703   6.655   6.612   4.403
 1602SOL     OW 5704   3.436   5.143   4.043
 1602SOL    HW1 5705   3.470   5.181   3.956
 1602SOL    HW2 5706   3.506   5.086   4.084
 1603SOL     OW 5707   3.200   5.282   2.870
 1603SOL    HW1 5708   3.205   5.363   2.811
 1603SOL    HW2 5709   3.106   5.249   2.873
 1604SOL     OW 5710   4.189   5.385   1.796
 1604SOL    HW1 5711   4.123   5.350   1.863
 1604SOL    HW2 5712   4.277   5.399   1.840
 1605SOL     OW 5713   4.737   5.917   0.962
 1605SOL    HW1 5714   4.642   5.938   0.943
 1605SOL    HW2 5715   4.783   5.999   0.997
 1606SOL     OW 5716   3.406   6.194   4.832
 1606SOL    HW1 5717   3.492   6.172   4.879
 1606SOL    HW2 5718   3.427   6.240   4.746
 1607SOL     OW 5719   4.660   5.874   2.930
 1607SOL    HW1 5720   4.726   5.889   3.003
 1607SOL    HW2 5721   4.664   5.949   2.865
 1608SOL     OW 5722   6.079   1.050   3.222
 1608SOL    HW1 5723   6.119   1.010   3.304
 1608SOL    HW2 5724   5.982   1.071   3.239
 1609SOL     OW 5725   2.734   6.877   0.114
 1609SOL    HW1 5726   2.657   6.926   0.154
 1609SOL    HW2 5727   2.808   6.941   0.092
 1610SOL     OW 5728   5.550   0.389   0.776
 1610SOL    HW1 5729   5.460   0.346   0.762
 1610SOL    HW2 5730   5.543   0.457   0.848
 1611SOL     OW 5731   1.037   4.239   1.625
 1611SOL    HW1 5732   0.990   4.160   1.663
 1611SOL    HW2 5733   1.061   4.222   1.529
 1612SOL     OW 5734   3.796   0.180   2.026
 1612SOL    HW1 5735   3.856   0.205   1.951
 1612SOL    HW2 5736   3.716   0.240   2.027
 1613SOL     OW 5737   6.665   5.485   2.396
 1613SOL    HW1 5738   6.633   5.572   2.433
 1613SOL    HW2 5739   6.706   5.431   2.470
 1614SOL     OW 5740   6.497   1.893   6.368
 1614SOL    HW1 5741   6.546   1.947   6.300
 1614SOL    HW2 5742   6.398   1.899   6.352
 1615SOL     OW 5743   1.228   4.656   6.186
 1615SOL    HW1 5744   1.152   4.718   6.169
 1615SOL    HW2 5745   1.212   4.607   6.271
 1616SOL     OW 5746   1.913   1.498   4.649
 1616SOL    HW1 5747   1.885   1.554   4.571
 1616SOL    HW2 5748   1.913   1.402   4.622
 1617SOL     OW 5749   5.624   5.937   3.204
 1617SOL    HW1 5750   5.647   5.880   3.283
 1617SOL    HW2 5751   5.654   6.030   3.220
 1618SOL     OW 5752   2.911   5.214   2.812
 1618SOL    HW1 5753   2.891   5.309   2.835
 1618SOL    HW2 5754   2.828   5.159   2.823
 1619SOL     OW 5755   1.184   4.655   6.632
 1619SOL    HW1 5756   1.244   4.704   6.696
 1619SOL    HW2 5757   1.171   4.561   6.664
 1620SOL     OW 5758   3.758   5.251   6.371
 1620SOL    HW1 5759   3.726   5.243   6.277
 1620SOL    HW2 5760   3.720   5.334   6.413
 1621SOL     OW 5761   5.017   6.005   1.303
 1621SOL    HW1 5762   4.983   6.084   1.251
 1621SOL    HW2 5763   5.001   5.921   1.250
 1622SOL     OW 5764   0.709   4.766   4.198
 1622SOL    HW1 5765   0.804   4.737   4.182
 1622SOL    HW2 5766   0.649   4.725   4.130
 1623SOL     OW 5767   0.695   2.198   4.049
 1623SOL    HW1 5768   0.631   2.257   3.999
 1623SOL    HW2 5769   0.775   2.250   4.077
 1624SOL     OW 5770   4.250   1.649   0.998
 1624SOL    HW1 5771   4.255   1.747   1.017
 1624SOL    HW2 5772   4.334   1.620   0.951
 1625SOL     OW 5773   0.849   5.702   0.848
 1625SOL    HW1 5774   0.796   5.648   0.914
 1625SOL    HW2 5775   0.791   5.773   0.808
 1626SOL     OW 5776   2.921   2.094   1.263
 1626SOL    HW1 5777   2.960   2.091   1.171
 1626SOL    HW2 5778   2.985   2.052   1.328
 1627SOL     OW 5779   4.149   1.559   4.646
 1627SOL    HW1 5780   4.062   1.514   4.668
 1627SOL    HW2 5781   4.188   1.517   4.564
 1628SOL     OW 5782   5.551   6.895   0.419
 1628SOL    HW1 5783   5.590   6.842   0.495
 1628SOL    HW2 5784   5.529   6.834   0.343
 1629SOL     OW 5785   1.848   0.428   3.512
 1629SOL    HW1 5786   1.783   0.405   3.585
 1629SOL    HW2 5787   1.859   0.527   3.508
 1630SOL     OW 5788   0.135   3.715   0.162
 1630SOL    HW1 5789   0.207   3.654   0.195
 1630SOL    HW2 5790   0.134   3.715   0.062
 1631SOL     OW 5791   6.817   3.431   0.347
 1631SOL    HW1 5792   6.791   3.492   0.422
 1631SOL    HW2 5793   6.915   3.414   0.350
 1632SOL     OW 5794   6.733   5.392   2.709
 1632SOL    HW1 5795   6.665   5.451   2.752
 1632SOL    HW2 5796   6.710   5.296   2.728
 1633SOL     OW 5797   5.204   3.256   3.815
 1633SOL    HW1 5798   5.133   3.325   3.805
 1633SOL    HW2 5799   5.162   3.168   3.838
 1634SOL     OW 5800   6.115   0.832   4.417
 1634SOL    HW1 5801   6.077   0.799   4.504
 1634SOL    HW2 5802   6.209   0.864   4.432
 1635SOL     OW 5803   3.469   5.873   3.647
 1635SOL    HW1 5804   3.486   5.921   3.561
 1635SOL    HW2 5805   3.416   5.932   3.708
 1636SOL     OW 5806   6.011   6.692   1.715
 1636SOL    HW1 5807   6.080   6.682   1.787
 1636SOL    HW2 5808   5.920   6.694   1.757
 1637SOL     OW 5809   0.621   7.013   1.930
 1637SOL    HW1 5810   0.588   0.082   1.920
 1637SOL    HW2 5811   0.593   6.959   1.851
 1638SOL     OW 5812   6.150   3.131   1.611
 1638SOL    HW1 5813   6.063   3.082   1.612
 1638SOL    HW2 5814   6.169   3.164   1.518
 1639SOL     OW 5815   5.286   2.606   2.345
 1639SOL    HW1 5816   5.274   2.550   2.264
 1639SOL    HW2 5817   5.315   2.698   2.318
 1640SOL     OW 5818   6.484   0.492   6.506
 1640SOL    HW1 5819   6.489   0.401   6.546
 1640SOL    HW2 5820   6.404   0.540   6.543
 1641SOL     OW 5821   6.454   2.510   3.292
 1641SOL    HW1 5822   6.519   2.443   3.329
 1641SOL    HW2 5823   6.459   2.510   3.192
 1642SOL     OW 5824   6.604   2.315   5.540
 1642SOL    HW1 5825   6.531   2.377   5.567
 1642SOL    HW2 5826   6.688   2.368   5.526
 1643SOL     OW 5827   2.416   6.081   3.270
 1643SOL    HW1 5828   2.370   6.046   3.352
 1643SOL    HW2 5829   2.410   6.181   3.269
 1644SOL     OW 5830   6.338   2.915   1.448
 1644SOL    HW1 5831   6.401   2.838   1.440
 1644SOL    HW2 5832   6.305   2.922   1.542
 1645SOL     OW 5833   1.979   1.125   5.703
 1645SOL    HW1 5834   1.993   1.115   5.801
 1645SOL    HW2 5835   2.067   1.137   5.658
 1646SOL     OW 5836   1.332   5.519   1.076
 1646SOL    HW1 5837   1.404   5.520   1.007
 1646SOL    HW2 5838   1.335   5.604   1.129
 1647SOL     OW 5839   5.887   2.924   3.867
 1647SOL    HW1 5840   5.788   2.936   3.874
 1647SOL    HW2 5841   5.912   2.906   3.772
 1648SOL     OW 5842   5.416   5.999   1.090
 1648SOL    HW1 5843   5.349   6.033   1.025
 1648SOL    HW2 5844   5.385   5.910   1.126
 1649SOL     OW 5845   3.687   0.321   3.446
 1649SOL    HW1 5846   3.741   0.405   3.445
 1649SOL    HW2 5847   3.602   0.335   3.395
 1650SOL     OW 5848   3.032   4.070   6.489
 1650SOL    HW1 5849   2.937   4.037   6.490
 1650SOL    HW2 5850   3.060   4.090   6.395
 1651SOL     OW 5851   0.841   2.663   3.556
 1651SOL    HW1 5852   0.926   2.633   3.512
 1651SOL    HW2 5853   0.788   2.717   3.490
 1652SOL     OW 5854   0.855   2.494   1.597
 1652SOL    HW1 5855   0.952   2.519   1.606
 1652SOL    HW2 5856   0.845   2.429   1.522
 1653SOL     OW 5857   0.198   4.470   3.254
 1653SOL    HW1 5858   0.281   4.421   3.279
 1653SOL    HW2 5859   0.163   4.520   3.333
 1654SOL     OW 5860   0.451   3.182   2.185
 1654SOL    HW1 5861   0.455   3.256   2.252
 1654SOL    HW2 5862   0.464   3.220   2.093
 1655SOL     OW 5863   0.152   6.764   4.569
 1655SOL    HW1 5864   0.154   6.760   4.469
 1655SOL    HW2 5865   0.063   6.733   4.602
 1656SOL     OW 5866   2.020   4.513   3.302
 1656SOL    HW1 5867   1.965   4.592   3.330
 1656SOL    HW2 5868   2.060   4.470   3.383
 1657SOL     OW 5869   1.127   6.601   5.590
 1657SOL    HW1 5870   1.103   6.691   5.628
 1657SOL    HW2 5871   1.059   6.534   5.619
 1658SOL     OW 5872   6.452   7.022   6.423
 1658SOL    HW1 5873   6.442   0.015   6.521
 1658SOL    HW2 5874   6.439   0.083   6.373
 1659SOL     OW 5875   4.684   6.429   6.592
 1659SOL    HW1 5876   4.766   6.460   6.544
 1659SOL    HW2 5877   4.603   6.460   6.543
 1660SOL     OW 5878   2.612   0.277   2.381
 1660SOL    HW1 5879   2.540   0.338   2.415
 1660SOL    HW2 5880   2.660   0.236   2.459
 1661SOL     OW 5881   4.151   4.709   2.459
 1661SOL    HW1 5882   4.233   4.687   2.405
 1661SOL    HW2 5883   4.070   4.693   2.404
 1662SOL     OW 5884   0.142   1.209   4.824
 1662SOL    HW1 5885   0.128   1.281   4.755
 1662SOL    HW2 5886   0.118   1.245   4.914
 1663SOL     OW 5887   4.559   4.569   0.598
 1663SOL    HW1 5888   4.543   4.481   0.642
 1663SOL    HW2 5889   4.647   4.606   0.627
 1664SOL     OW 5890   1.067   0.158   5.732
 1664SOL    HW1 5891   1.073   0.102   5.649
 1664SOL    HW2 5892   1.133   0.232   5.727
 1665SOL     OW 5893   2.408   3.997   0.335
 1665SOL    HW1 5894   2.320   3.974   0.375
 1665SOL    HW2 5895   2.479   3.939   0.374
 1666SOL     OW 5896   5.681   6.553   6.179
 1666SOL    HW1 5897   5.715   6.596   6.263
 1666SOL    HW2 5898   5.731   6.467   6.163
 1667SOL     OW 5899   0.924   6.255   1.111
 1667SOL    HW1 5900   0.864   6.209   1.177
 1667SOL    HW2 5901   0.945   6.192   1.036
 1668SOL     OW 5902   5.358   4.468   3.172
 1668SOL    HW1 5903   5.400   4.540   3.226
 1668SOL    HW2 5904   5.384   4.478   3.076
 1669SOL     OW 5905   6.563   3.328   5.354
 1669SOL    HW1 5906   6.636   3.375   5.305
 1669SOL    HW2 5907   6.584   3.327   5.452
 1670SOL     OW 5908   1.842   5.167   5.984
 1670SOL    HW1 5909   1.917   5.196   6.044
 1670SOL    HW2 5910   1.814   5.074   6.007
 1671SOL     OW 5911   6.015   1.993   1.143
 1671SOL    HW1 5912   6.101   1.941   1.133
 1671SOL    HW2 5913   6.003   2.019   1.238
 1672SOL     OW 5914   0.829   3.852   0.177
 1672SOL    HW1 5915   0.747   3.800   0.156
 1672SOL    HW2 5916   0.903   3.823   0.117
 1673SOL     OW 5917   2.113   1.421   4.804
 1673SOL    HW1 5918   2.119   1.490   4.876
 1673SOL    HW2 5919   2.034   1.440   4.745
 1674SOL     OW 5920   4.908   2.045   2.944
 1674SOL    HW1 5921   4.995   2.018   2.902
 1674SOL    HW2 5922   4.926   2.114   3.015
 1675SOL     OW 5923   5.557   0.773   1.287
 1675SOL    HW1 5924   5.612   0.854   1.305
 1675SOL    HW2 5925   5.526   0.734   1.374
 1676SOL     OW 5926   1.418   1.780   2.554
 1676SOL    HW1 5927   1.337   1.792   2.611
 1676SOL    HW2 5928   1.472   1.703   2.588
 1677SOL     OW 5929   4.005   3.687   3.011
 1677SOL    HW1 5930   3.981   3.752   3.083
 1677SOL    HW2 5931   4.066   3.617   3.047
 1678SOL     OW 5932   0.966   0.059   0.923
 1678SOL    HW1 5933   0.915   7.006   0.886
 1678SOL    HW2 5934   1.060   0.055   0.891
 1679SOL     OW 5935   1.254   2.683   5.809
 1679SOL    HW1 5936   1.189   2.665   5.883
 1679SOL    HW2 5937   1.310   2.763   5.832
 1680SOL     OW 5938   5.098   2.319   3.991
 1680SOL    HW1 5939   5.098   2.295   4.088
 1680SOL    HW2 5940   5.151   2.403   3.977
 1681SOL     OW 5941   2.265   6.090   4.377
 1681SOL    HW1 5942   2.199   6.082   4.452
 1681SOL    HW2 5943   2.301   6.000   4.355
 1682SOL     OW 5944   3.013   0.325   4.860
 1682SOL    HW1 5945   2.945   0.255   4.838
 1682SOL    HW2 5946   3.069   0.343   4.779
 1683SOL     OW 5947   5.722   4.953   2.706
 1683SOL    HW1 5948   5.737   4.879   2.641
 1683SOL    HW2 5949   5.724   5.041   2.659
 1684SOL     OW 5950   2.514   4.527   1.964
 1684SOL    HW1 5951   2.507   4.453   1.897
 1684SOL    HW2 5952   2.609   4.556   1.973
 1685SOL     OW 5953   0.062   1.199   5.107
 1685SOL    HW1 5954   0.084   1.113   5.154
 1685SOL    HW2 5955   6.988   1.207   5.095
 1686SOL     OW 5956   4.761   5.798   2.645
 1686SOL    HW1 5957   4.765   5.746   2.730
 1686SOL    HW2 5958   4.707   5.881   2.659
 1687SOL     OW 5959   5.820   3.910   2.822
 1687SOL    HW1 5960   5.837   3.813   2.801
 1687SOL    HW2 5961   5.831   3.964   2.739
 1688SOL     OW 5962   2.140   1.533   3.397
 1688SOL    HW1 5963   2.149   1.434   3.383
 1688SOL    HW2 5964   2.156   1.581   3.311
 1689SOL     OW 5965   4.619   1.015   1.563
 1689SOL    HW1 5966   4.549   1.010   1.492
 1689SOL    HW2 5967   4.656   0.923   1.579
 1690SOL     OW 5968   0.964   4.670   4.139
 1690SOL    HW1 5969   0.931   4.581   4.171
 1690SOL    HW2 5970   1.048   4.694   4.188
 1691SOL     OW 5971   4.715   2.759   5.408
 1691SOL    HW1 5972   4.753   2.670   5.381
 1691SOL    HW2 5973   4.617   2.750   5.423
 1692SOL     OW 5974   5.383   5.127   1.308
 1692SOL    HW1 5975   5.419   5.071   1.233
 1692SOL    HW2 5976   5.300   5.173   1.278
 1693SOL     OW 5977   5.233   6.907   5.554
 1693SOL    HW1 5978   5.328   6.900   5.525
 1693SOL    HW2 5979   5.208   6.825   5.606
 1694SOL     OW 5980   5.233   1.260   5.253
 1694SOL    HW1 5981   5.271   1.293   5.166
 1694SOL    HW2 5982   5.228   1.335   5.318
 1695SOL     OW 5983   3.950   0.656   6.480
 1695SOL    HW1 5984   3.911   0.620   6.565
 1695SOL    HW2 5985   3.929   0.594   6.405
 1696SOL     OW 5986   5.051   6.067   0.440
 1696SOL    HW1 5987   5.016   5.992   0.496
 1696SOL    HW2 5988   4.978   6.132   0.420
 1697SOL     OW 5989   5.704   2.395   2.333
 1697SOL    HW1 5990   5.651   2.423   2.413
 1697SOL    HW2 5991   5.784   2.343   2.363
 1698SOL     OW 5992   4.126   1.126   1.369
 1698SOL    HW1 5993   4.046   1.179   1.397
 1698SOL    HW2 5994   4.206   1.186   1.366
 1699SOL     OW 5995   2.544   6.980   6.844
 1699SOL    HW1 5996   2.486   7.000   6.765
 1699SOL    HW2 5997   2.495   7.003   6.928
 1700SOL     OW 5998   6.664   2.866   2.531
 1700SOL    HW1 5999   6.598   2.917   2.477
 1700SOL    HW2 6000   6.674   2.774   2.493
 1701SOL     OW 6001   0.371   6.064   4.436
 1701SOL    HW1 6002   0.393   6.054   4.533
 1701SOL    HW2 6003   0.414   6.148   4.402
 1702SOL     OW 6004   2.151   2.378   6.007
 1702SOL    HW1 6005   2.196   2.450   6.059
 1702SOL    HW2 6006   2.084   2.331   6.065
 1703SOL     OW 6007   3.047   2.136   0.658
 1703SOL    HW1 6008   3.087   2.224   0.632
 1703SOL    HW2 6009   3.107   2.062   0.627
 1704SOL     OW 6010   2.686   2.418   1.061
 1704SOL    HW1 6011   2.669   2.320   1.072
 1704SOL    HW2 6012   2.783   2.436   1.073
 1705SOL     OW 6013   4.120   2.142   0.507
 1705SOL    HW1 6014   4.038   2.146   0.449
 1705SOL    HW2 6015   4.093   2.155   0.602
 1706SOL     OW 6016   4.271   2.225   6.714
 1706SOL    HW1 6017   4.279   2.161   6.791
 1706SOL    HW2 6018   4.345   2.293   6.720
 1707SOL     OW 6019   4.563   2.179   2.188
 1707SOL    HW1 6020   4.506   2.234   2.248
 1707SOL    HW2 6021   4.508   2.104   2.149
 1708SOL     OW 6022   3.417   5.005   1.712
 1708SOL    HW1 6023   3.352   4.941   1.755
 1708SOL    HW2 6024   3.447   4.968   1.625
 1709SOL     OW 6025   4.524   5.416   0.710
 1709SOL    HW1 6026   4.452   5.458   0.654
 1709SOL    HW2 6027   4.611   5.463   0.694
 1710SOL     OW 6028   4.130   5.252   3.026
 1710SOL    HW1 6029   4.180   5.176   2.985
 1710SOL    HW2 6030   4.059   5.216   3.086
 1711SOL     OW 6031   4.114   4.381   6.237
 1711SOL    HW1 6032   4.032   4.342   6.280
 1711SOL    HW2 6033   4.088   4.430   6.154
 1712SOL     OW 6034   0.031   1.681   3.254
 1712SOL    HW1 6035   0.049   1.760   3.196
 1712SOL    HW2 6036   6.998   1.616   3.203
 1713SOL     OW 6037   4.032   0.526   3.165
 1713SOL    HW1 6038   4.025   0.606   3.105
 1713SOL    HW2 6039   3.983   0.544   3.250
 1714SOL     OW 6040   4.028   3.187   0.489
 1714SOL    HW1 6041   4.083   3.268   0.511
 1714SOL    HW2 6042   3.932   3.215   0.476
 1715SOL     OW 6043   1.977   6.937   2.734
 1715SOL    HW1 6044   1.937   6.869   2.795
 1715SOL    HW2 6045   1.953   6.915   2.639
 1716SOL     OW 6046   5.186   0.782   3.716
 1716SOL    HW1 6047   5.153   0.876   3.726
 1716SOL    HW2 6048   5.272   0.782   3.665
 1717SOL     OW 6049   3.371   6.104   5.728
 1717SOL    HW1 6050   3.395   6.195   5.763
 1717SOL    HW2 6051   3.272   6.094   5.725
 1718SOL     OW 6052   1.631   3.003   1.752
 1718SOL    HW1 6053   1.534   3.027   1.750
 1718SOL    HW2 6054   1.651   2.942   1.676
 1719SOL     OW 6055   1.389   5.501   2.218
 1719SOL    HW1 6056   1.342   5.414   2.235
 1719SOL    HW2 6057   1.332   5.577   2.250
 1720SOL     OW 6058   0.078   2.952   5.790
 1720SOL    HW1 6059   0.102   3.015   5.863
 1720SOL    HW2 6060   0.041   3.003   5.712
 1721SOL     OW 6061   1.210   1.931   0.492
 1721SOL    HW1 6062   1.252   1.916   0.403
 1721SOL    HW2 6063   1.226   2.026   0.520
 1722SOL     OW 6064   2.552   2.430   3.437
 1722SOL    HW1 6065   2.564   2.443   3.536
 1722SOL    HW2 6066   2.633   2.385   3.400
 1723SOL     OW 6067   5.340   2.898   0.187
 1723SOL    HW1 6068   5.296   2.927   0.101
 1723SOL    HW2 6069   5.439   2.896   0.175
 1724SOL     OW 6070   6.687   2.143   1.545
 1724SOL    HW1 6071   6.645   2.130   1.635
 1724SOL    HW2 6072   6.746   2.224   1.547
 1725SOL     OW 6073   1.332   5.925   6.810
 1725SOL    HW1 6074   1.287   5.970   6.733
 1725SOL    HW2 6075   1.290   5.955   6.896
 1726SOL     OW 6076   5.461   4.109   3.111
 1726SOL    HW1 6077   5.378   4.096   3.056
 1726SOL    HW2 6078   5.435   4.128   3.205
 1727SOL     OW 6079   2.921   3.703   3.831
 1727SOL    HW1 6080   2.944   3.641   3.906
 1727SOL    HW2 6081   2.937   3.657   3.743
 1728SOL     OW 6082   4.624   2.170   4.138
 1728SOL    HW1 6083   4.594   2.075   4.136
 1728SOL    HW2 6084   4.550   2.230   4.106
 1729SOL     OW 6085   1.557   3.426   2.454
 1729SOL    HW1 6086   1.616   3.467   2.384
 1729SOL    HW2 6087   1.571   3.327   2.454
 1730SOL     OW 6088   2.557   4.843   5.246
 1730SOL    HW1 6089   2.627   4.905   5.280
 1730SOL    HW2 6090   2.471   4.859   5.296
 1731SOL     OW 6091   6.191   4.580   3.767
 1731SOL    HW1 6092   6.101   4.596   3.808
 1731SOL    HW2 6093   6.180   4.552   3.672
 1732SOL     OW 6094   1.933   3.862   5.667
 1732SOL    HW1 6095   1.855   3.812   5.630
 1732SOL    HW2 6096   2.012   3.852   5.606
 1733SOL     OW 6097   2.610   3.780   6.419
 1733SOL    HW1 6098   2.527   3.835   6.403
 1733SOL    HW2 6099   2.585   3.697   6.469
 1734SOL     OW 6100   0.225   2.762   1.691
 1734SOL    HW1 6101   0.299   2.738   1.629
 1734SOL    HW2 6102   0.234   2.857   1.720
 1735SOL     OW 6103   3.720   4.907   5.992
 1735SOL    HW1 6104   3.647   4.843   5.968
 1735SOL    HW2 6105   3.762   4.878   6.078
 1736SOL     OW 6106   4.808   3.180   0.955
 1736SOL    HW1 6107   4.801   3.089   0.996
 1736SOL    HW2 6108   4.837   3.171   0.860
 1737SOL     OW 6109   4.689   1.891   5.604
 1737SOL    HW1 6110   4.761   1.822   5.596
 1737SOL    HW2 6111   4.619   1.874   5.535
 1738SOL     OW 6112   1.617   3.324   4.240
 1738SOL    HW1 6113   1.570   3.328   4.152
 1738SOL    HW2 6114   1.644   3.230   4.259
 1739SOL     OW 6115   5.614   0.312   3.881
 1739SOL    HW1 6116   5.552   0.338   3.807
 1739SOL    HW2 6117   5.703   0.354   3.866
 1740SOL     OW 6118   6.389   2.887   4.673
 1740SOL    HW1 6119   6.479   2.904   4.633
 1740SOL    HW2 6120   6.324   2.955   4.638
 1741SOL     OW 6121   0.780   1.951   4.777
 1741SOL    HW1 6122   0.698   1.898   4.757
 1741SOL    HW2 6123   0.836   1.902   4.843
 1742SOL     OW 6124   5.803   6.648   5.928
 1742SOL    HW1 6125   5.761   6.641   6.018
 1742SOL    HW2 6126   5.871   6.720   5.929
 1743SOL     OW 6127   1.468   1.148   2.583
 1743SOL    HW1 6128   1.509   1.233   2.618
 1743SOL    HW2 6129   1.383   1.170   2.535
 1744SOL     OW 6130   3.715   1.618   4.586
 1744SOL    HW1 6131   3.640   1.674   4.550
 1744SOL    HW2 6132   3.726   1.636   4.683
 1745SOL     OW 6133   6.400   6.779   1.675
 1745SOL    HW1 6134   6.429   6.706   1.613
 1745SOL    HW2 6135   6.479   6.814   1.726
 1746SOL     OW 6136   2.170   4.443   3.947
 1746SOL    HW1 6137   2.162   4.501   3.866
 1746SOL    HW2 6138   2.107   4.366   3.939
 1747SOL     OW 6139   4.370   0.013   2.643
 1747SOL    HW1 6140   4.437   0.048   2.578
 1747SOL    HW2 6141   4.393   6.943   2.667
 1748SOL     OW 6142   6.690   2.755   4.530
 1748SOL    HW1 6143   6.663   2.845   4.564
 1748SOL    HW2 6144   6.694   2.756   4.430
 1749SOL     OW 6145   1.573   4.580   0.937
 1749SOL    HW1 6146   1.632   4.653   0.971
 1749SOL    HW2 6147   1.579   4.502   0.998
 1750SOL     OW 6148   3.771   6.995   5.778
 1750SOL    HW1 6149   3.857   6.971   5.823
 1750SOL    HW2 6150   3.790   0.031   5.701
 1751SOL     OW 6151   5.095   2.816   5.438
 1751SOL    HW1 6152   5.034   2.847   5.511
 1751SOL    HW2 6153   5.129   2.725   5.460
 1752SOL     OW 6154   0.135   0.501   1.935
 1752SOL    HW1 6155   0.166   0.478   1.843
 1752SOL    HW2 6156   0.180   0.585   1.965
 1753SOL     OW 6157   6.096   1.577   1.719
 1753SOL    HW1 6158   6.165   1.576   1.646
 1753SOL    HW2 6159   6.061   1.669   1.730
 1754SOL     OW 6160   2.927   5.413   4.252
 1754SOL    HW1 6161   2.971   5.456   4.173
 1754SOL    HW2 6162   2.980   5.433   4.335
 1755SOL     OW 6163   6.597   6.706   5.115
 1755SOL    HW1 6164   6.531   6.764   5.065
 1755SOL    HW2 6165   6.558   6.615   5.128
 1756SOL     OW 6166   4.714   6.601   6.292
 1756SOL    HW1 6167   4.793   6.654   6.325
 1756SOL    HW2 6168   4.681   6.641   6.206
 1757SOL     OW 6169   2.253   4.842   5.337
 1757SOL    HW1 6170   2.237   4.879   5.429
 1757SOL    HW2 6171   2.166   4.837   5.288
 1758SOL     OW 6172   1.969   6.108   4.566
 1758SOL    HW1 6173   2.032   6.032   4.584
 1758SOL    HW2 6174   1.916   6.089   4.483
 1759SOL     OW 6175   1.840   6.891   0.495
 1759SOL    HW1 6176   1.850   6.816   0.430
 1759SOL    HW2 6177   1.750   6.933   0.484
 1760SOL     OW 6178   6.873   0.757   4.609
 1760SOL    HW1 6179   6.848   0.678   4.665
 1760SOL    HW2 6180   6.970   0.777   4.620
 1761SOL     OW 6181   5.988   1.623   2.410
 1761SOL    HW1 6182   5.938   1.636   2.496
 1761SOL    HW2 6183   6.066   1.562   2.425
 1762SOL     OW 6184   0.440   1.618   5.832
 1762SOL    HW1 6185   0.501   1.663   5.767
 1762SOL    HW2 6186   0.490   1.599   5.917
 1763SOL     OW 6187   0.673   3.994   3.931
 1763SOL    HW1 6188   0.700   3.898   3.932
 1763SOL    HW2 6189   0.654   4.022   3.836
 1764SOL     OW 6190   1.085   5.539   2.794
 1764SOL    HW1 6191   1.111   5.541   2.891
 1764SOL    HW2 6192   1.167   5.539   2.737
 1765SOL     OW 6193   5.686   3.445   2.079
 1765SOL    HW1 6194   5.593   3.408   2.073
 1765SOL    HW2 6195   5.685   3.541   2.052
 1766SOL     OW 6196   4.580   4.428   3.782
 1766SOL    HW1 6197   4.659   4.428   3.719
 1766SOL    HW2 6198   4.574   4.516   3.828
 1767SOL     OW 6199   0.920   4.249   2.608
 1767SOL    HW1 6200   0.991   4.306   2.649
 1767SOL    HW2 6201   0.836   4.302   2.597
 1768SOL     OW 6202   5.054   6.520   2.153
 1768SOL    HW1 6203   5.090   6.443   2.101
 1768SOL    HW2 6204   5.117   6.598   2.145
 1769SOL     OW 6205   5.402   0.487   0.490
 1769SOL    HW1 6206   5.354   0.419   0.545
 1769SOL    HW2 6207   5.500   0.468   0.491
 1770SOL     OW 6208   2.343   5.586   0.163
 1770SOL    HW1 6209   2.303   5.610   0.075
 1770SOL    HW2 6210   2.376   5.669   0.209
 1771SOL     OW 6211   1.390   3.043   5.782
 1771SOL    HW1 6212   1.387   2.977   5.857
 1771SOL    HW2 6213   1.442   3.004   5.706
 1772SOL     OW 6214   2.236   4.561   3.160
 1772SOL    HW1 6215   2.285   4.475   3.175
 1772SOL    HW2 6216   2.143   4.553   3.194
 1773SOL     OW 6217   1.332   6.602   6.320
 1773SOL    HW1 6218   1.270   6.679   6.335
 1773SOL    HW2 6219   1.402   6.601   6.390
 1774SOL     OW 6220   4.785   5.543   0.776
 1774SOL    HW1 6221   4.880   5.551   0.745
 1774SOL    HW2 6222   4.782   5.539   0.875
 1775SOL     OW 6223   2.270   5.407   6.619
 1775SOL    HW1 6224   2.236   5.370   6.705
 1775SOL    HW2 6225   2.295   5.331   6.558
 1776SOL     OW 6226   4.884   2.053   5.885
 1776SOL    HW1 6227   4.899   2.118   5.810
 1776SOL    HW2 6228   4.798   2.076   5.931
 1777SOL     OW 6229   4.923   6.263   6.297
 1777SOL    HW1 6230   5.012   6.296   6.265
 1777SOL    HW2 6231   4.884   6.329   6.361
 1778SOL     OW 6232   5.257   0.015   4.098
 1778SOL    HW1 6233   5.321   7.009   4.169
 1778SOL    HW2 6234   5.270   6.985   4.016
 1779SOL     OW 6235   5.703   6.117   4.508
 1779SOL    HW1 6236   5.658   6.126   4.420
 1779SOL    HW2 6237   5.674   6.192   4.568
 1780SOL     OW 6238   2.406   5.987   4.778
 1780SOL    HW1 6239   2.420   5.924   4.702
 1780SOL    HW2 6240   2.420   6.081   4.747
 1781SOL     OW 6241   4.141   0.673   4.023
 1781SOL    HW1 6242   4.147   0.768   4.055
 1781SOL    HW2 6243   4.063   0.629   4.068
 1782SOL     OW 6244   0.559   1.593   2.946
 1782SOL    HW1 6245   0.589   1.681   2.983
 1782SOL    HW2 6246   0.633   1.527   2.952
 1783SOL     OW 6247   2.217   4.076   6.802
 1783SOL    HW1 6248   2.235   4.084   6.704
 1783SOL    HW2 6249   2.274   4.140   6.852
 1784SOL     OW 6250   2.544   0.306   1.584
 1784SOL    HW1 6251   2.559   0.378   1.517
 1784SOL    HW2 6252   2.454   0.265   1.569
 1785SOL     OW 6253   1.367   6.519   4.844
 1785SOL    HW1 6254   1.286   6.520   4.785
 1785SOL    HW2 6255   1.350   6.577   4.924
 1786SOL     OW 6256   0.966   6.744   0.748
 1786SOL    HW1 6257   1.057   6.706   0.767
 1786SOL    HW2 6258   0.967   6.795   0.663
 1787SOL     OW 6259   3.033   3.704   6.323
 1787SOL    HW1 6260   3.101   3.639   6.290
 1787SOL    HW2 6261   2.981   3.740   6.245
 1788SOL     OW 6262   4.755   3.837   1.284
 1788SOL    HW1 6263   4.753   3.798   1.376
 1788SOL    HW2 6264   4.842   3.883   1.268
 1789SOL     OW 6265   5.614   3.925   1.775
 1789SOL    HW1 6266   5.662   3.849   1.732
 1789SOL    HW2 6267   5.642   4.011   1.733
 1790SOL     OW 6268   2.325   2.322   4.628
 1790SOL    HW1 6269   2.369   2.287   4.711
 1790SOL    HW2 6270   2.381   2.396   4.589
 1791SOL     OW 6271   5.031   0.144   3.305
 1791SOL    HW1 6272   5.131   0.141   3.300
 1791SOL    HW2 6273   4.996   0.212   3.241
 1792SOL     OW 6274   0.092   1.464   5.208
 1792SOL    HW1 6275   0.038   1.491   5.288
 1792SOL    HW2 6276   0.068   1.371   5.181
 1793SOL     OW 6277   0.137   1.057   5.806
 1793SOL    HW1 6278   0.092   1.121   5.744
 1793SOL    HW2 6279   0.189   1.107   5.874
 1794SOL     OW 6280   1.270   0.334   6.572
 1794SOL    HW1 6281   1.311   0.415   6.531
 1794SOL    HW2 6282   1.226   0.279   6.501
 1795SOL     OW 6283   5.721   4.408   1.476
 1795SOL    HW1 6284   5.691   4.400   1.381
 1795SOL    HW2 6285   5.812   4.449   1.480
 1796SOL     OW 6286   0.674   0.388   6.938
 1796SOL    HW1 6287   0.600   0.350   6.883
 1796SOL    HW2 6288   0.671   0.488   6.934
 1797SOL     OW 6289   1.821   5.406   5.826
 1797SOL    HW1 6290   1.814   5.321   5.877
 1797SOL    HW2 6291   1.806   5.388   5.728
 1798SOL     OW 6292   3.065   3.371   5.064
 1798SOL    HW1 6293   3.156   3.365   5.105
 1798SOL    HW2 6294   3.008   3.433   5.117
 1799SOL     OW 6295   3.228   1.697   0.412
 1799SOL    HW1 6296   3.282   1.689   0.328
 1799SOL    HW2 6297   3.155   1.629   0.411
 1800SOL     OW 6298   6.270   3.684   5.158
 1800SOL    HW1 6299   6.219   3.691   5.243
 1800SOL    HW2 6300   6.238   3.605   5.106
 1801SOL     OW 6301   1.214   0.949   3.135
 1801SOL    HW1 6302   1.296   1.003   3.154
 1801SOL    HW2 6303   1.203   0.879   3.206
 1802SOL     OW 6304   0.288   4.762   3.451
 1802SOL    HW1 6305   0.190   4.744   3.457
 1802SOL    HW2 6306   0.337   4.677   3.433
 1803SOL     OW 6307   0.268   6.676   3.076
 1803SOL    HW1 6308   0.317   6.697   2.992
 1803SOL    HW2 6309   0.197   6.608   3.057
 1804SOL     OW 6310   2.110   3.296   5.816
 1804SOL    HW1 6311   2.178   3.363   5.786
 1804SOL    HW2 6312   2.156   3.211   5.843
 1805SOL     OW 6313   0.279   5.510   7.024
 1805SOL    HW1 6314   0.236   5.477   0.083
 1805SOL    HW2 6315   0.349   5.577   0.022
 1806SOL     OW 6316   0.001   1.674   2.077
 1806SOL    HW1 6317   0.031   1.608   2.147
 1806SOL    HW2 6318   0.071   1.744   2.066
 1807SOL     OW 6319   0.272   2.571   2.841
 1807SOL    HW1 6320   0.184   2.598   2.802
 1807SOL    HW2 6321   0.345   2.593   2.777
 1808SOL     OW 6322   4.597   2.286   6.254
 1808SOL    HW1 6323   4.509   2.312   6.215
 1808SOL    HW2 6324   4.583   2.214   6.322
 1809SOL     OW 6325   4.719   0.378   5.245
 1809SOL    HW1 6326   4.712   0.471   5.283
 1809SOL    HW2 6327   4.809   0.365   5.204
 1810SOL     OW 6328   0.573   0.634   4.119
 1810SOL    HW1 6329   0.476   0.627   4.099
 1810SOL    HW2 6330   0.592   0.595   4.209
 1811SOL     OW 6331   4.110   5.448   1.549
 1811SOL    HW1 6332   4.139   5.426   1.642
 1811SOL    HW2 6333   4.185   5.492   1.499
 1812SOL     OW 6334   4.729   6.120   6.167
 1812SOL    HW1 6335   4.684   6.072   6.242
 1812SOL    HW2 6336   4.809   6.170   6.203
 1813SOL     OW 6337   4.712   4.347   2.440
 1813SOL    HW1 6338   4.745   4.440   2.454
 1813SOL    HW2 6339   4.780   4.296   2.387
 1814SOL     OW 6340   6.723   6.208   0.486
 1814SOL    HW1 6341   6.632   6.246   0.467
 1814SOL    HW2 6342   6.743   6.135   0.420
 1815SOL     OW 6343   5.667   6.368   1.379
 1815SOL    HW1 6344   5.736   6.373   1.307
 1815SOL    HW2 6345   5.612   6.286   1.367
 1816SOL     OW 6346   3.871   4.771   5.345
 1816SOL    HW1 6347   3.899   4.842   5.410
 1816SOL    HW2 6348   3.952   4.723   5.312
 1817SOL     OW 6349   6.995   1.996   3.501
 1817SOL    HW1 6350   0.012   1.986   3.410
 1817SOL    HW2 6351   6.960   2.089   3.511
 1818SOL     OW 6352   2.293   1.086   0.116
 1818SOL    HW1 6353   2.368   1.054   0.058
 1818SOL    HW2 6354   2.273   1.181   0.095
 1819SOL     OW 6355   2.063   4.882   3.294
 1819SOL    HW1 6356   1.982   4.834   3.263
 1819SOL    HW2 6357   2.142   4.855   3.238
 1820SOL     OW 6358   3.519   6.995   5.423
 1820SOL    HW1 6359   3.508   0.007   5.516
 1820SOL    HW2 6360   3.456   0.018   5.362
 1821SOL     OW 6361   3.434   2.094   2.716
 1821SOL    HW1 6362   3.372   2.150   2.771
 1821SOL    HW2 6363   3.527   2.103   2.753
 1822SOL     OW 6364   0.021   3.398   2.379
 1822SOL    HW1 6365   6.987   3.396   2.298
 1822SOL    HW2 6366   6.988   3.416   2.460
 1823SOL     OW 6367   4.208   6.043   2.130
 1823SOL    HW1 6368   4.199   5.986   2.048
 1823SOL    HW2 6369   4.184   6.138   2.108
 1824SOL     OW 6370   4.424   2.910   1.683
 1824SOL    HW1 6371   4.373   2.992   1.656
 1824SOL    HW2 6372   4.478   2.930   1.765
 1825SOL     OW 6373   1.145   2.005   4.874
 1825SOL    HW1 6374   1.145   2.096   4.833
 1825SOL    HW2 6375   1.222   1.953   4.839
 1826SOL     OW 6376   3.738   2.295   1.650
 1826SOL    HW1 6377   3.717   2.284   1.747
 1826SOL    HW2 6378   3.811   2.231   1.625
 1827SOL     OW 6379   5.630   5.380   0.653
 1827SOL    HW1 6380   5.720   5.396   0.695
 1827SOL    HW2 6381   5.630   5.290   0.610
 1828SOL     OW 6382   1.366   3.179   4.977
 1828SOL    HW1 6383   1.364   3.277   4.996
 1828SOL    HW2 6384   1.461   3.149   4.969
 1829SOL     OW 6385   4.113   0.628   2.807
 1829SOL    HW1 6386   4.033   0.636   2.866
 1829SOL    HW2 6387   4.084   0.613   2.713
 1830SOL     OW 6388   5.385   0.061   5.347
 1830SOL    HW1 6389   5.436   7.019   5.293
 1830SOL    HW2 6390   5.376   0.146   5.296
 1831SOL     OW 6391   3.870   4.773   0.612
 1831SOL    HW1 6392   3.811   4.692   0.607
 1831SOL    HW2 6393   3.815   4.855   0.599
 1832SOL     OW 6394   2.693   3.241   0.347
 1832SOL    HW1 6395   2.606   3.242   0.297
 1832SOL    HW2 6396   2.768   3.221   0.283
 1833SOL     OW 6397   6.021   0.840   6.930
 1833SOL    HW1 6398   5.922   0.828   6.931
 1833SOL    HW2 6399   6.044   0.935   6.949
 1834SOL     OW 6400   0.766   2.850   5.292
 1834SOL    HW1 6401   0.803   2.812   5.207
 1834SOL    HW2 6402   0.716   2.934   5.272
 1835SOL     OW 6403   0.299   6.750   1.691
 1835SOL    HW1 6404   0.394   6.776   1.708
 1835SOL    HW2 6405   0.265   6.799   1.610
 1836SOL     OW 6406   4.952   2.500   2.390
 1836SOL    HW1 6407   5.030   2.438   2.389
 1836SOL    HW2 6408   4.880   2.464   2.331
 1837SOL     OW 6409   3.022   2.343   5.912
 1837SOL    HW1 6410   3.101   2.381   5.865
 1837SOL    HW2 6411   2.963   2.417   5.944
 1838SOL     OW 6412   5.389   0.750   0.614
 1838SOL    HW1 6413   5.381   0.657   0.578
 1838SOL    HW2 6414   5.369   0.750   0.712
 1839SOL     OW 6415   0.003   0.568   0.033
 1839SOL    HW1 6416   6.962   0.636   0.067
 1839SOL    HW2 6417   0.034   0.511   0.110
 1840SOL     OW 6418   4.513   6.108   3.491
 1840SOL    HW1 6419   4.417   6.137   3.493
 1840SOL    HW2 6420   4.564   6.157   3.561
 1841SOL     OW 6421   2.186   0.908   2.567
 1841SOL    HW1 6422   2.176   0.956   2.480
 1841SOL    HW2 6423   2.259   0.840   2.560
 1842SOL     OW 6424   1.678   5.472   0.659
 1842SOL    HW1 6425   1.612   5.481   0.734
 1842SOL    HW2 6426   1.656   5.392   0.604
 1843SOL     OW 6427   2.410   1.181   5.299
 1843SOL    HW1 6428   2.399   1.276   5.268
 1843SOL    HW2 6429   2.402   1.119   5.221
 1844SOL     OW 6430   6.111   2.317   6.194
 1844SOL    HW1 6431   6.120   2.269   6.107
 1844SOL    HW2 6432   6.015   2.319   6.222
 1845SOL     OW 6433   1.509   2.019   3.449
 1845SOL    HW1 6434   1.521   2.044   3.353
 1845SOL    HW2 6435   1.596   1.984   3.485
 1846SOL     OW 6436   3.925   1.282   1.819
 1846SOL    HW1 6437   3.959   1.296   1.912
 1846SOL    HW2 6438   3.826   1.298   1.817
 1847SOL     OW 6439   1.524   5.776   5.240
 1847SOL    HW1 6440   1.468   5.719   5.300
 1847SOL    HW2 6441   1.593   5.825   5.294
 1848SOL     OW 6442   3.257   6.085   3.067
 1848SOL    HW1 6443   3.352   6.054   3.076
 1848SOL    HW2 6444   3.255   6.183   3.046
 1849SOL     OW 6445   4.913   2.733   2.215
 1849SOL    HW1 6446   4.962   2.731   2.128
 1849SOL    HW2 6447   4.959   2.673   2.281
 1850SOL     OW 6448   4.679   1.263   1.295
 1850SOL    HW1 6449   4.669   1.341   1.233
 1850SOL    HW2 6450   4.733   1.192   1.251
 1851SOL     OW 6451   0.722   4.540   4.848
 1851SOL    HW1 6452   0.643   4.602   4.853
 1851SOL    HW2 6453   0.691   4.447   4.868
 1852SOL     OW 6454   0.412   0.109   3.096
 1852SOL    HW1 6455   0.329   0.122   3.042
 1852SOL    HW2 6456   0.405   0.023   3.148
 1853SOL     OW 6457   0.214   2.655   5.517
 1853SOL    HW1 6458   0.260   2.714   5.583
 1853SOL    HW2 6459   0.115   2.660   5.532
 1854SOL     OW 6460   0.830   0.084   3.362
 1854SOL    HW1 6461   0.785   0.116   3.279
 1854SOL    HW2 6462   0.927   0.111   3.360
 1855SOL     OW 6463   4.845   2.981   4.160
 1855SOL    HW1 6464   4.776   2.908   4.161
 1855SOL    HW2 6465   4.801   3.070   4.150
 1856SOL     OW 6466   3.573   2.514   0.855
 1856SOL    HW1 6467   3.616   2.424   0.865
 1856SOL    HW2 6468   3.555   2.532   0.759
 1857SOL     OW 6469   4.320   1.718   0.130
 1857SOL    HW1 6470   4.338   1.620   0.135
 1857SOL    HW2 6471   4.227   1.736   0.160
 1858SOL     OW 6472   4.841   2.491   3.990
 1858SOL    HW1 6473   4.848   2.430   3.911
 1858SOL    HW2 6474   4.844   2.437   4.074
 1859SOL     OW 6475   6.979   1.651   4.071
 1859SOL    HW1 6476   6.991   1.721   4.000
 1859SOL    HW2 6477   0.033   1.653   4.133
 1860SOL     OW 6478   1.593   1.416   5.577
 1860SOL    HW1 6479   1.555   1.382   5.663
 1860SOL    HW2 6480   1.582   1.346   5.505
 1861SOL     OW 6481   6.931   6.793   3.670
 1861SOL    HW1 6482   6.887   6.752   3.591
 1861SOL    HW2 6483   6.948   6.723   3.740
 1862SOL     OW 6484   3.133   5.758   5.717
 1862SOL    HW1 6485   3.044   5.727   5.753
 1862SOL    HW2 6486   3.185   5.679   5.685
 1863SOL     OW 6487   0.106   2.826   0.735
 1863SOL    HW1 6488   0.174   2.753   0.732
 1863SOL    HW2 6489   0.016   2.790   0.709
 1864SOL     OW 6490   4.036   5.598   2.067
 1864SOL    HW1 6491   4.102   5.523   2.075
 1864SOL    HW2 6492   4.025   5.642   2.156
 1865SOL     OW 6493   5.984   1.888   5.553
 1865SOL    HW1 6494   6.058   1.951   5.578
 1865SOL    HW2 6495   5.965   1.827   5.631
 1866SOL     OW 6496   0.835   5.293   3.435
 1866SOL    HW1 6497   0.825   5.298   3.534
 1866SOL    HW2 6498   0.751   5.324   3.390
 1867SOL     OW 6499   1.670   2.601   1.396
 1867SOL    HW1 6500   1.760   2.611   1.438
 1867SOL    HW2 6501   1.630   2.692   1.383
 1868SOL     OW 6502   5.575   3.545   6.454
 1868SOL    HW1 6503   5.632   3.493   6.391
 1868SOL    HW2 6504   5.564   3.494   6.539
 1869SOL     OW 6505   4.131   0.941   4.076
 1869SOL    HW1 6506   4.169   1.007   4.141
 1869SOL    HW2 6507   4.067   0.987   4.015
 1870SOL     OW 6508   6.732   6.047   4.867
 1870SOL    HW1 6509   6.692   5.977   4.807
 1870SOL    HW2 6510   6.749   6.008   4.957
 1871SOL     OW 6511   6.986   6.822   0.013
 1871SOL    HW1 6512   0.012   6.782   0.090
 1871SOL    HW2 6513   0.019   6.820   6.956
 1872SOL     OW 6514   2.794   2.463   1.646
 1872SOL    HW1 6515   2.828   2.478   1.739
 1872SOL    HW2 6516   2.870   2.468   1.581
 1873SOL     OW 6517   6.227   1.488   0.675
 1873SOL    HW1 6518   6.221   1.432   0.758
 1873SOL    HW2 6519   6.159   1.458   0.609
 1874SOL     OW 6520   0.809   5.161   0.348
 1874SOL    HW1 6521   0.782   5.117   0.262
 1874SOL    HW2 6522   0.846   5.252   0.328
 1875SOL     OW 6523   6.822   5.103   0.158
 1875SOL    HW1 6524   6.803   5.198   0.185
 1875SOL    HW2 6525   6.773   5.041   0.219
 1876SOL     OW 6526   0.257   5.629   0.704
 1876SOL    HW1 6527   0.307   5.645   0.789
 1876SOL    HW2 6528   0.294   5.687   0.632
 1877SOL     OW 6529   0.831   1.455   2.794
 1877SOL    HW1 6530   0.761   1.385   2.803
 1877SOL    HW2 6531   0.808   1.517   2.719
 1878SOL     OW 6532   6.142   3.697   3.865
 1878SOL    HW1 6533   6.060   3.707   3.921
 1878SOL    HW2 6534   6.119   3.649   3.780
 1879SOL     OW 6535   4.628   5.673   4.613
 1879SOL    HW1 6536   4.584   5.653   4.701
 1879SOL    HW2 6537   4.653   5.587   4.569
 1880SOL     OW 6538   6.891   1.970   4.304
 1880SOL    HW1 6539   6.849   1.998   4.218
 1880SOL    HW2 6540   6.870   1.874   4.322
 1881SOL     OW 6541   1.886   1.446   4.094
 1881SOL    HW1 6542   1.871   1.381   4.020
 1881SOL    HW2 6543   1.941   1.523   4.061
 1882SOL     OW 6544   1.628   5.441   0.197
 1882SOL    HW1 6545   1.551   5.424   0.258
 1882SOL    HW2 6546   1.693   5.503   0.242
 1883SOL     OW 6547   1.480   2.928   3.149
 1883SOL    HW1 6548   1.541   2.903   3.224
 1883SOL    HW2 6549   1.423   3.005   3.177
 1884SOL     OW 6550   3.605   1.264   6.981
 1884SOL    HW1 6551   3.640   1.210   0.033
 1884SOL    HW2 6552   3.535   1.212   6.933
 1885SOL     OW 6553   0.239   2.074   1.154
 1885SOL    HW1 6554   0.279   2.094   1.064
 1885SOL    HW2 6555   0.312   2.075   1.223
 1886SOL     OW 6556   2.922   2.477   5.524
 1886SOL    HW1 6557   2.888   2.508   5.613
 1886SOL    HW2 6558   3.017   2.446   5.534
 1887SOL     OW 6559   1.089   6.266   5.196
 1887SOL    HW1 6560   1.140   6.319   5.264
 1887SOL    HW2 6561   0.994   6.255   5.227
 1888SOL     OW 6562   1.937   2.091   5.739
 1888SOL    HW1 6563   2.000   2.038   5.682
 1888SOL    HW2 6564   1.967   2.186   5.745
 1889SOL     OW 6565   3.297   2.755   0.359
 1889SOL    HW1 6566   3.225   2.810   0.316
 1889SOL    HW2 6567   3.268   2.659   0.362
 1890SOL     OW 6568   6.535   5.845   6.732
 1890SOL    HW1 6569   6.466   5.785   6.772
 1890SOL    HW2 6570   6.493   5.900   6.659
 1891SOL     OW 6571   5.669   3.932   6.054
 1891SOL    HW1 6572   5.578   3.963   6.081
 1891SOL    HW2 6573   5.736   3.966   6.119
 1892SOL     OW 6574   3.802   6.574   1.767
 1892SOL    HW1 6575   3.869   6.613   1.704
 1892SOL    HW2 6576   3.849   6.522   1.838
 1893SOL     OW 6577   3.081   1.897   5.123
 1893SOL    HW1 6578   3.149   1.969   5.114
 1893SOL    HW2 6579   3.034   1.906   5.211
 1894SOL     OW 6580   4.492   3.463   0.757
 1894SOL    HW1 6581   4.503   3.364   0.745
 1894SOL    HW2 6582   4.453   3.481   0.847
 1895SOL     OW 6583   4.914   0.989   3.083
 1895SOL    HW1 6584   4.951   0.899   3.105
 1895SOL    HW2 6585   4.814   0.987   3.089
 1896SOL     OW 6586   5.982   1.782   5.874
 1896SOL    HW1 6587   6.051   1.713   5.892
 1896SOL    HW2 6588   5.959   1.830   5.959
 1897SOL     OW 6589   5.734   4.867   3.749
 1897SOL    HW1 6590   5.722   4.857   3.650
 1897SOL    HW2 6591   5.803   4.802   3.781
 1898SOL     OW 6592   5.923   6.240   0.032
 1898SOL    HW1 6593   6.011   6.288   0.026
 1898SOL    HW2 6594   5.913   6.180   6.977
 1899SOL     OW 6595   0.940   2.418   3.295
 1899SOL    HW1 6596   1.016   2.481   3.280
 1899SOL    HW2 6597   0.898   2.436   3.384
 1900SOL     OW 6598   2.307   6.465   1.061
 1900SOL    HW1 6599   2.370   6.434   1.132
 1900SOL    HW2 6600   2.226   6.505   1.103
 1901SOL     OW 6601   1.392   1.546   6.637
 1901SOL    HW1 6602   1.318   1.488   6.671
 1901SOL    HW2 6603   1.369   1.580   6.546
 1902SOL     OW 6604   1.766   2.490   5.290
 1902SOL    HW1 6605   1.800   2.412   5.341
 1902SOL    HW2 6606   1.666   2.491   5.292
 1903SOL     OW 6607   6.789   4.229   4.069
 1903SOL    HW1 6608   6.774   4.308   4.129
 1903SOL    HW2 6609   6.736   4.151   4.103
 1904SOL     OW 6610   0.812   0.216   4.894
 1904SOL    HW1 6611   0.752   0.137   4.879
 1904SOL    HW2 6612   0.875   0.226   4.817
 1905SOL     OW 6613   6.545   3.181   4.261
 1905SOL    HW1 6614   6.486   3.247   4.214
 1905SOL    HW2 6615   6.495   3.143   4.339
 1906SOL     OW 6616   2.293   0.149   0.413
 1906SOL    HW1 6617   2.198   0.118   0.415
 1906SOL    HW2 6618   2.325   0.154   0.318
 1907SOL     OW 6619   3.514   5.881   3.179
 1907SOL    HW1 6620   3.470   5.797   3.148
 1907SOL    HW2 6621   3.612   5.877   3.159
 1908SOL     OW 6622   5.083   1.047   6.543
 1908SOL    HW1 6623   5.063   1.087   6.454
 1908SOL    HW2 6624   5.039   0.957   6.550
 1909SOL     OW 6625   4.245   4.756   4.367
 1909SOL    HW1 6626   4.307   4.679   4.382
 1909SOL    HW2 6627   4.256   4.822   4.441
 1910SOL     OW 6628   4.651   2.217   5.188
 1910SOL    HW1 6629   4.682   2.206   5.283
 1910SOL    HW2 6630   4.586   2.293   5.183
 1911SOL     OW 6631   0.314   3.787   6.224
 1911SOL    HW1 6632   0.384   3.758   6.158
 1911SOL    HW2 6633   0.224   3.757   6.191
 1912SOL     OW 6634   3.456   6.002   3.414
 1912SOL    HW1 6635   3.495   5.950   3.338
 1912SOL    HW2 6636   3.357   6.002   3.406
 1913SOL     OW 6637   1.362   4.379   5.306
 1913SOL    HW1 6638   1.324   4.392   5.214
 1913SOL    HW2 6639   1.449   4.429   5.313
 1914SOL     OW 6640   4.414   1.223   5.146
 1914SOL    HW1 6641   4.351   1.159   5.189
 1914SOL    HW2 6642   4.459   1.177   5.068
 1915SOL     OW 6643   3.839   0.107   5.069
 1915SOL    HW1 6644   3.926   0.126   5.025
 1915SOL    HW2 6645   3.801   0.191   5.108
 1916SOL     OW 6646   4.300   6.462   1.462
 1916SOL    HW1 6647   4.218   6.404   1.465
 1916SOL    HW2 6648   4.276   6.551   1.425
 1917SOL     OW 6649   3.380   3.344   4.154
 1917SOL    HW1 6650   3.409   3.250   4.170
 1917SOL    HW2 6651   3.281   3.352   4.168
 1918SOL     OW 6652   5.757   6.671   3.956
 1918SOL    HW1 6653   5.727   6.766   3.945
 1918SOL    HW2 6654   5.677   6.611   3.957
 1919SOL     OW 6655   6.435   6.585   2.021
 1919SOL    HW1 6656   6.511   6.645   1.995
 1919SOL    HW2 6657   6.433   6.504   1.962
 1920SOL     OW 6658   6.584   6.045   4.261
 1920SOL    HW1 6659   6.608   5.959   4.306
 1920SOL    HW2 6660   6.552   6.026   4.168
 1921SOL     OW 6661   0.678   6.808   6.215
 1921SOL    HW1 6662   0.718   6.863   6.288
 1921SOL    HW2 6663   0.580   6.796   6.232
 1922SOL     OW 6664   3.466   4.377   1.005
 1922SOL    HW1 6665   3.450   4.370   1.104
 1922SOL    HW2 6666   3.403   4.316   0.957
 1923SOL     OW 6667   2.153   2.268   0.599
 1923SOL    HW1 6668   2.186   2.235   0.511
 1923SOL    HW2 6669   2.228   2.307   0.651
 1924SOL     OW 6670   1.052   3.933   2.002
 1924SOL    HW1 6671   1.129   3.998   2.009
 1924SOL    HW2 6672   1.027   3.923   1.905
 1925SOL     OW 6673   3.667   4.225   0.395
 1925SOL    HW1 6674   3.616   4.261   0.473
 1925SOL    HW2 6675   3.644   4.278   0.313
 1926SOL     OW 6676   0.768   0.147   3.644
 1926SOL    HW1 6677   0.818   0.135   3.558
 1926SOL    HW2 6678   0.833   0.153   3.719
 1927SOL     OW 6679   4.017   3.609   6.900
 1927SOL    HW1 6680   4.070   3.584   6.981
 1927SOL    HW2 6681   4.073   3.665   6.839
 1928SOL     OW 6682   6.408   4.865   5.550
 1928SOL    HW1 6683   6.484   4.929   5.534
 1928SOL    HW2 6684   6.322   4.908   5.522
 1929SOL     OW 6685   1.432   0.106   2.893
 1929SOL    HW1 6686   1.503   0.101   2.962
 1929SOL    HW2 6687   1.342   0.109   2.937
 1930SOL     OW 6688   6.039   4.690   0.170
 1930SOL    HW1 6689   5.969   4.630   0.131
 1930SOL    HW2 6690   6.016   4.785   0.147
 1931SOL     OW 6691   0.998   2.497   5.329
 1931SOL    HW1 6692   1.010   2.478   5.427
 1931SOL    HW2 6693   1.083   2.533   5.291
 1932SOL     OW 6694   5.790   3.252   2.284
 1932SOL    HW1 6695   5.771   3.332   2.227
 1932SOL    HW2 6696   5.889   3.240   2.293
 1933SOL     OW 6697   2.882   4.343   1.467
 1933SOL    HW1 6698   2.819   4.333   1.390
 1933SOL    HW2 6699   2.835   4.389   1.542
 1934SOL     OW 6700   0.511   6.314   4.375
 1934SOL    HW1 6701   0.483   6.361   4.459
 1934SOL    HW2 6702   0.466   6.357   4.297
 1935SOL     OW 6703   2.235   0.658   3.900
 1935SOL    HW1 6704   2.191   0.743   3.873
 1935SOL    HW2 6705   2.166   0.587   3.916
 1936SOL     OW 6706   6.670   5.700   5.910
 1936SOL    HW1 6707   6.685   5.617   5.962
 1936SOL    HW2 6708   6.621   5.679   5.825
 1937SOL     OW 6709   4.205   0.197   2.257
 1937SOL    HW1 6710   4.185   0.182   2.354
 1937SOL    HW2 6711   4.156   0.278   2.225
 1938SOL     OW 6712   4.964   0.347   4.038
 1938SOL    HW1 6713   4.978   0.318   3.944
 1938SOL    HW2 6714   5.031   0.417   4.062
 1939SOL     OW 6715   2.091   0.284   3.712
 1939SOL    HW1 6716   2.142   0.207   3.748
 1939SOL    HW2 6717   2.025   0.252   3.644
 1940SOL     OW 6718   0.041   4.984   0.182
 1940SOL    HW1 6719   6.978   5.031   0.185
 1940SOL    HW2 6720   0.085   5.000   0.094
 1941SOL     OW 6721   5.091   4.750   3.166
 1941SOL    HW1 6722   5.079   4.750   3.266
 1941SOL    HW2 6723   5.002   4.750   3.122
 1942SOL     OW 6724   5.819   5.667   2.995
 1942SOL    HW1 6725   5.890   5.734   3.017
 1942SOL    HW2 6726   5.729   5.711   3.001
 1943SOL     OW 6727   2.515   5.106   2.277
 1943SOL    HW1 6728   2.485   5.194   2.314
 1943SOL    HW2 6729   2.582   5.065   2.339
 1944SOL     OW 6730   6.727   1.088   1.680
 1944SOL    HW1 6731   6.689   1.001   1.710
 1944SOL    HW2 6732   6.653   1.150   1.654
 1945SOL     OW 6733   3.316   5.302   4.226
 1945SOL    HW1 6734   3.326   5.228   4.293
 1945SOL    HW2 6735   3.364   5.277   4.142
 1946SOL     OW 6736   1.410   0.660   0.072
 1946SOL    HW1 6737   1.347   0.694   0.141
 1946SOL    HW2 6738   1.475   0.596   0.114
 1947SOL     OW 6739   5.801   5.862   4.560
 1947SOL    HW1 6740   5.718   5.806   4.561
 1947SOL    HW2 6741   5.778   5.956   4.534
 1948SOL     OW 6742   6.007   4.549   5.366
 1948SOL    HW1 6743   6.066   4.574   5.442
 1948SOL    HW2 6744   5.913   4.541   5.398
 1949SOL     OW 6745   5.167   4.261   6.628
 1949SOL    HW1 6746   5.133   4.315   6.705
 1949SOL    HW2 6747   5.099   4.192   6.603
 1950SOL     OW 6748   3.074   3.880   0.264
 1950SOL    HW1 6749   3.171   3.901   0.252
 1950SOL    HW2 6750   3.034   3.858   0.175
 1951SOL     OW 6751   0.070   2.233   0.065
 1951SOL    HW1 6752   0.036   2.187   0.147
 1951SOL    HW2 6753   0.075   2.332   0.081
 1952SOL     OW 6754   3.981   1.686   5.721
 1952SOL    HW1 6755   4.075   1.654   5.734
 1952SOL    HW2 6756   3.918   1.617   5.758
 1953SOL     OW 6757   0.317   3.426   5.641
 1953SOL    HW1 6758   0.391   3.401   5.704
 1953SOL    HW2 6759   0.301   3.525   5.648
 1954SOL     OW 6760   3.397   2.053   3.985
 1954SOL    HW1 6761   3.346   2.086   4.064
 1954SOL    HW2 6762   3.362   1.964   3.957
 1955SOL     OW 6763   6.887   6.317   2.670
 1955SOL    HW1 6764   6.822   6.284   2.602
 1955SOL    HW2 6765   6.846   6.393   2.721
 1956SOL     OW 6766   5.902   5.643   2.673
 1956SOL    HW1 6767   5.826   5.632   2.609
 1956SOL    HW2 6768   5.868   5.634   2.766
 1957SOL     OW 6769   1.100   6.947   4.974
 1957SOL    HW1 6770   1.069   6.853   4.960
 1957SOL    HW2 6771   1.099   6.996   4.886
 1958SOL     OW 6772   5.572   3.825   5.658
 1958SOL    HW1 6773   5.560   3.748   5.721
 1958SOL    HW2 6774   5.613   3.902   5.707
 1959SOL     OW 6775   1.443   2.086   6.689
 1959SOL    HW1 6776   1.359   2.045   6.724
 1959SOL    HW2 6777   1.457   2.058   6.594
 1960SOL     OW 6778   5.567   6.248   1.033
 1960SOL    HW1 6779   5.551   6.150   1.044
 1960SOL    HW2 6780   5.651   6.274   1.080
 1961SOL     OW 6781   5.597   4.604   4.329
 1961SOL    HW1 6782   5.666   4.532   4.324
 1961SOL    HW2 6783   5.639   4.692   4.305
 1962SOL     OW 6784   0.089   6.472   2.984
 1962SOL    HW1 6785   0.049   6.433   3.066
 1962SOL    HW2 6786   0.026   6.539   2.944
 1963SOL     OW 6787   1.602   0.427   3.027
 1963SOL    HW1 6788   1.504   0.405   3.034
 1963SOL    HW2 6789   1.636   0.396   2.939
 1964SOL     OW 6790   5.759   3.293   2.840
 1964SOL    HW1 6791   5.845   3.287   2.789
 1964SOL    HW2 6792   5.766   3.365   2.909
 1965SOL     OW 6793   2.065   4.853   3.596
 1965SOL    HW1 6794   2.081   4.877   3.501
 1965SOL    HW2 6795   2.152   4.856   3.647
 1966SOL     OW 6796   6.692   5.457   6.051
 1966SOL    HW1 6797   6.659   5.402   5.974
 1966SOL    HW2 6798   6.788   5.436   6.068
 1967SOL     OW 6799   4.995   2.017   4.773
 1967SOL    HW1 6800   4.977   2.112   4.751
 1967SOL    HW2 6801   4.917   1.961   4.746
 1968SOL     OW 6802   3.078   5.506   6.255
 1968SOL    HW1 6803   3.058   5.537   6.162
 1968SOL    HW2 6804   3.176   5.517   6.273
 1969SOL     OW 6805   6.418   2.661   1.383
 1969SOL    HW1 6806   6.446   2.629   1.473
 1969SOL    HW2 6807   6.401   2.582   1.324
 1970SOL     OW 6808   1.650   0.355   3.720
 1970SOL    HW1 6809   1.623   0.273   3.669
 1970SOL    HW2 6810   1.701   0.328   3.801
 1971SOL     OW 6811   0.298   6.155   6.636
 1971SOL    HW1 6812   0.315   6.156   6.735
 1971SOL    HW2 6813   0.214   6.105   6.618
 1972SOL     OW 6814   0.524   5.068   4.102
 1972SOL    HW1 6815   0.612   5.052   4.146
 1972SOL    HW2 6816   0.529   5.041   4.006
 1973SOL     OW 6817   3.008   3.085   0.884
 1973SOL    HW1 6818   2.930   3.065   0.825
 1973SOL    HW2 6819   3.076   3.011   0.876
 1974SOL     OW 6820   5.365   0.589   4.384
 1974SOL    HW1 6821   5.319   0.617   4.468
 1974SOL    HW2 6822   5.464   0.606   4.393
 1975SOL     OW 6823   3.433   0.301   3.345
 1975SOL    HW1 6824   3.354   0.361   3.328
 1975SOL    HW2 6825   3.400   0.214   3.383
 1976SOL     OW 6826   0.465   5.228   0.474
 1976SOL    HW1 6827   0.517   5.309   0.445
 1976SOL    HW2 6828   0.397   5.205   0.405
 1977SOL     OW 6829   1.398   2.688   5.000
 1977SOL    HW1 6830   1.487   2.672   5.044
 1977SOL    HW2 6831   1.413   2.723   4.907
 1978SOL     OW 6832   6.650   1.501   5.048
 1978SOL    HW1 6833   6.705   1.578   5.081
 1978SOL    HW2 6834   6.704   1.446   4.984
 1979SOL     OW 6835   5.753   4.847   3.482
 1979SOL    HW1 6836   5.669   4.794   3.479
 1979SOL    HW2 6837   5.784   4.866   3.389
 1980SOL     OW 6838   4.366   0.400   1.617
 1980SOL    HW1 6839   4.435   0.464   1.650
 1980SOL    HW2 6840   4.275   0.441   1.626
 1981SOL     OW 6841   4.639   3.195   1.693
 1981SOL    HW1 6842   4.616   3.133   1.767
 1981SOL    HW2 6843   4.671   3.143   1.614
 1982SOL     OW 6844   5.593   6.235   4.965
 1982SOL    HW1 6845   5.531   6.290   4.909
 1982SOL    HW2 6846   5.629   6.160   4.910
 1983SOL     OW 6847   0.523   3.656   3.263
 1983SOL    HW1 6848   0.470   3.740   3.251
 1983SOL    HW2 6849   0.517   3.599   3.181
 1984SOL     OW 6850   4.202   0.167   5.651
 1984SOL    HW1 6851   4.152   0.219   5.582
 1984SOL    HW2 6852   4.141   0.147   5.728
 1985SOL     OW 6853   1.514   1.055   1.421
 1985SOL    HW1 6854   1.480   1.015   1.506
 1985SOL    HW2 6855   1.593   1.113   1.441
 1986SOL     OW 6856   1.493   1.340   5.840
 1986SOL    HW1 6857   1.558   1.378   5.906
 1986SOL    HW2 6858   1.400   1.366   5.867
 1987SOL     OW 6859   2.604   3.133   6.794
 1987SOL    HW1 6860   2.667   3.068   6.837
 1987SOL    HW2 6861   2.631   3.148   6.699
 1988SOL     OW 6862   4.180   3.639   0.702
 1988SOL    HW1 6863   4.271   3.676   0.686
 1988SOL    HW2 6864   4.157   3.647   0.799
 1989SOL     OW 6865   2.353   0.400   4.460
 1989SOL    HW1 6866   2.401   0.319   4.426
 1989SOL    HW2 6867   2.404   0.482   4.436
 1990SOL     OW 6868   3.007   0.771   1.653
 1990SOL    HW1 6869   3.036   0.690   1.705
 1990SOL    HW2 6870   3.088   0.817   1.615
 1991SOL     OW 6871   3.061   5.494   4.461
 1991SOL    HW1 6872   3.056   5.475   4.559
 1991SOL    HW2 6873   3.156   5.503   4.433
 1992SOL     OW 6874   1.953   6.879   5.237
 1992SOL    HW1 6875   1.960   6.800   5.176
 1992SOL    HW2 6876   1.948   6.963   5.182
 1993SOL     OW 6877   4.101   3.342   5.065
 1993SOL    HW1 6878   4.025   3.378   5.119
 1993SOL    HW2 6879   4.095   3.243   5.062
 1994SOL     OW 6880   6.519   2.274   2.238
 1994SOL    HW1 6881   6.509   2.183   2.198
 1994SOL    HW2 6882   6.562   2.334   2.171
 1995SOL     OW 6883   5.435   2.278   1.849
 1995SOL    HW1 6884   5.501   2.302   1.920
 1995SOL    HW2 6885   5.347   2.256   1.892
 1996SOL     OW 6886   3.382   4.472   0.279
 1996SOL    HW1 6887   3.357   4.441   0.371
 1996SOL    HW2 6888   3.314   4.537   0.246
 1997SOL     OW 6889   5.462   0.796   3.628
 1997SOL    HW1 6890   5.481   0.740   3.547
 1997SOL    HW2 6891   5.527   0.773   3.701
 1998SOL     OW 6892   2.876   4.833   5.266
 1998SOL    HW1 6893   2.957   4.870   5.221
 1998SOL    HW2 6894   2.862   4.738   5.235
 1999SOL     OW 6895   2.153   1.068   1.756
 1999SOL    HW1 6896   2.164   0.977   1.796
 1999SOL    HW2 6897   2.177   1.065   1.659
 2000SOL     OW 6898   3.915   1.409   4.669
 2000SOL    HW1 6899   3.826   1.396   4.625
 2000SOL    HW2 6900   3.902   1.456   4.756
 2001SOL     OW 6901   3.024   2.066   1.022
 2001SOL    HW1 6902   3.031   1.983   0.968
 2001SOL    HW2 6903   3.115   2.105   1.035
 2002SOL     OW 6904   2.094   5.230   5.197
 2002SOL    HW1 6905   2.146   5.313   5.217
 2002SOL    HW2 6906   2.078   5.179   5.281
 2003SOL     OW 6907   5.892   6.091   4.221
 2003SOL    HW1 6908   5.821   6.088   4.150
 2003SOL    HW2 6909   5.929   6.183   4.228
 2004SOL     OW 6910   2.766   0.820   5.544
 2004SOL    HW1 6911   2.683   0.834   5.489
 2004SOL    HW2 6912   2.827   0.898   5.532
 2005SOL     OW 6913   2.700   5.880   5.831
 2005SOL    HW1 6914   2.703   5.860   5.929
 2005SOL    HW2 6915   2.768   5.824   5.784
 2006SOL     OW 6916   3.867   4.916   3.977
 2006SOL    HW1 6917   3.883   5.015   3.975
 2006SOL    HW2 6918   3.939   4.871   4.029
 2007SOL     OW 6919   5.504   5.958   0.687
 2007SOL    HW1 6920   5.562   5.893   0.638
 2007SOL    HW2 6921   5.481   6.034   0.626
 2008SOL     OW 6922   0.339   5.827   4.315
 2008SOL    HW1 6923   0.354   5.914   4.363
 2008SOL    HW2 6924   0.356   5.839   4.218
 2009SOL     OW 6925   0.078   7.017   2.140
 2009SOL    HW1 6926   0.125   6.980   2.060
 2009SOL    HW2 6927   0.020   6.947   2.180
 2010SOL     OW 6928   1.560   0.831   0.443
 2010SOL    HW1 6929   1.585   0.865   0.352
 2010SOL    HW2 6930   1.637   0.782   0.483
 2011SOL     OW 6931   0.048   1.907   5.218
 2011SOL    HW1 6932   7.022   1.989   5.190
 2011SOL    HW2 6933   0.138   1.907   5.176
 2012SOL     OW 6934   1.144   3.978   1.041
 2012SOL    HW1 6935   1.204   4.045   1.000
 2012SOL    HW2 6936   1.132   3.901   0.978
 2013SOL     OW 6937   5.006   1.656   2.258
 2013SOL    HW1 6938   4.925   1.603   2.231
 2013SOL    HW2 6939   4.988   1.700   2.346
 2014SOL     OW 6940   2.149   5.479   2.623
 2014SOL    HW1 6941   2.179   5.551   2.561
 2014SOL    HW2 6942   2.056   5.451   2.599
 2015SOL     OW 6943   3.414   0.438   0.055
 2015SOL    HW1 6944   3.491   0.379   0.080
 2015SOL    HW2 6945   3.416   0.456   6.981
 2016SOL     OW 6946   0.305   5.165   4.468
 2016SOL    HW1 6947   0.313   5.123   4.377
 2016SOL    HW2 6948   0.228   5.124   4.516
 2017SOL     OW 6949   2.703   5.723   2.675
 2017SOL    HW1 6950   2.792   5.746   2.636
 2017SOL    HW2 6951   2.687   5.778   2.757
 2018SOL     OW 6952   0.667   5.706   5.680
 2018SOL    HW1 6953   0.583   5.672   5.639
 2018SOL    HW2 6954   0.733   5.728   5.607
 2019SOL     OW 6955   6.302   2.023   2.404
 2019SOL    HW1 6956   6.391   1.978   2.414
 2019SOL    HW2 6957   6.251   1.979   2.330
 2020SOL     OW 6958   2.977   6.011   3.108
 2020SOL    HW1 6959   3.072   6.041   3.124
 2020SOL    HW2 6960   2.965   5.988   3.012
 2021SOL     OW 6961   1.305   0.615   2.417
 2021SOL    HW1 6962   1.271   0.691   2.471
 2021SOL    HW2 6963   1.246   0.601   2.337
 2022SOL     OW 6964   1.620   3.894   1.568
 2022SOL    HW1 6965   1.631   3.960   1.642
 2022SOL    HW2 6966   1.679   3.918   1.492
 2023SOL     OW 6967   6.804   1.087   6.018
 2023SOL    HW1 6968   6.744   1.121   5.946
 2023SOL    HW2 6969   6.869   1.021   5.980
 2024SOL     OW 6970   5.653   1.108   4.074
 2024SOL    HW1 6971   5.573   1.138   4.021
 2024SOL    HW2 6972   5.728   1.172   4.058
 2025SOL     OW 6973   0.108   1.110   1.794
 2025SOL    HW1 6974   0.065   1.179   1.736
 2025SOL    HW2 6975   0.094   1.134   1.890
 2026SOL     OW 6976   1.564   1.576   5.357
 2026SOL    HW1 6977   1.586   1.512   5.431
 2026SOL    HW2 6978   1.627   1.561   5.281
 2027SOL     OW 6979   0.965   1.713   2.919
 2027SOL    HW1 6980   0.927   1.624   2.894
 2027SOL    HW2 6981   0.893   1.769   2.960
 2028SOL     OW 6982   4.076   3.226   0.035
 2028SOL    HW1 6983   4.142   3.176   0.092
 2028SOL    HW2 6984   3.985   3.218   0.074
 2029SOL     OW 6985   0.796   0.960   0.366
 2029SOL    HW1 6986   0.716   1.005   0.404
 2029SOL    HW2 6987   0.843   1.023   0.303
 2030SOL     OW 6988   1.916   1.186   3.398
 2030SOL    HW1 6989   1.923   1.232   3.309
 2030SOL    HW2 6990   1.985   1.223   3.460
 2031SOL     OW 6991   5.779   0.155   1.911
 2031SOL    HW1 6992   5.862   0.208   1.928
 2031SOL    HW2 6993   5.798   0.058   1.926
 2032SOL     OW 6994   5.219   7.018   1.409
 2032SOL    HW1 6995   5.257   6.966   1.485
 2032SOL    HW2 6996   5.172   6.957   1.346
 2033SOL     OW 6997   5.742   5.073   6.621
 2033SOL    HW1 6998   5.645   5.051   6.624
 2033SOL    HW2 6999   5.754   5.168   6.593
 2034SOL     OW 7000   2.141   0.072   2.896
 2034SOL    HW1 7001   2.188   0.140   2.840
 2034SOL    HW2 7002   2.072   0.025   2.841
 2035SOL     OW 7003   1.548   2.257   2.376
 2035SOL    HW1 7004   1.550   2.163   2.412
 2035SOL    HW2 7005   1.457   2.296   2.391
 2036SOL     OW 7006   1.753   4.530   0.548
 2036SOL    HW1 7007   1.790   4.464   0.483
 2036SOL    HW2 7008   1.714   4.482   0.626
 2037SOL     OW 7009   0.059   1.522   5.827
 2037SOL    HW1 7010   0.146   1.491   5.790
 2037SOL    HW2 7011   0.019   1.591   5.767
 2038SOL     OW 7012   0.654   0.845   3.959
 2038SOL    HW1 7013   0.753   0.851   3.944
 2038SOL    HW2 7014   0.633   0.764   4.014
 2039SOL     OW 7015   0.222   5.119   2.299
 2039SOL    HW1 7016   0.148   5.132   2.365
 2039SOL    HW2 7017   0.184   5.088   2.212
 2040SOL     OW 7018   4.130   3.281   4.140
 2040SOL    HW1 7019   4.124   3.204   4.205
 2040SOL    HW2 7020   4.052   3.277   4.077
 2041SOL     OW 7021   6.082   4.185   5.794
 2041SOL    HW1 7022   6.102   4.279   5.765
 2041SOL    HW2 7023   6.161   4.127   5.774
 2042SOL     OW 7024   4.488   5.402   6.827
 2042SOL    HW1 7025   4.422   5.400   6.903
 2042SOL    HW2 7026   4.440   5.427   6.743
 2043SOL     OW 7027   5.781   4.166   2.246
 2043SOL    HW1 7028   5.715   4.171   2.321
 2043SOL    HW2 7029   5.733   4.172   2.158
 2044SOL     OW 7030   6.622   6.780   1.985
 2044SOL    HW1 7031   6.594   6.875   2.001
 2044SOL    HW2 7032   6.674   6.775   1.899
 2045SOL     OW 7033   2.165   5.199   6.093
 2045SOL    HW1 7034   2.103   5.145   6.149
 2045SOL    HW2 7035   2.260   5.174   6.114
 2046SOL     OW 7036   6.487   0.116   4.846
 2046SOL    HW1 7037   6.433   0.188   4.890
 2046SOL    HW2 7038   6.584   0.129   4.868
 2047SOL     OW 7039   5.358   2.486   0.227
 2047SOL    HW1 7040   5.284   2.533   0.275
 2047SOL    HW2 7041   5.369   2.527   0.136
 2048SOL     OW 7042   4.912   0.021   5.941
 2048SOL    HW1 7043   4.988   0.027   5.876
 2048SOL    HW2 7044   4.853   0.101   5.930
 2049SOL     OW 7045   4.640   0.665   0.243
 2049SOL    HW1 7046   4.704   0.687   0.170
 2049SOL    HW2 7047   4.688   0.662   0.330
 2050SOL     OW 7048   5.601   2.960   3.849
 2050SOL    HW1 7049   5.582   3.058   3.851
 2050SOL    HW2 7050   5.582   2.924   3.758
 2051SOL     OW 7051   1.911   5.835   0.529
 2051SOL    HW1 7052   1.839   5.903   0.543
 2051SOL    HW2 7053   1.878   5.763   0.468
 2052SOL     OW 7054   0.952   3.023   0.407
 2052SOL    HW1 7055   1.012   3.026   0.487
 2052SOL    HW2 7056   0.991   3.079   0.334
 2053SOL     OW 7057   6.372   0.585   0.262
 2053SOL    HW1 7058   6.458   0.554   0.221
 2053SOL    HW2 7059   6.327   0.508   0.307
 2054SOL     OW 7060   5.688   2.160   0.475
 2054SOL    HW1 7061   5.741   2.246   0.476
 2054SOL    HW2 7062   5.595   2.178   0.505
 2055SOL     OW 7063   5.682   2.500   4.348
 2055SOL    HW1 7064   5.742   2.576   4.375
 2055SOL    HW2 7065   5.735   2.415   4.345
 2056SOL     OW 7066   2.394   0.516   3.359
 2056SOL    HW1 7067   2.320   0.516   3.426
 2056SOL    HW2 7068   2.481   0.502   3.406
 2057SOL     OW 7069   0.245   3.258   3.950
 2057SOL    HW1 7070   0.232   3.307   4.036
 2057SOL    HW2 7071   0.167   3.198   3.934
 2058SOL     OW 7072   6.802   1.969   2.132
 2058SOL    HW1 7073   6.799   1.889   2.072
 2058SOL    HW2 7074   6.813   1.939   2.227
 2059SOL     OW 7075   1.961   1.675   6.753
 2059SOL    HW1 7076   1.914   1.649   6.669
 2059SOL    HW2 7077   1.926   1.763   6.785
 2060SOL     OW 7078   7.012   4.981   2.698
 2060SOL    HW1 7079   0.012   5.025   2.784
 2060SOL    HW2 7080   7.007   4.882   2.710
 2061SOL     OW 7081   6.567   1.435   2.221
 2061SOL    HW1 7082   6.471   1.437   2.246
 2061SOL    HW2 7083   6.583   1.363   2.153
 2062SOL     OW 7084   4.921   0.339   3.145
 2062SOL    HW1 7085   4.835   0.367   3.188
 2062SOL    HW2 7086   4.997   0.385   3.190
 2063SOL     OW 7087   2.065   2.774   6.172
 2063SOL    HW1 7088   2.139   2.707   6.180
 2063SOL    HW2 7089   2.015   2.758   6.087
 2064SOL     OW 7090   1.135   2.681   0.123
 2064SOL    HW1 7091   1.057   2.736   0.150
 2064SOL    HW2 7092   1.187   2.654   0.204
 2065SOL     OW 7093   6.391   4.064   1.693
 2065SOL    HW1 7094   6.460   4.135   1.684
 2065SOL    HW2 7095   6.300   4.105   1.692
 2066SOL     OW 7096   0.701   0.208   4.607
 2066SOL    HW1 7097   0.668   0.194   4.513
 2066SOL    HW2 7098   0.686   0.125   4.660
 2067SOL     OW 7099   6.693   6.828   1.488
 2067SOL    HW1 7100   6.719   6.784   1.402
 2067SOL    HW2 7101   6.716   6.925   1.485
 2068SOL     OW 7102   1.596   1.859   5.233
 2068SOL    HW1 7103   1.566   1.803   5.156
 2068SOL    HW2 7104   1.519   1.915   5.265
 2069SOL     OW 7105   1.055   2.264   2.105
 2069SOL    HW1 7106   1.150   2.241   2.127
 2069SOL    HW2 7107   1.018   2.326   2.174
 2070SOL     OW 7108   1.126   1.497   2.441
 2070SOL    HW1 7109   1.123   1.576   2.380
 2070SOL    HW2 7110   1.042   1.443   2.430
 2071SOL     OW 7111   1.317   6.967   4.483
 2071SOL    HW1 7112   1.403   7.006   4.516
 2071SOL    HW2 7113   1.305   6.876   4.521
 2072SOL     OW 7114   5.087   5.524   1.746
 2072SOL    HW1 7115   5.145   5.446   1.724
 2072SOL    HW2 7116   5.109   5.601   1.687
 2073SOL     OW 7117   3.034   6.925   5.876
 2073SOL    HW1 7118   3.024   7.013   5.922
 2073SOL    HW2 7119   2.974   6.857   5.918
 2074SOL     OW 7120   5.805   1.238   1.375
 2074SOL    HW1 7121   5.783   1.329   1.411
 2074SOL    HW2 7122   5.887   1.203   1.421
 2075SOL     OW 7123   4.402   3.324   0.388
 2075SOL    HW1 7124   4.337   3.376   0.444
 2075SOL    HW2 7125   4.495   3.355   0.408
 2076SOL     OW 7126   5.658   6.758   1.257
 2076SOL    HW1 7127   5.645   6.753   1.158
 2076SOL    HW2 7128   5.601   6.689   1.302
 2077SOL     OW 7129   5.149   1.061   2.702
 2077SOL    HW1 7130   5.133   1.124   2.626
 2077SOL    HW2 7131   5.222   1.097   2.761
 2078SOL     OW 7132   3.218   4.436   6.241
 2078SOL    HW1 7133   3.207   4.416   6.144
 2078SOL    HW2 7134   3.199   4.533   6.257
 2079SOL     OW 7135   5.311   1.330   4.111
 2079SOL    HW1 7136   5.301   1.427   4.131
 2079SOL    HW2 7137   5.258   1.276   4.178
 2080SOL     OW 7138   2.702   2.352   4.765
 2080SOL    HW1 7139   2.634   2.313   4.703
 2080SOL    HW2 7140   2.665   2.435   4.807
 2081SOL     OW 7141   0.682   6.212   5.239
 2081SOL    HW1 7142   0.721   6.206   5.147
 2081SOL    HW2 7143   0.655   6.307   5.257
 2082SOL     OW 7144   5.978   0.928   1.159
 2082SOL    HW1 7145   6.056   0.990   1.158
 2082SOL    HW2 7146   6.003   0.843   1.204
 2083SOL     OW 7147   3.490   4.771   5.940
 2083SOL    HW1 7148   3.514   4.738   5.849
 2083SOL    HW2 7149   3.523   4.707   6.009
 2084SOL     OW 7150   0.040   2.739   2.980
 2084SOL    HW1 7151   7.008   2.776   3.054
 2084SOL    HW2 7152   7.020   2.755   2.892
 2085SOL     OW 7153   4.697   0.619   5.677
 2085SOL    HW1 7154   4.675   0.578   5.766
 2085SOL    HW2 7155   4.651   0.707   5.668
 2086SOL     OW 7156   2.576   5.215   0.378
 2086SOL    HW1 7157   2.633   5.151   0.430
 2086SOL    HW2 7158   2.556   5.296   0.434
 2087SOL     OW 7159   5.309   0.100   3.050
 2087SOL    HW1 7160   5.293   0.088   3.148
 2087SOL    HW2 7161   5.223   0.087   3.001
 2088SOL     OW 7162   3.653   0.160   1.011
 2088SOL    HW1 7163   3.623   0.068   1.038
 2088SOL    HW2 7164   3.735   0.185   1.063
 2089SOL     OW 7165   4.916   0.780   6.614
 2089SOL    HW1 7166   4.943   0.685   6.633
 2089SOL    HW2 7167   4.862   0.815   6.691
 2090SOL     OW 7168   3.518   3.822   4.901
 2090SOL    HW1 7169   3.437   3.788   4.948
 2090SOL    HW2 7170   3.515   3.796   4.805
 2091SOL     OW 7171   1.859   5.085   1.212
 2091SOL    HW1 7172   1.859   4.995   1.255
 2091SOL    HW2 7173   1.953   5.119   1.205
 2092SOL     OW 7174   6.622   6.259   0.986
 2092SOL    HW1 7175   6.563   6.205   1.046
 2092SOL    HW2 7176   6.683   6.315   1.042
 2093SOL     OW 7177   1.044   2.926   2.062
 2093SOL    HW1 7178   1.067   3.021   2.040
 2093SOL    HW2 7179   1.063   2.909   2.159
 2094SOL     OW 7180   6.061   0.205   2.169
 2094SOL    HW1 7181   6.092   0.115   2.201
 2094SOL    HW2 7182   6.075   0.212   2.070
 2095SOL     OW 7183   5.579   5.687   4.526
 2095SOL    HW1 7184   5.501   5.681   4.465
 2095SOL    HW2 7185   5.551   5.664   4.620
 2096SOL     OW 7186   4.734   4.105   2.642
 2096SOL    HW1 7187   4.805   4.162   2.683
 2096SOL    HW2 7188   4.672   4.163   2.587
 2097SOL     OW 7189   0.232   2.719   0.104
 2097SOL    HW1 7190   0.178   2.789   0.056
 2097SOL    HW2 7191   0.316   2.701   0.052
 2098SOL     OW 7192   4.331   0.266   4.319
 2098SOL    HW1 7193   4.233   0.263   4.336
 2098SOL    HW2 7194   4.363   0.175   4.292
 2099SOL     OW 7195   3.038   1.001   4.154
 2099SOL    HW1 7196   3.072   1.075   4.096
 2099SOL    HW2 7197   3.113   0.940   4.177
 2100SOL     OW 7198   4.961   4.194   6.163
 2100SOL    HW1 7199   5.016   4.120   6.201
 2100SOL    HW2 7200   4.968   4.274   6.221
 2101SOL     OW 7201   0.329   6.881   3.233
 2101SOL    HW1 7202   0.240   6.906   3.272
 2101SOL    HW2 7203   0.321   6.795   3.182
 2102SOL     OW 7204   6.564   5.367   3.356
 2102SOL    HW1 7205   6.609   5.292   3.307
 2102SOL    HW2 7206   6.546   5.338   3.450
 2103SOL     OW 7207   3.572   3.496   6.695
 2103SOL    HW1 7208   3.645   3.563   6.704
 2103SOL    HW2 7209   3.556   3.478   6.598
 2104SOL     OW 7210   1.617   3.297   5.446
 2104SOL    HW1 7211   1.637   3.306   5.349
 2104SOL    HW2 7212   1.532   3.246   5.459
 2105SOL     OW 7213   5.915   5.991   2.141
 2105SOL    HW1 7214   5.925   6.084   2.178
 2105SOL    HW2 7215   5.970   5.927   2.195
 2106SOL     OW 7216   4.897   5.327   6.670
 2106SOL    HW1 7217   4.948   5.408   6.643
 2106SOL    HW2 7218   4.810   5.324   6.621
 2107SOL     OW 7219   4.290   4.134   5.859
 2107SOL    HW1 7220   4.287   4.201   5.784
 2107SOL    HW2 7221   4.308   4.182   5.945
 2108SOL     OW 7222   5.843   5.364   5.584
 2108SOL    HW1 7223   5.916   5.323   5.639
 2108SOL    HW2 7224   5.796   5.293   5.531
 2109SOL     OW 7225   5.662   6.235   2.472
 2109SOL    HW1 7226   5.672   6.144   2.432
 2109SOL    HW2 7227   5.646   6.302   2.400
 2110SOL     OW 7228   2.644   4.170   6.206
 2110SOL    HW1 7229   2.642   4.252   6.264
 2110SOL    HW2 7230   2.574   4.178   6.135
 2111SOL     OW 7231   1.339   3.097   7.000
 2111SOL    HW1 7232   1.371   3.102   6.905
 2111SOL    HW2 7233   1.417   3.086   0.037
 2112SOL     OW 7234   4.781   3.020   1.524
 2112SOL    HW1 7235   4.799   2.997   1.620
 2112SOL    HW2 7236   4.815   2.946   1.465
 2113SOL     OW 7237   0.920   0.406   2.934
 2113SOL    HW1 7238   0.907   0.356   2.849
 2113SOL    HW2 7239   0.942   0.342   3.007
 2114SOL     OW 7240   1.847   4.016   0.106
 2114SOL    HW1 7241   1.919   3.984   0.044
 2114SOL    HW2 7242   1.761   4.026   0.055
 2115SOL     OW 7243   1.855   4.484   2.410
 2115SOL    HW1 7244   1.757   4.486   2.433
 2115SOL    HW2 7245   1.873   4.554   2.341
 2116SOL     OW 7246   0.496   4.536   3.712
 2116SOL    HW1 7247   0.461   4.448   3.745
 2116SOL    HW2 7248   0.466   4.609   3.772
 2117SOL     OW 7249   0.978   5.196   0.993
 2117SOL    HW1 7250   0.888   5.206   1.034
 2117SOL    HW2 7251   1.018   5.286   0.978
 2118SOL     OW 7252   0.443   3.930   2.273
 2118SOL    HW1 7253   0.511   4.002   2.289
 2118SOL    HW2 7254   0.370   3.937   2.341
 2119SOL     OW 7255   2.054   6.295   1.178
 2119SOL    HW1 7256   2.079   6.372   1.119
 2119SOL    HW2 7257   2.095   6.211   1.142
 2120SOL     OW 7258   6.316   4.802   2.292
 2120SOL    HW1 7259   6.258   4.720   2.291
 2120SOL    HW2 7260   6.399   4.783   2.344
 2121SOL     OW 7261   0.261   5.335   5.214
 2121SOL    HW1 7262   0.228   5.283   5.293
 2121SOL    HW2 7263   0.249   5.281   5.131
 2122SOL     OW 7264   4.699   4.379   4.591
 2122SOL    HW1 7265   4.673   4.438   4.667
 2122SOL    HW2 7266   4.697   4.431   4.506
 2123SOL     OW 7267   6.501   4.899   3.123
 2123SOL    HW1 7268   6.434   4.836   3.084
 2123SOL    HW2 7269   6.466   4.992   3.118
 2124SOL     OW 7270   2.088   2.135   1.188
 2124SOL    HW1 7271   1.996   2.117   1.153
 2124SOL    HW2 7272   2.137   2.049   1.201
 2125SOL     OW 7273   2.968   0.587   0.638
 2125SOL    HW1 7274   3.042   0.652   0.620
 2125SOL    HW2 7275   2.973   0.556   0.733
 2126SOL     OW 7276   3.043   0.786   6.258
 2126SOL    HW1 7277   3.006   0.749   6.344
 2126SOL    HW2 7278   2.991   0.868   6.233
 2127SOL     OW 7279   5.445   2.965   4.898
 2127SOL    HW1 7280   5.518   2.939   4.962
 2127SOL    HW2 7281   5.448   3.064   4.882
 2128SOL     OW 7282   0.569   4.635   4.388
 2128SOL    HW1 7283   0.606   4.703   4.325
 2128SOL    HW2 7284   0.642   4.575   4.420
 2129SOL     OW 7285   4.343   2.004   5.725
 2129SOL    HW1 7286   4.337   1.999   5.625
 2129SOL    HW2 7287   4.424   2.057   5.750
 2130SOL     OW 7288   4.658   6.581   2.087
 2130SOL    HW1 7289   4.695   6.540   2.170
 2130SOL    HW2 7290   4.579   6.638   2.110
 2131SOL     OW 7291   6.779   1.193   0.576
 2131SOL    HW1 7292   6.752   1.123   0.641
 2131SOL    HW2 7293   6.864   1.166   0.531
 2132SOL     OW 7294   2.138   2.865   0.374
 2132SOL    HW1 7295   2.201   2.929   0.330
 2132SOL    HW2 7296   2.136   2.780   0.321
 2133SOL     OW 7297   2.836   2.562   5.773
 2133SOL    HW1 7298   2.863   2.657   5.760
 2133SOL    HW2 7299   2.813   2.547   5.869
 2134SOL     OW 7300   0.724   0.863   0.873
 2134SOL    HW1 7301   0.742   0.830   0.780
 2134SOL    HW2 7302   0.633   0.906   0.875
 2135SOL     OW 7303   0.661   3.889   4.242
 2135SOL    HW1 7304   0.580   3.939   4.212
 2135SOL    HW2 7305   0.726   3.954   4.282
 2136SOL     OW 7306   2.245   5.741   1.771
 2136SOL    HW1 7307   2.324   5.726   1.711
 2136SOL    HW2 7308   2.265   5.816   1.834
 2137SOL     OW 7309   2.445   5.160   4.400
 2137SOL    HW1 7310   2.356   5.159   4.353
 2137SOL    HW2 7311   2.432   5.189   4.495
 2138SOL     OW 7312   5.516   1.402   2.499
 2138SOL    HW1 7313   5.604   1.375   2.539
 2138SOL    HW2 7314   5.459   1.322   2.485
 2139SOL     OW 7315   3.470   1.181   5.222
 2139SOL    HW1 7316   3.484   1.218   5.314
 2139SOL    HW2 7317   3.452   1.256   5.158
 2140SOL     OW 7318   2.371   1.430   5.198
 2140SOL    HW1 7319   2.388   1.473   5.109
 2140SOL    HW2 7320   2.285   1.463   5.235
 2141SOL     OW 7321   6.309   4.510   2.210
 2141SOL    HW1 7322   6.299   4.447   2.287
 2141SOL    HW2 7323   6.405   4.535   2.199
 2142SOL     OW 7324   2.053   2.142   3.493
 2142SOL    HW1 7325   1.968   2.097   3.523
 2142SOL    HW2 7326   2.107   2.166   3.573
 2143SOL     OW 7327   2.226   4.577   0.974
 2143SOL    HW1 7328   2.236   4.605   1.069
 2143SOL    HW2 7329   2.316   4.563   0.933
 2144SOL     OW 7330   6.529   5.679   4.609
 2144SOL    HW1 7331   6.440   5.710   4.641
 2144SOL    HW2 7332   6.598   5.749   4.628
 2145SOL     OW 7333   3.834   6.357   3.993
 2145SOL    HW1 7334   3.859   6.275   4.044
 2145SOL    HW2 7335   3.735   6.366   3.990
 2146SOL     OW 7336   2.157   3.083   1.037
 2146SOL    HW1 7337   2.210   2.999   1.030
 2146SOL    HW2 7338   2.079   3.078   0.974
 2147SOL     OW 7339   5.897   1.230   5.410
 2147SOL    HW1 7340   5.877   1.231   5.312
 2147SOL    HW2 7341   5.971   1.165   5.429
 2148SOL     OW 7342   6.989   3.387   6.988
 2148SOL    HW1 7343   0.001   3.328   0.035
 2148SOL    HW2 7344   6.912   3.440   0.000
 2149SOL     OW 7345   0.730   0.258   0.145
 2149SOL    HW1 7346   0.692   0.309   0.067
 2149SOL    HW2 7347   0.663   0.193   0.179
 2150SOL     OW 7348   2.442   3.588   1.495
 2150SOL    HW1 7349   2.400   3.502   1.466
 2150SOL    HW2 7350   2.419   3.606   1.591
 2151SOL     OW 7351   1.376   5.438   0.033
 2151SOL    HW1 7352   1.377   5.533   0.005
 2151SOL    HW2 7353   1.450   5.422   0.098
 2152SOL     OW 7354   4.242   6.154   3.586
 2152SOL    HW1 7355   4.237   6.144   3.487
 2152SOL    HW2 7356   4.269   6.067   3.628
 2153SOL     OW 7357   4.952   1.046   3.397
 2153SOL    HW1 7358   4.896   0.968   3.371
 2153SOL    HW2 7359   5.047   1.030   3.370
 2154SOL     OW 7360   2.994   6.636   2.799
 2154SOL    HW1 7361   3.087   6.615   2.769
 2154SOL    HW2 7362   2.933   6.561   2.773
 2155SOL     OW 7363   4.819   0.002   1.074
 2155SOL    HW1 7364   4.770   7.000   1.157
 2155SOL    HW2 7365   4.757   0.049   1.011
 2156SOL     OW 7366   5.583   1.692   4.328
 2156SOL    HW1 7367   5.506   1.719   4.385
 2156SOL    HW2 7368   5.667   1.736   4.362
 2157SOL     OW 7369   3.503   5.245   3.786
 2157SOL    HW1 7370   3.437   5.289   3.725
 2157SOL    HW2 7371   3.575   5.201   3.733
 2158SOL     OW 7372   3.085   0.921   0.240
 2158SOL    HW1 7373   3.018   0.957   0.175
 2158SOL    HW2 7374   3.177   0.936   0.206
 2159SOL     OW 7375   1.057   0.437   6.004
 2159SOL    HW1 7376   1.053   0.340   5.980
 2159SOL    HW2 7377   1.137   0.455   6.060
 2160SOL     OW 7378   5.471   6.175   0.514
 2160SOL    HW1 7379   5.456   6.156   0.417
 2160SOL    HW2 7380   5.566   6.200   0.529
 2161SOL     OW 7381   1.377   3.040   2.465
 2161SOL    HW1 7382   1.310   3.024   2.392
 2161SOL    HW2 7383   1.333   3.090   2.539
 2162SOL     OW 7384   1.668   0.351   2.778
 2162SOL    HW1 7385   1.621   0.327   2.692
 2162SOL    HW2 7386   1.737   0.283   2.798
 2163SOL     OW 7387   1.363   3.124   1.759
 2163SOL    HW1 7388   1.272   3.099   1.728
 2163SOL    HW2 7389   1.400   3.197   1.701
 2164SOL     OW 7390   1.705   2.874   3.005
 2164SOL    HW1 7391   1.626   2.886   3.065
 2164SOL    HW2 7392   1.742   2.963   2.979
 2165SOL     OW 7393   7.019   1.914   3.982
 2165SOL    HW1 7394   6.930   1.953   4.003
 2165SOL    HW2 7395   0.022   1.939   3.889
 2166SOL     OW 7396   6.968   4.105   3.549
 2166SOL    HW1 7397   6.991   4.037   3.479
 2166SOL    HW2 7398   6.908   4.063   3.618
 2167SOL     OW 7399   1.858   2.333   4.463
 2167SOL    HW1 7400   1.833   2.282   4.545
 2167SOL    HW2 7401   1.948   2.375   4.476
 2168SOL     OW 7402   1.536   1.847   3.225
 2168SOL    HW1 7403   1.466   1.818   3.161
 2168SOL    HW2 7404   1.625   1.851   3.179
 2169SOL     OW 7405   0.217   0.805   1.989
 2169SOL    HW1 7406   0.278   0.821   2.067
 2169SOL    HW2 7407   0.256   0.848   1.907
 2170SOL     OW 7408   1.010   4.160   6.024
 2170SOL    HW1 7409   0.923   4.139   6.066
 2170SOL    HW2 7410   1.015   4.258   6.003
 2171SOL     OW 7411   0.552   5.392   1.113
 2171SOL    HW1 7412   0.469   5.368   1.164
 2171SOL    HW2 7413   0.586   5.311   1.065
 2172SOL     OW 7414   0.495   1.819   4.919
 2172SOL    HW1 7415   0.485   1.874   4.836
 2172SOL    HW2 7416   0.411   1.823   4.972
 2173SOL     OW 7417   5.477   0.359   5.374
 2173SOL    HW1 7418   5.546   0.288   5.385
 2173SOL    HW2 7419   5.503   0.440   5.426
 2174SOL     OW 7420   0.066   6.042   5.131
 2174SOL    HW1 7421   0.024   6.081   5.213
 2174SOL    HW2 7422   0.072   5.943   5.142
 2175SOL     OW 7423   3.165   3.707   5.346
 2175SOL    HW1 7424   3.255   3.750   5.341
 2175SOL    HW2 7425   3.105   3.749   5.279
 2176SOL     OW 7426   5.458   2.220   1.203
 2176SOL    HW1 7427   5.438   2.293   1.268
 2176SOL    HW2 7428   5.483   2.259   1.114
 2177SOL     OW 7429   0.279   0.402   3.557
 2177SOL    HW1 7430   0.184   0.384   3.581
 2177SOL    HW2 7431   0.321   0.456   3.630
 2178SOL     OW 7432   1.148   2.006   2.859
 2178SOL    HW1 7433   1.182   2.070   2.790
 2178SOL    HW2 7434   1.198   2.019   2.944
 2179SOL     OW 7435   1.806   4.547   6.506
 2179SOL    HW1 7436   1.706   4.539   6.499
 2179SOL    HW2 7437   1.846   4.456   6.512
 2180SOL     OW 7438   0.906   5.329   1.652
 2180SOL    HW1 7439   0.923   5.231   1.660
 2180SOL    HW2 7440   0.950   5.377   1.729
 2181SOL     OW 7441   4.302   4.826   3.818
 2181SOL    HW1 7442   4.396   4.817   3.784
 2181SOL    HW2 7443   4.280   4.748   3.876
 2182SOL     OW 7444   0.131   5.454   2.812
 2182SOL    HW1 7445   0.078   5.483   2.733
 2182SOL    HW2 7446   0.092   5.494   2.895
 2183SOL     OW 7447   3.632   3.012   0.199
 2183SOL    HW1 7448   3.698   2.974   0.264
 2183SOL    HW2 7449   3.575   2.938   0.163
 2184SOL     OW 7450   6.578   0.501   0.119
 2184SOL    HW1 7451   6.665   0.450   0.116
 2184SOL    HW2 7452   6.588   0.586   0.068
 2185SOL     OW 7453   0.284   1.378   6.538
 2185SOL    HW1 7454   0.284   1.394   6.637
 2185SOL    HW2 7455   0.190   1.364   6.507
 2186SOL     OW 7456   6.854   5.215   4.757
 2186SOL    HW1 7457   6.915   5.197   4.834
 2186SOL    HW2 7458   6.880   5.302   4.714
 2187SOL     OW 7459   0.729   5.585   2.902
 2187SOL    HW1 7460   0.635   5.620   2.896
 2187SOL    HW2 7461   0.793   5.661   2.890
 2188SOL     OW 7462   1.691   0.434   0.742
 2188SOL    HW1 7463   1.773   0.445   0.685
 2188SOL    HW2 7464   1.648   0.523   0.756
 2189SOL     OW 7465   2.661   1.798   1.890
 2189SOL    HW1 7466   2.665   1.845   1.802
 2189SOL    HW2 7467   2.637   1.863   1.962
 2190SOL     OW 7468   6.563   4.276   2.385
 2190SOL    HW1 7469   6.643   4.216   2.389
 2190SOL    HW2 7470   6.484   4.227   2.421
 2191SOL     OW 7471   2.680   0.737   6.225
 2191SOL    HW1 7472   2.643   0.780   6.142
 2191SOL    HW2 7473   2.697   0.640   6.207
 2192SOL     OW 7474   4.663   1.184   2.556
 2192SOL    HW1 7475   4.572   1.196   2.518
 2192SOL    HW2 7476   4.665   1.219   2.650
 2193SOL     OW 7477   0.140   6.940   6.137
 2193SOL    HW1 7478   0.157   7.003   6.061
 2193SOL    HW2 7479   0.053   6.894   6.124
 2194SOL     OW 7480   0.979   4.580   5.756
 2194SOL    HW1 7481   0.933   4.667   5.741
 2194SOL    HW2 7482   1.013   4.544   5.669
 2195SOL     OW 7483   0.508   4.283   6.611
 2195SOL    HW1 7484   0.541   4.195   6.644
 2195SOL    HW2 7485   0.549   4.303   6.522
 2196SOL     OW 7486   2.680   5.943   5.438
 2196SOL    HW1 7487   2.588   5.906   5.423
 2196SOL    HW2 7488   2.684   5.984   5.530
 2197SOL     OW 7489   2.627   4.585   5.481
 2197SOL    HW1 7490   2.571   4.653   5.529
 2197SOL    HW2 7491   2.618   4.599   5.382
 2198SOL     OW 7492   0.444   0.537   6.505
 2198SOL    HW1 7493   0.433   0.604   6.579
 2198SOL    HW2 7494   0.372   0.550   6.437
 2199SOL     OW 7495   4.283   6.954   4.530
 2199SOL    HW1 7496   4.229   6.941   4.446
 2199SOL    HW2 7497   4.379   6.935   4.511
 2200SOL     OW 7498   2.853   1.411   4.177
 2200SOL    HW1 7499   2.880   1.418   4.273
 2200SOL    HW2 7500   2.754   1.423   4.169
 2201SOL     OW 7501   6.361   3.576   3.945
 2201SOL    HW1 7502   6.397   3.643   4.009
 2201SOL    HW2 7503   6.286   3.616   3.893
 2202SOL     OW 7504   3.858   5.495   1.877
 2202SOL    HW1 7505   3.870   5.526   1.782
 2202SOL    HW2 7506   3.925   5.540   1.935
 2203SOL     OW 7507   1.969   3.897   1.143
 2203SOL    HW1 7508   1.934   3.856   1.059
 2203SOL    HW2 7509   2.027   3.975   1.121
 2204SOL     OW 7510   4.530   3.126   1.159
 2204SOL    HW1 7511   4.443   3.078   1.175
 2204SOL    HW2 7512   4.598   3.062   1.124
 2205SOL     OW 7513   1.799   5.727   0.008
 2205SOL    HW1 7514   1.710   5.755   0.042
 2205SOL    HW2 7515   1.789   5.643   6.978
 2206SOL     OW 7516   2.612   3.029   6.198
 2206SOL    HW1 7517   2.562   3.078   6.127
 2206SOL    HW2 7518   2.629   3.090   6.275
 2207SOL     OW 7519   4.520   6.041   0.861
 2207SOL    HW1 7520   4.538   6.139   0.855
 2207SOL    HW2 7521   4.430   6.026   0.902
 2208SOL     OW 7522   0.929   5.770   3.764
 2208SOL    HW1 7523   0.945   5.693   3.702
 2208SOL    HW2 7524   0.854   5.826   3.730
 2209SOL     OW 7525   2.996   5.283   5.081
 2209SOL    HW1 7526   3.007   5.184   5.068
 2209SOL    HW2 7527   3.036   5.309   5.170
 2210SOL     OW 7528   5.464   6.199   1.370
 2210SOL    HW1 7529   5.400   6.172   1.442
 2210SOL    HW2 7530   5.416   6.256   1.303
 2211SOL     OW 7531   6.557   0.568   0.782
 2211SOL    HW1 7532   6.621   0.612   0.846
 2211SOL    HW2 7533   6.498   0.505   0.832
 2212SOL     OW 7534   2.756   6.079   6.516
 2212SOL    HW1 7535   2.820   6.009   6.548
 2212SOL    HW2 7536   2.806   6.162   6.494
 2213SOL     OW 7537   3.792   1.925   4.372
 2213SOL    HW1 7538   3.846   1.844   4.353
 2213SOL    HW2 7539   3.808   1.955   4.466
 2214SOL     OW 7540   4.327   3.119   5.572
 2214SOL    HW1 7541   4.292   3.212   5.557
 2214SOL    HW2 7542   4.273   3.074   5.643
 2215SOL     OW 7543   4.985   0.506   6.636
 2215SOL    HW1 7544   5.050   0.431   6.623
 2215SOL    HW2 7545   4.904   0.489   6.579
 2216SOL     OW 7546   0.282   6.658   6.645
 2216SOL    HW1 7547   0.339   6.580   6.620
 2216SOL    HW2 7548   0.327   6.743   6.615
 2217SOL     OW 7549   4.381   0.576   2.799
 2217SOL    HW1 7550   4.420   0.537   2.716
 2217SOL    HW2 7551   4.285   0.600   2.783
 2218SOL     OW 7552   0.465   4.989   5.887
 2218SOL    HW1 7553   0.376   4.942   5.884
 2218SOL    HW2 7554   0.496   4.996   5.982
 2219SOL     OW 7555   5.219   1.514   0.276
 2219SOL    HW1 7556   5.275   1.467   0.208
 2219SOL    HW2 7557   5.186   1.600   0.237
 2220SOL     OW 7558   0.903   6.470   5.676
 2220SOL    HW1 7559   0.803   6.466   5.682
 2220SOL    HW2 7560   0.941   6.379   5.692
 2221SOL     OW 7561   6.907   0.960   4.970
 2221SOL    HW1 7562   6.861   0.945   4.882
 2221SOL    HW2 7563   6.883   1.050   5.005
 2222SOL     OW 7564   5.291   6.268   1.139
 2222SOL    HW1 7565   5.372   6.244   1.086
 2222SOL    HW2 7566   5.240   6.186   1.163
 2223SOL     OW 7567   6.921   0.179   5.680
 2223SOL    HW1 7568   6.882   0.102   5.730
 2223SOL    HW2 7569   6.848   0.245   5.659
 2224SOL     OW 7570   5.353   4.138   1.317
 2224SOL    HW1 7571   5.431   4.123   1.257
 2224SOL    HW2 7572   5.351   4.234   1.346
 2225SOL     OW 7573   0.661   6.679   3.383
 2225SOL    HW1 7574   0.760   6.687   3.396
 2225SOL    HW2 7575   0.621   6.631   3.461
 2226SOL     OW 7576   2.654   5.250   0.805
 2226SOL    HW1 7577   2.576   5.235   0.866
 2226SOL    HW2 7578   2.712   5.321   0.843
 2227SOL     OW 7579   4.238   2.321   1.815
 2227SOL    HW1 7580   4.228   2.389   1.742
 2227SOL    HW2 7581   4.259   2.232   1.775
 2228SOL     OW 7582   5.014   4.715   0.167
 2228SOL    HW1 7583   4.974   4.671   0.247
 2228SOL    HW2 7584   4.944   4.725   0.096
 2229SOL     OW 7585   3.208   3.414   4.661
 2229SOL    HW1 7586   3.209   3.314   4.664
 2229SOL    HW2 7587   3.116   3.445   4.636
 2230SOL     OW 7588   5.530   6.616   0.332
 2230SOL    HW1 7589   5.484   6.535   0.298
 2230SOL    HW2 7590   5.524   6.619   0.432
 2231SOL     OW 7591   0.524   1.018   0.206
 2231SOL    HW1 7592   0.556   1.046   0.296
 2231SOL    HW2 7593   0.599   0.971   0.158
 2232SOL     OW 7594   1.341   0.512   5.861
 2232SOL    HW1 7595   1.314   0.457   5.782
 2232SOL    HW2 7596   1.270   0.580   5.880
 2233SOL     OW 7597   3.465   3.286   1.257
 2233SOL    HW1 7598   3.539   3.345   1.223
 2233SOL    HW2 7599   3.377   3.320   1.223
 2234SOL     OW 7600   4.051   1.762   0.199
 2234SOL    HW1 7601   4.028   1.730   0.291
 2234SOL    HW2 7602   3.970   1.756   0.140
 2235SOL     OW 7603   2.683   0.835   2.460
 2235SOL    HW1 7604   2.633   0.856   2.375
 2235SOL    HW2 7605   2.777   0.809   2.437
 2236SOL     OW 7606   1.903   4.112   5.569
 2236SOL    HW1 7607   1.928   4.120   5.472
 2236SOL    HW2 7608   1.926   4.021   5.602
 2237SOL     OW 7609   5.397   5.165   4.918
 2237SOL    HW1 7610   5.348   5.124   4.841
 2237SOL    HW2 7611   5.494   5.138   4.913
 2238SOL     OW 7612   4.812   4.626   2.456
 2238SOL    HW1 7613   4.835   4.722   2.469
 2238SOL    HW2 7614   4.864   4.570   2.521
 2239SOL     OW 7615   3.930   6.666   3.531
 2239SOL    HW1 7616   3.904   6.570   3.523
 2239SOL    HW2 7617   3.854   6.718   3.571
 2240SOL     OW 7618   5.116   6.062   2.993
 2240SOL    HW1 7619   5.168   6.145   3.016
 2240SOL    HW2 7620   5.158   5.983   3.037
 2241SOL     OW 7621   0.572   6.826   1.687
 2241SOL    HW1 7622   0.555   6.896   1.617
 2241SOL    HW2 7623   0.663   6.787   1.673
 2242SOL     OW 7624   4.824   3.149   3.152
 2242SOL    HW1 7625   4.771   3.234   3.155
 2242SOL    HW2 7626   4.843   3.118   3.245
 2243SOL     OW 7627   1.885   6.616   0.654
 2243SOL    HW1 7628   1.879   6.540   0.718
 2243SOL    HW2 7629   1.976   6.657   0.659
 2244SOL     OW 7630   2.424   0.654   0.585
 2244SOL    HW1 7631   2.462   0.743   0.609
 2244SOL    HW2 7632   2.341   0.637   0.638
 2245SOL     OW 7633   0.619   1.213   0.874
 2245SOL    HW1 7634   0.573   1.258   0.797
 2245SOL    HW2 7635   0.605   1.266   0.957
 2246SOL     OW 7636   2.445   0.714   4.780
 2246SOL    HW1 7637   2.399   0.782   4.723
 2246SOL    HW2 7638   2.501   0.760   4.849
 2247SOL     OW 7639   3.279   4.080   2.625
 2247SOL    HW1 7640   3.364   4.089   2.573
 2247SOL    HW2 7641   3.232   3.997   2.598
 2248SOL     OW 7642   5.574   4.747   5.186
 2248SOL    HW1 7643   5.611   4.710   5.101
 2248SOL    HW2 7644   5.493   4.695   5.214
 2249SOL     OW 7645   2.636   6.635   4.064
 2249SOL    HW1 7646   2.615   6.719   4.113
 2249SOL    HW2 7647   2.573   6.624   3.987
 2250SOL     OW 7648   4.043   3.776   5.994
 2250SOL    HW1 7649   3.978   3.850   5.972
 2250SOL    HW2 7650   4.008   3.689   5.959
 2251SOL     OW 7651   5.366   6.366   6.005
 2251SOL    HW1 7652   5.462   6.365   6.032
 2251SOL    HW2 7653   5.342   6.457   5.971
 2252SOL     OW 7654   5.206   1.459   2.674
 2252SOL    HW1 7655   5.158   1.467   2.761
 2252SOL    HW2 7656   5.203   1.548   2.627
 2253SOL     OW 7657   0.553   3.215   0.637
 2253SOL    HW1 7658   0.573   3.172   0.549
 2253SOL    HW2 7659   0.570   3.150   0.711
 2254SOL     OW 7660   3.803   3.999   2.615
 2254SOL    HW1 7661   3.781   3.973   2.709
 2254SOL    HW2 7662   3.874   3.939   2.580
 2255SOL     OW 7663   2.617   4.277   5.292
 2255SOL    HW1 7664   2.711   4.253   5.313
 2255SOL    HW2 7665   2.611   4.375   5.272
 2256SOL     OW 7666   5.227   6.176   2.127
 2256SOL    HW1 7667   5.186   6.237   2.059
 2256SOL    HW2 7668   5.228   6.082   2.092
 2257SOL     OW 7669   0.256   1.741   4.478
 2257SOL    HW1 7670   0.156   1.743   4.484
 2257SOL    HW2 7671   0.285   1.776   4.389
 2258SOL     OW 7672   2.067   6.602   4.669
 2258SOL    HW1 7673   2.162   6.630   4.683
 2258SOL    HW2 7674   2.007   6.660   4.725
 2259SOL     OW 7675   6.434   2.534   4.603
 2259SOL    HW1 7676   6.430   2.521   4.504
 2259SOL    HW2 7677   6.504   2.602   4.624
 2260SOL     OW 7678   0.960   3.967   1.745
 2260SOL    HW1 7679   0.871   3.924   1.761
 2260SOL    HW2 7680   1.025   3.897   1.714
 2261SOL     OW 7681   5.728   3.554   0.109
 2261SOL    HW1 7682   5.711   3.599   0.197
 2261SOL    HW2 7683   5.642   3.514   0.077
 2262SOL     OW 7684   6.702   0.545   3.984
 2262SOL    HW1 7685   6.645   0.585   4.056
 2262SOL    HW2 7686   6.779   0.607   3.965
 2263SOL     OW 7687   1.119   5.060   0.469
 2263SOL    HW1 7688   1.098   4.968   0.503
 2263SOL    HW2 7689   1.069   5.128   0.523
 2264SOL     OW 7690   2.159   6.675   6.485
 2264SOL    HW1 7691   2.199   6.677   6.577
 2264SOL    HW2 7692   2.167   6.766   6.445
 2265SOL     OW 7693   1.516   0.233   4.033
 2265SOL    HW1 7694   1.583   0.188   3.973
 2265SOL    HW2 7695   1.557   0.244   4.124
 2266SOL     OW 7696   5.169   1.395   6.361
 2266SOL    HW1 7697   5.259   1.395   6.316
 2266SOL    HW2 7698   5.181   1.372   6.458
 2267SOL     OW 7699   4.725   2.431   4.799
 2267SOL    HW1 7700   4.669   2.350   4.779
 2267SOL    HW2 7701   4.708   2.501   4.729
 2268SOL     OW 7702   6.461   3.957   6.362
 2268SOL    HW1 7703   6.502   3.866   6.357
 2268SOL    HW2 7704   6.361   3.949   6.368
 2269SOL     OW 7705   1.026   2.948   5.202
 2269SOL    HW1 7706   1.123   2.934   5.182
 2269SOL    HW2 7707   1.014   2.961   5.300
 2270SOL     OW 7708   4.179   2.979   5.796
 2270SOL    HW1 7709   4.132   2.998   5.883
 2270SOL    HW2 7710   4.270   2.941   5.816
 2271SOL     OW 7711   5.808   4.188   6.678
 2271SOL    HW1 7712   5.740   4.246   6.634
 2271SOL    HW2 7713   5.774   4.094   6.683
 2272SOL     OW 7714   6.189   0.867   5.996
 2272SOL    HW1 7715   6.241   0.918   6.065
 2272SOL    HW2 7716   6.166   0.777   6.032
 2273SOL     OW 7717   1.993   2.474   2.637
 2273SOL    HW1 7718   1.901   2.434   2.648
 2273SOL    HW2 7719   2.002   2.511   2.545
 2274SOL     OW 7720   0.342   1.390   0.308
 2274SOL    HW1 7721   0.282   1.388   0.228
 2274SOL    HW2 7722   0.337   1.302   0.356
 2275SOL     OW 7723   5.759   4.801   2.473
 2275SOL    HW1 7724   5.710   4.719   2.444
 2275SOL    HW2 7725   5.792   4.851   2.393
 2276SOL     OW 7726   1.405   1.273   1.294
 2276SOL    HW1 7727   1.476   1.336   1.264
 2276SOL    HW2 7728   1.447   1.191   1.333
 2277SOL     OW 7729   3.714   4.112   3.672
 2277SOL    HW1 7730   3.791   4.062   3.711
 2277SOL    HW2 7731   3.642   4.121   3.741
 2278SOL     OW 7732   0.750   3.186   3.853
 2278SOL    HW1 7733   0.685   3.110   3.844
 2278SOL    HW2 7734   0.736   3.251   3.779
 2279SOL     OW 7735   0.004   5.752   6.247
 2279SOL    HW1 7736   6.933   5.774   6.269
 2279SOL    HW2 7737   0.065   5.807   6.304
 2280SOL     OW 7738   5.114   0.800   5.525
 2280SOL    HW1 7739   5.162   0.850   5.453
 2280SOL    HW2 7740   5.086   0.711   5.491
 2281SOL     OW 7741   4.578   6.361   2.250
 2281SOL    HW1 7742   4.514   6.285   2.254
 2281SOL    HW2 7743   4.555   6.429   2.319
 2282SOL     OW 7744   4.725   5.258   5.650
 2282SOL    HW1 7745   4.647   5.291   5.705
 2282SOL    HW2 7746   4.694   5.182   5.592
 2283SOL     OW 7747   1.796   0.755   3.221
 2283SOL    HW1 7748   1.749   0.833   3.263
 2283SOL    HW2 7749   1.769   0.747   3.125
 2284SOL     OW 7750   0.737   3.059   6.185
 2284SOL    HW1 7751   0.689   2.979   6.224
 2284SOL    HW2 7752   0.747   3.129   6.256
 2285SOL     OW 7753   1.037   3.788   0.014
 2285SOL    HW1 7754   1.014   3.691   0.003
 2285SOL    HW2 7755   1.114   3.812   6.979
 2286SOL     OW 7756   5.111   6.805   3.393
 2286SOL    HW1 7757   5.200   6.764   3.416
 2286SOL    HW2 7758   5.101   6.810   3.294
 2287SOL     OW 7759   2.683   1.008   3.355
 2287SOL    HW1 7760   2.608   0.981   3.415
 2287SOL    HW2 7761   2.723   0.928   3.312
 2288SOL     OW 7762   0.171   5.138   3.703
 2288SOL    HW1 7763   0.219   5.225   3.715
 2288SOL    HW2 7764   0.126   5.138   3.614
 2289SOL     OW 7765   0.368   5.355   1.838
 2289SOL    HW1 7766   0.388   5.436   1.782
 2289SOL    HW2 7767   0.403   5.370   1.930
 2290SOL     OW 7768   1.066   4.337   1.163
 2290SOL    HW1 7769   1.075   4.415   1.102
 2290SOL    HW2 7770   1.009   4.267   1.120
 2291SOL     OW 7771   3.043   1.633   5.939
 2291SOL    HW1 7772   2.985   1.600   6.013
 2291SOL    HW2 7773   2.995   1.626   5.852
 2292SOL     OW 7774   1.479   0.736   4.848
 2292SOL    HW1 7775   1.475   0.831   4.817
 2292SOL    HW2 7776   1.433   0.677   4.781
 2293SOL     OW 7777   5.064   5.336   1.481
 2293SOL    HW1 7778   5.029   5.259   1.428
 2293SOL    HW2 7779   5.135   5.303   1.544
 2294SOL     OW 7780   4.072   0.017   6.717
 2294SOL    HW1 7781   4.159   0.020   6.766
 2294SOL    HW2 7782   3.999   0.051   6.776
 2295SOL     OW 7783   0.133   1.887   2.017
 2295SOL    HW1 7784   0.140   1.947   2.097
 2295SOL    HW2 7785   0.213   1.900   1.959
 2296SOL     OW 7786   3.303   1.076   0.598
 2296SOL    HW1 7787   3.287   0.990   0.647
 2296SOL    HW2 7788   3.218   1.107   0.555
 2297SOL     OW 7789   4.566   4.325   5.524
 2297SOL    HW1 7790   4.543   4.397   5.459
 2297SOL    HW2 7791   4.553   4.236   5.481
 2298SOL     OW 7792   3.462   2.422   1.302
 2298SOL    HW1 7793   3.515   2.344   1.336
 2298SOL    HW2 7794   3.521   2.501   1.292
 2299SOL     OW 7795   5.232   6.195   6.907
 2299SOL    HW1 7796   5.299   6.144   6.960
 2299SOL    HW2 7797   5.251   6.293   6.915
 2300SOL     OW 7798   1.710   5.250   1.568
 2300SOL    HW1 7799   1.777   5.188   1.609
 2300SOL    HW2 7800   1.757   5.319   1.514
 2301SOL     OW 7801   3.222   3.577   3.158
 2301SOL    HW1 7802   3.127   3.549   3.169
 2301SOL    HW2 7803   3.234   3.619   3.068
 2302SOL     OW 7804   3.839   6.082   2.380
 2302SOL    HW1 7805   3.908   6.012   2.399
 2302SOL    HW2 7806   3.755   6.061   2.431
 2303SOL     OW 7807   1.072   3.527   5.046
 2303SOL    HW1 7808   1.059   3.468   5.126
 2303SOL    HW2 7809   1.119   3.611   5.073
 2304SOL     OW 7810   2.555   0.149   3.445
 2304SOL    HW1 7811   2.623   0.143   3.372
 2304SOL    HW2 7812   2.560   0.239   3.488
 2305SOL     OW 7813   3.928   5.691   2.340
 2305SOL    HW1 7814   3.978   5.772   2.372
 2305SOL    HW2 7815   3.848   5.676   2.399
 2306SOL     OW 7816   2.055   4.720   1.942
 2306SOL    HW1 7817   2.035   4.623   1.927
 2306SOL    HW2 7818   2.150   4.738   1.917
 2307SOL     OW 7819   1.416   3.662   3.175
 2307SOL    HW1 7820   1.410   3.703   3.084
 2307SOL    HW2 7821   1.387   3.729   3.244
 2308SOL     OW 7822   0.916   0.857   6.598
 2308SOL    HW1 7823   0.859   0.899   6.527
 2308SOL    HW2 7824   0.863   0.847   6.682
 2309SOL     OW 7825   3.422   5.704   0.224
 2309SOL    HW1 7826   3.498   5.704   0.290
 2309SOL    HW2 7827   3.421   5.791   0.176
 2310SOL     OW 7828   6.245   0.028   1.907
 2310SOL    HW1 7829   6.255   7.018   1.814
 2310SOL    HW2 7830   6.160   0.080   1.915
 2311SOL     OW 7831   3.107   0.004   2.569
 2311SOL    HW1 7832   3.042   6.983   2.630
 2311SOL    HW2 7833   3.061   0.029   2.484
 2312SOL     OW 7834   3.588   0.040   2.723
 2312SOL    HW1 7835   3.593   0.139   2.716
 2312SOL    HW2 7836   3.658   0.007   2.787
 2313SOL     OW 7837   5.206   4.411   2.267
 2313SOL    HW1 7838   5.240   4.490   2.216
 2313SOL    HW2 7839   5.183   4.338   2.203
 2314SOL     OW 7840   6.014   0.410   3.627
 2314SOL    HW1 7841   5.956   0.441   3.703
 2314SOL    HW2 7842   6.060   0.489   3.586
 2315SOL     OW 7843   4.853   3.787   5.963
 2315SOL    HW1 7844   4.916   3.864   5.974
 2315SOL    HW2 7845   4.762   3.814   5.993
 2316SOL     OW 7846   2.932   1.035   5.946
 2316SOL    HW1 7847   3.018   1.077   5.918
 2316SOL    HW2 7848   2.929   0.940   5.914
 2317SOL     OW 7849   6.501   5.944   3.889
 2317SOL    HW1 7850   6.480   5.964   3.793
 2317SOL    HW2 7851   6.465   6.017   3.947
 2318SOL     OW 7852   2.136   3.621   4.604
 2318SOL    HW1 7853   2.181   3.707   4.577
 2318SOL    HW2 7854   2.143   3.610   4.703
 2319SOL     OW 7855   2.748   5.173   4.741
 2319SOL    HW1 7856   2.848   5.169   4.737
 2319SOL    HW2 7857   2.710   5.099   4.686
 2320SOL     OW 7858   1.073   2.945   5.482
 2320SOL    HW1 7859   0.991   2.915   5.531
 2320SOL    HW2 7860   1.124   2.865   5.452
 2321SOL     OW 7861   2.682   4.849   6.559
 2321SOL    HW1 7862   2.778   4.854   6.530
 2321SOL    HW2 7863   2.629   4.797   6.493
 2322SOL     OW 7864   2.161   3.668   2.233
 2322SOL    HW1 7865   2.063   3.658   2.218
 2322SOL    HW2 7866   2.210   3.647   2.148
 2323SOL     OW 7867   3.381   5.120   2.136
 2323SOL    HW1 7868   3.371   5.022   2.123
 2323SOL    HW2 7869   3.364   5.167   2.049
 2324SOL     OW 7870   6.871   6.038   1.903
 2324SOL    HW1 7871   6.852   6.016   1.808
 2324SOL    HW2 7872   6.948   5.982   1.936
 2325SOL     OW 7873   6.915   4.918   1.784
 2325SOL    HW1 7874   6.909   4.957   1.876
 2325SOL    HW2 7875   6.860   4.973   1.721
 2326SOL     OW 7876   1.559   5.838   6.537
 2326SOL    HW1 7877   1.563   5.745   6.574
 2326SOL    HW2 7878   1.582   5.903   6.609
 2327SOL     OW 7879   0.028   0.586   2.867
 2327SOL    HW1 7880   7.004   0.660   2.915
 2327SOL    HW2 7881   0.125   0.591   2.888
 2328SOL     OW 7882   1.612   1.520   2.128
 2328SOL    HW1 7883   1.646   1.570   2.207
 2328SOL    HW2 7884   1.569   1.435   2.158
 2329SOL     OW 7885   0.778   4.493   4.450
 2329SOL    HW1 7886   0.777   4.408   4.503
 2329SOL    HW2 7887   0.808   4.474   4.357
 2330SOL     OW 7888   6.997   2.868   0.397
 2330SOL    HW1 7889   6.914   2.859   0.452
 2330SOL    HW2 7890   6.988   2.945   0.335
 2331SOL     OW 7891   3.232   5.393   6.997
 2331SOL    HW1 7892   3.321   5.391   0.018
 2331SOL    HW2 7893   3.187   5.481   7.014
 2332SOL     OW 7894   5.821   0.099   5.650
 2332SOL    HW1 7895   5.772   0.020   5.686
 2332SOL    HW2 7896   5.880   0.138   5.721
 2333SOL     OW 7897   6.647   5.116   2.725
 2333SOL    HW1 7898   6.548   5.104   2.718
 2333SOL    HW2 7899   6.676   5.095   2.818
 2334SOL     OW 7900   1.188   1.371   6.714
 2334SOL    HW1 7901   1.139   1.297   6.668
 2334SOL    HW2 7902   1.124   1.424   6.770
 2335SOL     OW 7903   5.824   0.589   4.102
 2335SOL    HW1 7904   5.886   0.534   4.046
 2335SOL    HW2 7905   5.877   0.656   4.154
 2336SOL     OW 7906   2.808   1.940   3.805
 2336SOL    HW1 7907   2.711   1.921   3.821
 2336SOL    HW2 7908   2.822   1.963   3.709
 2337SOL     OW 7909   4.083   1.441   1.638
 2337SOL    HW1 7910   4.127   1.510   1.696
 2337SOL    HW2 7911   4.028   1.379   1.694
 2338SOL     OW 7912   0.999   3.993   4.317
 2338SOL    HW1 7913   1.089   3.950   4.312
 2338SOL    HW2 7914   0.971   4.023   4.226
 2339SOL     OW 7915   3.033   3.788   3.487
 2339SOL    HW1 7916   3.008   3.785   3.583
 2339SOL    HW2 7917   2.969   3.846   3.436
 2340SOL     OW 7918   0.516   4.608   0.189
 2340SOL    HW1 7919   0.590   4.661   0.149
 2340SOL    HW2 7920   0.547   4.566   0.275
 2341SOL     OW 7921   2.316   4.694   2.332
 2341SOL    HW1 7922   2.383   4.641   2.384
 2341SOL    HW2 7923   2.245   4.728   2.394
 2342SOL     OW 7924   2.028   6.826   4.398
 2342SOL    HW1 7925   2.126   6.842   4.398
 2342SOL    HW2 7926   1.988   6.863   4.483
 2343SOL     OW 7927   2.581   6.071   2.749
 2343SOL    HW1 7928   2.638   6.080   2.667
 2343SOL    HW2 7929   2.549   6.161   2.778
 2344SOL     OW 7930   6.983   5.564   0.123
 2344SOL    HW1 7931   6.962   5.566   0.026
 2344SOL    HW2 7932   6.915   5.510   0.171
 2345SOL     OW 7933   2.844   5.571   4.761
 2345SOL    HW1 7934   2.806   5.663   4.757
 2345SOL    HW2 7935   2.862   5.539   4.668
 2346SOL     OW 7936   4.004   3.157   5.380
 2346SOL    HW1 7937   3.936   3.205   5.436
 2346SOL    HW2 7938   4.087   3.213   5.374
 2347SOL     OW 7939   1.503   1.817   1.522
 2347SOL    HW1 7940   1.458   1.791   1.608
 2347SOL    HW2 7941   1.509   1.917   1.516
 2348SOL     OW 7942   2.219   6.395   3.734
 2348SOL    HW1 7943   2.218   6.364   3.639
 2348SOL    HW2 7944   2.238   6.317   3.794
 2349SOL     OW 7945   0.874   4.165   6.753
 2349SOL    HW1 7946   0.781   4.129   6.753
 2349SOL    HW2 7947   0.930   4.114   6.688
 2350SOL     OW 7948   6.271   4.070   6.077
 2350SOL    HW1 7949   6.290   4.154   6.026
 2350SOL    HW2 7950   6.229   4.094   6.165
 2351SOL     OW 7951   3.382   4.924   3.870
 2351SOL    HW1 7952   3.294   4.883   3.847
 2351SOL    HW2 7953   3.368   5.002   3.931
 2352SOL     OW 7954   6.773   3.234   3.408
 2352SOL    HW1 7955   6.774   3.138   3.435
 2352SOL    HW2 7956   6.845   3.284   3.457
 2353SOL     OW 7957   4.443   4.576   4.388
 2353SOL    HW1 7958   4.536   4.605   4.365
 2353SOL    HW2 7959   4.439   4.550   4.485
 2354SOL     OW 7960   2.069   2.324   4.849
 2354SOL    HW1 7961   1.997   2.321   4.918
 2354SOL    HW2 7962   2.076   2.235   4.804
 2355SOL     OW 7963   2.050   6.259   5.625
 2355SOL    HW1 7964   1.952   6.241   5.622
 2355SOL    HW2 7965   2.098   6.183   5.580
 2356SOL     OW 7966   0.955   3.012   6.594
 2356SOL    HW1 7967   0.981   2.990   6.500
 2356SOL    HW2 7968   1.025   3.072   6.634
 2357SOL     OW 7969   3.912   1.030   2.093
 2357SOL    HW1 7970   3.862   0.944   2.082
 2357SOL    HW2 7971   4.001   1.023   2.048
 2358SOL     OW 7972   2.835   5.251   5.572
 2358SOL    HW1 7973   2.809   5.237   5.476
 2358SOL    HW2 7974   2.801   5.175   5.627
 2359SOL     OW 7975   0.520   0.876   6.037
 2359SOL    HW1 7976   0.504   0.928   6.121
 2359SOL    HW2 7977   0.605   0.824   6.046
 2360SOL     OW 7978   5.949   3.832   0.407
 2360SOL    HW1 7979   6.011   3.901   0.370
 2360SOL    HW2 7980   5.919   3.859   0.499
 2361SOL     OW 7981   3.285   1.401   6.456
 2361SOL    HW1 7982   3.296   1.363   6.547
 2361SOL    HW2 7983   3.375   1.411   6.413
 2362SOL     OW 7984   3.050   6.125   3.774
 2362SOL    HW1 7985   3.026   6.095   3.681
 2362SOL    HW2 7986   3.000   6.069   3.841
 2363SOL     OW 7987   3.440   1.788   3.723
 2363SOL    HW1 7988   3.356   1.792   3.778
 2363SOL    HW2 7989   3.517   1.818   3.777
 2364SOL     OW 7990   1.839   2.569   2.255
 2364SOL    HW1 7991   1.915   2.596   2.315
 2364SOL    HW2 7992   1.804   2.650   2.207
 2365SOL     OW 7993   6.444   1.575   6.530
 2365SOL    HW1 7994   6.477   1.594   6.437
 2365SOL    HW2 7995   6.415   1.479   6.536
 2366SOL     OW 7996   2.706   5.410   6.988
 2366SOL    HW1 7997   2.707   5.491   0.021
 2366SOL    HW2 7998   2.699   5.328   0.020
 2367SOL     OW 7999   2.103   3.629   0.935
 2367SOL    HW1 8000   2.182   3.604   0.991
 2367SOL    HW2 8001   2.134   3.648   0.842
 2368SOL     OW 8002   5.569   6.696   4.736
 2368SOL    HW1 8003   5.584   6.751   4.654
 2368SOL    HW2 8004   5.656   6.676   4.780
 2369SOL     OW 8005   1.913   6.951   4.619
 2369SOL    HW1 8006   1.947   6.958   4.713
 2369SOL    HW2 8007   1.867   0.011   4.593
 2370SOL     OW 8008   5.617   3.109   0.205
 2370SOL    HW1 8009   5.578   3.120   0.296
 2370SOL    HW2 8010   5.712   3.142   0.205
 2371SOL     OW 8011   2.508   6.863   2.273
 2371SOL    HW1 8012   2.451   6.783   2.290
 2371SOL    HW2 8013   2.475   6.912   2.192
 2372SOL     OW 8014   6.723   2.401   2.017
 2372SOL    HW1 8015   6.808   2.381   2.066
 2372SOL    HW2 8016   6.745   2.437   1.926
 2373SOL     OW 8017   1.216   3.572   5.816
 2373SOL    HW1 8018   1.214   3.478   5.850
 2373SOL    HW2 8019   1.305   3.589   5.775
 2374SOL     OW 8020   6.913   2.177   4.881
 2374SOL    HW1 8021   6.884   2.111   4.812
 2374SOL    HW2 8022   6.930   2.265   4.837
 2375SOL     OW 8023   3.273   5.112   6.251
 2375SOL    HW1 8024   3.180   5.094   6.218
 2375SOL    HW2 8025   3.337   5.102   6.175
 2376SOL     OW 8026   6.056   3.444   4.094
 2376SOL    HW1 8027   6.098   3.450   4.003
 2376SOL    HW2 8028   6.070   3.531   4.142
 2377SOL     OW 8029   3.909   3.938   3.797
 2377SOL    HW1 8030   3.874   3.844   3.792
 2377SOL    HW2 8031   3.967   3.947   3.879
 2378SOL     OW 8032   4.889   1.676   0.332
 2378SOL    HW1 8033   4.904   1.745   0.261
 2378SOL    HW2 8034   4.802   1.694   0.378
 2379SOL     OW 8035   6.730   0.780   0.374
 2379SOL    HW1 8036   6.671   0.729   0.437
 2379SOL    HW2 8037   6.676   0.852   0.330
 2380SOL     OW 8038   6.734   2.306   0.218
 2380SOL    HW1 8039   6.650   2.333   0.265
 2380SOL    HW2 8040   6.762   2.215   0.250
 2381SOL     OW 8041   2.591   5.509   3.050
 2381SOL    HW1 8042   2.519   5.527   3.118
 2381SOL    HW2 8043   2.559   5.536   2.960
 2382SOL     OW 8044   1.756   3.979   4.355
 2382SOL    HW1 8045   1.808   3.898   4.382
 2382SOL    HW2 8046   1.814   4.038   4.298
 2383SOL     OW 8047   6.592   0.194   1.012
 2383SOL    HW1 8048   6.692   0.201   1.010
 2383SOL    HW2 8049   6.561   0.201   1.107
 2384SOL     OW 8050   5.493   1.650   2.618
 2384SOL    HW1 8051   5.511   1.617   2.711
 2384SOL    HW2 8052   5.488   1.572   2.556
 2385SOL     OW 8053   0.176   0.270   0.167
 2385SOL    HW1 8054   0.239   0.306   0.097
 2385SOL    HW2 8055   0.190   0.320   0.253
 2386SOL     OW 8056   5.060   6.078   4.214
 2386SOL    HW1 8057   5.077   5.983   4.241
 2386SOL    HW2 8058   4.999   6.080   4.135
 2387SOL     OW 8059   2.080   1.179   3.873
 2387SOL    HW1 8060   2.088   1.080   3.882
 2387SOL    HW2 8061   1.983   1.205   3.878
 2388SOL     OW 8062   6.912   2.272   3.508
 2388SOL    HW1 8063   6.895   2.301   3.414
 2388SOL    HW2 8064   6.829   2.285   3.563
 2389SOL     OW 8065   4.113   4.770   3.200
 2389SOL    HW1 8066   4.083   4.796   3.109
 2389SOL    HW2 8067   4.187   4.702   3.194
 2390SOL     OW 8068   3.928   3.012   3.510
 2390SOL    HW1 8069   3.839   3.049   3.485
 2390SOL    HW2 8070   3.987   3.010   3.430
 2391SOL     OW 8071   5.562   4.608   6.172
 2391SOL    HW1 8072   5.570   4.550   6.253
 2391SOL    HW2 8073   5.581   4.552   6.090
 2392SOL     OW 8074   3.003   6.628   5.837
 2392SOL    HW1 8075   3.091   6.587   5.859
 2392SOL    HW2 8076   3.017   6.705   5.774
 2393SOL     OW 8077   5.347   3.696   6.449
 2393SOL    HW1 8078   5.303   3.719   6.362
 2393SOL    HW2 8079   5.437   3.656   6.432
 2394SOL     OW 8080   0.510   3.776   4.794
 2394SOL    HW1 8081   0.544   3.791   4.701
 2394SOL    HW2 8082   0.440   3.843   4.816
 2395SOL     OW 8083   4.980   6.977   6.197
 2395SOL    HW1 8084   4.947   6.983   6.102
 2395SOL    HW2 8085   4.935   0.024   6.251
 2396SOL     OW 8086   3.629   4.927   1.093
 2396SOL    HW1 8087   3.725   4.912   1.115
 2396SOL    HW2 8088   3.601   5.017   1.124
 2397SOL     OW 8089   0.733   4.232   4.911
 2397SOL    HW1 8090   0.638   4.261   4.918
 2397SOL    HW2 8091   0.738   4.132   4.915
 2398SOL     OW 8092   4.620   4.331   7.009
 2398SOL    HW1 8093   4.530   4.334   0.028
 2398SOL    HW2 8094   4.624   4.252   6.948
 2399SOL     OW 8095   4.972   0.919   0.827
 2399SOL    HW1 8096   5.022   0.971   0.896
 2399SOL    HW2 8097   4.986   0.961   0.737
 2400SOL     OW 8098   2.896   3.597   0.857
 2400SOL    HW1 8099   2.815   3.569   0.909
 2400SOL    HW2 8100   2.966   3.631   0.920
 2401SOL     OW 8101   5.443   6.383   0.261
 2401SOL    HW1 8102   5.387   6.302   0.275
 2401SOL    HW2 8103   5.534   6.357   0.229
 2402SOL     OW 8104   0.668   0.149   4.339
 2402SOL    HW1 8105   0.588   0.099   4.305
 2402SOL    HW2 8106   0.690   0.223   4.275
 2403SOL     OW 8107   1.788   2.174   6.232
 2403SOL    HW1 8108   1.693   2.164   6.260
 2403SOL    HW2 8109   1.844   2.193   6.312
 2404SOL     OW 8110   2.641   1.215   1.216
 2404SOL    HW1 8111   2.635   1.315   1.214
 2404SOL    HW2 8112   2.550   1.176   1.206
 2405SOL     OW 8113   3.552   3.831   2.500
 2405SOL    HW1 8114   3.628   3.775   2.532
 2405SOL    HW2 8115   3.470   3.811   2.554
 2406SOL     OW 8116   3.383   1.010   1.062
 2406SOL    HW1 8117   3.472   1.037   1.024
 2406SOL    HW2 8118   3.397   0.947   1.138
 2407SOL     OW 8119   5.661   2.122   3.335
 2407SOL    HW1 8120   5.654   2.034   3.288
 2407SOL    HW2 8121   5.687   2.193   3.269
 2408SOL     OW 8122   4.552   4.480   2.196
 2408SOL    HW1 8123   4.487   4.426   2.142
 2408SOL    HW2 8124   4.646   4.454   2.172
 2409SOL     OW 8125   2.379   4.392   2.242
 2409SOL    HW1 8126   2.347   4.484   2.222
 2409SOL    HW2 8127   2.453   4.368   2.180
 2410SOL     OW 8128   3.484   2.888   4.430
 2410SOL    HW1 8129   3.454   2.917   4.520
 2410SOL    HW2 8130   3.406   2.856   4.377
 2411SOL     OW 8131   5.331   6.300   4.656
 2411SOL    HW1 8132   5.398   6.229   4.677
 2411SOL    HW2 8133   5.279   6.274   4.575
 2412SOL     OW 8134   5.367   4.374   1.506
 2412SOL    HW1 8135   5.276   4.374   1.548
 2412SOL    HW2 8136   5.434   4.402   1.574
 2413SOL     OW 8137   6.291   0.781   1.424
 2413SOL    HW1 8138   6.353   0.775   1.346
 2413SOL    HW2 8139   6.203   0.739   1.401
 2414SOL     OW 8140   4.808   4.256   3.479
 2414SOL    HW1 8141   4.776   4.227   3.570
 2414SOL    HW2 8142   4.734   4.305   3.432
 2415SOL     OW 8143   6.042   1.813   3.032
 2415SOL    HW1 8144   6.096   1.730   3.019
 2415SOL    HW2 8145   5.981   1.826   2.953
 2416SOL     OW 8146   5.098   2.309   5.367
 2416SOL    HW1 8147   5.156   2.280   5.443
 2416SOL    HW2 8148   5.030   2.239   5.348
 2417SOL     OW 8149   3.402   3.509   4.848
 2417SOL    HW1 8150   3.377   3.557   4.932
 2417SOL    HW2 8151   3.319   3.476   4.803
 2418SOL     OW 8152   3.462   2.870   4.042
 2418SOL    HW1 8153   3.382   2.917   4.079
 2418SOL    HW2 8154   3.541   2.887   4.101
 2419SOL     OW 8155   6.974   6.593   3.854
 2419SOL    HW1 8156   6.970   6.658   3.930
 2419SOL    HW2 8157   6.950   6.501   3.887
 2420SOL     OW 8158   3.272   0.325   2.172
 2420SOL    HW1 8159   3.181   0.339   2.211
 2420SOL    HW2 8160   3.264   0.294   2.077
 2421SOL     OW 8161   1.769   2.874   4.827
 2421SOL    HW1 8162   1.670   2.884   4.813
 2421SOL    HW2 8163   1.788   2.783   4.862
 2422SOL     OW 8164   4.878   1.338   0.588
 2422SOL    HW1 8165   4.808   1.318   0.519
 2422SOL    HW2 8166   4.966   1.350   0.542
 2423SOL     OW 8167   2.122   6.528   2.139
 2423SOL    HW1 8168   2.023   6.517   2.148
 2423SOL    HW2 8169   2.152   6.496   2.049
 2424SOL     OW 8170   6.442   0.156   0.229
 2424SOL    HW1 8171   6.421   0.184   0.135
 2424SOL    HW2 8172   6.405   0.224   0.293
 2425SOL     OW 8173   5.549   7.024   3.802
 2425SOL    HW1 8174   5.540   0.097   3.823
 2425SOL    HW2 8175   5.462   6.978   3.817
 2426SOL     OW 8176   1.960   5.161   5.446
 2426SOL    HW1 8177   1.886   5.116   5.396
 2426SOL    HW2 8178   1.973   5.117   5.534
 2427SOL     OW 8179   5.694   5.743   5.047
 2427SOL    HW1 8180   5.696   5.839   5.074
 2427SOL    HW2 8181   5.650   5.689   5.119
 2428SOL     OW 8182   0.713   0.885   1.736
 2428SOL    HW1 8183   0.757   0.841   1.815
 2428SOL    HW2 8184   0.721   0.825   1.656
 2429SOL     OW 8185   5.614   5.765   2.133
 2429SOL    HW1 8186   5.590   5.849   2.084
 2429SOL    HW2 8187   5.691   5.720   2.087
 2430SOL     OW 8188   6.330   1.139   2.457
 2430SOL    HW1 8189   6.412   1.174   2.502
 2430SOL    HW2 8190   6.277   1.084   2.521
 2431SOL     OW 8191   4.410   1.240   2.446
 2431SOL    HW1 8192   4.403   1.267   2.350
 2431SOL    HW2 8193   4.377   1.315   2.504
 2432SOL     OW 8194   4.510   6.385   1.937
 2432SOL    HW1 8195   4.577   6.435   1.991
 2432SOL    HW2 8196   4.554   6.304   1.897
 2433SOL     OW 8197   4.553   1.054   6.758
 2433SOL    HW1 8198   4.567   1.135   6.701
 2433SOL    HW2 8199   4.636   0.998   6.758
 2434SOL     OW 8200   3.971   0.707   5.855
 2434SOL    HW1 8201   4.014   0.690   5.766
 2434SOL    HW2 8202   3.980   0.625   5.912
 2435SOL     OW 8203   6.117   5.864   4.990
 2435SOL    HW1 8204   6.081   5.820   4.908
 2435SOL    HW2 8205   6.080   5.957   4.997
 2436SOL     OW 8206   2.494   5.993   6.769
 2436SOL    HW1 8207   2.586   5.959   6.754
 2436SOL    HW2 8208   2.465   6.048   6.691
 2437SOL     OW 8209   6.354   6.907   5.996
 2437SOL    HW1 8210   6.373   6.840   5.924
 2437SOL    HW2 8211   6.362   6.863   6.085
 2438SOL     OW 8212   2.624   2.436   0.786
 2438SOL    HW1 8213   2.646   2.458   0.881
 2438SOL    HW2 8214   2.683   2.362   0.755
 2439SOL     OW 8215   6.861   4.137   6.199
 2439SOL    HW1 8216   6.916   4.075   6.255
 2439SOL    HW2 8217   6.913   4.220   6.181
 2440SOL     OW 8218   5.157   5.168   5.642
 2440SOL    HW1 8219   5.071   5.118   5.651
 2440SOL    HW2 8220   5.232   5.112   5.679
 2441SOL     OW 8221   6.461   1.963   1.096
 2441SOL    HW1 8222   6.392   1.894   1.120
 2441SOL    HW2 8223   6.516   1.985   1.177
 2442SOL     OW 8224   0.998   3.843   5.060
 2442SOL    HW1 8225   1.030   3.902   5.134
 2442SOL    HW2 8226   1.068   3.838   4.989
 2443SOL     OW 8227   2.873   4.063   6.161
 2443SOL    HW1 8228   2.793   4.123   6.161
 2443SOL    HW2 8229   2.844   3.969   6.176
 2444SOL     OW 8230   2.200   3.933   5.912
 2444SOL    HW1 8231   2.162   3.842   5.930
 2444SOL    HW2 8232   2.169   3.996   5.983
 2445SOL     OW 8233   0.438   0.711   0.885
 2445SOL    HW1 8234   0.441   0.799   0.932
 2445SOL    HW2 8235   0.519   0.657   0.910
 2446SOL     OW 8236   6.432   4.668   5.065
 2446SOL    HW1 8237   6.445   4.762   5.034
 2446SOL    HW2 8238   6.433   4.665   5.165
 2447SOL     OW 8239   0.690   1.522   0.441
 2447SOL    HW1 8240   0.780   1.478   0.445
 2447SOL    HW2 8241   0.694   1.609   0.490
 2448SOL     OW 8242   1.099   0.073   4.746
 2448SOL    HW1 8243   1.080   7.006   4.712
 2448SOL    HW2 8244   1.061   0.141   4.684
 2449SOL     OW 8245   0.080   3.643   6.122
 2449SOL    HW1 8246   0.039   3.552   6.111
 2449SOL    HW2 8247   0.036   3.707   6.059
 2450SOL     OW 8248   2.485   4.496   2.931
 2450SOL    HW1 8249   2.411   4.437   2.962
 2450SOL    HW2 8250   2.448   4.570   2.875
 2451SOL     OW 8251   2.303   6.057   3.530
 2451SOL    HW1 8252   2.355   6.090   3.609
 2451SOL    HW2 8253   2.283   5.960   3.542
 2452SOL     OW 8254   1.233   2.882   3.562
 2452SOL    HW1 8255   1.293   2.958   3.536
 2452SOL    HW2 8256   1.274   2.796   3.533
 2453SOL     OW 8257   6.181   4.664   1.580
 2453SOL    HW1 8258   6.233   4.718   1.513
 2453SOL    HW2 8259   6.222   4.676   1.671
 2454SOL     OW 8260   3.232   0.560   1.534
 2454SOL    HW1 8261   3.312   0.512   1.498
 2454SOL    HW2 8262   3.157   0.554   1.468
 2455SOL     OW 8263   5.216   5.887   0.360
 2455SOL    HW1 8264   5.162   5.958   0.404
 2455SOL    HW2 8265   5.164   5.801   0.358
 2456SOL     OW 8266   5.330   5.938   1.689
 2456SOL    HW1 8267   5.281   5.976   1.767
 2456SOL    HW2 8268   5.415   5.896   1.720
 2457SOL     OW 8269   5.510   6.589   1.393
 2457SOL    HW1 8270   5.418   6.565   1.361
 2457SOL    HW2 8271   5.565   6.506   1.400
 2458SOL     OW 8272   1.060   5.255   2.718
 2458SOL    HW1 8273   1.072   5.352   2.741
 2458SOL    HW2 8274   0.999   5.212   2.785
 2459SOL     OW 8275   2.031   0.374   0.799
 2459SOL    HW1 8276   2.016   0.276   0.809
 2459SOL    HW2 8277   2.102   0.404   0.862
 2460SOL     OW 8278   3.286   6.027   1.439
 2460SOL    HW1 8279   3.348   5.952   1.414
 2460SOL    HW2 8280   3.305   6.055   1.533
 2461SOL     OW 8281   5.192   0.673   2.258
 2461SOL    HW1 8282   5.107   0.629   2.286
 2461SOL    HW2 8283   5.251   0.607   2.211
 2462SOL     OW 8284   1.804   5.463   6.488
 2462SOL    HW1 8285   1.896   5.501   6.494
 2462SOL    HW2 8286   1.760   5.496   6.404
 2463SOL     OW 8287   6.004   2.037   3.918
 2463SOL    HW1 8288   5.961   2.125   3.940
 2463SOL    HW2 8289   6.068   2.048   3.842
 2464SOL     OW 8290   1.133   3.312   1.386
 2464SOL    HW1 8291   1.090   3.370   1.317
 2464SOL    HW2 8292   1.215   3.357   1.421
 2465SOL     OW 8293   6.454   6.142   3.099
 2465SOL    HW1 8294   6.424   6.047   3.096
 2465SOL    HW2 8295   6.490   6.163   3.190
 2466SOL     OW 8296   3.124   1.716   2.670
 2466SOL    HW1 8297   3.068   1.756   2.743
 2466SOL    HW2 8298   3.208   1.769   2.661
 2467SOL     OW 8299   6.861   1.112   6.406
 2467SOL    HW1 8300   6.783   1.111   6.469
 2467SOL    HW2 8301   6.883   1.018   6.378
 2468SOL     OW 8302   0.151   5.174   1.509
 2468SOL    HW1 8303   0.107   5.094   1.469
 2468SOL    HW2 8304   0.106   5.198   1.594
 2469SOL     OW 8305   2.367   3.093   5.618
 2469SOL    HW1 8306   2.345   3.003   5.580
 2469SOL    HW2 8307   2.305   3.161   5.579
 2470SOL     OW 8308   5.158   2.619   0.438
 2470SOL    HW1 8309   5.138   2.616   0.535
 2470SOL    HW2 8310   5.084   2.666   0.390
 2471SOL     OW 8311   1.182   0.335   2.847
 2471SOL    HW1 8312   1.241   0.364   2.771
 2471SOL    HW2 8313   1.111   0.403   2.862
 2472SOL     OW 8314   5.896   1.927   3.533
 2472SOL    HW1 8315   5.917   2.021   3.560
 2472SOL    HW2 8316   5.891   1.923   3.433
 2473SOL     OW 8317   1.199   5.917   4.270
 2473SOL    HW1 8318   1.295   5.931   4.243
 2473SOL    HW2 8319   1.161   6.004   4.301
 2474SOL     OW 8320   0.047   4.750   5.175
 2474SOL    HW1 8321   0.095   4.689   5.112
 2474SOL    HW2 8322   0.079   4.844   5.160
 2475SOL     OW 8323   4.438   1.876   0.304
 2475SOL    HW1 8324   4.382   1.956   0.284
 2475SOL    HW2 8325   4.413   1.801   0.243
 2476SOL     OW 8326   1.048   1.986   4.373
 2476SOL    HW1 8327   1.143   2.014   4.372
 2476SOL    HW2 8328   0.989   2.066   4.387
 2477SOL     OW 8329   4.556   5.043   0.985
 2477SOL    HW1 8330   4.478   5.095   0.950
 2477SOL    HW2 8331   4.634   5.055   0.923
 2478SOL     OW 8332   6.838   0.018   3.038
 2478SOL    HW1 8333   6.771   7.007   3.103
 2478SOL    HW2 8334   6.881   0.100   3.076
 2479SOL     OW 8335   0.254   3.209   0.576
 2479SOL    HW1 8336   0.340   3.252   0.606
 2479SOL    HW2 8337   0.275   3.130   0.518
 2480SOL     OW 8338   0.225   3.251   1.311
 2480SOL    HW1 8339   0.145   3.212   1.355
 2480SOL    HW2 8340   0.218   3.239   1.212
 2481SOL     OW 8341   4.789   5.076   2.181
 2481SOL    HW1 8342   4.767   4.989   2.224
 2481SOL    HW2 8343   4.865   5.064   2.117
 2482SOL     OW 8344   4.919   2.141   4.453
 2482SOL    HW1 8345   5.003   2.087   4.446
 2482SOL    HW2 8346   4.919   2.191   4.540
 2483SOL     OW 8347   0.867   2.039   6.509
 2483SOL    HW1 8348   0.804   2.099   6.558
 2483SOL    HW2 8349   0.815   1.977   6.449
 2484SOL     OW 8350   3.212   2.370   6.202
 2484SOL    HW1 8351   3.235   2.306   6.129
 2484SOL    HW2 8352   3.292   2.384   6.261
 2485SOL     OW 8353   0.366   5.900   2.233
 2485SOL    HW1 8354   0.340   5.826   2.170
 2485SOL    HW2 8355   0.326   5.986   2.202
 2486SOL     OW 8356   1.367   5.475   3.232
 2486SOL    HW1 8357   1.406   5.546   3.291
 2486SOL    HW2 8358   1.349   5.393   3.286
 2487SOL     OW 8359   3.380   1.231   0.808
 2487SOL    HW1 8360   3.337   1.181   0.733
 2487SOL    HW2 8361   3.478   1.241   0.789
 2488SOL     OW 8362   2.727   6.240   6.993
 2488SOL    HW1 8363   2.705   6.153   0.012
 2488SOL    HW2 8364   2.790   6.292   0.026
 2489SOL     OW 8365   0.462   5.720   4.573
 2489SOL    HW1 8366   0.451   5.621   4.563
 2489SOL    HW2 8367   0.436   5.765   4.487
 2490SOL     OW 8368   4.949   3.206   1.668
 2490SOL    HW1 8369   4.863   3.185   1.621
 2490SOL    HW2 8370   4.931   3.227   1.764
 2491SOL     OW 8371   1.569   4.486   2.390
 2491SOL    HW1 8372   1.558   4.432   2.307
 2491SOL    HW2 8373   1.583   4.582   2.366
 2492SOL     OW 8374   4.129   3.049   6.405
 2492SOL    HW1 8375   4.203   3.111   6.430
 2492SOL    HW2 8376   4.152   2.956   6.432
 2493SOL     OW 8377   6.641   2.168   3.544
 2493SOL    HW1 8378   6.664   2.089   3.602
 2493SOL    HW2 8379   6.568   2.142   3.480
 2494SOL     OW 8380   5.103   3.438   1.802
 2494SOL    HW1 8381   5.131   3.440   1.706
 2494SOL    HW2 8382   5.057   3.352   1.821
 2495SOL     OW 8383   6.154   1.195   4.714
 2495SOL    HW1 8384   6.246   1.163   4.736
 2495SOL    HW2 8385   6.141   1.287   4.752
 2496SOL     OW 8386   0.918   6.517   0.117
 2496SOL    HW1 8387   1.009   6.519   0.157
 2496SOL    HW2 8388   0.858   6.578   0.169
 2497SOL     OW 8389   5.362   2.074   6.128
 2497SOL    HW1 8390   5.454   2.112   6.139
 2497SOL    HW2 8391   5.350   1.997   6.191
 2498SOL     OW 8392   1.541   3.621   4.860
 2498SOL    HW1 8393   1.462   3.639   4.801
 2498SOL    HW2 8394   1.588   3.708   4.879
 2499SOL     OW 8395   6.109   0.122   5.311
 2499SOL    HW1 8396   6.184   0.149   5.372
 2499SOL    HW2 8397   6.066   0.039   5.346
 2500SOL     OW 8398   4.770   3.278   6.532
 2500SOL    HW1 8399   4.784   3.181   6.551
 2500SOL    HW2 8400   4.783   3.296   6.434
 2501SOL     OW 8401   6.327   4.339   0.237
 2501SOL    HW1 8402   6.294   4.323   0.144
 2501SOL    HW2 8403   6.273   4.412   0.279
 2502SOL     OW 8404   2.168   6.655   2.944
 2502SOL    HW1 8405   2.198   6.748   2.965
 2502SOL    HW2 8406   2.068   6.650   2.947
 2503SOL     OW 8407   4.686   5.202   4.880
 2503SOL    HW1 8408   4.705   5.190   4.978
 2503SOL    HW2 8409   4.760   5.254   4.838
 2504SOL     OW 8410   1.953   4.253   3.855
 2504SOL    HW1 8411   1.868   4.218   3.895
 2504SOL    HW2 8412   2.023   4.182   3.861
 2505SOL     OW 8413   4.684   5.630   3.839
 2505SOL    HW1 8414   4.602   5.641   3.896
 2505SOL    HW2 8415   4.760   5.597   3.895
 2506SOL     OW 8416   0.260   2.122   6.507
 2506SOL    HW1 8417   0.199   2.106   6.585
 2506SOL    HW2 8418   0.270   2.038   6.455
 2507SOL     OW 8419   0.245   6.001   0.606
 2507SOL    HW1 8420   0.216   6.000   0.702
 2507SOL    HW2 8421   0.173   5.962   0.549
 2508SOL     OW 8422   2.330   2.473   2.613
 2508SOL    HW1 8423   2.309   2.387   2.658
 2508SOL    HW2 8424   2.252   2.535   2.620
 2509SOL     OW 8425   5.413   2.166   3.761
 2509SOL    HW1 8426   5.469   2.095   3.719
 2509SOL    HW2 8427   5.387   2.234   3.692
 2510SOL     OW 8428   3.672   5.876   1.039
 2510SOL    HW1 8429   3.603   5.941   1.072
 2510SOL    HW2 8430   3.733   5.923   0.976
 2511SOL     OW 8431   1.624   0.189   4.278
 2511SOL    HW1 8432   1.608   0.119   4.347
 2511SOL    HW2 8433   1.723   0.207   4.271
 2512SOL     OW 8434   4.844   2.774   4.722
 2512SOL    HW1 8435   4.920   2.711   4.703
 2512SOL    HW2 8436   4.869   2.833   4.799
 2513SOL     OW 8437   0.353   4.165   0.966
 2513SOL    HW1 8438   0.336   4.154   0.868
 2513SOL    HW2 8439   0.282   4.119   1.018
 2514SOL     OW 8440   1.039   1.636   3.546
 2514SOL    HW1 8441   1.133   1.653   3.576
 2514SOL    HW2 8442   0.978   1.702   3.589
 2515SOL     OW 8443   1.421   5.039   0.439
 2515SOL    HW1 8444   1.463   4.949   0.451
 2515SOL    HW2 8445   1.325   5.035   0.470
 2516SOL     OW 8446   4.760   6.460   3.903
 2516SOL    HW1 8447   4.783   6.540   3.847
 2516SOL    HW2 8448   4.821   6.457   3.983
 2517SOL     OW 8449   2.481   4.892   0.374
 2517SOL    HW1 8450   2.537   4.958   0.424
 2517SOL    HW2 8451   2.524   4.801   0.379
 2518SOL     OW 8452   2.588   2.229   6.511
 2518SOL    HW1 8453   2.658   2.298   6.497
 2518SOL    HW2 8454   2.499   2.267   6.484
 2519SOL     OW 8455   5.104   3.791   4.375
 2519SOL    HW1 8456   5.033   3.730   4.340
 2519SOL    HW2 8457   5.169   3.811   4.302
 2520SOL     OW 8458   1.816   4.392   2.076
 2520SOL    HW1 8459   1.903   4.385   2.124
 2520SOL    HW2 8460   1.829   4.442   1.990
 2521SOL     OW 8461   5.403   6.580   5.096
 2521SOL    HW1 8462   5.388   6.552   5.002
 2521SOL    HW2 8463   5.330   6.643   5.124
 2522SOL     OW 8464   1.220   3.035   4.787
 2522SOL    HW1 8465   1.145   3.073   4.732
 2522SOL    HW2 8466   1.271   3.110   4.830
 2523SOL     OW 8467   0.450   3.004   6.769
 2523SOL    HW1 8468   0.373   2.947   6.742
 2523SOL    HW2 8469   0.489   2.969   6.854
 2524SOL     OW 8470   1.221   6.471   5.386
 2524SOL    HW1 8471   1.194   6.534   5.314
 2524SOL    HW2 8472   1.183   6.502   5.473
 2525SOL     OW 8473   1.753   4.465   3.239
 2525SOL    HW1 8474   1.788   4.532   3.303
 2525SOL    HW2 8475   1.829   4.420   3.191
 2526SOL     OW 8476   6.699   1.389   5.347
 2526SOL    HW1 8477   6.660   1.430   5.265
 2526SOL    HW2 8478   6.626   1.355   5.406
 2527SOL     OW 8479   6.559   6.739   3.898
 2527SOL    HW1 8480   6.598   6.826   3.927
 2527SOL    HW2 8481   6.614   6.664   3.935
 2528SOL     OW 8482   6.574   5.743   0.292
 2528SOL    HW1 8483   6.667   5.756   0.326
 2528SOL    HW2 8484   6.530   5.831   0.277
 2529SOL     OW 8485   5.222   3.644   4.888
 2529SOL    HW1 8486   5.250   3.653   4.793
 2529SOL    HW2 8487   5.139   3.588   4.893
 2530SOL     OW 8488   0.315   0.608   4.099
 2530SOL    HW1 8489   0.319   0.591   4.198
 2530SOL    HW2 8490   0.269   0.532   4.054
 2531SOL     OW 8491   4.187   0.829   6.458
 2531SOL    HW1 8492   4.136   0.743   6.459
 2531SOL    HW2 8493   4.242   0.836   6.541
 2532SOL     OW 8494   1.643   4.675   6.016
 2532SOL    HW1 8495   1.570   4.647   5.954
 2532SOL    HW2 8496   1.609   4.679   6.110
 2533SOL     OW 8497   5.789   6.815   5.252
 2533SOL    HW1 8498   5.721   6.888   5.253
 2533SOL    HW2 8499   5.773   6.755   5.173
 2534SOL     OW 8500   0.569   1.946   4.047
 2534SOL    HW1 8501   0.492   2.010   4.041
 2534SOL    HW2 8502   0.651   1.996   4.073
 2535SOL     OW 8503   2.272   1.351   2.552
 2535SOL    HW1 8504   2.260   1.268   2.607
 2535SOL    HW2 8505   2.339   1.410   2.596
 2536SOL     OW 8506   6.696   0.678   3.666
 2536SOL    HW1 8507   6.766   0.613   3.693
 2536SOL    HW2 8508   6.739   0.766   3.644
 2537SOL     OW 8509   3.888   5.153   1.061
 2537SOL    HW1 8510   3.912   5.196   0.974
 2537SOL    HW2 8511   3.789   5.160   1.075
 2538SOL     OW 8512   1.860   4.350   4.901
 2538SOL    HW1 8513   1.921   4.371   4.825
 2538SOL    HW2 8514   1.850   4.251   4.911
 2539SOL     OW 8515   2.772   0.350   5.494
 2539SOL    HW1 8516   2.691   0.395   5.532
 2539SOL    HW2 8517   2.755   0.252   5.485
 2540SOL     OW 8518   5.832   2.121   2.165
 2540SOL    HW1 8519   5.737   2.143   2.188
 2540SOL    HW2 8520   5.853   2.028   2.194
 2541SOL     OW 8521   1.048   6.242   5.678
 2541SOL    HW1 8522   1.121   6.213   5.616
 2541SOL    HW2 8523   1.021   6.165   5.736
 2542SOL     OW 8524   3.431   1.828   4.263
 2542SOL    HW1 8525   3.436   1.806   4.361
 2542SOL    HW2 8526   3.388   1.918   4.252
 2543SOL     OW 8527   6.995   1.831   4.628
 2543SOL    HW1 8528   0.004   1.924   4.641
 2543SOL    HW2 8529   0.010   1.771   4.697
 2544SOL     OW 8530   6.343   5.680   2.003
 2544SOL    HW1 8531   6.403   5.625   2.062
 2544SOL    HW2 8532   6.252   5.638   1.999
 2545SOL     OW 8533   6.688   1.901   1.415
 2545SOL    HW1 8534   6.662   1.991   1.450
 2545SOL    HW2 8535   6.759   1.911   1.345
 2546SOL     OW 8536   6.738   4.137   2.692
 2546SOL    HW1 8537   6.782   4.226   2.681
 2546SOL    HW2 8538   6.638   4.149   2.696
 2547SOL     OW 8539   5.982   3.425   1.080
 2547SOL    HW1 8540   5.895   3.377   1.066
 2547SOL    HW2 8541   6.041   3.412   1.000
 2548SOL     OW 8542   0.540   6.485   5.301
 2548SOL    HW1 8543   0.474   6.559   5.313
 2548SOL    HW2 8544   0.520   6.412   5.366
 2549SOL     OW 8545   3.110   2.851   0.099
 2549SOL    HW1 8546   3.102   2.949   0.114
 2549SOL    HW2 8547   3.147   2.833   0.008
 2550SOL     OW 8548   3.881   6.410   6.600
 2550SOL    HW1 8549   3.897   6.390   6.696
 2550SOL    HW2 8550   3.969   6.429   6.554
 2551SOL     OW 8551   3.130   5.598   0.630
 2551SOL    HW1 8552   3.064   5.674   0.629
 2551SOL    HW2 8553   3.105   5.532   0.559
 2552SOL     OW 8554   2.056   5.931   1.479
 2552SOL    HW1 8555   2.016   5.842   1.500
 2552SOL    HW2 8556   2.154   5.929   1.500
 2553SOL     OW 8557   4.309   1.434   6.658
 2553SOL    HW1 8558   4.297   1.479   6.569
 2553SOL    HW2 8559   4.258   1.348   6.658
 2554SOL     OW 8560   1.831   5.759   1.723
 2554SOL    HW1 8561   1.876   5.796   1.804
 2554SOL    HW2 8562   1.880   5.677   1.692
 2555SOL     OW 8563   5.053   6.684   5.228
 2555SOL    HW1 8564   5.110   6.740   5.167
 2555SOL    HW2 8565   5.042   6.593   5.188
 2556SOL     OW 8566   4.149   0.504   0.690
 2556SOL    HW1 8567   4.207   0.522   0.610
 2556SOL    HW2 8568   4.057   0.540   0.673
 2557SOL     OW 8569   3.099   0.105   6.533
 2557SOL    HW1 8570   3.121   0.008   6.521
 2557SOL    HW2 8571   3.002   0.119   6.515
 2558SOL     OW 8572   5.435   3.485   0.069
 2558SOL    HW1 8573   5.404   3.400   0.027
 2558SOL    HW2 8574   5.428   3.560   0.002
 2559SOL     OW 8575   0.928   4.705   4.871
 2559SOL    HW1 8576   0.870   4.627   4.846
 2559SOL    HW2 8577   0.906   4.783   4.814
 2560SOL     OW 8578   4.973   1.901   3.780
 2560SOL    HW1 8579   4.912   1.918   3.703
 2560SOL    HW2 8580   5.037   1.978   3.789
 2561SOL     OW 8581   3.684   0.484   4.902
 2561SOL    HW1 8582   3.729   0.438   4.979
 2561SOL    HW2 8583   3.753   0.535   4.850
 2562SOL     OW 8584   3.224   6.353   3.693
 2562SOL    HW1 8585   3.141   6.409   3.693
 2562SOL    HW2 8586   3.199   6.258   3.711
 2563SOL     OW 8587   3.507   1.940   6.668
 2563SOL    HW1 8588   3.418   1.956   6.711
 2563SOL    HW2 8589   3.530   2.018   6.610
 2564SOL     OW 8590   2.006   1.855   0.297
 2564SOL    HW1 8591   1.907   1.850   0.311
 2564SOL    HW2 8592   2.026   1.843   0.199
 2565SOL     OW 8593   0.609   1.945   0.400
 2565SOL    HW1 8594   0.669   1.890   0.458
 2565SOL    HW2 8595   0.618   1.915   0.305
 2566SOL     OW 8596   2.254   0.938   0.801
 2566SOL    HW1 8597   2.268   0.999   0.723
 2566SOL    HW2 8598   2.156   0.925   0.816
 2567SOL     OW 8599   2.259   0.476   0.142
 2567SOL    HW1 8600   2.165   0.452   0.166
 2567SOL    HW2 8601   2.311   0.498   0.224
 2568SOL     OW 8602   2.977   6.158   0.845
 2568SOL    HW1 8603   3.010   6.151   0.751
 2568SOL    HW2 8604   3.054   6.182   0.905
 2569SOL     OW 8605   1.763   0.054   0.843
 2569SOL    HW1 8606   1.856   0.086   0.829
 2569SOL    HW2 8607   1.763   6.980   0.857
 2570SOL     OW 8608   6.764   6.770   5.785
 2570SOL    HW1 8609   6.836   6.702   5.798
 2570SOL    HW2 8610   6.703   6.740   5.711
 2571SOL     OW 8611   3.570   2.952   3.556
 2571SOL    HW1 8612   3.590   2.962   3.654
 2571SOL    HW2 8613   3.624   2.876   3.520
 2572SOL     OW 8614   1.921   6.071   1.697
 2572SOL    HW1 8615   1.961   6.022   1.619
 2572SOL    HW2 8616   1.822   6.055   1.699
 2573SOL     OW 8617   6.755   1.990   4.740
 2573SOL    HW1 8618   6.677   2.007   4.680
 2573SOL    HW2 8619   6.798   1.903   4.715
 2574SOL     OW 8620   0.827   3.722   2.307
 2574SOL    HW1 8621   0.846   3.818   2.289
 2574SOL    HW2 8622   0.734   3.701   2.277
 2575SOL     OW 8623   5.701   3.695   0.329
 2575SOL    HW1 8624   5.797   3.719   0.342
 2575SOL    HW2 8625   5.655   3.693   0.418
 2576SOL     OW 8626   2.478   6.888   3.924
 2576SOL    HW1 8627   2.474   6.963   3.858
 2576SOL    HW2 8628   2.504   6.804   3.877
 2577SOL     OW 8629   2.970   6.174   1.684
 2577SOL    HW1 8630   2.872   6.182   1.667
 2577SOL    HW2 8631   2.997   6.078   1.685
 2578SOL     OW 8632   4.850   1.975   4.053
 2578SOL    HW1 8633   4.835   2.072   4.070
 2578SOL    HW2 8634   4.890   1.963   3.962
 2579SOL     OW 8635   6.636   2.018   6.162
 2579SOL    HW1 8636   6.670   1.944   6.104
 2579SOL    HW2 8637   6.586   2.084   6.106
 2580SOL     OW 8638   1.478   2.235   6.395
 2580SOL    HW1 8639   1.451   2.316   6.343
 2580SOL    HW2 8640   1.398   2.197   6.442
 2581SOL     OW 8641   6.729   6.614   4.130
 2581SOL    HW1 8642   6.828   6.608   4.142
 2581SOL    HW2 8643   6.685   6.533   4.168
 2582SOL     OW 8644   0.465   5.623   2.930
 2582SOL    HW1 8645   0.440   5.567   2.851
 2582SOL    HW2 8646   0.405   5.703   2.933
 2583SOL     OW 8647   2.008   0.660   0.584
 2583SOL    HW1 8648   2.076   0.653   0.657
 2583SOL    HW2 8649   2.015   0.750   0.541
 2584SOL     OW 8650   4.980   6.836   1.796
 2584SOL    HW1 8651   4.930   6.755   1.826
 2584SOL    HW2 8652   4.932   6.918   1.827
 2585SOL     OW 8653   3.641   1.279   1.694
 2585SOL    HW1 8654   3.585   1.280   1.777
 2585SOL    HW2 8655   3.617   1.358   1.637
 2586SOL     OW 8656   6.857   2.851   4.287
 2586SOL    HW1 8657   6.901   2.766   4.314
 2586SOL    HW2 8658   6.811   2.839   4.199
 2587SOL     OW 8659   5.458   6.248   2.981
 2587SOL    HW1 8660   5.459   6.219   2.885
 2587SOL    HW2 8661   5.363   6.253   3.013
 2588SOL     OW 8662   5.390   1.014   1.440
 2588SOL    HW1 8663   5.487   1.001   1.418
 2588SOL    HW2 8664   5.369   0.968   1.526
 2589SOL     OW 8665   6.782   6.761   0.805
 2589SOL    HW1 8666   6.731   6.786   0.722
 2589SOL    HW2 8667   6.859   6.824   0.817
 2590SOL     OW 8668   4.115   6.330   2.517
 2590SOL    HW1 8669   4.017   6.329   2.536
 2590SOL    HW2 8670   4.135   6.402   2.450
 2591SOL     OW 8671   5.851   0.510   1.848
 2591SOL    HW1 8672   5.943   0.548   1.839
 2591SOL    HW2 8673   5.787   0.566   1.795
 2592SOL     OW 8674   3.968   5.731   1.359
 2592SOL    HW1 8675   3.970   5.813   1.415
 2592SOL    HW2 8676   3.873   5.706   1.340
 2593SOL     OW 8677   3.072   6.310   2.705
 2593SOL    HW1 8678   3.000   6.302   2.637
 2593SOL    HW2 8679   3.058   6.241   2.776
 2594SOL     OW 8680   1.039   6.277   6.355
 2594SOL    HW1 8681   0.961   6.227   6.390
 2594SOL    HW2 8682   1.114   6.213   6.335
 2595SOL     OW 8683   6.317   3.763   4.186
 2595SOL    HW1 8684   6.398   3.761   4.245
 2595SOL    HW2 8685   6.240   3.720   4.234
 2596SOL     OW 8686   3.836   1.958   2.116
 2596SOL    HW1 8687   3.775   2.034   2.093
 2596SOL    HW2 8688   3.837   1.893   2.040
 2597SOL     OW 8689   2.272   3.061   6.747
 2597SOL    HW1 8690   2.267   3.160   6.736
 2597SOL    HW2 8691   2.200   3.018   6.692
 2598SOL     OW 8692   6.736   2.850   2.994
 2598SOL    HW1 8693   6.768   2.895   2.911
 2598SOL    HW2 8694   6.649   2.805   2.977
 2599SOL     OW 8695   4.387   5.105   0.065
 2599SOL    HW1 8696   4.452   5.033   0.042
 2599SOL    HW2 8697   4.356   5.149   7.005
 2600SOL     OW 8698   6.601   3.461   3.455
 2600SOL    HW1 8699   6.701   3.457   3.457
 2600SOL    HW2 8700   6.564   3.369   3.463
 2601SOL     OW 8701   3.769   2.813   5.824
 2601SOL    HW1 8702   3.684   2.762   5.833
 2601SOL    HW2 8703   3.847   2.753   5.845
 2602SOL     OW 8704   6.352   5.865   4.750
 2602SOL    HW1 8705   6.279   5.933   4.759
 2602SOL    HW2 8706   6.432   5.895   4.802
 2603SOL     OW 8707   3.304   2.864   0.927
 2603SOL    HW1 8708   3.361   2.923   0.985
 2603SOL    HW2 8709   3.329   2.768   0.942
 2604SOL     OW 8710   5.946   0.780   1.560
 2604SOL    HW1 8711   5.979   0.754   1.469
 2604SOL    HW2 8712   5.928   0.878   1.561
 2605SOL     OW 8713   4.311   5.117   4.068
 2605SOL    HW1 8714   4.341   5.036   4.018
 2605SOL    HW2 8715   4.363   5.126   4.152
 2606SOL     OW 8716   6.933   4.431   1.263
 2606SOL    HW1 8717   6.960   4.365   1.334
 2606SOL    HW2 8718   6.861   4.391   1.206
 2607SOL     OW 8719   0.829   1.391   4.240
 2607SOL    HW1 8720   0.867   1.343   4.161
 2607SOL    HW2 8721   0.896   1.390   4.315
 2608SOL     OW 8722   5.017   0.713   1.027
 2608SOL    HW1 8723   5.032   0.788   0.963
 2608SOL    HW2 8724   4.964   0.641   0.981
 2609SOL     OW 8725   0.375   2.149   3.941
 2609SOL    HW1 8726   0.291   2.204   3.946
 2609SOL    HW2 8727   0.452   2.208   3.920
 2610SOL     OW 8728   6.006   5.869   4.714
 2610SOL    HW1 8729   5.925   5.861   4.657
 2610SOL    HW2 8730   6.049   5.958   4.698
 2611SOL     OW 8731   4.066   6.343   1.569
 2611SOL    HW1 8732   3.996   6.316   1.503
 2611SOL    HW2 8733   4.038   6.313   1.661
 2612SOL     OW 8734   6.344   6.501   4.176
 2612SOL    HW1 8735   6.273   6.452   4.227
 2612SOL    HW2 8736   6.336   6.477   4.079
 2613SOL     OW 8737   4.147   0.520   1.650
 2613SOL    HW1 8738   4.132   0.617   1.666
 2613SOL    HW2 8739   4.085   0.487   1.579
 2614SOL     OW 8740   0.115   6.391   6.923
 2614SOL    HW1 8741   0.096   6.443   6.840
 2614SOL    HW2 8742   0.031   6.381   6.976
 2615SOL     OW 8743   5.666   5.037   2.053
 2615SOL    HW1 8744   5.571   5.050   2.082
 2615SOL    HW2 8745   5.668   4.985   1.968
 2616SOL     OW 8746   3.790   3.156   2.762
 2616SOL    HW1 8747   3.691   3.147   2.778
 2616SOL    HW2 8748   3.818   3.089   2.693
 2617SOL     OW 8749   4.031   0.399   1.260
 2617SOL    HW1 8750   3.990   0.396   1.351
 2617SOL    HW2 8751   4.131   0.403   1.268
 2618SOL     OW 8752   1.121   0.712   1.128
 2618SOL    HW1 8753   1.065   0.731   1.048
 2618SOL    HW2 8754   1.106   0.617   1.157
 2619SOL     OW 8755   4.890   1.838   1.665
 2619SOL    HW1 8756   4.828   1.781   1.611
 2619SOL    HW2 8757   4.980   1.841   1.622
 2620SOL     OW 8758   1.492   4.362   4.322
 2620SOL    HW1 8759   1.506   4.371   4.223
 2620SOL    HW2 8760   1.580   4.371   4.369
 2621SOL     OW 8761   0.839   5.270   3.757
 2621SOL    HW1 8762   0.752   5.304   3.721
 2621SOL    HW2 8763   0.825   5.180   3.798
 2622SOL     OW 8764   2.614   3.230   6.352
 2622SOL    HW1 8765   2.686   3.219   6.421
 2622SOL    HW2 8766   2.611   3.326   6.323
 2623SOL     OW 8767   2.949   0.996   5.422
 2623SOL    HW1 8768   3.037   1.030   5.457
 2623SOL    HW2 8769   2.913   1.062   5.355
 2624SOL     OW 8770   6.450   2.136   3.797
 2624SOL    HW1 8771   6.500   2.082   3.730
 2624SOL    HW2 8772   6.397   2.074   3.856
 2625SOL     OW 8773   4.058   0.937   5.309
 2625SOL    HW1 8774   4.103   0.894   5.231
 2625SOL    HW2 8775   3.977   0.988   5.277
 2626SOL     OW 8776   2.293   6.517   2.520
 2626SOL    HW1 8777   2.193   6.518   2.515
 2626SOL    HW2 8778   2.322   6.552   2.609
 2627SOL     OW 8779   0.152   6.763   4.262
 2627SOL    HW1 8780   0.087   6.711   4.207
 2627SOL    HW2 8781   0.182   6.844   4.210
 2628SOL     OW 8782   3.797   5.998   6.217
 2628SOL    HW1 8783   3.747   5.915   6.242
 2628SOL    HW2 8784   3.791   6.012   6.118
 2629SOL     OW 8785   3.529   3.983   1.238
 2629SOL    HW1 8786   3.544   3.889   1.207
 2629SOL    HW2 8787   3.441   3.989   1.283
 2630SOL     OW 8788   2.823   2.275   2.612
 2630SOL    HW1 8789   2.901   2.297   2.553
 2630SOL    HW2 8790   2.738   2.291   2.561
 2631SOL     OW 8791   4.595   6.165   4.123
 2631SOL    HW1 8792   4.633   6.133   4.210
 2631SOL    HW2 8793   4.564   6.259   4.133
 2632SOL     OW 8794   4.519   2.171   0.173
 2632SOL    HW1 8795   4.483   2.218   0.254
 2632SOL    HW2 8796   4.578   2.096   0.202
 2633SOL     OW 8797   6.094   2.149   6.758
 2633SOL    HW1 8798   6.159   2.217   6.723
 2633SOL    HW2 8799   6.144   2.079   6.809
 2634SOL     OW 8800   2.624   4.875   1.021
 2634SOL    HW1 8801   2.676   4.914   1.097
 2634SOL    HW2 8802   2.669   4.898   0.935
 2635SOL     OW 8803   5.030   4.397   4.276
 2635SOL    HW1 8804   5.013   4.482   4.226
 2635SOL    HW2 8805   5.026   4.416   4.374
 2636SOL     OW 8806   5.780   0.381   4.814
 2636SOL    HW1 8807   5.844   0.425   4.752
 2636SOL    HW2 8808   5.787   0.423   4.905
 2637SOL     OW 8809   5.079   6.639   2.712
 2637SOL    HW1 8810   5.031   6.720   2.744
 2637SOL    HW2 8811   5.138   6.663   2.635
 2638SOL     OW 8812   5.517   6.359   0.775
 2638SOL    HW1 8813   5.561   6.326   0.858
 2638SOL    HW2 8814   5.472   6.283   0.728
 2639SOL     OW 8815   6.487   6.084   0.592
 2639SOL    HW1 8816   6.572   6.102   0.641
 2639SOL    HW2 8817   6.409   6.117   0.645
 2640SOL     OW 8818   0.145   6.494   5.380
 2640SOL    HW1 8819   0.195   6.423   5.429
 2640SOL    HW2 8820   0.097   6.552   5.446
 2641SOL     OW 8821   5.678   4.924   0.162
 2641SOL    HW1 8822   5.610   4.864   0.204
 2641SOL    HW2 8823   5.691   5.005   0.219
 2642SOL     OW 8824   5.304   6.856   3.902
 2642SOL    HW1 8825   5.296   6.859   3.803
 2642SOL    HW2 8826   5.254   6.778   3.938
 2643SOL     OW 8827   0.891   0.500   2.204
 2643SOL    HW1 8828   0.886   0.404   2.173
 2643SOL    HW2 8829   0.811   0.521   2.259
 2644SOL     OW 8830   0.339   4.643   6.105
 2644SOL    HW1 8831   0.250   4.613   6.140
 2644SOL    HW2 8832   0.380   4.708   6.170
 2645SOL     OW 8833   5.491   5.939   5.666
 2645SOL    HW1 8834   5.483   5.840   5.681
 2645SOL    HW2 8835   5.412   5.971   5.613
 2646SOL     OW 8836   6.458   6.418   0.181
 2646SOL    HW1 8837   6.452   6.371   0.269
 2646SOL    HW2 8838   6.491   6.354   0.112
 2647SOL     OW 8839   3.627   1.701   1.115
 2647SOL    HW1 8840   3.714   1.709   1.067
 2647SOL    HW2 8841   3.606   1.788   1.160
 2648SOL     OW 8842   4.771   0.463   2.398
 2648SOL    HW1 8843   4.812   0.373   2.416
 2648SOL    HW2 8844   4.691   0.452   2.338
 2649SOL     OW 8845   3.212   1.809   6.082
 2649SOL    HW1 8846   3.206   1.901   6.046
 2649SOL    HW2 8847   3.140   1.752   6.041
 2650SOL     OW 8848   0.580   6.104   2.758
 2650SOL    HW1 8849   0.679   6.092   2.756
 2650SOL    HW2 8850   0.553   6.138   2.848
 2651SOL     OW 8851   6.622   1.250   3.289
 2651SOL    HW1 8852   6.700   1.265   3.349
 2651SOL    HW2 8853   6.637   1.296   3.202
 2652SOL     OW 8854   2.906   3.387   2.941
 2652SOL    HW1 8855   2.978   3.318   2.942
 2652SOL    HW2 8856   2.852   3.378   2.857
 2653SOL     OW 8857   6.559   6.584   6.322
 2653SOL    HW1 8858   6.657   6.566   6.308
 2653SOL    HW2 8859   6.549   6.664   6.382
 2654SOL     OW 8860   5.675   2.869   5.888
 2654SOL    HW1 8861   5.645   2.785   5.843
 2654SOL    HW2 8862   5.764   2.896   5.851
 2655SOL     OW 8863   4.675   6.242   4.575
 2655SOL    HW1 8864   4.770   6.217   4.558
 2655SOL    HW2 8865   4.668   6.292   4.661
 2656SOL     OW 8866   5.657   3.119   4.155
 2656SOL    HW1 8867   5.635   3.022   4.163
 2656SOL    HW2 8868   5.655   3.161   4.246
 2657SOL     OW 8869   1.864   3.641   6.534
 2657SOL    HW1 8870   1.925   3.650   6.456
 2657SOL    HW2 8871   1.780   3.694   6.517
 2658SOL     OW 8872   5.969   3.999   5.995
 2658SOL    HW1 8873   5.977   3.992   6.095
 2658SOL    HW2 8874   6.037   4.064   5.961
 2659SOL     OW 8875   6.809   2.773   3.770
 2659SOL    HW1 8876   6.731   2.832   3.748
 2659SOL    HW2 8877   6.890   2.803   3.719
 2660SOL     OW 8878   6.795   2.448   2.945
 2660SOL    HW1 8879   6.696   2.450   2.961
 2660SOL    HW2 8880   6.812   2.434   2.847
 2661SOL     OW 8881   4.064   6.295   0.941
 2661SOL    HW1 8882   4.010   6.378   0.954
 2661SOL    HW2 8883   4.117   6.276   1.024
 2662SOL     OW 8884   3.405   6.655   4.228
 2662SOL    HW1 8885   3.400   6.713   4.310
 2662SOL    HW2 8886   3.477   6.689   4.168
 2663SOL     OW 8887   1.143   4.500   2.501
 2663SOL    HW1 8888   1.064   4.523   2.445
 2663SOL    HW2 8889   1.127   4.529   2.595
 2664SOL     OW 8890   4.057   3.652   2.258
 2664SOL    HW1 8891   4.121   3.618   2.326
 2664SOL    HW2 8892   3.965   3.616   2.278
 2665SOL     OW 8893   3.883   1.114   4.282
 2665SOL    HW1 8894   3.788   1.146   4.287
 2665SOL    HW2 8895   3.934   1.172   4.218
 2666SOL     OW 8896   5.192   5.298   1.140
 2666SOL    HW1 8897   5.281   5.342   1.127
 2666SOL    HW2 8898   5.119   5.360   1.112
 2667SOL     OW 8899   2.085   5.135   3.860
 2667SOL    HW1 8900   2.120   5.069   3.927
 2667SOL    HW2 8901   1.994   5.107   3.831
 2668SOL     OW 8902   0.319   2.832   5.692
 2668SOL    HW1 8903   0.379   2.797   5.764
 2668SOL    HW2 8904   0.240   2.877   5.733
 2669SOL     OW 8905   4.302   4.767   4.894
 2669SOL    HW1 8906   4.319   4.678   4.936
 2669SOL    HW2 8907   4.389   4.805   4.860
 2670SOL     OW 8908   1.399   1.230   6.863
 2670SOL    HW1 8909   1.346   1.298   6.811
 2670SOL    HW2 8910   1.451   1.174   6.800
 2671SOL     OW 8911   2.113   3.331   6.355
 2671SOL    HW1 8912   2.042   3.267   6.324
 2671SOL    HW2 8913   2.094   3.422   6.321
 2672SOL     OW 8914   1.621   5.192   1.254
 2672SOL    HW1 8915   1.620   5.248   1.336
 2672SOL    HW2 8916   1.705   5.138   1.251
 2673SOL     OW 8917   3.704   2.102   2.830
 2673SOL    HW1 8918   3.746   2.131   2.916
 2673SOL    HW2 8919   3.724   2.005   2.815
 2674SOL     OW 8920   5.272   4.922   5.281
 2674SOL    HW1 8921   5.232   4.860   5.349
 2674SOL    HW2 8922   5.307   4.869   5.204
 2675SOL     OW 8923   0.427   4.466   5.552
 2675SOL    HW1 8924   0.331   4.480   5.531
 2675SOL    HW2 8925   0.474   4.554   5.555
 2676SOL     OW 8926   4.137   1.013   1.957
 2676SOL    HW1 8927   4.149   1.081   1.885
 2676SOL    HW2 8928   4.152   0.921   1.920
 2677SOL     OW 8929   2.289   5.110   1.779
 2677SOL    HW1 8930   2.385   5.102   1.803
 2677SOL    HW2 8931   2.233   5.103   1.861
 2678SOL     OW 8932   0.775   4.756   5.706
 2678SOL    HW1 8933   0.786   4.841   5.757
 2678SOL    HW2 8934   0.682   4.749   5.671
 2679SOL     OW 8935   2.996   4.434   0.775
 2679SOL    HW1 8936   2.960   4.411   0.684
 2679SOL    HW2 8937   3.029   4.351   0.820
 2680SOL     OW 8938   1.081   1.939   1.596
 2680SOL    HW1 8939   1.031   1.854   1.611
 2680SOL    HW2 8940   1.164   1.920   1.544
 2681SOL     OW 8941   1.546   2.468   3.079
 2681SOL    HW1 8942   1.491   2.432   3.154
 2681SOL    HW2 8943   1.639   2.487   3.110
 2682SOL     OW 8944   5.363   2.660   2.612
 2682SOL    HW1 8945   5.298   2.625   2.680
 2682SOL    HW2 8946   5.337   2.627   2.521
 2683SOL     OW 8947   1.191   6.115   1.291
 2683SOL    HW1 8948   1.255   6.152   1.359
 2683SOL    HW2 8949   1.140   6.189   1.249
 2684SOL     OW 8950   2.541   6.398   2.813
 2684SOL    HW1 8951   2.540   6.338   2.893
 2684SOL    HW2 8952   2.458   6.454   2.812
 2685SOL     OW 8953   5.449   5.431   4.995
 2685SOL    HW1 8954   5.476   5.417   5.090
 2685SOL    HW2 8955   5.433   5.343   4.951
 2686SOL     OW 8956   2.236   2.913   4.697
 2686SOL    HW1 8957   2.302   2.920   4.772
 2686SOL    HW2 8958   2.224   3.003   4.655
 2687SOL     OW 8959   4.245   5.481   2.675
 2687SOL    HW1 8960   4.291   5.554   2.725
 2687SOL    HW2 8961   4.162   5.517   2.632
 2688SOL     OW 8962   3.746   4.654   6.381
 2688SOL    HW1 8963   3.666   4.690   6.430
 2688SOL    HW2 8964   3.790   4.584   6.437
 2689SOL     OW 8965   6.959   3.724   4.126
 2689SOL    HW1 8966   6.959   3.796   4.056
 2689SOL    HW2 8967   6.892   3.654   4.102
 2690SOL     OW 8968   3.960   3.912   3.540
 2690SOL    HW1 8969   3.978   3.950   3.630
 2690SOL    HW2 8970   3.964   3.813   3.544
 2691SOL     OW 8971   1.866   6.168   2.134
 2691SOL    HW1 8972   1.915   6.214   2.060
 2691SOL    HW2 8973   1.863   6.070   2.116
 2692SOL     OW 8974   0.316   6.615   4.083
 2692SOL    HW1 8975   0.276   6.648   4.169
 2692SOL    HW2 8976   0.256   6.641   4.007
 2693SOL     OW 8977   1.942   3.977   3.263
 2693SOL    HW1 8978   1.899   3.922   3.192
 2693SOL    HW2 8979   2.042   3.973   3.253
 2694SOL     OW 8980   1.745   6.746   3.363
 2694SOL    HW1 8981   1.821   6.720   3.422
 2694SOL    HW2 8982   1.664   6.693   3.386
 2695SOL     OW 8983   4.399   2.139   3.008
 2695SOL    HW1 8984   4.476   2.085   2.976
 2695SOL    HW2 8985   4.385   2.217   2.948
 2696SOL     OW 8986   4.150   3.756   5.672
 2696SOL    HW1 8987   4.205   3.683   5.711
 2696SOL    HW2 8988   4.195   3.844   5.687
 2697SOL     OW 8989   2.727   1.768   4.397
 2697SOL    HW1 8990   2.707   1.782   4.300
 2697SOL    HW2 8991   2.643   1.747   4.446
 2698SOL     OW 8992   1.982   3.609   0.508
 2698SOL    HW1 8993   1.897   3.640   0.550
 2698SOL    HW2 8994   2.060   3.648   0.558
 2699SOL     OW 8995   3.408   6.030   1.696
 2699SOL    HW1 8996   3.497   5.985   1.688
 2699SOL    HW2 8997   3.402   6.077   1.784
 2700SOL     OW 8998   1.960   3.469   2.495
 2700SOL    HW1 8999   2.020   3.453   2.573
 2700SOL    HW2 9000   1.921   3.560   2.501
 2701SOL     OW 9001   4.033   6.780   6.599
 2701SOL    HW1 9002   3.952   6.769   6.542
 2701SOL    HW2 9003   4.023   6.860   6.657
 2702SOL     OW 9004   0.037   0.364   3.665
 2702SOL    HW1 9005   0.005   0.302   3.736
 2702SOL    HW2 9006   0.010   0.329   3.575
 2703SOL     OW 9007   1.961   1.734   2.541
 2703SOL    HW1 9008   2.022   1.655   2.536
 2703SOL    HW2 9009   1.956   1.779   2.452
 2704SOL     OW 9010   2.434   5.197   1.467
 2704SOL    HW1 9011   2.384   5.194   1.553
 2704SOL    HW2 9012   2.370   5.197   1.391
 2705SOL     OW 9013   6.012   5.005   3.574
 2705SOL    HW1 9014   5.996   5.087   3.519
 2705SOL    HW2 9015   5.931   4.947   3.572
 2706SOL     OW 9016   6.675   1.052   1.997
 2706SOL    HW1 9017   6.664   0.975   1.935
 2706SOL    HW2 9018   6.770   1.084   1.994
 2707SOL     OW 9019   1.971   1.049   5.992
 2707SOL    HW1 9020   1.960   0.969   5.933
 2707SOL    HW2 9021   2.057   1.041   6.043
 2708SOL     OW 9022   1.726   2.894   1.495
 2708SOL    HW1 9023   1.821   2.865   1.504
 2708SOL    HW2 9024   1.695   2.880   1.401
 2709SOL     OW 9025   4.380   6.265   0.462
 2709SOL    HW1 9026   4.417   6.173   0.471
 2709SOL    HW2 9027   4.340   6.293   0.549
 2710SOL     OW 9028   0.073   4.292   3.087
 2710SOL    HW1 9029   0.144   4.349   3.128
 2710SOL    HW2 9030   7.011   4.342   3.085
 2711SOL     OW 9031   1.564   0.617   2.326
 2711SOL    HW1 9032   1.618   0.679   2.383
 2711SOL    HW2 9033   1.468   0.620   2.354
 2712SOL     OW 9034   3.150   4.181   0.271
 2712SOL    HW1 9035   3.231   4.194   0.213
 2712SOL    HW2 9036   3.068   4.206   0.219
 2713SOL     OW 9037   2.197   3.229   5.434
 2713SOL    HW1 9038   2.117   3.272   5.476
 2713SOL    HW2 9039   2.167   3.161   5.367
 2714SOL     OW 9040   5.137   0.052   5.737
 2714SOL    HW1 9041   5.190   0.131   5.705
 2714SOL    HW2 9042   5.168   6.994   5.690
 2715SOL     OW 9043   5.827   0.918   6.616
 2715SOL    HW1 9044   5.799   1.004   6.657
 2715SOL    HW2 9045   5.881   0.936   6.533
 2716SOL     OW 9046   0.411   6.497   2.432
 2716SOL    HW1 9047   0.385   6.451   2.347
 2716SOL    HW2 9048   0.431   6.593   2.413
 2717SOL     OW 9049   0.862   0.614   2.539
 2717SOL    HW1 9050   0.825   0.556   2.611
 2717SOL    HW2 9051   0.822   0.705   2.545
 2718SOL     OW 9052   2.458   4.596   3.667
 2718SOL    HW1 9053   2.502   4.681   3.637
 2718SOL    HW2 9054   2.362   4.613   3.687
 2719SOL     OW 9055   4.192   5.179   1.607
 2719SOL    HW1 9056   4.180   5.100   1.668
 2719SOL    HW2 9057   4.196   5.262   1.662
 2720SOL     OW 9058   1.901   6.230   4.023
 2720SOL    HW1 9059   1.821   6.278   4.061
 2720SOL    HW2 9060   1.973   6.296   4.004
 2721SOL     OW 9061   3.767   6.888   3.868
 2721SOL    HW1 9062   3.801   6.877   3.961
 2721SOL    HW2 9063   3.825   6.954   3.820
 2722SOL     OW 9064   1.534   6.079   2.181
 2722SOL    HW1 9065   1.542   6.128   2.094
 2722SOL    HW2 9066   1.480   5.996   2.167
 2723SOL     OW 9067   1.566   1.809   5.929
 2723SOL    HW1 9068   1.606   1.746   5.862
 2723SOL    HW2 9069   1.635   1.875   5.959
 2724SOL     OW 9070   3.761   5.736   6.295
 2724SOL    HW1 9071   3.843   5.713   6.242
 2724SOL    HW2 9072   3.760   5.683   6.379
 2725SOL     OW 9073   3.577   4.894   4.088
 2725SOL    HW1 9074   3.673   4.898   4.061
 2725SOL    HW2 9075   3.522   4.857   4.013
 2726SOL     OW 9076   4.441   5.388   1.882
 2726SOL    HW1 9077   4.458   5.404   1.980
 2726SOL    HW2 9078   4.453   5.291   1.862
 2727SOL     OW 9079   1.902   5.337   2.667
 2727SOL    HW1 9080   1.974   5.274   2.696
 2727SOL    HW2 9081   1.853   5.298   2.589
 2728SOL     OW 9082   3.112   6.821   5.456
 2728SOL    HW1 9083   3.100   6.908   5.409
 2728SOL    HW2 9084   3.022   6.783   5.480
 2729SOL     OW 9085   5.752   5.194   2.943
 2729SOL    HW1 9086   5.845   5.170   2.915
 2729SOL    HW2 9087   5.732   5.289   2.918
 2730SOL     OW 9088   1.792   6.203   1.049
 2730SOL    HW1 9089   1.859   6.243   1.112
 2730SOL    HW2 9090   1.838   6.174   0.966
 2731SOL     OW 9091   3.210   3.868   1.828
 2731SOL    HW1 9092   3.272   3.939   1.792
 2731SOL    HW2 9093   3.241   3.839   1.918
 2732SOL     OW 9094   5.862   1.849   2.215
 2732SOL    HW1 9095   5.900   1.864   2.123
 2732SOL    HW2 9096   5.889   1.759   2.249
 2733SOL     OW 9097   1.241   6.933   6.140
 2733SOL    HW1 9098   1.321   6.960   6.194
 2733SOL    HW2 9099   1.196   6.855   6.184
 2734SOL     OW 9100   2.434   5.859   4.259
 2734SOL    HW1 9101   2.390   5.801   4.328
 2734SOL    HW2 9102   2.512   5.811   4.220
 2735SOL     OW 9103   1.619   4.968   2.595
 2735SOL    HW1 9104   1.585   4.957   2.502
 2735SOL    HW2 9105   1.697   4.906   2.610
 2736SOL     OW 9106   4.369   0.379   5.273
 2736SOL    HW1 9107   4.439   0.323   5.317
 2736SOL    HW2 9108   4.400   0.406   5.182
 2737SOL     OW 9109   4.853   3.694   6.385
 2737SOL    HW1 9110   4.836   3.793   6.394
 2737SOL    HW2 9111   4.825   3.649   6.470
 2738SOL     OW 9112   5.551   5.257   4.416
 2738SOL    HW1 9113   5.622   5.327   4.424
 2738SOL    HW2 9114   5.583   5.184   4.355
 2739SOL     OW 9115   5.844   3.452   0.767
 2739SOL    HW1 9116   5.906   3.468   0.690
 2739SOL    HW2 9117   5.897   3.435   0.849
 2740SOL     OW 9118   5.732   2.626   3.292
 2740SOL    HW1 9119   5.781   2.673   3.218
 2740SOL    HW2 9120   5.789   2.553   3.329
 2741SOL     OW 9121   0.408   2.498   6.294
 2741SOL    HW1 9122   0.473   2.430   6.259
 2741SOL    HW2 9123   0.354   2.534   6.219
 2742SOL     OW 9124   1.862   6.569   6.547
 2742SOL    HW1 9125   1.785   6.614   6.502
 2742SOL    HW2 9126   1.948   6.607   6.512
 2743SOL     OW 9127   5.495   4.971   1.090
 2743SOL    HW1 9128   5.411   5.007   1.048
 2743SOL    HW2 9129   5.547   4.920   1.021
 2744SOL     OW 9130   4.166   1.151   5.909
 2744SOL    HW1 9131   4.096   1.221   5.920
 2744SOL    HW2 9132   4.125   1.069   5.868
 2745SOL     OW 9133   2.697   6.532   0.883
 2745SOL    HW1 9134   2.773   6.594   0.862
 2745SOL    HW2 9135   2.724   6.438   0.863
 2746SOL     OW 9136   1.896   2.150   6.479
 2746SOL    HW1 9137   1.848   2.159   6.566
 2746SOL    HW2 9138   1.922   2.055   6.465
 2747SOL     OW 9139   4.390   6.465   4.449
 2747SOL    HW1 9140   4.386   6.385   4.389
 2747SOL    HW2 9141   4.479   6.511   4.437
 2748SOL     OW 9142   3.840   1.145   3.296
 2748SOL    HW1 9143   3.764   1.080   3.291
 2748SOL    HW2 9144   3.874   1.164   3.204
 2749SOL     OW 9145   4.594   5.497   3.614
 2749SOL    HW1 9146   4.505   5.466   3.647
 2749SOL    HW2 9147   4.638   5.553   3.684
 2750SOL     OW 9148   0.570   5.811   2.648
 2750SOL    HW1 9149   0.615   5.886   2.697
 2750SOL    HW2 9150   0.638   5.759   2.597
 2751SOL     OW 9151   1.437   0.004   6.277
 2751SOL    HW1 9152   1.459   6.992   6.368
 2751SOL    HW2 9153   1.498   0.080   6.256
 2752SOL     OW 9154   6.036   6.262   5.777
 2752SOL    HW1 9155   6.067   6.226   5.689
 2752SOL    HW2 9156   6.028   6.187   5.842
 2753SOL     OW 9157   2.900   5.421   5.800
 2753SOL    HW1 9158   2.900   5.334   5.751
 2753SOL    HW2 9159   2.825   5.422   5.866
 2754SOL     OW 9160   1.309   0.652   4.318
 2754SOL    HW1 9161   1.292   0.554   4.307
 2754SOL    HW2 9162   1.406   0.666   4.338
 2755SOL     OW 9163   3.400   6.218   1.938
 2755SOL    HW1 9164   3.306   6.236   1.907
 2755SOL    HW2 9165   3.405   6.228   2.037
 2756SOL     OW 9166   0.252   2.930   6.104
 2756SOL    HW1 9167   0.202   3.004   6.059
 2756SOL    HW2 9168   0.252   2.945   6.203
 2757SOL     OW 9169   4.410   3.381   6.749
 2757SOL    HW1 9170   4.494   3.427   6.779
 2757SOL    HW2 9171   4.432   3.292   6.711
 2758SOL     OW 9172   6.569   6.096   2.264
 2758SOL    HW1 9173   6.473   6.111   2.240
 2758SOL    HW2 9174   6.574   6.048   2.352
 2759SOL     OW 9175   3.067   3.729   5.960
 2759SOL    HW1 9176   3.056   3.793   5.884
 2759SOL    HW2 9177   3.068   3.636   5.925
 2760SOL     OW 9178   5.217   6.293   3.101
 2760SOL    HW1 9179   5.149   6.363   3.121
 2760SOL    HW2 9180   5.263   6.266   3.185
 2761SOL     OW 9181   1.339   3.112   3.359
 2761SOL    HW1 9182   1.377   3.191   3.406
 2761SOL    HW2 9183   1.243   3.128   3.338
 2762SOL     OW 9184   2.596   2.705   0.671
 2762SOL    HW1 9185   2.623   2.614   0.705
 2762SOL    HW2 9186   2.675   2.766   0.675
 2763SOL     OW 9187   5.576   2.320   4.747
 2763SOL    HW1 9188   5.604   2.417   4.751
 2763SOL    HW2 9189   5.541   2.293   4.837
 2764SOL     OW 9190   0.919   3.519   2.514
 2764SOL    HW1 9191   0.875   3.571   2.440
 2764SOL    HW2 9192   0.867   3.436   2.530
 2765SOL     OW 9193   6.596   6.620   6.759
 2765SOL    HW1 9194   6.601   6.666   6.670
 2765SOL    HW2 9195   6.688   6.595   6.789
 2766SOL     OW 9196   5.272   1.056   6.736
 2766SOL    HW1 9197   5.265   1.036   6.833
 2766SOL    HW2 9198   5.185   1.036   6.691
 2767SOL     OW 9199   6.515   5.355   6.235
 2767SOL    HW1 9200   6.573   5.399   6.166
 2767SOL    HW2 9201   6.550   5.375   6.326
 2768SOL     OW 9202   4.480   0.117   1.265
 2768SOL    HW1 9203   4.418   0.122   1.344
 2768SOL    HW2 9204   4.537   0.200   1.263
 2769SOL     OW 9205   0.994   4.419   5.981
 2769SOL    HW1 9206   0.962   4.488   6.047
 2769SOL    HW2 9207   1.039   4.465   5.905
 2770SOL     OW 9208   3.133   6.819   0.609
 2770SOL    HW1 9209   3.088   6.822   0.520
 2770SOL    HW2 9210   3.233   6.818   0.595
 2771SOL     OW 9211   4.582   6.919   4.699
 2771SOL    HW1 9212   4.522   6.921   4.779
 2771SOL    HW2 9213   4.605   6.824   4.677
 2772SOL     OW 9214   4.468   0.145   3.505
 2772SOL    HW1 9215   4.394   0.198   3.463
 2772SOL    HW2 9216   4.554   0.167   3.460
 2773SOL     OW 9217   5.776   3.106   5.243
 2773SOL    HW1 9218   5.805   3.015   5.274
 2773SOL    HW2 9219   5.743   3.100   5.149
 2774SOL     OW 9220   5.878   1.781   4.386
 2774SOL    HW1 9221   5.851   1.838   4.308
 2774SOL    HW2 9222   5.966   1.737   4.366
 2775SOL     OW 9223   0.427   3.729   3.982
 2775SOL    HW1 9224   0.522   3.705   4.000
 2775SOL    HW2 9225   0.380   3.746   4.069
 2776SOL     OW 9226   4.965   4.447   6.264
 2776SOL    HW1 9227   5.020   4.520   6.304
 2776SOL    HW2 9228   4.875   4.445   6.308
 2777SOL     OW 9229   2.944   2.288   6.276
 2777SOL    HW1 9230   2.925   2.225   6.351
 2777SOL    HW2 9231   3.041   2.313   6.276
 2778SOL     OW 9232   3.208   7.009   5.652
 2778SOL    HW1 9233   3.155   6.984   5.732
 2778SOL    HW2 9234   3.182   6.951   5.575
 2779SOL     OW 9235   5.645   0.509   1.479
 2779SOL    HW1 9236   5.654   0.588   1.539
 2779SOL    HW2 9237   5.649   0.424   1.533
 2780SOL     OW 9238   6.582   1.753   4.580
 2780SOL    HW1 9239   6.566   1.739   4.678
 2780SOL    HW2 9240   6.574   1.850   4.559
 2781SOL     OW 9241   5.762   1.589   3.207
 2781SOL    HW1 9242   5.758   1.492   3.182
 2781SOL    HW2 9243   5.730   1.600   3.301
 2782SOL     OW 9244   4.892   0.411   6.184
 2782SOL    HW1 9245   4.933   0.488   6.135
 2782SOL    HW2 9246   4.854   0.443   6.271
 2783SOL     OW 9247   5.689   4.151   1.622
 2783SOL    HW1 9248   5.703   4.085   1.549
 2783SOL    HW2 9249   5.680   4.243   1.584
 2784SOL     OW 9250   1.328   1.796   1.136
 2784SOL    HW1 9251   1.417   1.763   1.168
 2784SOL    HW2 9252   1.341   1.877   1.079
 2785SOL     OW 9253   6.244   2.896   1.732
 2785SOL    HW1 9254   6.208   2.982   1.695
 2785SOL    HW2 9255   6.179   2.858   1.798
 2786SOL     OW 9256   0.081   5.963   0.011
 2786SOL    HW1 9257   7.005   5.963   0.015
 2786SOL    HW2 9258   0.113   6.051   7.001
 2787SOL     OW 9259   6.402   5.316   6.615
 2787SOL    HW1 9260   6.489   5.352   6.580
 2787SOL    HW2 9261   6.419   5.235   6.670
 2788SOL     OW 9262   3.102   6.026   5.734
 2788SOL    HW1 9263   3.006   6.033   5.706
 2788SOL    HW2 9264   3.127   5.929   5.743
 2789SOL     OW 9265   1.004   2.218   5.270
 2789SOL    HW1 9266   0.955   2.187   5.351
 2789SOL    HW2 9267   1.021   2.316   5.276
 2790SOL     OW 9268   1.503   5.716   2.078
 2790SOL    HW1 9269   1.589   5.710   2.027
 2790SOL    HW2 9270   1.475   5.624   2.107
 2791SOL     OW 9271   0.296   4.029   3.270
 2791SOL    HW1 9272   0.309   4.114   3.218
 2791SOL    HW2 9273   0.315   3.951   3.210
 2792SOL     OW 9274   3.508   1.382   5.769
 2792SOL    HW1 9275   3.594   1.388   5.718
 2792SOL    HW2 9276   3.432   1.403   5.709
 2793SOL     OW 9277   3.526   4.355   0.589
 2793SOL    HW1 9278   3.535   4.305   0.676
 2793SOL    HW2 9279   3.431   4.385   0.578
 2794SOL     OW 9280   0.906   2.824   0.182
 2794SOL    HW1 9281   0.873   2.819   0.276
 2794SOL    HW2 9282   0.828   2.825   0.119
 2795SOL     OW 9283   1.071   5.088   1.661
 2795SOL    HW1 9284   1.036   4.996   1.642
 2795SOL    HW2 9285   1.131   5.117   1.586
 2796SOL     OW 9286   1.973   5.808   6.223
 2796SOL    HW1 9287   1.901   5.842   6.284
 2796SOL    HW2 9288   2.020   5.885   6.180
 2797SOL     OW 9289   5.233   6.050   3.533
 2797SOL    HW1 9290   5.192   6.000   3.456
 2797SOL    HW2 9291   5.211   6.002   3.618
 2798SOL     OW 9292   4.979   0.802   1.982
 2798SOL    HW1 9293   4.947   0.871   1.918
 2798SOL    HW2 9294   5.034   0.734   1.933
 2799SOL     OW 9295   3.615   6.092   4.956
 2799SOL    HW1 9296   3.688   6.028   4.931
 2799SOL    HW2 9297   3.647   6.151   5.030
 2800SOL     OW 9298   5.891   6.782   6.781
 2800SOL    HW1 9299   5.814   6.719   6.778
 2800SOL    HW2 9300   5.976   6.732   6.762
 2801SOL     OW 9301   0.568   4.781   4.853
 2801SOL    HW1 9302   0.596   4.806   4.946
 2801SOL    HW2 9303   0.610   4.844   4.787
 2802SOL     OW 9304   1.652   5.427   5.345
 2802SOL    HW1 9305   1.741   5.444   5.302
 2802SOL    HW2 9306   1.645   5.331   5.370
 2803SOL     OW 9307   3.581   2.069   5.977
 2803SOL    HW1 9308   3.599   2.044   6.072
 2803SOL    HW2 9309   3.514   2.143   5.975
 2804SOL     OW 9310   0.128   2.571   3.786
 2804SOL    HW1 9311   0.184   2.574   3.869
 2804SOL    HW2 9312   0.044   2.623   3.800
 2805SOL     OW 9313   3.899   3.461   0.997
 2805SOL    HW1 9314   3.959   3.396   1.044
 2805SOL    HW2 9315   3.852   3.414   0.922
 2806SOL     OW 9316   0.634   3.936   6.215
 2806SOL    HW1 9317   0.650   3.926   6.313
 2806SOL    HW2 9318   0.666   4.026   6.185
 2807SOL     OW 9319   3.725   6.823   3.608
 2807SOL    HW1 9320   3.712   6.841   3.706
 2807SOL    HW2 9321   3.666   6.885   3.555
 2808SOL     OW 9322   0.364   5.486   5.865
 2808SOL    HW1 9323   0.422   5.449   5.792
 2808SOL    HW2 9324   0.308   5.413   5.904
 2809SOL     OW 9325   6.974   5.372   1.933
 2809SOL    HW1 9326   0.017   5.408   1.997
 2809SOL    HW2 9327   6.882   5.396   1.963
 2810SOL     OW 9328   2.656   6.441   3.219
 2810SOL    HW1 9329   2.689   6.493   3.141
 2810SOL    HW2 9330   2.645   6.502   3.298
 2811SOL     OW 9331   1.068   1.054   1.557
 2811SOL    HW1 9332   1.087   0.976   1.498
 2811SOL    HW2 9333   1.045   1.134   1.501
 2812SOL     OW 9334   0.364   1.814   1.013
 2812SOL    HW1 9335   0.429   1.808   1.089
 2812SOL    HW2 9336   0.325   1.906   1.009
 2813SOL     OW 9337   0.705   2.077   1.128
 2813SOL    HW1 9338   0.688   2.014   1.052
 2813SOL    HW2 9339   0.792   2.055   1.171
 2814SOL     OW 9340   2.559   4.591   0.395
 2814SOL    HW1 9341   2.573   4.501   0.436
 2814SOL    HW2 9342   2.535   4.581   0.299
 2815SOL     OW 9343   0.619   4.860   5.093
 2815SOL    HW1 9344   0.699   4.912   5.064
 2815SOL    HW2 9345   0.546   4.923   5.119
 2816SOL     OW 9346   0.872   6.094   6.228
 2816SOL    HW1 9347   0.936   6.088   6.151
 2816SOL    HW2 9348   0.888   6.016   6.290
 2817SOL     OW 9349   4.130   0.485   1.971
 2817SOL    HW1 9350   4.117   0.490   1.872
 2817SOL    HW2 9351   4.220   0.521   1.995
 2818SOL     OW 9352   1.565   0.498   0.226
 2818SOL    HW1 9353   1.622   0.565   0.273
 2818SOL    HW2 9354   1.566   0.412   0.277
 2819SOL     OW 9355   0.817   0.764   0.614
 2819SOL    HW1 9356   0.913   0.737   0.610
 2819SOL    HW2 9357   0.783   0.779   0.521
 2820SOL     OW 9358   1.882   2.597   0.238
 2820SOL    HW1 9359   1.973   2.575   0.272
 2820SOL    HW2 9360   1.889   2.637   0.146
 2821SOL     OW 9361   2.831   3.182   6.057
 2821SOL    HW1 9362   2.751   3.236   6.032
 2821SOL    HW2 9363   2.804   3.086   6.070
 2822SOL     OW 9364   4.548   2.485   0.637
 2822SOL    HW1 9365   4.468   2.510   0.583
 2822SOL    HW2 9366   4.602   2.568   0.655
 2823SOL     OW 9367   5.196   2.319   1.576
 2823SOL    HW1 9368   5.149   2.405   1.597
 2823SOL    HW2 9369   5.262   2.299   1.649
 2824SOL     OW 9370   1.449   3.231   4.556
 2824SOL    HW1 9371   1.440   3.315   4.501
 2824SOL    HW2 9372   1.537   3.232   4.604
 2825SOL     OW 9373   5.254   2.016   5.889
 2825SOL    HW1 9374   5.314   2.018   5.969
 2825SOL    HW2 9375   5.223   2.108   5.868
 2826SOL     OW 9376   2.572   2.685   6.935
 2826SOL    HW1 9377   2.584   2.637   6.848
 2826SOL    HW2 9378   2.660   2.716   6.969
 2827SOL     OW 9379   5.944   0.999   6.209
 2827SOL    HW1 9380   5.941   1.032   6.115
 2827SOL    HW2 9381   5.908   1.069   6.270
 2828SOL     OW 9382   1.555   3.440   0.770
 2828SOL    HW1 9383   1.607   3.397   0.696
 2828SOL    HW2 9384   1.612   3.445   0.852
 2829SOL     OW 9385   3.048   3.971   2.682
 2829SOL    HW1 9386   3.121   4.039   2.692
 2829SOL    HW2 9387   3.031   3.926   2.769
 2830SOL     OW 9388   3.463   5.242   5.841
 2830SOL    HW1 9389   3.555   5.238   5.803
 2830SOL    HW2 9390   3.402   5.288   5.777
 2831SOL     OW 9391   5.773   2.008   1.612
 2831SOL    HW1 9392   5.730   2.098   1.615
 2831SOL    HW2 9393   5.726   1.946   1.675
 2832SOL     OW 9394   0.881   4.008   2.193
 2832SOL    HW1 9395   0.786   4.019   2.164
 2832SOL    HW2 9396   0.935   3.972   2.117
 2833SOL     OW 9397   2.079   2.501   2.070
 2833SOL    HW1 9398   2.077   2.519   1.972
 2833SOL    HW2 9399   1.997   2.539   2.113
 2834SOL     OW 9400   3.465   5.863   5.594
 2834SOL    HW1 9401   3.426   5.943   5.639
 2834SOL    HW2 9402   3.442   5.864   5.497
 2835SOL     OW 9403   6.857   0.507   0.673
 2835SOL    HW1 9404   6.768   0.552   0.684
 2835SOL    HW2 9405   6.871   0.486   0.577
 2836SOL     OW 9406   3.719   5.751   2.085
 2836SOL    HW1 9407   3.788   5.693   2.128
 2836SOL    HW2 9408   3.629   5.707   2.093
 2837SOL     OW 9409   5.286   4.223   2.006
 2837SOL    HW1 9410   5.238   4.141   1.976
 2837SOL    HW2 9411   5.364   4.240   1.947
 2838SOL     OW 9412   5.863   4.811   6.400
 2838SOL    HW1 9413   5.945   4.754   6.404
 2838SOL    HW2 9414   5.834   4.834   6.493
 2839SOL     OW 9415   6.517   3.149   4.869
 2839SOL    HW1 9416   6.446   3.081   4.891
 2839SOL    HW2 9417   6.602   3.124   4.915
 2840SOL     OW 9418   6.913   6.328   3.911
 2840SOL    HW1 9419   6.970   6.249   3.932
 2840SOL    HW2 9420   6.819   6.298   3.895
 2841SOL     OW 9421   6.179   4.011   2.632
 2841SOL    HW1 9422   6.151   3.927   2.586
 2841SOL    HW2 9423   6.114   4.084   2.611
 2842SOL     OW 9424   1.224   0.087   3.717
 2842SOL    HW1 9425   1.242   0.176   3.759
 2842SOL    HW2 9426   1.274   0.016   3.768
 2843SOL     OW 9427   2.029   2.858   3.921
 2843SOL    HW1 9428   1.979   2.867   4.007
 2843SOL    HW2 9429   2.080   2.943   3.903
 2844SOL     OW 9430   5.024   4.190   0.045
 2844SOL    HW1 9431   5.113   4.196   0.090
 2844SOL    HW2 9432   5.024   4.245   6.987
 2845SOL     OW 9433   2.885   2.195   2.863
 2845SOL    HW1 9434   2.816   2.130   2.893
 2845SOL    HW2 9435   2.863   2.227   2.772
 2846SOL     OW 9436   6.174   0.185   0.038
 2846SOL    HW1 9437   6.140   0.268   7.018
 2846SOL    HW2 9438   6.119   0.166   0.119
 2847SOL     OW 9439   4.318   4.411   1.299
 2847SOL    HW1 9440   4.246   4.365   1.351
 2847SOL    HW2 9441   4.405   4.404   1.347
 2848SOL     OW 9442   0.473   3.888   5.531
 2848SOL    HW1 9443   0.505   3.810   5.477
 2848SOL    HW2 9444   0.489   3.972   5.479
 2849SOL     OW 9445   4.680   0.416   1.959
 2849SOL    HW1 9446   4.622   0.438   2.038
 2849SOL    HW2 9447   4.766   0.377   1.991
 2850SOL     OW 9448   2.086   0.216   2.094
 2850SOL    HW1 9449   2.183   0.211   2.069
 2850SOL    HW2 9450   2.063   0.311   2.116
 2851SOL     OW 9451   3.645   3.125   1.621
 2851SOL    HW1 9452   3.585   3.203   1.603
 2851SOL    HW2 9453   3.625   3.052   1.556
 2852SOL     OW 9454   6.319   4.634   6.921
 2852SOL    HW1 9455   6.269   4.641   6.834
 2852SOL    HW2 9456   6.304   4.543   6.960
 2853SOL     OW 9457   0.159   4.177   5.994
 2853SOL    HW1 9458   0.242   4.140   6.037
 2853SOL    HW2 9459   0.170   4.275   5.978
 2854SOL     OW 9460   4.043   0.634   5.573
 2854SOL    HW1 9461   4.003   0.714   5.528
 2854SOL    HW2 9462   4.099   0.583   5.508
 2855SOL     OW 9463   2.114   1.963   5.540
 2855SOL    HW1 9464   2.133   1.889   5.604
 2855SOL    HW2 9465   2.200   2.002   5.508
 2856SOL     OW 9466   1.040   5.329   3.938
 2856SOL    HW1 9467   1.069   5.425   3.946
 2856SOL    HW2 9468   0.989   5.317   3.852
 2857SOL     OW 9469   0.014   4.078   0.856
 2857SOL    HW1 9470   0.015   4.176   0.871
 2857SOL    HW2 9471   6.984   4.057   0.774
 2858SOL     OW 9472   4.735   4.820   2.278
 2858SOL    HW1 9473   4.663   4.785   2.219
 2858SOL    HW2 9474   4.786   4.744   2.316
 2859SOL     OW 9475   5.374   5.182   0.724
 2859SOL    HW1 9476   5.366   5.281   0.738
 2859SOL    HW2 9477   5.364   5.135   0.812
 2860SOL     OW 9478   0.406   0.093   2.308
 2860SOL    HW1 9479   0.422   0.054   2.217
 2860SOL    HW2 9480   0.461   0.043   2.375
 2861SOL     OW 9481   4.472   5.430   6.018
 2861SOL    HW1 9482   4.398   5.460   5.957
 2861SOL    HW2 9483   4.560   5.451   5.976
 2862SOL     OW 9484   4.166   2.784   0.265
 2862SOL    HW1 9485   4.102   2.716   0.229
 2862SOL    HW2 9486   4.237   2.738   0.318
 2863SOL     OW 9487   5.882   0.207   5.189
 2863SOL    HW1 9488   5.909   0.240   5.098
 2863SOL    HW2 9489   5.964   0.185   5.242
 2864SOL     OW 9490   3.579   4.759   0.333
 2864SOL    HW1 9491   3.549   4.854   0.340
 2864SOL    HW2 9492   3.527   4.702   0.398
 2865SOL     OW 9493   5.335   5.654   4.384
 2865SOL    HW1 9494   5.392   5.586   4.339
 2865SOL    HW2 9495   5.343   5.741   4.336
 2866SOL     OW 9496   4.468   4.284   0.381
 2866SOL    HW1 9497   4.441   4.312   0.473
 2866SOL    HW2 9498   4.562   4.250   0.383
 2867SOL     OW 9499   5.321   6.506   1.784
 2867SOL    HW1 9500   5.372   6.574   1.837
 2867SOL    HW2 9501   5.250   6.552   1.730
 2868SOL     OW 9502   1.107   0.592   5.470
 2868SOL    HW1 9503   1.070   0.552   5.553
 2868SOL    HW2 9504   1.032   0.624   5.411
 2869SOL     OW 9505   6.109   5.397   4.553
 2869SOL    HW1 9506   6.010   5.383   4.551
 2869SOL    HW2 9507   6.129   5.493   4.575
 2870SOL     OW 9508   6.725   2.123   1.878
 2870SOL    HW1 9509   6.797   2.191   1.890
 2870SOL    HW2 9510   6.666   2.122   1.959
 2871SOL     OW 9511   5.647   1.860   2.685
 2871SOL    HW1 9512   5.712   1.874   2.610
 2871SOL    HW2 9513   5.579   1.793   2.657
 2872SOL     OW 9514   3.027   2.180   2.329
 2872SOL    HW1 9515   3.063   2.266   2.293
 2872SOL    HW2 9516   2.932   2.168   2.300
 2873SOL     OW 9517   1.132   6.959   1.331
 2873SOL    HW1 9518   1.160   6.955   1.427
 2873SOL    HW2 9519   1.108   6.866   1.300
 2874SOL     OW 9520   2.889   0.924   2.643
 2874SOL    HW1 9521   2.808   0.914   2.585
 2874SOL    HW2 9522   2.862   0.914   2.739
 2875SOL     OW 9523   2.361   6.640   2.741
 2875SOL    HW1 9524   2.354   6.739   2.726
 2875SOL    HW2 9525   2.285   6.610   2.799
 2876SOL     OW 9526   1.775   0.433   2.384
 2876SOL    HW1 9527   1.711   0.502   2.349
 2876SOL    HW2 9528   1.864   0.475   2.397
 2877SOL     OW 9529   1.378   2.467   6.688
 2877SOL    HW1 9530   1.351   2.373   6.667
 2877SOL    HW2 9531   1.314   2.531   6.644
 2878SOL     OW 9532   4.079   3.291   3.570
 2878SOL    HW1 9533   4.172   3.270   3.601
 2878SOL    HW2 9534   4.016   3.287   3.647
 2879SOL     OW 9535   4.298   3.996   0.276
 2879SOL    HW1 9536   4.258   3.911   0.241
 2879SOL    HW2 9537   4.229   4.069   0.270
 2880SOL     OW 9538   2.327   0.969   3.824
 2880SOL    HW1 9539   2.420   0.938   3.844
 2880SOL    HW2 9540   2.271   0.963   3.907
 2881SOL     OW 9541   4.584   5.694   6.484
 2881SOL    HW1 9542   4.680   5.675   6.461
 2881SOL    HW2 9543   4.580   5.743   6.572
 2882SOL     OW 9544   4.828   6.174   0.370
 2882SOL    HW1 9545   4.788   6.106   0.432
 2882SOL    HW2 9546   4.790   6.264   0.391
 2883SOL     OW 9547   5.836   6.043   3.953
 2883SOL    HW1 9548   5.765   6.110   3.928
 2883SOL    HW2 9549   5.793   5.955   3.974
 2884SOL     OW 9550   7.000   5.181   3.869
 2884SOL    HW1 9551   0.049   5.162   3.804
 2884SOL    HW2 9552   6.946   5.098   3.883
 2885SOL     OW 9553   1.092   2.593   3.468
 2885SOL    HW1 9554   1.131   2.566   3.556
 2885SOL    HW2 9555   1.162   2.640   3.414
 2886SOL     OW 9556   2.115   4.251   5.616
 2886SOL    HW1 9557   2.041   4.190   5.590
 2886SOL    HW2 9558   2.104   4.339   5.570
 2887SOL     OW 9559   0.426   5.737   3.204
 2887SOL    HW1 9560   0.351   5.678   3.233
 2887SOL    HW2 9561   0.480   5.690   3.134
 2888SOL     OW 9562   6.444   6.858   0.166
 2888SOL    HW1 9563   6.486   6.949   0.167
 2888SOL    HW2 9564   6.409   6.838   0.075
 2889SOL     OW 9565   3.394   6.349   2.188
 2889SOL    HW1 9566   3.466   6.299   2.237
 2889SOL    HW2 9567   3.349   6.412   2.250
 2890SOL     OW 9568   1.569   1.746   1.249
 2890SOL    HW1 9569   1.659   1.775   1.215
 2890SOL    HW2 9570   1.562   1.769   1.346
 2891SOL     OW 9571   0.554   2.297   4.567
 2891SOL    HW1 9572   0.537   2.294   4.468
 2891SOL    HW2 9573   0.629   2.236   4.590
 2892SOL     OW 9574   6.595   4.247   3.088
 2892SOL    HW1 9575   6.684   4.289   3.108
 2892SOL    HW2 9576   6.557   4.209   3.172
 2893SOL     OW 9577   6.239   5.399   4.804
 2893SOL    HW1 9578   6.337   5.380   4.792
 2893SOL    HW2 9579   6.187   5.351   4.734
 2894SOL     OW 9580   2.037   6.097   2.677
 2894SOL    HW1 9581   2.018   6.101   2.775
 2894SOL    HW2 9582   1.970   6.153   2.628
 2895SOL     OW 9583   4.443   6.574   6.492
 2895SOL    HW1 9584   4.422   6.547   6.397
 2895SOL    HW2 9585   4.501   6.655   6.491
 2896SOL     OW 9586   5.762   6.023   5.149
 2896SOL    HW1 9587   5.779   6.034   5.051
 2896SOL    HW2 9588   5.671   6.057   5.171
 2897SOL     OW 9589   3.946   5.128   3.185
 2897SOL    HW1 9590   3.940   5.060   3.259
 2897SOL    HW2 9591   3.856   5.143   3.146
 2898SOL     OW 9592   5.256   2.865   2.836
 2898SOL    HW1 9593   5.208   2.868   2.748
 2898SOL    HW2 9594   5.251   2.773   2.874
 2899SOL     OW 9595   6.779   3.733   1.159
 2899SOL    HW1 9596   6.859   3.787   1.187
 2899SOL    HW2 9597   6.752   3.673   1.234
 2900SOL     OW 9598   2.492   2.668   5.746
 2900SOL    HW1 9599   2.397   2.697   5.758
 2900SOL    HW2 9600   2.501   2.571   5.771
 2901SOL     OW 9601   0.903   4.243   3.551
 2901SOL    HW1 9602   0.838   4.318   3.545
 2901SOL    HW2 9603   0.954   4.250   3.636
 2902SOL     OW 9604   6.922   6.019   3.569
 2902SOL    HW1 9605   7.014   6.058   3.563
 2902SOL    HW2 9606   6.870   6.043   3.487
 2903SOL     OW 9607   4.567   4.869   0.354
 2903SOL    HW1 9608   4.565   4.953   0.408
 2903SOL    HW2 9609   4.580   4.891   0.257
 2904SOL     OW 9610   2.353   4.194   5.293
 2904SOL    HW1 9611   2.442   4.235   5.277
 2904SOL    HW2 9612   2.350   4.103   5.252
 2905SOL     OW 9613   1.031   6.018   1.793
 2905SOL    HW1 9614   1.103   5.996   1.727
 2905SOL    HW2 9615   1.034   6.116   1.814
 2906SOL     OW 9616   6.324   6.390   3.895
 2906SOL    HW1 9617   6.408   6.339   3.875
 2906SOL    HW2 9618   6.244   6.332   3.876
 2907SOL     OW 9619   0.560   1.017   3.778
 2907SOL    HW1 9620   0.601   0.974   3.858
 2907SOL    HW2 9621   0.548   1.115   3.796
 2908SOL     OW 9622   4.310   6.213   2.865
 2908SOL    HW1 9623   4.274   6.190   2.774
 2908SOL    HW2 9624   4.235   6.209   2.931
 2909SOL     OW 9625   0.497   6.231   1.524
 2909SOL    HW1 9626   0.482   6.196   1.432
 2909SOL    HW2 9627   0.449   6.318   1.535
 2910SOL     OW 9628   6.962   0.634   3.901
 2910SOL    HW1 9629   0.006   0.639   3.828
 2910SOL    HW2 9630   6.950   0.725   3.941
 2911SOL     OW 9631   6.963   4.322   5.274
 2911SOL    HW1 9632   6.899   4.398   5.260
 2911SOL    HW2 9633   6.944   4.277   5.361
 2912SOL     OW 9634   0.741   0.722   1.527
 2912SOL    HW1 9635   0.679   0.740   1.450
 2912SOL    HW2 9636   0.820   0.670   1.495
 2913SOL     OW 9637   2.777   0.203   1.693
 2913SOL    HW1 9638   2.689   0.239   1.663
 2913SOL    HW2 9639   2.763   0.115   1.739
 2914SOL     OW 9640   4.369   5.534   0.494
 2914SOL    HW1 9641   4.347   5.616   0.441
 2914SOL    HW2 9642   4.412   5.466   0.435
 2915SOL     OW 9643   2.427   0.453   2.476
 2915SOL    HW1 9644   2.440   0.513   2.555
 2915SOL    HW2 9645   2.453   0.501   2.392
 2916SOL     OW 9646   1.353   6.490   0.340
 2916SOL    HW1 9647   1.357   6.582   0.303
 2916SOL    HW2 9648   1.337   6.424   0.266
 2917SOL     OW 9649   2.575   6.063   4.129
 2917SOL    HW1 9650   2.625   6.089   4.211
 2917SOL    HW2 9651   2.497   6.006   4.154
 2918SOL     OW 9652   5.124   2.742   1.902
 2918SOL    HW1 9653   5.078   2.657   1.928
 2918SOL    HW2 9654   5.076   2.820   1.943
 2919SOL     OW 9655   0.901   5.774   4.884
 2919SOL    HW1 9656   0.808   5.776   4.847
 2919SOL    HW2 9657   0.950   5.696   4.846
 2920SOL     OW 9658   1.275   2.760   2.740
 2920SOL    HW1 9659   1.351   2.704   2.706
 2920SOL    HW2 9660   1.290   2.782   2.836
 2921SOL     OW 9661   1.085   6.985   4.098
 2921SOL    HW1 9662   1.109   0.023   4.172
 2921SOL    HW2 9663   1.151   6.910   4.095
 2922SOL     OW 9664   3.683   6.346   3.417
 2922SOL    HW1 9665   3.599   6.322   3.466
 2922SOL    HW2 9666   3.760   6.341   3.480
 2923SOL     OW 9667   6.731   5.904   5.109
 2923SOL    HW1 9668   6.790   5.929   5.185
 2923SOL    HW2 9669   6.642   5.876   5.143
 2924SOL     OW 9670   5.717   1.873   4.978
 2924SOL    HW1 9671   5.779   1.943   5.013
 2924SOL    HW2 9672   5.674   1.825   5.054
 2925SOL     OW 9673   5.147   6.639   6.257
 2925SOL    HW1 9674   5.210   6.698   6.306
 2925SOL    HW2 9675   5.138   6.670   6.162
 2926SOL     OW 9676   6.727   2.493   3.779
 2926SOL    HW1 9677   6.765   2.584   3.766
 2926SOL    HW2 9678   6.631   2.493   3.749
 2927SOL     OW 9679   1.023   1.894   2.008
 2927SOL    HW1 9680   1.092   1.964   1.986
 2927SOL    HW2 9681   1.055   1.805   1.975
 2928SOL     OW 9682   6.605   2.841   0.087
 2928SOL    HW1 9683   6.607   2.899   0.007
 2928SOL    HW2 9684   6.692   2.791   0.095
 2929SOL     OW 9685   2.641   2.431   4.384
 2929SOL    HW1 9686   2.707   2.444   4.310
 2929SOL    HW2 9687   2.634   2.333   4.405
 2930SOL     OW 9688   0.184   4.248   4.890
 2930SOL    HW1 9689   0.105   4.296   4.928
 2930SOL    HW2 9690   0.265   4.308   4.896
 2931SOL     OW 9691   5.203   3.602   5.651
 2931SOL    HW1 9692   5.254   3.664   5.592
 2931SOL    HW2 9693   5.187   3.516   5.603
 2932SOL     OW 9694   6.523   5.382   0.872
 2932SOL    HW1 9695   6.433   5.372   0.913
 2932SOL    HW2 9696   6.592   5.344   0.934
 2933SOL     OW 9697   1.302   0.353   0.366
 2933SOL    HW1 9698   1.362   0.392   0.435
 2933SOL    HW2 9699   1.216   0.404   0.362
 2934SOL     OW 9700   3.827   4.566   0.329
 2934SOL    HW1 9701   3.770   4.645   0.351
 2934SOL    HW2 9702   3.919   4.596   0.305
 2935SOL     OW 9703   0.048   2.070   6.239
 2935SOL    HW1 9704   0.035   2.166   6.261
 2935SOL    HW2 9705   0.112   2.061   6.162
 2936SOL     OW 9706   4.789   6.415   0.688
 2936SOL    HW1 9707   4.887   6.434   0.683
 2936SOL    HW2 9708   4.750   6.423   0.596
 2937SOL     OW 9709   4.941   4.881   2.503
 2937SOL    HW1 9710   5.015   4.866   2.438
 2937SOL    HW2 9711   4.974   4.937   2.579
 2938SOL     OW 9712   6.893   5.479   6.585
 2938SOL    HW1 9713   6.904   5.412   6.512
 2938SOL    HW2 9714   6.874   5.569   6.546
 2939SOL     OW 9715   0.419   6.119   1.786
 2939SOL    HW1 9716   0.498   6.164   1.827
 2939SOL    HW2 9717   0.423   6.129   1.686
 2940SOL     OW 9718   4.276   6.329   3.230
 2940SOL    HW1 9719   4.211   6.264   3.269
 2940SOL    HW2 9720   4.367   6.287   3.225
 2941SOL     OW 9721   1.831   4.232   3.592
 2941SOL    HW1 9722   1.767   4.308   3.604
 2941SOL    HW2 9723   1.872   4.209   3.680
 2942SOL     OW 9724   3.453   1.945   1.067
 2942SOL    HW1 9725   3.395   1.864   1.056
 2942SOL    HW2 9726   3.401   2.027   1.045
 2943SOL     OW 9727   5.984   4.012   3.020
 2943SOL    HW1 9728   6.075   3.980   2.997
 2943SOL    HW2 9729   5.921   3.990   2.945
 2944SOL     OW 9730   2.297   6.035   2.554
 2944SOL    HW1 9731   2.368   6.091   2.511
 2944SOL    HW2 9732   2.224   6.093   2.588
 2945SOL     OW 9733   5.152   4.192   1.124
 2945SOL    HW1 9734   5.091   4.119   1.152
 2945SOL    HW2 9735   5.232   4.194   1.184
 2946SOL     OW 9736   4.017   3.560   5.353
 2946SOL    HW1 9737   4.077   3.632   5.318
 2946SOL    HW2 9738   3.942   3.602   5.404
 2947SOL     OW 9739   6.380   6.773   1.000
 2947SOL    HW1 9740   6.390   6.675   1.018
 2947SOL    HW2 9741   6.361   6.787   0.903
 2948SOL     OW 9742   6.938   3.748   1.836
 2948SOL    HW1 9743   6.904   3.831   1.881
 2948SOL    HW2 9744   0.000   3.769   1.790
 2949SOL     OW 9745   1.232   0.057   0.849
 2949SOL    HW1 9746   1.253   0.018   0.939
 2949SOL    HW2 9747   1.307   0.039   0.786
 2950SOL     OW 9748   6.083   4.841   3.264
 2950SOL    HW1 9749   6.167   4.822   3.316
 2950SOL    HW2 9750   6.078   4.939   3.244
 2951SOL     OW 9751   6.444   1.220   2.024
 2951SOL    HW1 9752   6.514   1.149   2.029
 2951SOL    HW2 9753   6.370   1.189   1.964
 2952SOL     OW 9754   6.266   1.964   4.289
 2952SOL    HW1 9755   6.362   1.954   4.314
 2952SOL    HW2 9756   6.233   2.054   4.318
 2953SOL     OW 9757   1.086   5.566   4.407
 2953SOL    HW1 9758   1.075   5.482   4.353
 2953SOL    HW2 9759   1.048   5.643   4.355
 2954SOL     OW 9760   6.965   4.388   6.486
 2954SOL    HW1 9761   7.024   4.307   6.475
 2954SOL    HW2 9762   7.003   4.463   6.432
 2955SOL     OW 9763   1.833   4.020   5.928
 2955SOL    HW1 9764   1.877   3.983   5.846
 2955SOL    HW2 9765   1.734   4.010   5.921
 2956SOL     OW 9766   5.648   5.104   3.439
 2956SOL    HW1 9767   5.705   5.153   3.372
 2956SOL    HW2 9768   5.683   5.012   3.452
 2957SOL     OW 9769   2.335   5.154   1.170
 2957SOL    HW1 9770   2.333   5.056   1.148
 2957SOL    HW2 9771   2.392   5.201   1.102
 2958SOL     OW 9772   1.357   5.860   2.273
 2958SOL    HW1 9773   1.383   5.828   2.364
 2958SOL    HW2 9774   1.408   5.808   2.204
 2959SOL     OW 9775   6.819   3.927   2.894
 2959SOL    HW1 9776   6.811   3.988   2.816
 2959SOL    HW2 9777   6.746   3.859   2.891
 2960SOL     OW 9778   5.728   0.205   0.603
 2960SOL    HW1 9779   5.673   0.260   0.666
 2960SOL    HW2 9780   5.680   0.198   0.515
 2961SOL     OW 9781   5.376   3.718   2.140
 2961SOL    HW1 9782   5.317   3.746   2.065
 2961SOL    HW2 9783   5.337   3.637   2.184
 2962SOL     OW 9784   6.678   0.303   3.250
 2962SOL    HW1 9785   6.637   0.391   3.270
 2962SOL    HW2 9786   6.607   0.236   3.229
 2963SOL     OW 9787   1.921   0.901   5.342
 2963SOL    HW1 9788   1.997   0.840   5.319
 2963SOL    HW2 9789   1.897   0.889   5.438
 2964SOL     OW 9790   1.239   1.892   0.012
 2964SOL    HW1 9791   1.251   1.909   0.110
 2964SOL    HW2 9792   1.248   1.794   7.018
 2965SOL     OW 9793   0.349   6.676   5.317
 2965SOL    HW1 9794   0.317   6.751   5.258
 2965SOL    HW2 9795   0.273   6.612   5.332
 2966SOL     OW 9796   3.217   5.980   2.300
 2966SOL    HW1 9797   3.316   5.991   2.293
 2966SOL    HW2 9798   3.179   6.054   2.356
 2967SOL     OW 9799   5.264   0.483   5.186
 2967SOL    HW1 9800   5.185   0.514   5.238
 2967SOL    HW2 9801   5.342   0.471   5.247
 2968SOL     OW 9802   1.750   3.652   1.279
 2968SOL    HW1 9803   1.773   3.595   1.358
 2968SOL    HW2 9804   1.812   3.632   1.204
 2969SOL     OW 9805   5.225   3.200   5.137
 2969SOL    HW1 9806   5.270   3.120   5.176
 2969SOL    HW2 9807   5.128   3.179   5.121
 2970SOL     OW 9808   2.412   1.861   4.292
 2970SOL    HW1 9809   2.437   1.863   4.389
 2970SOL    HW2 9810   2.352   1.782   4.275
 2971SOL     OW 9811   5.137   2.749   6.099
 2971SOL    HW1 9812   5.097   2.832   6.137
 2971SOL    HW2 9813   5.183   2.697   6.171
 2972SOL     OW 9814   6.069   5.796   6.812
 2972SOL    HW1 9815   6.166   5.774   6.807
 2972SOL    HW2 9816   6.042   5.849   6.732
 2973SOL     OW 9817   4.320   1.297   2.983
 2973SOL    HW1 9818   4.319   1.394   3.006
 2973SOL    HW2 9819   4.411   1.271   2.953
 2974SOL     OW 9820   4.897   6.812   2.379
 2974SOL    HW1 9821   4.799   6.821   2.398
 2974SOL    HW2 9822   4.918   6.858   2.292
 2975SOL     OW 9823   4.770   4.138   3.729
 2975SOL    HW1 9824   4.711   4.177   3.799
 2975SOL    HW2 9825   4.830   4.069   3.771
 2976SOL     OW 9826   4.045   1.363   2.049
 2976SOL    HW1 9827   4.123   1.414   2.013
 2976SOL    HW2 9828   4.014   1.406   2.134
 2977SOL     OW 9829   1.199   0.905   1.753
 2977SOL    HW1 9830   1.142   0.976   1.710
 2977SOL    HW2 9831   1.295   0.927   1.739
 2978SOL     OW 9832   4.666   5.044   6.566
 2978SOL    HW1 9833   4.630   5.136   6.579
 2978SOL    HW2 9834   4.689   5.031   6.469
 2979SOL     OW 9835   2.937   0.685   4.147
 2979SOL    HW1 9836   2.970   0.596   4.115
 2979SOL    HW2 9837   2.900   0.736   4.069
 2980SOL     OW 9838   3.765   3.715   5.036
 2980SOL    HW1 9839   3.763   3.747   5.131
 2980SOL    HW2 9840   3.685   3.752   4.988
 2981SOL     OW 9841   1.861   1.501   1.358
 2981SOL    HW1 9842   1.819   1.564   1.424
 2981SOL    HW2 9843   1.934   1.450   1.403
 2982SOL     OW 9844   1.360   0.375   1.780
 2982SOL    HW1 9845   1.370   0.312   1.702
 2982SOL    HW2 9846   1.413   0.458   1.763
 2983SOL     OW 9847   6.578   3.302   5.629
 2983SOL    HW1 9848   6.617   3.394   5.630
 2983SOL    HW2 9849   6.506   3.296   5.698
 2984SOL     OW 9850   0.778   5.187   1.252
 2984SOL    HW1 9851   0.756   5.110   1.312
 2984SOL    HW2 9852   0.757   5.273   1.300
 2985SOL     OW 9853   0.596   0.165   5.681
 2985SOL    HW1 9854   0.534   0.154   5.758
 2985SOL    HW2 9855   0.645   0.079   5.665
 2986SOL     OW 9856   3.382   3.570   2.221
 2986SOL    HW1 9857   3.469   3.595   2.262
 2986SOL    HW2 9858   3.321   3.534   2.292
 2987SOL     OW 9859   1.587   6.688   5.106
 2987SOL    HW1 9860   1.653   6.643   5.046
 2987SOL    HW2 9861   1.495   6.681   5.066
 2988SOL     OW 9862   0.445   1.274   6.345
 2988SOL    HW1 9863   0.541   1.287   6.371
 2988SOL    HW2 9864   0.386   1.306   6.419
 2989SOL     OW 9865   4.930   3.555   4.291
 2989SOL    HW1 9866   4.959   3.510   4.375
 2989SOL    HW2 9867   4.945   3.494   4.213
 2990SOL     OW 9868   5.486   1.793   4.571
 2990SOL    HW1 9869   5.453   1.716   4.627
 2990SOL    HW2 9870   5.580   1.814   4.597
 2991SOL     OW 9871   0.533   4.098   1.683
 2991SOL    HW1 9872   0.577   4.187   1.674
 2991SOL    HW2 9873   0.482   4.078   1.600
 2992SOL     OW 9874   0.122   3.777   5.699
 2992SOL    HW1 9875   0.184   3.855   5.704
 2992SOL    HW2 9876   0.052   3.795   5.629
 2993SOL     OW 9877   2.164   3.712   0.676
 2993SOL    HW1 9878   2.216   3.794   0.701
 2993SOL    HW2 9879   2.225   3.645   0.634
 2994SOL     OW 9880   4.158   6.016   6.129
 2994SOL    HW1 9881   4.199   6.096   6.171
 2994SOL    HW2 9882   4.108   6.044   6.046
 2995SOL     OW 9883   5.171   0.887   0.477
 2995SOL    HW1 9884   5.241   0.843   0.534
 2995SOL    HW2 9885   5.125   0.958   0.530
 2996SOL     OW 9886   6.630   0.568   4.280
 2996SOL    HW1 9887   6.692   0.627   4.333
 2996SOL    HW2 9888   6.650   0.472   4.302
 2997SOL     OW 9889   5.240   6.512   4.360
 2997SOL    HW1 9890   5.339   6.511   4.374
 2997SOL    HW2 9891   5.216   6.585   4.297
 2998SOL     OW 9892   2.785   1.384   3.206
 2998SOL    HW1 9893   2.868   1.332   3.227
 2998SOL    HW2 9894   2.709   1.349   3.261
 2999SOL     OW 9895   2.950   3.973   0.749
 2999SOL    HW1 9896   2.960   3.946   0.845
 2999SOL    HW2 9897   3.027   3.938   0.697
 3000SOL     OW 9898   2.898   4.138   5.336
 3000SOL    HW1 9899   2.936   4.094   5.417
 3000SOL    HW2 9900   2.960   4.209   5.305
 3001SOL     OW 9901   5.813   0.627   5.484
 3001SOL    HW1 9902   5.714   0.622   5.471
 3001SOL    HW2 9903   5.839   0.571   5.563
 3002SOL     OW 9904   1.673   2.130   1.706
 3002SOL    HW1 9905   1.730   2.166   1.780
 3002SOL    HW2 9906   1.580   2.164   1.717
 3003SOL     OW 9907   1.490   6.276   0.170
 3003SOL    HW1 9908   1.461   6.283   0.075
 3003SOL    HW2 9909   1.558   6.347   0.191
 3004SOL     OW 9910   2.489   6.397   3.613
 3004SOL    HW1 9911   2.563   6.360   3.557
 3004SOL    HW2 9912   2.463   6.331   3.682
 3005SOL     OW 9913   0.967   2.570   6.585
 3005SOL    HW1 9914   1.003   2.591   6.676
 3005SOL    HW2 9915   0.882   2.620   6.571
 3006SOL     OW 9916   5.140   1.561   5.736
 3006SOL    HW1 9917   5.149   1.510   5.821
 3006SOL    HW2 9918   5.057   1.616   5.739
 3007SOL     OW 9919   5.179   5.599   0.238
 3007SOL    HW1 9920   5.108   5.645   0.185
 3007SOL    HW2 9921   5.268   5.619   0.199
 3008SOL     OW 9922   5.279   3.388   5.844
 3008SOL    HW1 9923   5.202   3.334   5.810
 3008SOL    HW2 9924   5.285   3.473   5.791
 3009SOL     OW 9925   0.719   3.372   2.321
 3009SOL    HW1 9926   0.767   3.379   2.234
 3009SOL    HW2 9927   0.640   3.434   2.320
 3010SOL     OW 9928   3.975   5.585   0.287
 3010SOL    HW1 9929   3.923   5.569   0.203
 3010SOL    HW2 9930   3.931   5.658   0.339
 3011SOL     OW 9931   6.621   0.593   1.314
 3011SOL    HW1 9932   6.576   0.595   1.403
 3011SOL    HW2 9933   6.555   0.570   1.243
 3012SOL     OW 9934   2.259   2.486   5.167
 3012SOL    HW1 9935   2.334   2.444   5.218
 3012SOL    HW2 9936   2.198   2.534   5.229
 3013SOL     OW 9937   1.221   4.386   5.058
 3013SOL    HW1 9938   1.239   4.294   5.022
 3013SOL    HW2 9939   1.123   4.404   5.057
 3014SOL     OW 9940   5.449   6.699   6.238
 3014SOL    HW1 9941   5.522   6.634   6.219
 3014SOL    HW2 9942   5.429   6.752   6.155
 3015SOL     OW 9943   1.171   0.868   6.762
 3015SOL    HW1 9944   1.229   0.804   6.712
 3015SOL    HW2 9945   1.076   0.859   6.731
 3016SOL     OW 9946   2.004   5.885   4.298
 3016SOL    HW1 9947   1.917   5.934   4.306
 3016SOL    HW2 9948   1.993   5.792   4.333
 3017SOL     OW 9949   1.006   4.926   0.897
 3017SOL    HW1 9950   0.975   5.021   0.895
 3017SOL    HW2 9951   0.931   4.866   0.870
 3018SOL     OW 9952   3.613   6.859   0.796
 3018SOL    HW1 9953   3.587   6.890   0.887
 3018SOL    HW2 9954   3.674   6.926   0.754
 3019SOL     OW 9955   2.246   1.098   6.131
 3019SOL    HW1 9956   2.332   1.140   6.103
 3019SOL    HW2 9957   2.259   1.047   6.215
 3020SOL     OW 9958   6.816   3.913   6.558
 3020SOL    HW1 9959   6.757   3.839   6.526
 3020SOL    HW2 9960   6.765   4.000   6.555
 3021SOL     OW 9961   4.286   0.274   5.017
 3021SOL    HW1 9962   4.309   0.232   4.930
 3021SOL    HW2 9963   4.311   0.213   5.092
 3022SOL     OW 9964   3.576   5.670   3.825
 3022SOL    HW1 9965   3.668   5.703   3.848
 3022SOL    HW2 9966   3.523   5.744   3.785
 3023SOL     OW 9967   4.983   5.972   3.930
 3023SOL    HW1 9968   5.043   5.902   3.968
 3023SOL    HW2 9969   4.888   5.948   3.948
 3024SOL     OW 9970   0.090   6.750   0.228
 3024SOL    HW1 9971   0.082   6.668   0.285
 3024SOL    HW2 9972   0.109   6.829   0.286
 3025SOL     OW 9973   3.603   5.259   0.289
 3025SOL    HW1 9974   3.690   5.249   0.338
 3025SOL    HW2 9975   3.595   5.351   0.252
 3026SOL     OW 9976   6.911   0.705   2.245
 3026SOL    HW1 9977   6.913   0.761   2.162
 3026SOL    HW2 9978   6.968   0.749   2.315
 3027SOL     OW 9979   4.339   1.010   0.700
 3027SOL    HW1 9980   4.255   0.957   0.713
 3027SOL    HW2 9981   4.342   1.084   0.768
 3028SOL     OW 9982   2.946   3.149   5.584
 3028SOL    HW1 9983   2.929   3.229   5.526
 3028SOL    HW2 9984   2.870   3.085   5.575
 3029SOL     OW 9985   0.181   3.423   4.202
 3029SOL    HW1 9986   0.110   3.430   4.273
 3029SOL    HW2 9987   0.197   3.513   4.163
 3030SOL     OW 9988   2.461   3.261   0.201
 3030SOL    HW1 9989   2.421   3.352   0.215
 3030SOL    HW2 9990   2.460   3.240   0.103
 3031SOL     OW 9991   1.043   6.098   0.222
 3031SOL    HW1 9992   1.102   6.144   0.289
 3031SOL    HW2 9993   0.950   6.131   0.232
 3032SOL     OW 9994   2.451   0.425   2.897
 3032SOL    HW1 9995   2.431   0.523   2.892
 3032SOL    HW2 9996   2.550   0.412   2.900
 3033SOL     OW 9997   0.308   2.015   5.098
 3033SOL    HW1 9998   0.278   2.108   5.118
 3033SOL    HW2 9999   0.381   1.989   5.161
 3034SOL     OW10000   6.573   4.794   3.587
 3034SOL    HW110001   6.622   4.872   3.625
 3034SOL    HW210002   6.529   4.743   3.661
 3035SOL     OW10003   0.823   3.015   0.815
 3035SOL    HW110004   0.731   3.055   0.817
 3035SOL    HW210005   0.891   3.088   0.823
 3036SOL     OW10006   3.232   2.099   5.632
 3036SOL    HW110007   3.154   2.042   5.658
 3036SOL    HW210008   3.290   2.114   5.712
 3037SOL     OW10009   0.510   5.969   6.623
 3037SOL    HW110010   0.458   5.884   6.635
 3037SOL    HW210011   0.447   6.045   6.612
 3038SOL     OW10012   6.114   4.693   6.708
 3038SOL    HW110013   6.207   4.727   6.691
 3038SOL    HW210014   6.056   4.714   6.629
 3039SOL     OW10015   6.925   3.422   6.173
 3039SOL    HW110016   6.857   3.485   6.135
 3039SOL    HW210017   6.886   3.331   6.180
 3040SOL     OW10018   5.110   4.805   5.840
 3040SOL    HW110019   5.188   4.777   5.897
 3040SOL    HW210020   5.029   4.815   5.897
 3041SOL     OW10021   1.465   4.658   5.771
 3041SOL    HW110022   1.382   4.709   5.747
 3041SOL    HW210023   1.492   4.600   5.694
 3042SOL     OW10024   6.653   5.046   3.701
 3042SOL    HW110025   6.562   5.069   3.737
 3042SOL    HW210026   6.720   5.052   3.774
 3043SOL     OW10027   2.986   5.289   0.578
 3043SOL    HW110028   3.085   5.293   0.592
 3043SOL    HW210029   2.944   5.234   0.650
 3044SOL     OW10030   3.541   3.672   4.615
 3044SOL    HW110031   3.620   3.634   4.568
 3044SOL    HW210032   3.525   3.622   4.700
 3045SOL     OW10033   4.267   1.785   2.217
 3045SOL    HW110034   4.253   1.797   2.315
 3045SOL    HW210035   4.186   1.816   2.168
 3046SOL     OW10036   5.214   6.415   0.899
 3046SOL    HW110037   5.217   6.335   0.839
 3046SOL    HW210038   5.284   6.407   0.969
 3047SOL     OW10039   5.758   1.368   4.833
 3047SOL    HW110040   5.810   1.284   4.845
 3047SOL    HW210041   5.813   1.446   4.863
 3048SOL     OW10042   3.774   4.555   0.979
 3048SOL    HW110043   3.785   4.588   1.073
 3048SOL    HW210044   3.825   4.615   0.917
 3049SOL     OW10045   1.112   1.425   3.167
 3049SOL    HW110046   1.016   1.452   3.170
 3049SOL    HW210047   1.143   1.423   3.072
 3050SOL     OW10048   3.604   1.759   0.692
 3050SOL    HW110049   3.697   1.739   0.661
 3050SOL    HW210050   3.557   1.674   0.716
 3051SOL     OW10051   2.463   5.111   5.812
 3051SOL    HW110052   2.419   5.023   5.829
 3051SOL    HW210053   2.403   5.185   5.839
 3052SOL     OW10054   0.166   6.640   2.254
 3052SOL    HW110055   0.142   6.635   2.158
 3052SOL    HW210056   0.239   6.707   2.267
 3053SOL     OW10057   1.320   4.059   0.320
 3053SOL    HW110058   1.339   4.129   0.389
 3053SOL    HW210059   1.306   4.103   0.231
 3054SOL     OW10060   5.397   0.484   2.521
 3054SOL    HW110061   5.434   0.545   2.450
 3054SOL    HW210062   5.297   0.486   2.517
 3055SOL     OW10063   6.211   6.076   6.221
 3055SOL    HW110064   6.143   6.004   6.210
 3055SOL    HW210065   6.288   6.042   6.275
 3056SOL     OW10066   5.200   1.355   5.560
 3056SOL    HW110067   5.226   1.297   5.637
 3056SOL    HW210068   5.168   1.444   5.593
 3057SOL     OW10069   5.248   3.922   3.155
 3057SOL    HW110070   5.291   3.834   3.132
 3057SOL    HW210071   5.216   3.966   3.072
 3058SOL     OW10072   0.220   4.268   6.618
 3058SOL    HW110073   0.174   4.231   6.538
 3058SOL    HW210074   0.319   4.264   6.604
 3059SOL     OW10075   1.721   1.860   3.533
 3059SOL    HW110076   1.677   1.789   3.588
 3059SOL    HW210077   1.776   1.919   3.593
 3060SOL     OW10078   5.474   4.806   4.871
 3060SOL    HW110079   5.460   4.865   4.791
 3060SOL    HW210080   5.506   4.716   4.841
 3061SOL     OW10081   5.820   6.374   4.717
 3061SOL    HW110082   5.891   6.383   4.647
 3061SOL    HW210083   5.819   6.456   4.774
 3062SOL     OW10084   4.097   4.312   1.060
 3062SOL    HW110085   4.117   4.379   1.131
 3062SOL    HW210086   4.150   4.228   1.077
 3063SOL     OW10087   0.694   4.401   2.309
 3063SOL    HW110088   0.793   4.409   2.304
 3063SOL    HW210089   0.662   4.434   2.398
 3064SOL     OW10090   4.844   2.390   6.216
 3064SOL    HW110091   4.913   2.334   6.262
 3064SOL    HW210092   4.753   2.350   6.232
 3065SOL     OW10093   6.082   1.227   6.966
 3065SOL    HW110094   6.137   1.144   6.977
 3065SOL    HW210095   6.067   1.269   0.031
 3066SOL     OW10096   4.857   6.098   5.302
 3066SOL    HW110097   4.928   6.148   5.254
 3066SOL    HW210098   4.783   6.075   5.238
 3067SOL     OW10099   1.409   2.227   5.772
 3067SOL    HW110100   1.486   2.186   5.821
 3067SOL    HW210101   1.363   2.293   5.831
 3068SOL     OW10102   0.161   0.921   0.430
 3068SOL    HW110103   0.232   0.985   0.461
 3068SOL    HW210104   0.196   0.869   0.352
 3069SOL     OW10105   5.604   0.273   3.180
 3069SOL    HW110106   5.585   0.312   3.270
 3069SOL    HW210107   5.624   0.176   3.189
 3070SOL     OW10108   2.230   1.361   0.914
 3070SOL    HW110109   2.228   1.338   0.817
 3070SOL    HW210110   2.136   1.366   0.949
 3071SOL     OW10111   6.171   4.706   4.943
 3071SOL    HW110112   6.256   4.686   4.992
 3071SOL    HW210113   6.123   4.781   4.987
 3072SOL     OW10114   1.814   7.023   6.176
 3072SOL    HW110115   1.793   0.075   6.236
 3072SOL    HW210116   1.740   6.956   6.180
 3073SOL     OW10117   6.585   4.855   1.548
 3073SOL    HW110118   6.591   4.908   1.633
 3073SOL    HW210119   6.492   4.861   1.512
 3074SOL     OW10120   2.531   3.235   1.542
 3074SOL    HW110121   2.558   3.147   1.581
 3074SOL    HW210122   2.444   3.263   1.581
 3075SOL     OW10123   3.469   5.602   2.102
 3075SOL    HW110124   3.495   5.524   2.045
 3075SOL    HW210125   3.410   5.570   2.177
 3076SOL     OW10126   0.655   0.258   5.298
 3076SOL    HW110127   0.747   0.285   5.329
 3076SOL    HW210128   0.623   0.182   5.353
 3077SOL     OW10129   0.085   4.095   2.631
 3077SOL    HW110130   0.166   4.051   2.592
 3077SOL    HW210131   0.005   4.037   2.616
 3078SOL     OW10132   0.006   3.237   1.836
 3078SOL    HW110133   0.029   3.139   1.831
 3078SOL    HW210134   0.088   3.289   1.859
 3079SOL     OW10135   1.926   3.547   5.459
 3079SOL    HW110136   2.017   3.552   5.418
 3079SOL    HW210137   1.857   3.566   5.389
 3080SOL     OW10138   3.681   4.592   0.627
 3080SOL    HW110139   3.650   4.507   0.583
 3080SOL    HW210140   3.605   4.635   0.674
 3081SOL     OW10141   1.142   3.815   0.801
 3081SOL    HW110142   1.136   3.890   0.735
 3081SOL    HW210143   1.091   3.736   0.766
 3082SOL     OW10144   4.470   5.177   4.292
 3082SOL    HW110145   4.409   5.254   4.310
 3082SOL    HW210146   4.541   5.204   4.227
 3083SOL     OW10147   3.804   6.081   1.707
 3083SOL    HW110148   3.737   6.142   1.750
 3083SOL    HW210149   3.840   6.018   1.775
 3084SOL     OW10150   0.370   4.096   4.343
 3084SOL    HW110151   0.395   4.043   4.262
 3084SOL    HW210152   0.419   4.184   4.342
 3085SOL     OW10153   5.657   5.172   0.284
 3085SOL    HW110154   5.600   5.231   0.228
 3085SOL    HW210155   5.611   5.152   0.370
 3086SOL     OW10156   6.334   6.852   6.246
 3086SOL    HW110157   6.259   6.788   6.260
 3086SOL    HW210158   6.358   6.894   6.334
 3087SOL     OW10159   3.301   6.867   1.887
 3087SOL    HW110160   3.308   6.823   1.977
 3087SOL    HW210161   3.357   6.816   1.821
 3088SOL     OW10162   2.226   2.745   5.762
 3088SOL    HW110163   2.247   2.800   5.843
 3088SOL    HW210164   2.170   2.798   5.699
 3089SOL     OW10165   4.357   5.764   5.620
 3089SOL    HW110166   4.326   5.738   5.712
 3089SOL    HW210167   4.278   5.767   5.558
 3090SOL     OW10168   0.935   2.459   2.268
 3090SOL    HW110169   0.959   2.531   2.204
 3090SOL    HW210170   0.908   2.499   2.355
 3091SOL     OW10171   0.824   2.301   1.392
 3091SOL    HW110172   0.856   2.351   1.311
 3091SOL    HW210173   0.791   2.210   1.364
 3092SOL     OW10174   5.761   1.109   2.855
 3092SOL    HW110175   5.702   1.094   2.775
 3092SOL    HW210176   5.834   1.041   2.855
 3093SOL     OW10177   5.926   5.879   0.048
 3093SOL    HW110178   5.833   5.844   0.056
 3093SOL    HW210179   5.984   5.810   0.003
 3094SOL     OW10180   2.600   2.077   6.294
 3094SOL    HW110181   2.647   2.120   6.217
 3094SOL    HW210182   2.626   2.124   6.379
 3095SOL     OW10183   1.810   3.577   4.725
 3095SOL    HW110184   1.814   3.635   4.644
 3095SOL    HW210185   1.719   3.581   4.765
 3096SOL     OW10186   0.431   3.329   4.296
 3096SOL    HW110187   0.332   3.341   4.284
 3096SOL    HW210188   0.477   3.352   4.210
 3097SOL     OW10189   5.417   2.501   5.456
 3097SOL    HW110190   5.372   2.527   5.370
 3097SOL    HW210191   5.479   2.575   5.484
 3098SOL     OW10192   1.826   3.359   2.835
 3098SOL    HW110193   1.838   3.347   2.933
 3098SOL    HW210194   1.769   3.285   2.798
 3099SOL     OW10195   0.777   6.247   4.307
 3099SOL    HW110196   0.703   6.219   4.368
 3099SOL    HW210197   0.739   6.292   4.227
 3100SOL     OW10198   5.809   4.966   1.816
 3100SOL    HW110199   5.794   5.064   1.802
 3100SOL    HW210200   5.885   4.936   1.758
 3101SOL     OW10201   4.034   6.788   5.620
 3101SOL    HW110202   4.071   6.754   5.534
 3101SOL    HW210203   3.966   6.723   5.655
 3102SOL     OW10204   6.746   4.656   1.198
 3102SOL    HW110205   6.792   4.580   1.243
 3102SOL    HW210206   6.788   4.673   1.109
 3103SOL     OW10207   3.319   1.316   1.381
 3103SOL    HW110208   3.390   1.246   1.377
 3103SOL    HW210209   3.330   1.369   1.465
 3104SOL     OW10210   4.812   1.384   5.230
 3104SOL    HW110211   4.813   1.292   5.268
 3104SOL    HW210212   4.879   1.390   5.156
 3105SOL     OW10213   5.926   3.490   0.413
 3105SOL    HW110214   5.830   3.461   0.410
 3105SOL    HW210215   5.931   3.590   0.406
 3106SOL     OW10216   6.032   0.497   6.370
 3106SOL    HW110217   6.052   0.588   6.405
 3106SOL    HW210218   6.115   0.457   6.331
 3107SOL     OW10219   3.633   1.656   5.842
 3107SOL    HW110220   3.689   1.707   5.907
 3107SOL    HW210221   3.573   1.718   5.793
 3108SOL     OW10222   2.222   4.141   3.702
 3108SOL    HW110223   2.224   4.099   3.793
 3108SOL    HW210224   2.273   4.227   3.704
 3109SOL     OW10225   6.616   6.232   4.475
 3109SOL    HW110226   6.708   6.219   4.512
 3109SOL    HW210227   6.602   6.169   4.398
 3110SOL     OW10228   0.928   4.484   2.990
 3110SOL    HW110229   0.923   4.496   2.891
 3110SOL    HW210230   0.876   4.402   3.016
 3111SOL     OW10231   5.685   4.586   4.024
 3111SOL    HW110232   5.740   4.507   4.051
 3111SOL    HW210233   5.591   4.556   4.005
 3112SOL     OW10234   4.017   1.369   5.990
 3112SOL    HW110235   3.948   1.408   5.929
 3112SOL    HW210236   3.997   1.397   6.084
 3113SOL     OW10237   2.665   5.965   3.221
 3113SOL    HW110238   2.725   6.039   3.189
 3113SOL    HW210239   2.575   6.003   3.243
 3114SOL     OW10240   4.769   1.112   5.373
 3114SOL    HW110241   4.725   1.122   5.462
 3114SOL    HW210242   4.868   1.107   5.384
 3115SOL     OW10243   4.742   5.208   5.142
 3115SOL    HW110244   4.721   5.292   5.193
 3115SOL    HW210245   4.785   5.142   5.203
 3116SOL     OW10246   0.131   1.358   0.905
 3116SOL    HW110247   0.171   1.392   0.990
 3116SOL    HW210248   0.203   1.345   0.837
 3117SOL     OW10249   5.369   1.176   5.992
 3117SOL    HW110250   5.331   1.149   6.080
 3117SOL    HW210251   5.448   1.120   5.970
 3118SOL     OW10252   1.203   1.232   3.358
 3118SOL    HW110253   1.172   1.296   3.287
 3118SOL    HW210254   1.299   1.209   3.341
 3119SOL     OW10255   4.442   5.043   4.819
 3119SOL    HW110256   4.525   5.094   4.839
 3119SOL    HW210257   4.371   5.067   4.885
 3120SOL     OW10258   1.893   5.633   5.538
 3120SOL    HW110259   1.983   5.675   5.546
 3120SOL    HW210260   1.891   5.572   5.459
 3121SOL     OW10261   3.954   1.271   3.978
 3121SOL    HW110262   3.949   1.177   3.943
 3121SOL    HW210263   3.876   1.323   3.945
 3122SOL     OW10264   4.604   5.563   4.258
 3122SOL    HW110265   4.506   5.555   4.241
 3122SOL    HW210266   4.621   5.559   4.357
 3123SOL     OW10267   2.199   1.236   3.637
 3123SOL    HW110268   2.143   1.248   3.719
 3123SOL    HW210269   2.296   1.234   3.663
 3124SOL     OW10270   4.767   0.273   4.436
 3124SOL    HW110271   4.745   0.364   4.400
 3124SOL    HW210272   4.823   0.224   4.369
 3125SOL     OW10273   1.173   0.958   5.002
 3125SOL    HW110274   1.269   0.986   5.010
 3125SOL    HW210275   1.165   0.861   5.023
 3126SOL     OW10276   5.643   5.587   5.296
 3126SOL    HW110277   5.557   5.638   5.289
 3126SOL    HW210278   5.627   5.493   5.268
 3127SOL     OW10279   0.291   1.479   4.915
 3127SOL    HW110280   0.223   1.546   4.946
 3127SOL    HW210281   0.331   1.510   4.829
 3128SOL     OW10282   4.212   0.272   0.797
 3128SOL    HW110283   4.277   0.252   0.724
 3128SOL    HW210284   4.166   0.359   0.778
 3129SOL     OW10285   4.704   3.794   0.213
 3129SOL    HW110286   4.736   3.840   0.131
 3129SOL    HW210287   4.633   3.729   0.190
 3130SOL     OW10288   0.224   4.849   2.440
 3130SOL    HW110289   0.132   4.812   2.454
 3130SOL    HW210290   0.238   4.927   2.501
 3131SOL     OW10291   6.314   4.498   3.300
 3131SOL    HW110292   6.354   4.583   3.335
 3131SOL    HW210293   6.339   4.486   3.204
 3132SOL     OW10294   4.421   4.674   0.013
 3132SOL    HW110295   4.368   4.634   6.964
 3132SOL    HW210296   4.361   4.693   0.091
 3133SOL     OW10297   3.980   0.372   4.686
 3133SOL    HW110298   4.062   0.417   4.650
 3133SOL    HW210299   3.999   0.275   4.700
 3134SOL     OW10300   4.642   5.087   2.465
 3134SOL    HW110301   4.555   5.038   2.455
 3134SOL    HW210302   4.717   5.028   2.434
 3135SOL     OW10303   4.852   5.619   6.408
 3135SOL    HW110304   4.866   5.683   6.333
 3135SOL    HW210305   4.935   5.614   6.463
 3136SOL     OW10306   6.362   1.498   2.840
 3136SOL    HW110307   6.306   1.524   2.919
 3136SOL    HW210308   6.378   1.579   2.783
 3137SOL     OW10309   6.099   6.689   6.242
 3137SOL    HW110310   6.053   6.718   6.325
 3137SOL    HW210311   6.053   6.728   6.162
 3138SOL     OW10312   5.772   5.873   3.671
 3138SOL    HW110313   5.692   5.917   3.631
 3138SOL    HW210314   5.813   5.934   3.739
 3139SOL     OW10315   2.847   4.755   1.286
 3139SOL    HW110316   2.792   4.708   1.355
 3139SOL    HW210317   2.826   4.852   1.287
 3140SOL     OW10318   6.582   6.792   6.508
 3140SOL    HW110319   6.675   6.823   6.531
 3140SOL    HW210320   6.523   6.872   6.495
 3141SOL     OW10321   0.039   2.343   6.272
 3141SOL    HW110322   0.103   2.363   6.347
 3141SOL    HW210323   0.043   2.416   6.204
 3142SOL     OW10324   4.440   1.025   3.343
 3142SOL    HW110325   4.432   0.932   3.380
 3142SOL    HW210326   4.368   1.040   3.275
 3143SOL     OW10327   6.515   1.028   0.539
 3143SOL    HW110328   6.427   1.016   0.584
 3143SOL    HW210329   6.588   1.005   0.603
 3144SOL     OW10330   4.026   3.950   6.965
 3144SOL    HW110331   3.971   3.950   0.024
 3144SOL    HW210332   4.116   3.910   6.984
 3145SOL     OW10333   0.233   6.228   1.057
 3145SOL    HW110334   0.177   6.309   1.045
 3145SOL    HW210335   0.213   6.186   1.145
 3146SOL     OW10336   0.318   0.069   5.224
 3146SOL    HW110337   0.332   0.134   5.299
 3146SOL    HW210338   0.239   0.011   5.245
 3147SOL     OW10339   3.841   5.284   0.418
 3147SOL    HW110340   3.928   5.329   0.398
 3147SOL    HW210341   3.794   5.332   0.492
 3148SOL     OW10342   6.950   5.382   2.405
 3148SOL    HW110343   6.876   5.424   2.353
 3148SOL    HW210344   6.956   5.424   2.495
 3149SOL     OW10345   3.046   1.817   0.163
 3149SOL    HW110346   3.105   1.889   0.127
 3149SOL    HW210347   3.101   1.750   0.212
 3150SOL     OW10348   6.737   5.443   5.286
 3150SOL    HW110349   6.647   5.480   5.263
 3150SOL    HW210350   6.790   5.432   5.202
 3151SOL     OW10351   6.971   0.906   5.925
 3151SOL    HW110352   0.036   0.938   5.894
 3151SOL    HW210353   6.924   0.861   5.849
 3152SOL     OW10354   1.324   3.441   6.160
 3152SOL    HW110355   1.347   3.398   6.072
 3152SOL    HW210356   1.233   3.412   6.189
 3153SOL     OW10357   6.481   4.939   0.958
 3153SOL    HW110358   6.497   4.843   0.980
 3153SOL    HW210359   6.512   4.996   1.034
 3154SOL     OW10360   4.551   1.266   7.023
 3154SOL    HW110361   4.549   1.319   0.083
 3154SOL    HW210362   4.497   1.183   0.010
 3155SOL     OW10363   1.289   4.944   0.897
 3155SOL    HW110364   1.313   4.985   0.985
 3155SOL    HW210365   1.189   4.937   0.890
 3156SOL     OW10366   3.638   4.165   1.878
 3156SOL    HW110367   3.586   4.207   1.953
 3156SOL    HW210368   3.730   4.144   1.910
 3157SOL     OW10369   0.706   1.164   5.731
 3157SOL    HW110370   0.708   1.240   5.666
 3157SOL    HW210371   0.693   1.078   5.682
 3158SOL     OW10372   1.533   1.076   5.852
 3158SOL    HW110373   1.573   1.031   5.772
 3158SOL    HW210374   1.519   1.173   5.832
 3159SOL     OW10375   6.372   6.953   0.506
 3159SOL    HW110376   6.292   6.977   0.561
 3159SOL    HW210377   6.342   6.903   0.424
 3160SOL     OW10378   1.923   0.543   6.739
 3160SOL    HW110379   2.008   0.541   6.791
 3160SOL    HW210380   1.845   0.541   6.802
 3161SOL     OW10381   2.358   2.006   2.551
 3161SOL    HW110382   2.299   2.074   2.508
 3161SOL    HW210383   2.398   1.948   2.480
 3162SOL     OW10384   2.484   5.331   1.012
 3162SOL    HW110385   2.527   5.315   1.101
 3162SOL    HW210386   2.500   5.425   0.984
 3163SOL     OW10387   4.395   4.224   0.112
 3163SOL    HW110388   4.398   4.194   0.208
 3163SOL    HW210389   4.385   4.145   0.053
 3164SOL     OW10390   2.860   6.254   2.863
 3164SOL    HW110391   2.818   6.340   2.835
 3164SOL    HW210392   2.806   6.214   2.937
 3165SOL     OW10393   0.559   6.516   6.869
 3165SOL    HW110394   0.650   6.493   6.905
 3165SOL    HW210395   0.558   6.502   6.770
 3166SOL     OW10396   4.965   0.670   5.086
 3166SOL    HW110397   4.889   0.675   5.022
 3166SOL    HW210398   4.930   0.653   5.179
 3167SOL     OW10399   5.662   3.432   0.495
 3167SOL    HW110400   5.648   3.474   0.585
 3167SOL    HW210401   5.638   3.335   0.500
 3168SOL     OW10402   4.992   2.020   0.401
 3168SOL    HW110403   5.035   2.070   0.476
 3168SOL    HW210404   4.975   1.926   0.429
 3169SOL     OW10405   1.561   4.398   2.130
 3169SOL    HW110406   1.660   4.387   2.127
 3169SOL    HW210407   1.529   4.436   2.042
 3170SOL     OW10408   2.947   4.761   3.264
 3170SOL    HW110409   3.010   4.684   3.267
 3170SOL    HW210410   2.885   4.750   3.186
 3171SOL     OW10411   5.022   2.477   3.541
 3171SOL    HW110412   5.045   2.381   3.526
 3171SOL    HW210413   4.962   2.509   3.467
 3172SOL     OW10414   6.772   4.389   1.637
 3172SOL    HW110415   6.869   4.385   1.661
 3172SOL    HW210416   6.739   4.483   1.645
 3173SOL     OW10417   3.949   2.792   1.223
 3173SOL    HW110418   3.948   2.723   1.296
 3173SOL    HW210419   3.917   2.879   1.259
 3174SOL     OW10420   2.852   3.765   6.137
 3174SOL    HW110421   2.761   3.743   6.099
 3174SOL    HW210422   2.916   3.782   6.062
 3175SOL     OW10423   5.831   0.469   3.836
 3175SOL    HW110424   5.908   0.518   3.877
 3175SOL    HW210425   5.750   0.526   3.840
 3176SOL     OW10426   1.402   4.797   4.795
 3176SOL    HW110427   1.395   4.829   4.701
 3176SOL    HW210428   1.317   4.750   4.821
 3177SOL     OW10429   5.483   3.656   3.650
 3177SOL    HW110430   5.444   3.632   3.561
 3177SOL    HW210431   5.410   3.668   3.717
 3178SOL     OW10432   6.984   0.695   1.252
 3178SOL    HW110433   6.919   0.634   1.206
 3178SOL    HW210434   7.021   0.649   1.332
 3179SOL     OW10435   1.023   1.811   2.305
 3179SOL    HW110436   1.078   1.885   2.343
 3179SOL    HW210437   0.984   1.840   2.218
 3180SOL     OW10438   6.796   5.961   0.321
 3180SOL    HW110439   6.830   5.877   0.364
 3180SOL    HW210440   6.831   5.966   0.227
 3181SOL     OW10441   1.409   0.111   4.717
 3181SOL    HW110442   1.366   0.034   4.764
 3181SOL    HW210443   1.370   0.121   4.625
 3182SOL     OW10444   2.330   1.047   0.540
 3182SOL    HW110445   2.347   1.023   0.445
 3182SOL    HW210446   2.273   1.130   0.543
 3183SOL     OW10447   4.058   4.328   1.425
 3183SOL    HW110448   4.065   4.266   1.503
 3183SOL    HW210449   3.961   4.345   1.405
 3184SOL     OW10450   0.438   2.486   5.280
 3184SOL    HW110451   0.422   2.467   5.183
 3184SOL    HW210452   0.491   2.411   5.320
 3185SOL     OW10453   0.759   5.283   5.896
 3185SOL    HW110454   0.856   5.298   5.877
 3185SOL    HW210455   0.713   5.371   5.907
 3186SOL     OW10456   0.156   1.719   6.509
 3186SOL    HW110457   0.091   1.792   6.532
 3186SOL    HW210458   0.164   1.657   6.587
 3187SOL     OW10459   4.055   5.909   2.369
 3187SOL    HW110460   4.113   5.908   2.288
 3187SOL    HW210461   4.099   5.963   2.441
 3188SOL     OW10462   2.281   4.877   5.857
 3188SOL    HW110463   2.345   4.801   5.862
 3188SOL    HW210464   2.196   4.852   5.905
 3189SOL     OW10465   3.795   1.792   6.094
 3189SOL    HW110466   3.885   1.833   6.079
 3189SOL    HW210467   3.735   1.860   6.138
 3190SOL     OW10468   6.369   6.029   5.025
 3190SOL    HW110469   6.281   5.983   5.012
 3190SOL    HW210470   6.419   5.984   5.099
 3191SOL     OW10471   4.490   5.658   1.396
 3191SOL    HW110472   4.423   5.664   1.471
 3191SOL    HW210473   4.448   5.693   1.312
 3192SOL     OW10474   5.872   2.179   2.513
 3192SOL    HW110475   5.956   2.211   2.469
 3192SOL    HW210476   5.869   2.212   2.607
 3193SOL     OW10477   3.937   7.016   5.464
 3193SOL    HW110478   3.949   6.951   5.539
 3193SOL    HW210479   3.907   0.080   5.501
 3194SOL     OW10480   1.448   1.121   6.286
 3194SOL    HW110481   1.405   1.190   6.343
 3194SOL    HW210482   1.389   1.101   6.207
 3195SOL     OW10483   0.112   2.263   1.349
 3195SOL    HW110484   0.139   2.208   1.271
 3195SOL    HW210485   0.014   2.285   1.342
 3196SOL     OW10486   6.050   0.173   4.243
 3196SOL    HW110487   6.079   0.211   4.155
 3196SOL    HW210488   6.061   0.074   4.242
 3197SOL     OW10489   1.581   0.906   6.420
 3197SOL    HW110490   1.654   0.901   6.352
 3197SOL    HW210491   1.512   0.972   6.391
 3198SOL     OW10492   5.704   3.025   2.868
 3198SOL    HW110493   5.804   3.020   2.862
 3198SOL    HW210494   5.675   3.120   2.881
 3199SOL     OW10495   5.728   4.410   3.499
 3199SOL    HW110496   5.813   4.362   3.518
 3199SOL    HW210497   5.651   4.349   3.518
 3200SOL     OW10498   5.430   3.253   3.668
 3200SOL    HW110499   5.512   3.261   3.725
 3200SOL    HW210500   5.351   3.291   3.717
 3201SOL     OW10501   5.894   4.529   2.887
 3201SOL    HW110502   5.842   4.516   2.803
 3201SOL    HW210503   5.871   4.618   2.927
 3202SOL     OW10504   1.723   3.896   6.793
 3202SOL    HW110505   1.802   3.839   6.815
 3202SOL    HW210506   1.706   3.961   6.867
 3203SOL     OW10507   3.311   0.279   1.194
 3203SOL    HW110508   3.355   0.310   1.110
 3203SOL    HW210509   3.324   0.348   1.266
 3204SOL     OW10510   2.516   1.642   3.576
 3204SOL    HW110511   2.462   1.703   3.517
 3204SOL    HW210512   2.611   1.672   3.575
 3205SOL     OW10513   5.795   3.473   5.523
 3205SOL    HW110514   5.845   3.504   5.604
 3205SOL    HW210515   5.825   3.525   5.443
 3206SOL     OW10516   2.969   3.245   1.500
 3206SOL    HW110517   2.948   3.280   1.409
 3206SOL    HW210518   2.929   3.154   1.511
 3207SOL     OW10519   1.473   5.864   5.550
 3207SOL    HW110520   1.409   5.920   5.603
 3207SOL    HW210521   1.477   5.772   5.589
 3208SOL     OW10522   6.223   5.295   6.159
 3208SOL    HW110523   6.317   5.321   6.184
 3208SOL    HW210524   6.162   5.316   6.236
 3209SOL     OW10525   5.066   5.528   6.612
 3209SOL    HW110526   5.021   5.608   6.652
 3209SOL    HW210527   5.161   5.551   6.591
 3210SOL     OW10528   6.104   5.125   1.478
 3210SOL    HW110529   6.134   5.206   1.528
 3210SOL    HW210530   6.184   5.072   1.448
 3211SOL     OW10531   0.650   4.921   6.667
 3211SOL    HW110532   0.723   4.919   6.599
 3211SOL    HW210533   0.647   5.011   6.709
 3212SOL     OW10534   2.061   0.184   3.365
 3212SOL    HW110535   1.975   0.233   3.351
 3212SOL    HW210536   2.131   0.222   3.305
 3213SOL     OW10537   1.684   0.579   6.307
 3213SOL    HW110538   1.685   0.490   6.352
 3213SOL    HW210539   1.763   0.632   6.337
 3214SOL     OW10540   3.299   0.730   2.540
 3214SOL    HW110541   3.224   0.796   2.538
 3214SOL    HW210542   3.264   0.640   2.564
 3215SOL     OW10543   2.035   3.355   0.698
 3215SOL    HW110544   2.083   3.387   0.616
 3215SOL    HW210545   2.045   3.422   0.771
 3216SOL     OW10546   5.785   4.122   0.127
 3216SOL    HW110547   5.705   4.071   0.159
 3216SOL    HW210548   5.802   4.200   0.188
 3217SOL     OW10549   0.971   5.893   3.071
 3217SOL    HW110550   1.027   5.914   2.990
 3217SOL    HW210551   0.885   5.944   3.066
 3218SOL     OW10552   6.134   0.704   2.943
 3218SOL    HW110553   6.186   0.675   2.862
 3218SOL    HW210554   6.188   0.770   2.995
 3219SOL     OW10555   6.102   0.803   5.558
 3219SOL    HW110556   6.086   0.745   5.637
 3219SOL    HW210557   6.062   0.761   5.476
 3220SOL     OW10558   6.708   4.489   7.014
 3220SOL    HW110559   6.775   4.452   6.949
 3220SOL    HW210560   6.730   4.584   0.009
 3221SOL     OW10561   3.931   0.392   1.544
 3221SOL    HW110562   3.882   0.433   1.620
 3221SOL    HW210563   3.939   0.293   1.559
 3222SOL     OW10564   3.350   1.388   3.133
 3222SOL    HW110565   3.447   1.376   3.151
 3222SOL    HW210566   3.337   1.447   3.053
 3223SOL     OW10567   1.261   6.967   1.102
 3223SOL    HW110568   1.210   6.947   1.185
 3223SOL    HW210569   1.326   0.017   1.120
 3224SOL     OW10570   4.058   1.883   4.086
 3224SOL    HW110571   4.094   1.887   4.179
 3224SOL    HW210572   4.049   1.976   4.050
 3225SOL     OW10573   4.394   0.481   3.684
 3225SOL    HW110574   4.317   0.417   3.693
 3225SOL    HW210575   4.358   0.574   3.682
 3226SOL     OW10576   0.472   6.811   1.287
 3226SOL    HW110577   0.510   6.730   1.333
 3226SOL    HW210578   0.546   6.872   1.260
 3227SOL     OW10579   5.034   3.664   5.197
 3227SOL    HW110580   5.048   3.762   5.184
 3227SOL    HW210581   4.957   3.634   5.141
 3228SOL     OW10582   2.126   3.969   0.424
 3228SOL    HW110583   2.109   4.056   0.470
 3228SOL    HW210584   2.040   3.922   0.408
 3229SOL     OW10585   1.880   1.566   0.646
 3229SOL    HW110586   1.959   1.612   0.605
 3229SOL    HW210587   1.815   1.540   0.574
 3230SOL     OW10588   2.245   5.746   5.698
 3230SOL    HW110589   2.148   5.768   5.710
 3230SOL    HW210590   2.268   5.664   5.751
 3231SOL     OW10591   2.296   1.548   1.854
 3231SOL    HW110592   2.235   1.574   1.780
 3231SOL    HW210593   2.391   1.559   1.824
 3232SOL     OW10594   4.198   5.561   3.888
 3232SOL    HW110595   4.140   5.484   3.914
 3232SOL    HW210596   4.139   5.636   3.855
 3233SOL     OW10597   0.160   2.397   0.448
 3233SOL    HW110598   0.086   2.434   0.391
 3233SOL    HW210599   0.246   2.440   0.421
 3234SOL     OW10600   2.614   3.158   0.625
 3234SOL    HW110601   2.616   3.165   0.525
 3234SOL    HW210602   2.522   3.181   0.658
 3235SOL     OW10603   0.872   6.993   2.010
 3235SOL    HW110604   0.786   6.979   1.961
 3235SOL    HW210605   0.873   6.939   2.094
 3236SOL     OW10606   3.522   2.890   0.482
 3236SOL    HW110607   3.455   2.869   0.410
 3236SOL    HW210608   3.500   2.979   0.523
 3237SOL     OW10609   5.890   1.122   4.836
 3237SOL    HW110610   5.928   1.049   4.778
 3237SOL    HW210611   5.953   1.141   4.911
 3238SOL     OW10612   6.678   5.350   1.782
 3238SOL    HW110613   6.589   5.366   1.739
 3238SOL    HW210614   6.712   5.436   1.821
 3239SOL     OW10615   6.742   0.091   4.257
 3239SOL    HW110616   6.746   7.016   4.253
 3239SOL    HW210617   6.649   0.122   4.236
 3240SOL     OW10618   0.569   1.027   6.825
 3240SOL    HW110619   0.485   0.976   6.806
 3240SOL    HW210620   0.619   1.042   6.739
 3241SOL     OW10621   5.954   1.963   6.063
 3241SOL    HW110622   5.929   1.917   6.148
 3241SOL    HW210623   5.883   2.028   6.038
 3242SOL     OW10624   5.262   4.778   5.040
 3242SOL    HW110625   5.307   4.710   5.098
 3242SOL    HW210626   5.330   4.817   4.977
 3243SOL     OW10627   5.427   5.121   5.168
 3243SOL    HW110628   5.404   5.032   5.207
 3243SOL    HW210629   5.426   5.116   5.069
 3244SOL     OW10630   5.220   6.585   0.055
 3244SOL    HW110631   5.200   6.508   0.116
 3244SOL    HW210632   5.295   6.561   7.018
 3245SOL     OW10633   4.007   1.046   4.556
 3245SOL    HW110634   3.944   1.082   4.487
 3245SOL    HW210635   3.990   0.949   4.569
 3246SOL     OW10636   6.717   0.655   3.050
 3246SOL    HW110637   6.808   0.681   3.083
 3246SOL    HW210638   6.670   0.602   3.120
 3247SOL     OW10639   0.622   4.103   2.753
 3247SOL    HW110640   0.702   4.044   2.751
 3247SOL    HW210641   0.548   4.058   2.803
 3248SOL     OW10642   5.342   2.324   3.545
 3248SOL    HW110643   5.318   2.272   3.463
 3248SOL    HW210644   5.339   2.422   3.525
 3249SOL     OW10645   3.133   4.079   4.091
 3249SOL    HW110646   3.130   4.032   4.003
 3249SOL    HW210647   3.052   4.137   4.101
 3250SOL     OW10648   4.984   5.736   2.257
 3250SOL    HW110649   4.900   5.705   2.300
 3250SOL    HW210650   5.047   5.773   2.326
 3251SOL     OW10651   2.577   1.263   3.338
 3251SOL    HW110652   2.643   1.187   3.343
 3251SOL    HW210653   2.575   1.311   3.426
 3252SOL     OW10654   2.180   1.485   3.900
 3252SOL    HW110655   2.179   1.386   3.916
 3252SOL    HW210656   2.115   1.508   3.828
 3253SOL     OW10657   6.364   3.485   0.655
 3253SOL    HW110658   6.307   3.465   0.575
 3253SOL    HW210659   6.393   3.400   0.698
 3254SOL     OW10660   6.139   0.256   0.941
 3254SOL    HW110661   6.063   0.315   0.968
 3254SOL    HW210662   6.132   0.169   0.989
 3255SOL     OW10663   5.017   5.744   1.175
 3255SOL    HW110664   5.065   5.690   1.244
 3255SOL    HW210665   4.926   5.704   1.159
 3256SOL     OW10666   4.821   1.810   0.998
 3256SOL    HW110667   4.908   1.843   0.964
 3256SOL    HW210668   4.803   1.718   0.960
 3257SOL     OW10669   2.626   2.387   3.087
 3257SOL    HW110670   2.725   2.378   3.102
 3257SOL    HW210671   2.604   2.357   2.994
 3258SOL     OW10672   2.060   6.134   3.179
 3258SOL    HW110673   2.061   6.035   3.188
 3258SOL    HW210674   2.089   6.176   3.265
 3259SOL     OW10675   4.325   4.625   3.159
 3259SOL    HW110676   4.414   4.669   3.164
 3259SOL    HW210677   4.332   4.530   3.190
 3260SOL     OW10678   1.352   4.718   2.421
 3260SOL    HW110679   1.396   4.726   2.332
 3260SOL    HW210680   1.304   4.630   2.427
 3261SOL     OW10681   5.030   0.257   3.800
 3261SOL    HW110682   5.083   0.174   3.781
 3261SOL    HW210683   5.004   0.301   3.715
 3262SOL     OW10684   3.256   2.019   2.400
 3262SOL    HW110685   3.274   2.013   2.498
 3262SOL    HW210686   3.179   2.081   2.384
 3263SOL     OW10687   1.100   1.385   2.894
 3263SOL    HW110688   1.010   1.397   2.852
 3263SOL    HW210689   1.116   1.288   2.911
 3264SOL     OW10690   2.097   5.971   0.725
 3264SOL    HW110691   2.052   5.916   0.654
 3264SOL    HW210692   2.165   6.031   0.683
 3265SOL     OW10693   5.419   4.892   5.915
 3265SOL    HW110694   5.419   4.793   5.899
 3265SOL    HW210695   5.493   4.934   5.862
 3266SOL     OW10696   3.259   5.136   6.524
 3266SOL    HW110697   3.282   5.228   6.556
 3266SOL    HW210698   3.280   5.128   6.427
 3267SOL     OW10699   4.077   0.037   0.690
 3267SOL    HW110700   4.097   0.113   0.752
 3267SOL    HW210701   4.036   0.073   0.606
 3268SOL     OW10702   6.294   5.195   2.031
 3268SOL    HW110703   6.368   5.133   2.057
 3268SOL    HW210704   6.309   5.227   1.937
 3269SOL     OW10705   1.831   4.819   2.646
 3269SOL    HW110706   1.904   4.813   2.578
 3269SOL    HW210707   1.817   4.729   2.687
 3270SOL     OW10708   0.310   2.627   5.021
 3270SOL    HW110709   0.277   2.593   5.109
 3270SOL    HW210710   0.363   2.710   5.035
 3271SOL     OW10711   0.581   3.530   3.002
 3271SOL    HW110712   0.506   3.489   2.948
 3271SOL    HW210713   0.621   3.606   2.951
 3272SOL     OW10714   4.048   6.594   0.387
 3272SOL    HW110715   4.078   6.516   0.331
 3272SOL    HW210716   4.020   6.562   0.477
 3273SOL     OW10717   4.494   2.409   6.873
 3273SOL    HW110718   4.509   2.506   6.892
 3273SOL    HW210719   4.561   2.354   6.923
 3274SOL     OW10720   5.637   0.214   0.153
 3274SOL    HW110721   5.613   0.307   0.127
 3274SOL    HW210722   5.672   0.165   0.073
 3275SOL     OW10723   5.029   0.383   1.098
 3275SOL    HW110724   5.052   0.475   1.130
 3275SOL    HW210725   4.945   0.352   1.143
 3276SOL     OW10726   4.801   6.844   0.124
 3276SOL    HW110727   4.890   6.853   0.078
 3276SOL    HW210728   4.764   6.935   0.142
 3277SOL     OW10729   3.807   1.768   1.919
 3277SOL    HW110730   3.767   1.677   1.919
 3277SOL    HW210731   3.740   1.834   1.884
 3278SOL     OW10732   6.804   0.137   6.738
 3278SOL    HW110733   6.820   0.042   6.710
 3278SOL    HW210734   6.842   0.152   6.829
 3279SOL     OW10735   3.671   0.074   1.372
 3279SOL    HW110736   3.689   7.009   1.333
 3279SOL    HW210737   3.578   0.075   1.411
 3280SOL     OW10738   5.813   3.450   4.684
 3280SOL    HW110739   5.768   3.524   4.634
 3280SOL    HW210740   5.766   3.436   4.771
 3281SOL     OW10741   6.076   3.678   1.510
 3281SOL    HW110742   6.030   3.616   1.446
 3281SOL    HW210743   6.075   3.637   1.601
 3282SOL     OW10744   0.393   4.637   4.588
 3282SOL    HW110745   0.297   4.632   4.560
 3282SOL    HW210746   0.451   4.647   4.507
 3283SOL     OW10747   3.888   1.768   0.586
 3283SOL    HW110748   3.960   1.798   0.650
 3283SOL    HW210749   3.832   1.846   0.560
 3284SOL     OW10750   1.344   5.688   4.556
 3284SOL    HW110751   1.293   5.608   4.525
 3284SOL    HW210752   1.360   5.750   4.479
 3285SOL     OW10753   4.743   1.545   4.684
 3285SOL    HW110754   4.690   1.510   4.761
 3285SOL    HW210755   4.838   1.515   4.693
 3286SOL     OW10756   3.117   1.365   1.216
 3286SOL    HW110757   3.198   1.346   1.272
 3286SOL    HW210758   3.035   1.364   1.274
 3287SOL     OW10759   1.988   0.162   6.826
 3287SOL    HW110760   1.978   0.090   6.758
 3287SOL    HW210761   2.081   0.196   6.826
 3288SOL     OW10762   2.045   6.540   1.524
 3288SOL    HW110763   2.010   6.588   1.604
 3288SOL    HW210764   2.003   6.449   1.519
 3289SOL     OW10765   4.093   1.792   6.765
 3289SOL    HW110766   4.059   1.726   6.831
 3289SOL    HW210767   4.075   1.758   6.672
 3290SOL     OW10768   6.693   4.893   0.768
 3290SOL    HW110769   6.748   4.956   0.712
 3290SOL    HW210770   6.602   4.932   0.781
 3291SOL     OW10771   4.872   6.811   4.879
 3291SOL    HW110772   4.860   6.908   4.902
 3291SOL    HW210773   4.887   6.802   4.780
 3292SOL     OW10774   6.840   2.356   1.481
 3292SOL    HW110775   6.838   2.444   1.527
 3292SOL    HW210776   6.839   2.369   1.382
 3293SOL     OW10777   6.091   5.098   3.203
 3293SOL    HW110778   6.063   5.160   3.276
 3293SOL    HW210779   6.105   5.151   3.119
 3294SOL     OW10780   5.172   2.219   5.005
 3294SOL    HW110781   5.102   2.238   5.073
 3294SOL    HW210782   5.162   2.125   4.971
 3295SOL     OW10783   1.271   3.057   2.204
 3295SOL    HW110784   1.358   3.011   2.185
 3295SOL    HW210785   1.237   3.100   2.121
 3296SOL     OW10786   1.075   0.115   6.000
 3296SOL    HW110787   1.077   0.118   5.900
 3296SOL    HW210788   1.139   0.047   6.033
 3297SOL     OW10789   3.007   1.681   4.725
 3297SOL    HW110790   3.097   1.639   4.718
 3297SOL    HW210791   3.014   1.768   4.773
 3298SOL     OW10792   5.320   4.455   5.672
 3298SOL    HW110793   5.337   4.362   5.639
 3298SOL    HW210794   5.223   4.464   5.695
 3299SOL     OW10795   2.946   4.812   4.484
 3299SOL    HW110796   2.916   4.793   4.390
 3299SOL    HW210797   2.874   4.784   4.548
 3300SOL     OW10798   1.894   0.148   4.255
 3300SOL    HW110799   1.889   0.057   4.213
 3300SOL    HW210800   1.944   0.141   4.342
 3301SOL     OW10801   1.959   2.029   3.204
 3301SOL    HW110802   1.982   1.933   3.220
 3301SOL    HW210803   2.036   2.075   3.161
 3302SOL     OW10804   2.314   4.895   6.224
 3302SOL    HW110805   2.361   4.811   6.197
 3302SOL    HW210806   2.378   4.972   6.222
 3303SOL     OW10807   3.553   3.229   0.411
 3303SOL    HW110808   3.571   3.149   0.354
 3303SOL    HW210809   3.455   3.231   0.435
 3304SOL     OW10810   2.679   4.919   6.229
 3304SOL    HW110811   2.624   5.003   6.229
 3304SOL    HW210812   2.646   4.857   6.300
 3305SOL     OW10813   3.523   1.543   0.821
 3305SOL    HW110814   3.615   1.517   0.849
 3305SOL    HW210815   3.461   1.466   0.835
 3306SOL     OW10816   1.996   0.867   0.384
 3306SOL    HW110817   1.939   0.922   0.445
 3306SOL    HW210818   1.939   0.828   0.312
 3307SOL     OW10819   1.669   6.932   4.779
 3307SOL    HW110820   1.671   6.978   4.868
 3307SOL    HW210821   1.574   6.924   4.748
 3308SOL     OW10822   3.677   4.189   1.171
 3308SOL    HW110823   3.627   4.103   1.181
 3308SOL    HW210824   3.704   4.222   1.261
 3309SOL     OW10825   5.954   3.633   3.470
 3309SOL    HW110826   5.864   3.676   3.476
 3309SOL    HW210827   5.997   3.658   3.383
 3310SOL     OW10828   6.548   5.278   5.848
 3310SOL    HW110829   6.478   5.304   5.782
 3310SOL    HW210830   6.634   5.258   5.801
 3311SOL     OW10831   3.434   3.643   0.398
 3311SOL    HW110832   3.430   3.738   0.366
 3311SOL    HW210833   3.496   3.591   0.339
 3312SOL     OW10834   4.288   2.639   5.765
 3312SOL    HW110835   4.210   2.617   5.707
 3312SOL    HW210836   4.369   2.652   5.707
 3313SOL     OW10837   1.464   0.999   3.073
 3313SOL    HW110838   1.485   0.905   3.100
 3313SOL    HW210839   1.446   1.003   2.975
 3314SOL     OW10840   2.174   5.709   2.190
 3314SOL    HW110841   2.085   5.687   2.151
 3314SOL    HW210842   2.187   5.658   2.275
 3315SOL     OW10843   0.086   4.761   5.485
 3315SOL    HW110844   0.047   4.735   5.397
 3315SOL    HW210845   0.159   4.697   5.509
 3316SOL     OW10846   3.324   1.614   6.236
 3316SOL    HW110847   3.298   1.706   6.208
 3316SOL    HW210848   3.381   1.572   6.165
 3317SOL     OW10849   5.534   2.669   2.989
 3317SOL    HW110850   5.510   2.675   2.892
 3317SOL    HW210851   5.544   2.762   3.027
 3318SOL     OW10852   2.904   2.771   0.672
 3318SOL    HW110853   2.901   2.720   0.758
 3318SOL    HW210854   2.869   2.864   0.687
 3319SOL     OW10855   7.001   6.468   3.254
 3319SOL    HW110856   7.016   6.566   3.253
 3319SOL    HW210857   0.010   6.430   3.340
 3320SOL     OW10858   6.322   0.246   1.163
 3320SOL    HW110859   6.400   0.249   1.226
 3320SOL    HW210860   6.308   0.151   1.133
 3321SOL     OW10861   4.961   1.435   7.021
 3321SOL    HW110862   4.949   1.413   0.093
 3321SOL    HW210863   4.874   1.466   6.984
 3322SOL     OW10864   6.640   3.958   1.054
 3322SOL    HW110865   6.557   3.967   1.110
 3322SOL    HW210866   6.703   3.895   1.098
 3323SOL     OW10867   1.368   1.805   1.972
 3323SOL    HW110868   1.464   1.826   1.990
 3323SOL    HW210869   1.337   1.736   2.038
 3324SOL     OW10870   5.189   5.575   5.580
 3324SOL    HW110871   5.249   5.554   5.503
 3324SOL    HW210872   5.137   5.658   5.561
 3325SOL     OW10873   1.670   3.416   6.566
 3325SOL    HW110874   1.738   3.490   6.562
 3325SOL    HW210875   1.645   3.390   6.473
 3326SOL     OW10876   4.635   0.868   2.774
 3326SOL    HW110877   4.554   0.908   2.731
 3326SOL    HW210878   4.673   0.933   2.841
 3327SOL     OW10879   1.842   5.734   1.006
 3327SOL    HW110880   1.862   5.717   0.909
 3327SOL    HW210881   1.779   5.811   1.014
 3328SOL     OW10882   4.719   1.946   0.204
 3328SOL    HW110883   4.746   1.924   0.110
 3328SOL    HW210884   4.623   1.924   0.216
 3329SOL     OW10885   5.962   5.511   5.336
 3329SOL    HW110886   5.907   5.592   5.317
 3329SOL    HW210887   5.933   5.471   5.423
 3330SOL     OW10888   6.428   3.645   2.606
 3330SOL    HW110889   6.379   3.650   2.519
 3330SOL    HW210890   6.510   3.588   2.596
 3331SOL     OW10891   2.103   2.765   1.327
 3331SOL    HW110892   2.195   2.743   1.296
 3331SOL    HW210893   2.107   2.833   1.401
 3332SOL     OW10894   6.054   4.330   0.773
 3332SOL    HW110895   6.032   4.422   0.806
 3332SOL    HW210896   6.014   4.317   0.683
 3333SOL     OW10897   4.224   4.985   5.578
 3333SOL    HW110898   4.125   4.987   5.593
 3333SOL    HW210899   4.271   4.980   5.667
 3334SOL     OW10900   2.464   4.283   1.791
 3334SOL    HW110901   2.501   4.191   1.774
 3334SOL    HW210902   2.366   4.276   1.808
 3335SOL     OW10903   4.904   4.216   5.332
 3335SOL    HW110904   4.893   4.166   5.418
 3335SOL    HW210905   4.983   4.180   5.283
 3336SOL     OW10906   3.471   4.808   6.263
 3336SOL    HW110907   3.514   4.734   6.211
 3336SOL    HW210908   3.440   4.880   6.200
 3337SOL     OW10909   3.200   2.370   1.204
 3337SOL    HW110910   3.163   2.461   1.222
 3337SOL    HW210911   3.296   2.367   1.232
 3338SOL     OW10912   0.061   4.361   0.775
 3338SOL    HW110913   0.106   4.449   0.758
 3338SOL    HW210914   7.002   4.376   0.828
 3339SOL     OW10915   6.997   5.741   6.803
 3339SOL    HW110916   7.003   5.642   6.819
 3339SOL    HW210917   6.905   5.765   6.772
 3340SOL     OW10918   3.263   6.682   1.291
 3340SOL    HW110919   3.320   6.687   1.373
 3340SOL    HW210920   3.186   6.620   1.309
 3341SOL     OW10921   0.366   0.799   2.559
 3341SOL    HW110922   0.339   0.808   2.654
 3341SOL    HW210923   0.330   0.877   2.507
 3342SOL     OW10924   2.339   6.813   4.391
 3342SOL    HW110925   2.416   6.770   4.343
 3342SOL    HW210926   2.354   6.912   4.395
 3343SOL     OW10927   5.183   2.901   0.757
 3343SOL    HW110928   5.179   2.931   0.853
 3343SOL    HW210929   5.206   2.803   0.754
 3344SOL     OW10930   6.790   3.177   5.898
 3344SOL    HW110931   6.720   3.114   5.865
 3344SOL    HW210932   6.848   3.206   5.822
 3345SOL     OW10933   3.070   3.305   5.983
 3345SOL    HW110934   3.140   3.234   5.975
 3345SOL    HW210935   2.981   3.263   5.999
 3346SOL     OW10936   0.423   0.533   1.474
 3346SOL    HW110937   0.505   0.563   1.427
 3346SOL    HW210938   0.343   0.545   1.414
 3347SOL     OW10939   5.826   4.042   5.067
 3347SOL    HW110940   5.763   3.979   5.021
 3347SOL    HW210941   5.862   3.999   5.149
 3348SOL     OW10942   3.562   2.964   3.827
 3348SOL    HW110943   3.521   2.929   3.911
 3348SOL    HW210944   3.582   3.061   3.838
 3349SOL     OW10945   6.211   3.886   4.489
 3349SOL    HW110946   6.133   3.863   4.548
 3349SOL    HW210947   6.284   3.818   4.502
 3350SOL     OW10948   1.278   1.707   0.810
 3350SOL    HW110949   1.355   1.766   0.836
 3350SOL    HW210950   1.195   1.762   0.803
 3351SOL     OW10951   5.340   1.603   1.420
 3351SOL    HW110952   5.327   1.628   1.324
 3351SOL    HW210953   5.284   1.663   1.478
 3352SOL     OW10954   0.536   3.251   1.112
 3352SOL    HW110955   0.582   3.325   1.161
 3352SOL    HW210956   0.437   3.269   1.110
 3353SOL     OW10957   1.979   0.217   6.088
 3353SOL    HW110958   1.908   0.146   6.092
 3353SOL    HW210959   2.064   0.177   6.054
 3354SOL     OW10960   0.655   2.462   3.640
 3354SOL    HW110961   0.655   2.417   3.551
 3354SOL    HW210962   0.722   2.536   3.640
 3355SOL     OW10963   6.429   1.030   2.810
 3355SOL    HW110964   6.500   0.960   2.810
 3355SOL    HW210965   6.350   0.998   2.862
 3356SOL     OW10966   2.715   3.654   0.058
 3356SOL    HW110967   2.747   3.622   0.147
 3356SOL    HW210968   2.652   3.730   0.071
 3357SOL     OW10969   2.955   5.263   2.200
 3357SOL    HW110970   2.974   5.172   2.162
 3357SOL    HW210971   2.942   5.329   2.126
 3358SOL     OW10972   4.773   5.495   2.189
 3358SOL    HW110973   4.801   5.474   2.095
 3358SOL    HW210974   4.747   5.591   2.195
 3359SOL     OW10975   2.280   1.137   2.759
 3359SOL    HW110976   2.372   1.113   2.728
 3359SOL    HW210977   2.222   1.056   2.756
 3360SOL     OW10978   1.079   0.560   0.338
 3360SOL    HW110979   0.988   0.568   0.297
 3360SOL    HW210980   1.145   0.613   0.284
 3361SOL     OW10981   6.152   6.456   3.024
 3361SOL    HW110982   6.166   6.497   2.934
 3361SOL    HW210983   6.058   6.422   3.031
 3362SOL     OW10984   1.597   0.817   5.743
 3362SOL    HW110985   1.609   0.746   5.812
 3362SOL    HW210986   1.507   0.808   5.701
 3363SOL     OW10987   0.108   1.829   6.911
 3363SOL    HW110988   0.164   1.828   6.994
 3363SOL    HW210989   0.084   1.923   6.889
 3364SOL     OW10990   1.777   5.016   6.349
 3364SOL    HW110991   1.720   5.020   6.267
 3364SOL    HW210992   1.789   4.921   6.376
 3365SOL     OW10993   6.289   1.898   5.144
 3365SOL    HW110994   6.342   1.813   5.152
 3365SOL    HW210995   6.202   1.878   5.099
 3366SOL     OW10996   5.331   0.533   5.670
 3366SOL    HW110997   5.387   0.509   5.749
 3366SOL    HW210998   5.242   0.565   5.701
 3367SOL     OW10999   1.202   1.052   2.176
 3367SOL    HW111000   1.284   1.000   2.200
 3367SOL    HW211001   1.221   1.150   2.180
 3368SOL     OW11002   6.509   5.899   6.037
 3368SOL    HW111003   6.576   5.833   6.003
 3368SOL    HW211004   6.515   5.983   5.984
 3369SOL     OW11005   4.146   0.235   6.965
 3369SOL    HW111006   4.148   0.335   6.965
 3369SOL    HW211007   4.222   0.200   6.911
 3370SOL     OW11008   6.148   6.527   5.355
 3370SOL    HW111009   6.124   6.597   5.287
 3370SOL    HW211010   6.080   6.528   5.428
 3371SOL     OW11011   0.440   5.457   2.183
 3371SOL    HW111012   0.434   5.543   2.134
 3371SOL    HW211013   0.521   5.407   2.154
 3372SOL     OW11014   0.815   0.664   2.977
 3372SOL    HW111015   0.842   0.573   2.947
 3372SOL    HW211016   0.775   0.659   3.069
 3373SOL     OW11017   6.540   2.037   5.103
 3373SOL    HW111018   6.463   1.974   5.102
 3373SOL    HW211019   6.560   2.066   5.197
 3374SOL     OW11020   2.807   5.030   5.800
 3374SOL    HW111021   2.766   5.099   5.859
 3374SOL    HW211022   2.816   4.943   5.850
 3375SOL     OW11023   4.457   4.552   5.352
 3375SOL    HW111024   4.389   4.479   5.361
 3375SOL    HW211025   4.415   4.639   5.378
 3376SOL     OW11026   3.291   3.804   2.093
 3376SOL    HW111027   3.335   3.875   2.148
 3376SOL    HW211028   3.328   3.715   2.118
 3377SOL     OW11029   1.499   6.179   5.205
 3377SOL    HW111030   1.427   6.111   5.193
 3377SOL    HW211031   1.477   6.236   5.284
 3378SOL     OW11032   6.862   1.662   1.454
 3378SOL    HW111033   6.904   1.651   1.365
 3378SOL    HW211034   6.775   1.711   1.445
 3379SOL     OW11035   0.534   4.207   5.426
 3379SOL    HW111036   0.613   4.203   5.487
 3379SOL    HW211037   0.483   4.290   5.444
 3380SOL     OW11038   6.817   4.528   6.669
 3380SOL    HW111039   6.871   4.495   6.746
 3380SOL    HW211040   6.853   4.489   6.584
 3381SOL     OW11041   3.206   2.519   0.310
 3381SOL    HW111042   3.198   2.462   0.228
 3381SOL    HW211043   3.123   2.511   0.364
 3382SOL     OW11044   0.007   1.987   1.040
 3382SOL    HW111045   0.080   2.035   1.087
 3382SOL    HW211046   0.032   1.892   1.026
 3383SOL     OW11047   5.760   4.768   2.981
 3383SOL    HW111048   5.774   4.829   2.902
 3383SOL    HW211049   5.662   4.765   3.003
 3384SOL     OW11050   3.595   3.086   4.193
 3384SOL    HW111051   3.637   3.002   4.227
 3384SOL    HW211052   3.548   3.133   4.268
 3385SOL     OW11053   6.247   4.107   3.567
 3385SOL    HW111054   6.289   4.176   3.508
 3385SOL    HW211055   6.319   4.056   3.615
 3386SOL     OW11056   5.964   4.803   5.538
 3386SOL    HW111057   5.884   4.816   5.479
 3386SOL    HW211058   5.942   4.835   5.631
 3387SOL     OW11059   2.443   2.193   3.193
 3387SOL    HW111060   2.504   2.271   3.185
 3387SOL    HW211061   2.348   2.225   3.194
 3388SOL     OW11062   5.535   1.819   1.743
 3388SOL    HW111063   5.610   1.835   1.808
 3388SOL    HW211064   5.473   1.750   1.780
 3389SOL     OW11065   5.004   4.745   3.447
 3389SOL    HW111066   5.024   4.647   3.446
 3389SOL    HW211067   4.942   4.765   3.523
 3390SOL     OW11068   4.942   2.882   5.631
 3390SOL    HW111069   4.870   2.814   5.646
 3390SOL    HW211070   4.942   2.947   5.707
 3391SOL     OW11071   3.958   2.058   4.863
 3391SOL    HW111072   3.992   2.103   4.946
 3391SOL    HW211073   4.012   2.087   4.785
 3392SOL     OW11074   3.250   0.609   3.900
 3392SOL    HW111075   3.337   0.615   3.851
 3392SOL    HW211076   3.175   0.616   3.835
 3393SOL     OW11077   6.919   6.505   0.155
 3393SOL    HW111078   6.984   6.480   0.227
 3393SOL    HW211079   6.864   6.583   0.186
 3394SOL     OW11080   6.102   2.534   1.189
 3394SOL    HW111081   6.040   2.484   1.128
 3394SOL    HW211082   6.180   2.476   1.212
 3395SOL     OW11083   0.880   3.296   4.212
 3395SOL    HW111084   0.904   3.274   4.306
 3395SOL    HW211085   0.896   3.216   4.154
 3396SOL     OW11086   0.126   4.059   4.174
 3396SOL    HW111087   0.048   4.048   4.235
 3396SOL    HW211088   0.175   4.143   4.198
 3397SOL     OW11089   3.422   6.652   6.583
 3397SOL    HW111090   3.388   6.744   6.561
 3397SOL    HW211091   3.517   6.658   6.612
 3398SOL     OW11092   1.252   6.776   4.080
 3398SOL    HW111093   1.183   6.710   4.050
 3398SOL    HW211094   1.326   6.728   4.126
 3399SOL     OW11095   5.082   4.672   3.746
 3399SOL    HW111096   5.103   4.635   3.837
 3399SOL    HW211097   5.043   4.600   3.689
 3400SOL     OW11098   4.698   2.206   6.982
 3400SOL    HW111099   4.657   2.213   0.049
 3400SOL    HW211100   4.778   2.147   6.986
 3401SOL     OW11101   5.964   4.131   0.531
 3401SOL    HW111102   6.051   4.108   0.487
 3401SOL    HW211103   5.940   4.060   0.597
 3402SOL     OW11104   5.612   5.591   1.250
 3402SOL    HW111105   5.569   5.642   1.324
 3402SOL    HW211106   5.657   5.655   1.187
 3403SOL     OW11107   3.802   0.523   5.362
 3403SOL    HW111108   3.862   0.513   5.283
 3403SOL    HW211109   3.853   0.503   5.446
 3404SOL     OW11110   4.766   0.951   0.450
 3404SOL    HW111111   4.789   0.866   0.497
 3404SOL    HW211112   4.763   1.026   0.516
 3405SOL     OW11113   6.491   3.570   6.566
 3405SOL    HW111114   6.471   3.490   6.510
 3405SOL    HW211115   6.562   3.625   6.521
 3406SOL     OW11116   1.875   3.706   2.633
 3406SOL    HW111117   1.809   3.649   2.683
 3406SOL    HW211118   1.833   3.794   2.612
 3407SOL     OW11119   1.122   5.707   2.021
 3407SOL    HW111120   1.088   5.796   2.049
 3407SOL    HW211121   1.132   5.648   2.100
 3408SOL     OW11122   5.165   4.072   2.411
 3408SOL    HW111123   5.105   4.147   2.385
 3408SOL    HW211124   5.243   4.068   2.348
 3409SOL     OW11125   3.290   0.368   6.210
 3409SOL    HW111126   3.368   0.307   6.203
 3409SOL    HW211127   3.253   0.386   6.119
 3410SOL     OW11128   6.545   6.653   0.304
 3410SOL    HW111129   6.504   6.729   0.253
 3410SOL    HW211130   6.527   6.568   0.256
 3411SOL     OW11131   4.759   1.543   2.992
 3411SOL    HW111132   4.682   1.540   2.929
 3411SOL    HW211133   4.734   1.595   3.074
 3412SOL     OW11134   3.565   4.372   6.973
 3412SOL    HW111135   3.597   4.343   0.038
 3412SOL    HW211136   3.587   4.301   6.906
 3413SOL     OW11137   3.523   1.313   3.495
 3413SOL    HW111138   3.475   1.388   3.541
 3413SOL    HW211139   3.532   1.334   3.398
 3414SOL     OW11140   2.895   2.376   5.269
 3414SOL    HW111141   2.895   2.420   5.359
 3414SOL    HW211142   2.987   2.377   5.231
 3415SOL     OW11143   0.614   4.693   3.965
 3415SOL    HW111144   0.553   4.615   3.978
 3415SOL    HW211145   0.692   4.665   3.909
 3416SOL     OW11146   0.595   5.276   5.256
 3416SOL    HW111147   0.684   5.319   5.238
 3416SOL    HW211148   0.529   5.347   5.281
 3417SOL     OW11149   0.074   6.625   2.548
 3417SOL    HW111150   7.008   6.585   2.533
 3417SOL    HW211151   0.117   6.642   2.460
 3418SOL     OW11152   3.145   1.548   5.351
 3418SOL    HW111153   3.121   1.608   5.427
 3418SOL    HW211154   3.089   1.465   5.355
 3419SOL     OW11155   4.289   4.520   6.825
 3419SOL    HW111156   4.282   4.428   6.862
 3419SOL    HW211157   4.272   4.518   6.727
 3420SOL     OW11158   4.611   2.143   3.744
 3420SOL    HW111159   4.579   2.213   3.807
 3420SOL    HW211160   4.579   2.053   3.775
 3421SOL     OW11161   6.981   5.914   5.645
 3421SOL    HW111162   6.900   5.971   5.645
 3421SOL    HW211163   6.963   5.831   5.591
 3422SOL     OW11164   3.661   0.732   1.380
 3422SOL    HW111165   3.655   0.677   1.297
 3422SOL    HW211166   3.721   0.811   1.363
 3423SOL     OW11167   2.446   0.980   0.986
 3423SOL    HW111168   2.385   0.957   0.911
 3423SOL    HW211169   2.518   0.911   0.992
 3424SOL     OW11170   4.411   0.994   2.600
 3424SOL    HW111171   4.321   0.952   2.599
 3424SOL    HW211172   4.422   1.052   2.519
 3425SOL     OW11173   4.795   4.496   1.837
 3425SOL    HW111174   4.831   4.516   1.928
 3425SOL    HW211175   4.841   4.554   1.770
 3426SOL     OW11176   3.923   3.590   0.599
 3426SOL    HW111177   3.913   3.493   0.618
 3426SOL    HW211178   4.012   3.622   0.631
 3427SOL     OW11179   0.129   1.212   0.217
 3427SOL    HW111180   0.184   1.135   0.186
 3427SOL    HW211181   0.138   1.288   0.152
 3428SOL     OW11182   4.200   4.664   2.119
 3428SOL    HW111183   4.266   4.606   2.071
 3428SOL    HW211184   4.135   4.701   2.052
 3429SOL     OW11185   1.318   3.370   1.115
 3429SOL    HW111186   1.392   3.437   1.117
 3429SOL    HW211187   1.347   3.291   1.062
 3430SOL     OW11188   1.599   6.967   0.373
 3430SOL    HW111189   1.599   6.911   0.290
 3430SOL    HW211190   1.509   7.007   0.387
 3431SOL     OW11191   1.591   5.885   0.657
 3431SOL    HW111192   1.496   5.866   0.680
 3431SOL    HW211193   1.635   5.936   0.731
 3432SOL     OW11194   3.301   1.576   5.786
 3432SOL    HW111195   3.225   1.632   5.818
 3432SOL    HW211196   3.385   1.605   5.831
 3433SOL     OW11197   3.395   0.774   5.063
 3433SOL    HW111198   3.353   0.847   5.118
 3433SOL    HW211199   3.467   0.729   5.117
 3434SOL     OW11200   4.591   2.637   1.978
 3434SOL    HW111201   4.534   2.719   1.986
 3434SOL    HW211202   4.619   2.608   2.070
 3435SOL     OW11203   0.250   2.071   2.512
 3435SOL    HW111204   0.329   2.131   2.524
 3435SOL    HW211205   0.271   1.980   2.548
 3436SOL     OW11206   4.643   6.653   4.655
 3436SOL    HW111207   4.654   6.629   4.751
 3436SOL    HW211208   4.652   6.570   4.599
 3437SOL     OW11209   4.014   6.767   4.989
 3437SOL    HW111210   3.973   6.803   5.073
 3437SOL    HW211211   4.113   6.780   4.992
 3438SOL     OW11212   1.344   2.696   6.315
 3438SOL    HW111213   1.371   2.789   6.339
 3438SOL    HW211214   1.245   2.687   6.326
 3439SOL     OW11215   2.670   6.840   4.628
 3439SOL    HW111216   2.725   6.790   4.696
 3439SOL    HW211217   2.584   6.868   4.670
 3440SOL     OW11218   4.902   3.395   1.091
 3440SOL    HW111219   4.871   3.318   1.037
 3440SOL    HW211220   4.874   3.383   1.186
 3441SOL     OW11221   3.229   6.698   3.464
 3441SOL    HW111222   3.302   6.685   3.531
 3441SOL    HW211223   3.141   6.702   3.510
 3442SOL     OW11224   1.788   5.079   3.515
 3442SOL    HW111225   1.833   5.063   3.603
 3442SOL    HW211226   1.816   5.169   3.479
 3443SOL     OW11227   5.484   1.793   3.024
 3443SOL    HW111228   5.443   1.863   2.965
 3443SOL    HW211229   5.524   1.721   2.968
 3444SOL     OW11230   4.980   5.260   6.943
 3444SOL    HW111231   4.968   5.320   6.864
 3444SOL    HW211232   5.077   5.252   6.964
 3445SOL     OW11233   6.582   4.805   4.013
 3445SOL    HW111234   6.656   4.741   4.034
 3445SOL    HW211235   6.540   4.779   3.926
 3446SOL     OW11236   4.067   0.206   2.927
 3446SOL    HW111237   4.165   0.190   2.918
 3446SOL    HW211238   4.051   0.298   2.962
 3447SOL     OW11239   5.669   6.250   0.137
 3447SOL    HW111240   5.763   6.243   0.102
 3447SOL    HW211241   5.654   6.179   0.206
 3448SOL     OW11242   3.567   1.155   1.368
 3448SOL    HW111243   3.589   1.077   1.310
 3448SOL    HW211244   3.577   1.240   1.316
 3449SOL     OW11245   6.802   7.010   2.367
 3449SOL    HW111246   6.794   6.990   2.465
 3449SOL    HW211247   6.841   6.930   2.321
 3450SOL     OW11248   0.721   1.791   1.718
 3450SOL    HW111249   0.660   1.760   1.792
 3450SOL    HW211250   0.733   1.890   1.724
 3451SOL     OW11251   1.400   5.552   4.002
 3451SOL    HW111252   1.305   5.547   4.032
 3451SOL    HW211253   1.414   5.637   3.951
 3452SOL     OW11254   6.316   0.854   0.167
 3452SOL    HW111255   6.388   0.911   0.207
 3452SOL    HW211256   6.329   0.759   0.195
 3453SOL     OW11257   5.898   5.462   4.928
 3453SOL    HW111258   5.856   5.532   4.986
 3453SOL    HW211259   5.982   5.429   4.971
 3454SOL     OW11260   1.191   1.469   1.297
 3454SOL    HW111261   1.281   1.426   1.304
 3454SOL    HW211262   1.185   1.521   1.212
 3455SOL     OW11263   1.716   3.014   4.404
 3455SOL    HW111264   1.787   2.945   4.399
 3455SOL    HW211265   1.632   2.974   4.440
 3456SOL     OW11266   5.667   6.980   1.609
 3456SOL    HW111267   5.628   6.891   1.632
 3456SOL    HW211268   5.641   7.005   1.516
 3457SOL     OW11269   2.588   5.083   3.521
 3457SOL    HW111270   2.646   5.091   3.440
 3457SOL    HW211271   2.640   5.108   3.602
 3458SOL     OW11272   5.921   6.680   0.663
 3458SOL    HW111273   5.989   6.730   0.610
 3458SOL    HW211274   5.961   6.654   0.751
 3459SOL     OW11275   0.412   4.527   3.457
 3459SOL    HW111276   0.394   4.434   3.427
 3459SOL    HW211277   0.417   4.530   3.557
 3460SOL     OW11278   3.983   2.608   0.165
 3460SOL    HW111279   3.991   2.515   0.129
 3460SOL    HW211280   3.890   2.623   0.199
 3461SOL     OW11281   3.719   5.518   4.256
 3461SOL    HW111282   3.818   5.508   4.259
 3461SOL    HW211283   3.676   5.442   4.305
 3462SOL     OW11284   4.886   3.924   2.762
 3462SOL    HW111285   4.955   3.888   2.699
 3462SOL    HW211286   4.826   3.988   2.713
 3463SOL     OW11287   2.259   2.997   1.751
 3463SOL    HW111288   2.260   3.089   1.711
 3463SOL    HW211289   2.196   2.995   1.829
 3464SOL     OW11290   5.230   3.465   6.141
 3464SOL    HW111291   5.182   3.547   6.171
 3464SOL    HW211292   5.203   3.443   6.047
 3465SOL     OW11293   2.178   3.866   1.939
 3465SOL    HW111294   2.174   3.768   1.962
 3465SOL    HW211295   2.184   3.920   2.023
 3466SOL     OW11296   5.390   4.443   4.899
 3466SOL    HW111297   5.470   4.468   4.954
 3466SOL    HW211298   5.331   4.382   4.952
 3467SOL     OW11299   2.901   2.646   0.901
 3467SOL    HW111300   2.916   2.553   0.936
 3467SOL    HW211301   2.863   2.703   0.974
 3468SOL     OW11302   4.810   1.338   1.516
 3468SOL    HW111303   4.825   1.276   1.593
 3468SOL    HW211304   4.758   1.290   1.445
 3469SOL     OW11305   4.687   6.816   6.090
 3469SOL    HW111306   4.646   6.734   6.051
 3469SOL    HW211307   4.683   6.891   6.024
 3470SOL     OW11308   0.497   2.661   1.797
 3470SOL    HW111309   0.516   2.563   1.801
 3470SOL    HW211310   0.492   2.691   1.702
 3471SOL     OW11311   4.209   4.819   2.698
 3471SOL    HW111312   4.305   4.793   2.691
 3471SOL    HW211313   4.156   4.768   2.630
 3472SOL     OW11314   4.340   2.252   3.267
 3472SOL    HW111315   4.240   2.252   3.280
 3472SOL    HW211316   4.363   2.194   3.189
 3473SOL     OW11317   0.167   4.105   3.708
 3473SOL    HW111318   0.225   4.024   3.713
 3473SOL    HW211319   0.097   4.090   3.638
 3474SOL     OW11320   6.586   5.082   4.578
 3474SOL    HW111321   6.519   5.137   4.628
 3474SOL    HW211322   6.549   4.991   4.562
 3475SOL     OW11323   6.950   4.373   4.526
 3475SOL    HW111324   6.852   4.361   4.515
 3475SOL    HW211325   6.986   4.303   4.588
 3476SOL     OW11326   1.851   1.693   3.372
 3476SOL    HW111327   1.844   1.621   3.441
 3476SOL    HW211328   1.806   1.776   3.406
 3477SOL     OW11329   0.458   4.028   1.941
 3477SOL    HW111330   0.488   4.036   1.845
 3477SOL    HW211331   0.389   3.956   1.948
 3478SOL     OW11332   2.325   0.109   0.153
 3478SOL    HW111333   2.321   0.021   0.105
 3478SOL    HW211334   2.354   0.180   0.089
 3479SOL     OW11335   0.648   3.045   3.488
 3479SOL    HW111336   0.728   3.048   3.547
 3479SOL    HW211337   0.615   3.138   3.472
 3480SOL     OW11338   1.308   5.685   6.707
 3480SOL    HW111339   1.364   5.763   6.734
 3480SOL    HW211340   1.217   5.718   6.678
 3481SOL     OW11341   5.774   0.234   6.946
 3481SOL    HW111342   5.715   0.266   6.871
 3481SOL    HW211343   5.841   0.304   6.968
 3482SOL     OW11344   6.052   3.008   4.593
 3482SOL    HW111345   6.006   2.936   4.646
 3482SOL    HW211346   6.012   3.012   4.501
 3483SOL     OW11347   4.694   2.302   3.479
 3483SOL    HW111348   4.668   2.254   3.562
 3483SOL    HW211349   4.674   2.400   3.489
 3484SOL     OW11350   1.765   3.464   6.209
 3484SOL    HW111351   1.739   3.501   6.120
 3484SOL    HW211352   1.682   3.441   6.260
 3485SOL     OW11353   6.842   1.655   5.402
 3485SOL    HW111354   6.794   1.730   5.356
 3485SOL    HW211355   6.792   1.570   5.389
 3486SOL     OW11356   2.214   0.097   4.660
 3486SOL    HW111357   2.162   0.018   4.692
 3486SOL    HW211358   2.205   0.171   4.726
 3487SOL     OW11359   5.948   1.781   6.587
 3487SOL    HW111360   5.986   1.854   6.531
 3487SOL    HW211361   6.009   1.703   6.587
 3488SOL     OW11362   5.807   0.223   4.371
 3488SOL    HW111363   5.895   0.208   4.325
 3488SOL    HW211364   5.733   0.211   4.305
 3489SOL     OW11365   2.917   0.282   1.134
 3489SOL    HW111366   2.980   0.256   1.060
 3489SOL    HW211367   2.849   0.345   1.098
 3490SOL     OW11368   3.957   4.721   0.852
 3490SOL    HW111369   3.917   4.750   0.765
 3490SOL    HW211370   4.048   4.683   0.836
 3491SOL     OW11371   5.202   3.815   0.053
 3491SOL    HW111372   5.295   3.848   0.041
 3491SOL    HW211373   5.202   3.737   0.116
 3492SOL     OW11374   5.894   4.204   2.653
 3492SOL    HW111375   5.926   4.224   2.561
 3492SOL    HW211376   5.922   4.278   2.715
 3493SOL     OW11377   6.064   3.646   4.289
 3493SOL    HW111378   6.014   3.714   4.236
 3493SOL    HW211379   6.033   3.648   4.384
 3494SOL     OW11380   3.003   1.717   2.424
 3494SOL    HW111381   3.056   1.731   2.508
 3494SOL    HW211382   2.929   1.784   2.420
 3495SOL     OW11383   1.373   3.516   2.018
 3495SOL    HW111384   1.360   3.432   2.071
 3495SOL    HW211385   1.321   3.590   2.060
 3496SOL     OW11386   6.702   4.942   0.395
 3496SOL    HW111387   6.607   4.965   0.414
 3496SOL    HW211388   6.707   4.849   0.359
 3497SOL     OW11389   4.440   0.370   3.034
 3497SOL    HW111390   4.420   0.423   3.117
 3497SOL    HW211391   4.379   0.400   2.961
 3498SOL     OW11392   2.553   1.554   1.744
 3498SOL    HW111393   2.600   1.518   1.663
 3498SOL    HW211394   2.585   1.646   1.763
 3499SOL     OW11395   6.287   5.647   5.590
 3499SOL    HW111396   6.313   5.743   5.583
 3499SOL    HW211397   6.189   5.637   5.573
 3500SOL     OW11398   1.592   1.650   3.677
 3500SOL    HW111399   1.531   1.649   3.757
 3500SOL    HW211400   1.537   1.637   3.594
 3501SOL     OW11401   2.184   6.932   6.439
 3501SOL    HW111402   2.243   7.012   6.430
 3501SOL    HW211403   2.117   6.948   6.512
 3502SOL     OW11404   5.543   2.974   1.847
 3502SOL    HW111405   5.451   2.947   1.819
 3502SOL    HW211406   5.556   2.954   1.944
 3503SOL     OW11407   6.817   6.004   6.223
 3503SOL    HW111408   6.892   6.066   6.245
 3503SOL    HW211409   6.808   5.995   6.124
 3504SOL     OW11410   1.488   0.952   1.684
 3504SOL    HW111411   1.567   0.909   1.728
 3504SOL    HW211412   1.479   1.046   1.716
 3505SOL     OW11413   5.574   5.330   5.225
 3505SOL    HW111414   5.546   5.343   5.320
 3505SOL    HW211415   5.541   5.242   5.192
 3506SOL     OW11416   5.396   4.417   4.620
 3506SOL    HW111417   5.331   4.345   4.597
 3506SOL    HW211418   5.402   4.425   4.720
 3507SOL     OW11419   2.532   0.317   0.462
 3507SOL    HW111420   2.533   0.408   0.422
 3507SOL    HW211421   2.453   0.308   0.523
 3508SOL     OW11422   3.188   2.627   5.364
 3508SOL    HW111423   3.165   2.567   5.287
 3508SOL    HW211424   3.155   2.719   5.345
 3509SOL     OW11425   4.704   6.787   0.547
 3509SOL    HW111426   4.715   6.745   0.457
 3509SOL    HW211427   4.790   6.783   0.597
 3510SOL     OW11428   2.084   1.041   1.279
 3510SOL    HW111429   2.166   1.005   1.235
 3510SOL    HW211430   2.101   1.134   1.311
 3511SOL     OW11431   1.983   4.611   1.377
 3511SOL    HW111432   1.924   4.575   1.305
 3511SOL    HW211433   1.954   4.703   1.401
 3512SOL     OW11434   0.991   4.316   0.183
 3512SOL    HW111435   0.994   4.225   0.222
 3512SOL    HW211436   0.944   4.378   0.246
 3513SOL     OW11437   6.113   2.160   0.947
 3513SOL    HW111438   6.080   2.129   1.037
 3513SOL    HW211439   6.191   2.104   0.919
 3514SOL     OW11440   5.415   0.760   2.833
 3514SOL    HW111441   5.315   0.758   2.835
 3514SOL    HW211442   5.451   0.667   2.830
 3515SOL     OW11443   5.395   5.874   4.225
 3515SOL    HW111444   5.422   5.951   4.281
 3515SOL    HW211445   5.444   5.877   4.138
 3516SOL     OW11446   5.322   0.173   1.235
 3516SOL    HW111447   5.324   0.127   1.146
 3516SOL    HW211448   5.290   0.109   1.305
 3517SOL     OW11449   6.659   1.280   0.355
 3517SOL    HW111450   6.733   1.326   0.305
 3517SOL    HW211451   6.698   1.225   0.428
 3518SOL     OW11452   5.998   1.778   4.688
 3518SOL    HW111453   6.059   1.835   4.742
 3518SOL    HW211454   6.052   1.715   4.631
 3519SOL     OW11455   3.046   1.047   6.980
 3519SOL    HW111456   3.144   1.061   6.967
 3519SOL    HW211457   3.000   1.135   6.984
 3520SOL     OW11458   3.339   5.422   5.640
 3520SOL    HW111459   3.241   5.402   5.637
 3520SOL    HW211460   3.380   5.404   5.551
 3521SOL     OW11461   3.516   2.931   6.789
 3521SOL    HW111462   3.616   2.935   6.789
 3521SOL    HW211463   3.479   3.002   6.848
 3522SOL     OW11464   6.586   5.485   6.522
 3522SOL    HW111465   6.555   5.533   6.440
 3522SOL    HW211466   6.655   5.540   6.569
 3523SOL     OW11467   1.173   4.985   4.977
 3523SOL    HW111468   1.232   5.004   5.056
 3523SOL    HW211469   1.203   5.040   4.899
 3524SOL     OW11470   5.785   2.296   3.130
 3524SOL    HW111471   5.693   2.334   3.142
 3524SOL    HW211472   5.780   2.215   3.073
 3525SOL     OW11473   6.161   4.446   4.437
 3525SOL    HW111474   6.097   4.371   4.452
 3525SOL    HW211475   6.205   4.471   4.523
 3526SOL     OW11476   1.672   5.614   3.686
 3526SOL    HW111477   1.654   5.667   3.769
 3526SOL    HW211478   1.695   5.520   3.711
 3527SOL     OW11479   6.010   2.348   5.866
 3527SOL    HW111480   6.074   2.409   5.818
 3527SOL    HW211481   6.059   2.269   5.902
 3528SOL     OW11482   2.527   6.551   5.437
 3528SOL    HW111483   2.473   6.470   5.412
 3528SOL    HW211484   2.601   6.562   5.371
 3529SOL     OW11485   4.433   5.834   6.972
 3529SOL    HW111486   4.336   5.845   6.953
 3529SOL    HW211487   4.447   5.751   0.003
 3530SOL     OW11488   0.052   5.711   2.150
 3530SOL    HW111489   0.104   5.626   2.146
 3530SOL    HW211490   6.994   5.698   2.204
 3531SOL     OW11491   4.845   1.884   1.928
 3531SOL    HW111492   4.867   1.858   1.834
 3531SOL    HW211493   4.815   1.803   1.979
 3532SOL     OW11494   2.288   0.991   2.069
 3532SOL    HW111495   2.214   0.961   2.009
 3532SOL    HW211496   2.373   0.944   2.044
 3533SOL     OW11497   6.848   1.672   2.484
 3533SOL    HW111498   6.798   1.669   2.571
 3533SOL    HW211499   6.821   1.593   2.429
 3534SOL     OW11500   0.744   2.276   2.508
 3534SOL    HW111501   0.769   2.190   2.552
 3534SOL    HW211502   0.734   2.262   2.409
 3535SOL     OW11503   2.732   5.073   5.268
 3535SOL    HW111504   2.792   4.996   5.290
 3535SOL    HW211505   2.703   5.065   5.173
 3536SOL     OW11506   3.495   1.739   3.262
 3536SOL    HW111507   3.484   1.837   3.278
 3536SOL    HW211508   3.523   1.724   3.167
 3537SOL     OW11509   1.331   5.766   2.895
 3537SOL    HW111510   1.286   5.710   2.965
 3537SOL    HW211511   1.423   5.730   2.877
 3538SOL     OW11512   3.146   5.361   5.304
 3538SOL    HW111513   3.091   5.389   5.382
 3538SOL    HW211514   3.240   5.393   5.316
 3539SOL     OW11515   3.497   3.942   4.272
 3539SOL    HW111516   3.459   4.031   4.247
 3539SOL    HW211517   3.541   3.900   4.193
 3540SOL     OW11518   1.983   2.145   4.103
 3540SOL    HW111519   2.071   2.099   4.118
 3540SOL    HW211520   1.918   2.118   4.174
 3541SOL     OW11521   3.305   3.320   5.161
 3541SOL    HW111522   3.361   3.256   5.110
 3541SOL    HW211523   3.355   3.406   5.174
 3542SOL     OW11524   1.800   4.827   3.144
 3542SOL    HW111525   1.723   4.765   3.132
 3542SOL    HW211526   1.825   4.867   3.055
 3543SOL     OW11527   5.107   2.367   4.274
 3543SOL    HW111528   5.037   2.358   4.345
 3543SOL    HW211529   5.128   2.464   4.260
 3544SOL     OW11530   2.037   3.935   6.934
 3544SOL    HW111531   2.100   3.990   6.880
 3544SOL    HW211532   2.024   3.846   6.890
 3545SOL     OW11533   4.013   5.926   6.590
 3545SOL    HW111534   3.947   5.865   6.546
 3545SOL    HW211535   4.104   5.885   6.588
 3546SOL     OW11536   0.183   5.637   3.310
 3546SOL    HW111537   0.085   5.652   3.295
 3546SOL    HW211538   0.206   5.656   3.406
 3547SOL     OW11539   3.727   5.329   3.971
 3547SOL    HW111540   3.664   5.278   3.912
 3547SOL    HW211541   3.726   5.289   4.063
 3548SOL     OW11542   4.559   2.366   5.767
 3548SOL    HW111543   4.593   2.275   5.747
 3548SOL    HW211544   4.478   2.360   5.826
 3549SOL     OW11545   6.576   5.075   3.993
 3549SOL    HW111546   6.600   4.978   3.998
 3549SOL    HW211547   6.496   5.086   3.935
 3550SOL     OW11548   5.088   2.221   3.567
 3550SOL    HW111549   5.095   2.191   3.662
 3550SOL    HW211550   5.159   2.176   3.512
 3551SOL     OW11551   3.589   6.033   2.862
 3551SOL    HW111552   3.521   6.029   2.788
 3551SOL    HW211553   3.544   6.016   2.950
 3552SOL     OW11554   5.410   5.831   2.745
 3552SOL    HW111555   5.314   5.828   2.774
 3552SOL    HW211556   5.468   5.789   2.815
 3553SOL     OW11557   5.582   2.664   2.282
 3553SOL    HW111558   5.637   2.667   2.365
 3553SOL    HW211559   5.505   2.726   2.291
 3554SOL     OW11560   4.455   3.971   6.406
 3554SOL    HW111561   4.371   3.988   6.353
 3554SOL    HW211562   4.521   4.044   6.389
 3555SOL     OW11563   0.677   3.804   2.843
 3555SOL    HW111564   0.775   3.816   2.862
 3555SOL    HW211565   0.665   3.783   2.746
 3556SOL     OW11566   3.199   0.718   5.384
 3556SOL    HW111567   3.269   0.784   5.360
 3556SOL    HW211568   3.110   0.763   5.390
 3557SOL     OW11569   1.520   0.342   4.820
 3557SOL    HW111570   1.484   0.417   4.766
 3557SOL    HW211571   1.479   0.256   4.789
 3558SOL     OW11572   0.220   5.673   1.809
 3558SOL    HW111573   0.156   5.638   1.741
 3558SOL    HW211574   0.314   5.666   1.774
 3559SOL     OW11575   0.382   0.380   4.848
 3559SOL    HW111576   0.378   0.285   4.816
 3559SOL    HW211577   0.440   0.385   4.929
 3560SOL     OW11578   1.119   5.826   0.929
 3560SOL    HW111579   1.152   5.826   1.023
 3560SOL    HW211580   1.034   5.773   0.923
 3561SOL     OW11581   4.795   4.537   5.574
 3561SOL    HW111582   4.814   4.439   5.570
 3561SOL    HW211583   4.706   4.553   5.616
 3562SOL     OW11584   5.161   0.042   3.676
 3562SOL    HW111585   5.199   6.977   3.655
 3562SOL    HW211586   5.065   0.044   3.649
 3563SOL     OW11587   5.313   1.177   1.134
 3563SOL    HW111588   5.311   1.095   1.191
 3563SOL    HW211589   5.401   1.224   1.148
 3564SOL     OW11590   0.702   4.273   4.617
 3564SOL    HW111591   0.761   4.202   4.579
 3564SOL    HW211592   0.720   4.284   4.714
 3565SOL     OW11593   2.406   0.459   4.752
 3565SOL    HW111594   2.423   0.557   4.763
 3565SOL    HW211595   2.392   0.439   4.655
 3566SOL     OW11596   0.116   3.154   5.979
 3566SOL    HW111597   0.025   3.141   6.017
 3566SOL    HW211598   0.153   3.241   6.011
 3567SOL     OW11599   0.546   3.561   1.232
 3567SOL    HW111600   0.502   3.610   1.157
 3567SOL    HW211601   0.641   3.590   1.241
 3568SOL     OW11602   4.764   4.753   2.746
 3568SOL    HW111603   4.831   4.688   2.708
 3568SOL    HW211604   4.685   4.758   2.685
 3569SOL     OW11605   2.903   3.431   4.358
 3569SOL    HW111606   2.869   3.522   4.336
 3569SOL    HW211607   2.910   3.422   4.458
 3570SOL     OW11608   6.403   1.567   5.643
 3570SOL    HW111609   6.481   1.505   5.653
 3570SOL    HW211610   6.341   1.556   5.720
 3571SOL     OW11611   1.856   0.147   5.204
 3571SOL    HW111612   1.802   0.126   5.285
 3571SOL    HW211613   1.795   0.159   5.126
 3572SOL     OW11614   5.122   4.049   1.823
 3572SOL    HW111615   5.114   4.098   1.736
 3572SOL    HW211616   5.031   4.015   1.850
 3573SOL     OW11617   6.308   3.965   2.268
 3573SOL    HW111618   6.348   4.013   2.346
 3573SOL    HW211619   6.335   4.010   2.183
 3574SOL     OW11620   2.658   2.830   5.876
 3574SOL    HW111621   2.725   2.858   5.807
 3574SOL    HW211622   2.604   2.754   5.840
 3575SOL     OW11623   4.553   6.297   0.797
 3575SOL    HW111624   4.632   6.338   0.751
 3575SOL    HW211625   4.470   6.322   0.747
 3576SOL     OW11626   0.058   3.260   0.163
 3576SOL    HW111627   0.140   3.246   0.108
 3576SOL    HW211628   0.082   3.301   0.251
 3577SOL     OW11629   1.956   2.758   5.147
 3577SOL    HW111630   2.037   2.744   5.090
 3577SOL    HW211631   1.911   2.843   5.120
 3578SOL     OW11632   3.240   2.919   6.691
 3578SOL    HW111633   3.181   2.874   6.759
 3578SOL    HW211634   3.331   2.931   6.729
 3579SOL     OW11635   0.234   3.690   2.492
 3579SOL    HW111636   0.185   3.638   2.562
 3579SOL    HW211637   0.332   3.690   2.513
 3580SOL     OW11638   0.056   3.538   1.464
 3580SOL    HW111639   7.019   3.498   1.532
 3580SOL    HW211640   0.150   3.509   1.483
 3581SOL     OW11641   0.720   0.429   2.684
 3581SOL    HW111642   0.631   0.406   2.643
 3581SOL    HW211643   0.774   0.346   2.696
 3582SOL     OW11644   3.457   3.752   5.598
 3582SOL    HW111645   3.451   3.760   5.698
 3582SOL    HW211646   3.413   3.668   5.569
 3583SOL     OW11647   0.142   4.518   1.192
 3583SOL    HW111648   0.055   4.475   1.219
 3583SOL    HW211649   0.174   4.577   1.266
 3584SOL     OW11650   5.251   4.210   4.583
 3584SOL    HW111651   5.218   4.145   4.514
 3584SOL    HW211652   5.203   4.194   4.669
 3585SOL     OW11653   2.892   2.026   4.304
 3585SOL    HW111654   2.820   2.092   4.325
 3585SOL    HW211655   2.911   1.971   4.385
 3586SOL     OW11656   6.575   2.887   3.713
 3586SOL    HW111657   6.516   2.844   3.781
 3586SOL    HW211658   6.568   2.837   3.626
 3587SOL     OW11659   3.803   6.777   6.442
 3587SOL    HW111660   3.860   6.754   6.364
 3587SOL    HW211661   3.748   6.858   6.421
 3588SOL     OW11662   6.643   4.093   4.517
 3588SOL    HW111663   6.634   4.186   4.553
 3588SOL    HW211664   6.626   4.027   4.591
 3589SOL     OW11665   7.007   6.998   6.398
 3589SOL    HW111666   0.023   6.907   6.411
 3589SOL    HW211667   0.055   0.042   6.402
 3590SOL     OW11668   0.379   4.478   0.856
 3590SOL    HW111669   0.361   4.381   0.838
 3590SOL    HW211670   0.311   4.534   0.808
 3591SOL     OW11671   5.255   2.085   6.825
 3591SOL    HW111672   5.316   2.071   6.903
 3591SOL    HW211673   5.274   2.018   6.754
 3592SOL     OW11674   1.594   0.135   2.144
 3592SOL    HW111675   1.509   0.162   2.098
 3592SOL    HW211676   1.576   0.119   2.241
 3593SOL     OW11677   5.940   3.690   5.663
 3593SOL    HW111678   5.944   3.687   5.763
 3593SOL    HW211679   5.899   3.776   5.633
 3594SOL     OW11680   4.126   5.118   4.346
 3594SOL    HW111681   4.182   5.088   4.269
 3594SOL    HW211682   4.156   5.070   4.429
 3595SOL     OW11683   5.901   5.856   6.151
 3595SOL    HW111684   5.989   5.811   6.161
 3595SOL    HW211685   5.869   5.846   6.056
 3596SOL     OW11686   3.509   1.091   3.019
 3596SOL    HW111687   3.534   1.142   2.938
 3596SOL    HW211688   3.590   1.071   3.074
 3597SOL     OW11689   1.628   3.295   5.186
 3597SOL    HW111690   1.555   3.227   5.193
 3597SOL    HW211691   1.644   3.317   5.090
 3598SOL     OW11692   1.869   5.352   4.455
 3598SOL    HW111693   1.812   5.309   4.386
 3598SOL    HW211694   1.883   5.448   4.432
 3599SOL     OW11695   4.833   1.526   5.463
 3599SOL    HW111696   4.859   1.480   5.378
 3599SOL    HW211697   4.875   1.617   5.466
 3600SOL     OW11698   3.491   3.565   0.853
 3600SOL    HW111699   3.435   3.483   0.863
 3600SOL    HW211700   3.588   3.541   0.865
 3601SOL     OW11701   4.817   0.673   5.313
 3601SOL    HW111702   4.751   0.738   5.350
 3601SOL    HW211703   4.876   0.639   5.386
 3602SOL     OW11704   2.462   2.467   1.187
 3602SOL    HW111705   2.536   2.459   1.121
 3602SOL    HW211706   2.379   2.426   1.149
 3603SOL     OW11707   3.348   0.908   5.659
 3603SOL    HW111708   3.306   0.863   5.737
 3603SOL    HW211709   3.290   0.984   5.629
 3604SOL     OW11710   6.692   0.183   3.525
 3604SOL    HW111711   6.637   0.230   3.594
 3604SOL    HW211712   6.684   0.232   3.438
 3605SOL     OW11713   0.741   5.589   3.426
 3605SOL    HW111714   0.796   5.580   3.342
 3605SOL    HW211715   0.800   5.583   3.506
 3606SOL     OW11716   2.284   6.528   1.344
 3606SOL    HW111717   2.348   6.455   1.322
 3606SOL    HW211718   2.201   6.490   1.384
 3607SOL     OW11719   4.979   2.491   2.945
 3607SOL    HW111720   4.911   2.562   2.964
 3607SOL    HW211721   4.939   2.425   2.881
 3608SOL     OW11722   3.814   2.027   4.602
 3608SOL    HW111723   3.795   2.005   4.697
 3608SOL    HW211724   3.907   2.066   4.595
 3609SOL     OW11725   2.340   0.064   4.446
 3609SOL    HW111726   2.306   0.118   4.369
 3609SOL    HW211727   2.291   0.089   4.529
 3610SOL     OW11728   2.294   7.002   5.150
 3610SOL    HW111729   2.376   7.017   5.094
 3610SOL    HW211730   2.233   0.056   5.143
 3611SOL     OW11731   5.054   4.481   3.443
 3611SOL    HW111732   5.093   4.431   3.520
 3611SOL    HW211733   5.050   4.422   3.363
 3612SOL     OW11734   5.573   1.616   6.838
 3612SOL    HW111735   5.627   1.551   6.891
 3612SOL    HW211736   5.633   1.670   6.780
 3613SOL     OW11737   3.219   5.181   0.972
 3613SOL    HW111738   3.152   5.118   1.011
 3613SOL    HW211739   3.204   5.188   0.873
 3614SOL     OW11740   3.791   4.413   6.072
 3614SOL    HW111741   3.836   4.404   5.982
 3614SOL    HW211742   3.821   4.339   6.131
 3615SOL     OW11743   6.063   2.439   5.378
 3615SOL    HW111744   6.083   2.529   5.416
 3615SOL    HW211745   6.142   2.404   5.328
 3616SOL     OW11746   1.873   1.929   6.763
 3616SOL    HW111747   1.824   2.010   6.730
 3616SOL    HW211748   1.969   1.936   6.737
 3617SOL     OW11749   3.893   6.556   6.005
 3617SOL    HW111750   3.835   6.596   5.935
 3617SOL    HW211751   3.844   6.482   6.052
 3618SOL     OW11752   1.909   3.811   4.554
 3618SOL    HW111753   1.873   3.881   4.616
 3618SOL    HW211754   2.008   3.823   4.544
 3619SOL     OW11755   6.569   2.747   1.156
 3619SOL    HW111756   6.557   2.702   1.245
 3619SOL    HW211757   6.536   2.841   1.161
 3620SOL     OW11758   6.290   6.655   5.079
 3620SOL    HW111759   6.216   6.670   5.146
 3620SOL    HW211760   6.353   6.586   5.114
 3621SOL     OW11761   3.329   3.241   3.675
 3621SOL    HW111762   3.324   3.235   3.575
 3621SOL    HW211763   3.266   3.175   3.715
 3622SOL     OW11764   1.008   6.926   0.229
 3622SOL    HW111765   0.916   6.889   0.234
 3622SOL    HW211766   1.013   7.010   0.284
 3623SOL     OW11767   0.935   5.144   6.586
 3623SOL    HW111768   0.868   5.154   6.660
 3623SOL    HW211769   0.991   5.063   6.603
 3624SOL     OW11770   2.908   0.758   2.322
 3624SOL    HW111771   2.944   0.733   2.233
 3624SOL    HW211772   2.872   0.676   2.368
 3625SOL     OW11773   6.961   2.652   6.804
 3625SOL    HW111774   6.983   2.720   6.874
 3625SOL    HW211775   6.889   2.591   6.838
 3626SOL     OW11776   0.950   2.365   4.808
 3626SOL    HW111777   0.999   2.365   4.895
 3626SOL    HW211778   1.015   2.361   4.733
 3627SOL     OW11779   4.116   2.356   1.380
 3627SOL    HW111780   4.164   2.269   1.367
 3627SOL    HW211781   4.034   2.358   1.323
 3628SOL     OW11782   0.120   1.443   2.401
 3628SOL    HW111783   0.032   1.466   2.359
 3628SOL    HW211784   0.138   1.505   2.477
 3629SOL     OW11785   1.762   1.215   4.524
 3629SOL    HW111786   1.764   1.276   4.445
 3629SOL    HW211787   1.852   1.213   4.568
 3630SOL     OW11788   6.458   2.489   3.685
 3630SOL    HW111789   6.403   2.415   3.648
 3630SOL    HW211790   6.404   2.541   3.751
 3631SOL     OW11791   1.711   6.672   2.574
 3631SOL    HW111792   1.780   6.717   2.519
 3631SOL    HW211793   1.753   6.632   2.655
 3632SOL     OW11794   4.662   3.654   1.098
 3632SOL    HW111795   4.662   3.559   1.130
 3632SOL    HW211796   4.684   3.714   1.175
 3633SOL     OW11797   3.474   2.921   6.159
 3633SOL    HW111798   3.418   2.966   6.229
 3633SOL    HW211799   3.571   2.944   6.174
 3634SOL     OW11800   2.883   5.334   6.284
 3634SOL    HW111801   2.948   5.408   6.266
 3634SOL    HW211802   2.898   5.297   6.375
 3635SOL     OW11803   2.751   0.558   1.537
 3635SOL    HW111804   2.754   0.650   1.576
 3635SOL    HW211805   2.689   0.557   1.458
 3636SOL     OW11806   1.114   5.240   6.985
 3636SOL    HW111807   1.022   5.209   6.962
 3636SOL    HW211808   1.121   5.255   0.059
 3637SOL     OW11809   6.812   2.694   6.587
 3637SOL    HW111810   6.870   2.685   6.668
 3637SOL    HW211811   6.739   2.626   6.590
 3638SOL     OW11812   5.695   4.513   2.682
 3638SOL    HW111813   5.631   4.589   2.688
 3638SOL    HW211814   5.680   4.462   2.597
 3639SOL     OW11815   3.211   3.744   4.612
 3639SOL    HW111816   3.242   3.749   4.517
 3639SOL    HW211817   3.263   3.673   4.660
 3640SOL     OW11818   5.484   1.734   0.434
 3640SOL    HW111819   5.428   1.817   0.422
 3640SOL    HW211820   5.474   1.675   0.354
 3641SOL     OW11821   6.475   4.023   2.499
 3641SOL    HW111822   6.569   3.995   2.482
 3641SOL    HW211823   6.459   4.031   2.597
 3642SOL     OW11824   6.056   2.764   6.615
 3642SOL    HW111825   6.006   2.693   6.664
 3642SOL    HW211826   6.041   2.754   6.516
 3643SOL     OW11827   3.674   5.473   5.633
 3643SOL    HW111828   3.660   5.506   5.540
 3643SOL    HW211829   3.751   5.410   5.635
 3644SOL     OW11830   3.024   0.742   2.058
 3644SOL    HW111831   3.027   0.841   2.045
 3644SOL    HW211832   3.054   0.696   1.975
 3645SOL     OW11833   1.534   4.390   4.050
 3645SOL    HW111834   1.606   4.333   4.011
 3645SOL    HW211835   1.503   4.456   3.981
 3646SOL     OW11836   2.395   4.546   4.844
 3646SOL    HW111837   2.454   4.607   4.898
 3646SOL    HW211838   2.366   4.469   4.900
 3647SOL     OW11839   2.900   0.240   0.198
 3647SOL    HW111840   2.970   0.311   0.209
 3647SOL    HW211841   2.809   0.282   0.198
 3648SOL     OW11842   4.323   5.328   3.665
 3648SOL    HW111843   4.292   5.388   3.591
 3648SOL    HW211844   4.279   5.239   3.656
 3649SOL     OW11845   5.803   2.683   0.354
 3649SOL    HW111846   5.807   2.729   0.442
 3649SOL    HW211847   5.722   2.624   0.351
 3650SOL     OW11848   5.702   5.763   0.175
 3650SOL    HW111849   5.756   5.685   0.206
 3650SOL    HW211850   5.644   5.796   0.249
 3651SOL     OW11851   1.085   2.651   6.007
 3651SOL    HW111852   1.015   2.594   6.051
 3651SOL    HW211853   1.112   2.724   6.070
 3652SOL     OW11854   4.713   1.586   2.233
 3652SOL    HW111855   4.701   1.604   2.136
 3652SOL    HW211856   4.625   1.592   2.279
 3653SOL     OW11857   0.421   1.536   1.415
 3653SOL    HW111858   0.322   1.538   1.406
 3653SOL    HW211859   0.452   1.623   1.453
 3654SOL     OW11860   5.666   0.125   0.965
 3654SOL    HW111861   5.575   0.137   0.925
 3654SOL    HW211862   5.721   0.068   0.905
 3655SOL     OW11863   1.746   2.240   4.696
 3655SOL    HW111864   1.692   2.315   4.735
 3655SOL    HW211865   1.685   2.176   4.649
 3656SOL     OW11866   0.080   6.352   1.684
 3656SOL    HW111867   0.079   6.257   1.715
 3656SOL    HW211868   0.151   6.363   1.614
 3657SOL     OW11869   4.919   6.003   4.753
 3657SOL    HW111870   4.925   5.936   4.826
 3657SOL    HW211871   4.844   6.067   4.772
 3658SOL     OW11872   1.514   4.755   6.250
 3658SOL    HW111873   1.468   4.697   6.317
 3658SOL    HW211874   1.532   4.845   6.290
 3659SOL     OW11875   6.684   1.403   6.262
 3659SOL    HW111876   6.672   1.502   6.265
 3659SOL    HW211877   6.764   1.377   6.316
 3660SOL     OW11878   5.252   4.947   6.133
 3660SOL    HW111879   5.299   4.930   6.046
 3660SOL    HW211880   5.159   4.981   6.115
 3661SOL     OW11881   6.820   1.716   4.440
 3661SOL    HW111882   6.723   1.712   4.461
 3661SOL    HW211883   6.869   1.764   4.513
 3662SOL     OW11884   3.266   1.398   5.588
 3662SOL    HW111885   3.235   1.457   5.513
 3662SOL    HW211886   3.265   1.450   5.673
 3663SOL     OW11887   2.318   2.590   6.146
 3663SOL    HW111888   2.376   2.665   6.177
 3663SOL    HW211889   2.370   2.504   6.150
 3664SOL     OW11890   3.915   1.081   2.358
 3664SOL    HW111891   3.832   1.044   2.400
 3664SOL    HW211892   3.911   1.068   2.259
 3665SOL     OW11893   0.990   5.787   6.161
 3665SOL    HW111894   1.024   5.742   6.078
 3665SOL    HW211895   1.030   5.743   6.242
 3666SOL     OW11896   2.230   2.168   5.061
 3666SOL    HW111897   2.175   2.211   5.133
 3666SOL    HW211898   2.292   2.236   5.022
 3667SOL     OW11899   2.057   0.411   2.686
 3667SOL    HW111900   1.996   0.332   2.686
 3667SOL    HW211901   2.146   0.384   2.724
 3668SOL     OW11902   0.585   0.562   1.693
 3668SOL    HW111903   0.507   0.554   1.630
 3668SOL    HW211904   0.659   0.610   1.647
 3669SOL     OW11905   6.819   1.215   3.731
 3669SOL    HW111906   6.768   1.213   3.817
 3669SOL    HW211907   6.812   1.306   3.690
 3670SOL     OW11908   3.501   5.507   1.779
 3670SOL    HW111909   3.535   5.460   1.861
 3670SOL    HW211910   3.406   5.535   1.794
 3671SOL     OW11911   6.381   0.240   3.620
 3671SOL    HW111912   6.453   0.195   3.672
 3671SOL    HW211913   6.418   0.318   3.570
 3672SOL     OW11914   4.403   6.512   2.409
 3672SOL    HW111915   4.471   6.530   2.480
 3672SOL    HW211916   4.329   6.579   2.416
 3673SOL     OW11917   4.545   5.940   1.200
 3673SOL    HW111918   4.585   6.013   1.145
 3673SOL    HW211919   4.618   5.891   1.248
 3674SOL     OW11920   1.283   5.020   6.242
 3674SOL    HW111921   1.300   4.956   6.167
 3674SOL    HW211922   1.192   5.002   6.280
 3675SOL     OW11923   0.909   1.075   3.680
 3675SOL    HW111924   0.995   1.125   3.691
 3675SOL    HW211925   0.904   1.003   3.748
 3676SOL     OW11926   4.016   1.582   3.695
 3676SOL    HW111927   4.083   1.511   3.717
 3676SOL    HW211928   3.934   1.541   3.656
 3677SOL     OW11929   1.976   0.470   4.455
 3677SOL    HW111930   2.039   0.475   4.377
 3677SOL    HW211931   1.883   0.490   4.425
 3678SOL     OW11932   1.141   0.844   3.572
 3678SOL    HW111933   1.170   0.891   3.655
 3678SOL    HW211934   1.050   0.806   3.585
 3679SOL     OW11935   4.547   0.669   2.467
 3679SOL    HW111936   4.594   0.627   2.545
 3679SOL    HW211937   4.577   0.764   2.456
 3680SOL     OW11938   4.184   1.531   3.975
 3680SOL    HW111939   4.198   1.490   3.885
 3680SOL    HW211940   4.133   1.466   4.033
 3681SOL     OW11941   1.705   5.918   4.647
 3681SOL    HW111942   1.690   5.823   4.676
 3681SOL    HW211943   1.783   5.956   4.697
 3682SOL     OW11944   5.620   1.863   1.313
 3682SOL    HW111945   5.631   1.793   1.383
 3682SOL    HW211946   5.543   1.922   1.336
 3683SOL     OW11947   5.942   0.998   5.913
 3683SOL    HW111948   6.024   0.943   5.898
 3683SOL    HW211949   5.958   1.091   5.881
 3684SOL     OW11950   2.440   6.925   5.500
 3684SOL    HW111951   2.393   7.013   5.508
 3684SOL    HW211952   2.509   6.929   5.428
 3685SOL     OW11953   2.309   6.319   5.735
 3685SOL    HW111954   2.222   6.279   5.705
 3685SOL    HW211955   2.343   6.267   5.813
 3686SOL     OW11956   1.201   4.751   4.223
 3686SOL    HW111957   1.228   4.768   4.129
 3686SOL    HW211958   1.193   4.838   4.272
 3687SOL     OW11959   5.517   5.516   4.205
 3687SOL    HW111960   5.616   5.511   4.222
 3687SOL    HW211961   5.501   5.543   4.110
 3688SOL     OW11962   5.810   3.028   0.533
 3688SOL    HW111963   5.778   3.054   0.624
 3688SOL    HW211964   5.838   3.110   0.483
 3689SOL     OW11965   1.821   7.009   5.895
 3689SOL    HW111966   1.830   6.974   5.989
 3689SOL    HW211967   1.906   6.994   5.845
 3690SOL     OW11968   4.929   4.923   1.114
 3690SOL    HW111969   4.863   4.900   1.186
 3690SOL    HW211970   4.992   4.846   1.102
 3691SOL     OW11971   2.100   2.399   0.341
 3691SOL    HW111972   2.057   2.316   0.304
 3691SOL    HW211973   2.078   2.407   0.438
 3692SOL     OW11974   0.470   3.240   6.086
 3692SOL    HW111975   0.557   3.272   6.047
 3692SOL    HW211976   0.448   3.150   6.049
 3693SOL     OW11977   0.092   1.268   2.629
 3693SOL    HW111978   0.039   1.331   2.685
 3693SOL    HW211979   0.103   1.307   2.537
 3694SOL     OW11980   6.626   0.848   1.820
 3694SOL    HW111981   6.646   0.789   1.898
 3694SOL    HW211982   6.539   0.820   1.780
 3695SOL     OW11983   6.407   2.889   2.189
 3695SOL    HW111984   6.444   2.911   2.099
 3695SOL    HW211985   6.444   2.952   2.257
 3696SOL     OW11986   4.561   1.165   4.608
 3696SOL    HW111987   4.599   1.077   4.637
 3696SOL    HW211988   4.525   1.213   4.688
 3697SOL     OW11989   0.088   6.425   3.525
 3697SOL    HW111990   0.080   6.521   3.499
 3697SOL    HW211991   0.184   6.403   3.542
 3698SOL     OW11992   2.054   0.425   2.977
 3698SOL    HW111993   1.985   0.441   3.048
 3698SOL    HW211994   2.008   0.410   2.890
 3699SOL     OW11995   2.558   2.509   3.723
 3699SOL    HW111996   2.547   2.571   3.801
 3699SOL    HW211997   2.581   2.418   3.755
 3700SOL     OW11998   1.025   4.902   4.660
 3700SOL    HW111999   1.114   4.912   4.705
 3700SOL    HW212000   1.023   4.817   4.608
 3701SOL     OW12001   1.973   0.994   2.720
 3701SOL    HW112002   1.890   1.004   2.665
 3701SOL    HW212003   2.045   0.954   2.664
 3702SOL     OW12004   5.284   4.108   3.961
 3702SOL    HW112005   5.338   4.167   4.021
 3702SOL    HW212006   5.189   4.106   3.992
 3703SOL     OW12007   1.150   1.597   4.216
 3703SOL    HW112008   1.216   1.524   4.199
 3703SOL    HW212009   1.148   1.659   4.138
 3704SOL     OW12010   6.606   2.167   0.913
 3704SOL    HW112011   6.604   2.114   0.998
 3704SOL    HW212012   6.652   2.255   0.930
 3705SOL     OW12013   5.191   4.838   2.917
 3705SOL    HW112014   5.165   4.811   3.009
 3705SOL    HW212015   5.141   4.921   2.891
 3706SOL     OW12016   0.466   3.813   0.528
 3706SOL    HW112017   0.536   3.741   0.530
 3706SOL    HW212018   0.377   3.772   0.509
 3707SOL     OW12019   1.345   5.478   3.705
 3707SOL    HW112020   1.381   5.413   3.639
 3707SOL    HW212021   1.322   5.431   3.790
 3708SOL     OW12022   3.417   6.811   0.605
 3708SOL    HW112023   3.475   6.814   0.686
 3708SOL    HW212024   3.472   6.787   0.525
 3709SOL     OW12025   1.642   1.428   2.418
 3709SOL    HW112026   1.611   1.434   2.513
 3709SOL    HW212027   1.737   1.399   2.416
 3710SOL     OW12028   6.696   4.594   5.782
 3710SOL    HW112029   6.753   4.675   5.790
 3710SOL    HW212030   6.604   4.615   5.817
 3711SOL     OW12031   1.708   5.608   4.500
 3711SOL    HW112032   1.661   5.596   4.588
 3711SOL    HW212033   1.649   5.658   4.437
 3712SOL     OW12034   2.201   5.239   4.941
 3712SOL    HW112035   2.144   5.242   5.024
 3712SOL    HW212036   2.294   5.212   4.966
 3713SOL     OW12037   5.898   6.397   4.454
 3713SOL    HW112038   5.805   6.419   4.428
 3713SOL    HW212039   5.955   6.389   4.372
 3714SOL     OW12040   0.418   4.789   0.816
 3714SOL    HW112041   0.435   4.854   0.741
 3714SOL    HW212042   0.498   4.729   0.826
 3715SOL     OW12043   6.012   5.311   3.724
 3715SOL    HW112044   5.943   5.379   3.746
 3715SOL    HW212045   6.054   5.333   3.636
 3716SOL     OW12046   4.931   5.438   3.663
 3716SOL    HW112047   4.929   5.537   3.671
 3716SOL    HW212048   5.025   5.408   3.647
 3717SOL     OW12049   4.394   1.287   1.357
 3717SOL    HW112050   4.375   1.380   1.326
 3717SOL    HW212051   4.485   1.259   1.324
 3718SOL     OW12052   0.177   6.824   5.540
 3718SOL    HW112053   0.096   6.770   5.519
 3718SOL    HW212054   0.193   6.821   5.639
 3719SOL     OW12055   3.575   4.234   6.332
 3719SOL    HW112056   3.495   4.190   6.372
 3719SOL    HW212057   3.564   4.240   6.233
 3720SOL     OW12058   0.306   2.375   1.709
 3720SOL    HW112059   0.269   2.293   1.666
 3720SOL    HW212060   0.360   2.426   1.641
 3721SOL     OW12061   6.224   5.006   6.157
 3721SOL    HW112062   6.247   5.102   6.169
 3721SOL    HW212063   6.250   4.976   6.065
 3722SOL     OW12064   4.593   6.650   3.301
 3722SOL    HW112065   4.677   6.704   3.311
 3722SOL    HW212066   4.602   6.589   3.222
 3723SOL     OW12067   4.829   4.559   0.358
 3723SOL    HW112068   4.858   4.465   0.342
 3723SOL    HW212069   4.731   4.567   0.344
 3724SOL     OW12070   1.474   4.911   5.059
 3724SOL    HW112071   1.422   4.883   4.979
 3724SOL    HW212072   1.483   4.834   5.122
 3725SOL     OW12073   1.040   5.760   6.681
 3725SOL    HW112074   1.045   5.663   6.701
 3725SOL    HW212075   1.023   5.811   6.765
 3726SOL     OW12076   6.249   3.390   4.369
 3726SOL    HW112077   6.268   3.441   4.453
 3726SOL    HW212078   6.159   3.416   4.335
 3727SOL     OW12079   6.631   3.696   4.046
 3727SOL    HW112080   6.631   3.604   4.008
 3727SOL    HW212081   6.693   3.754   3.993
 3728SOL     OW12082   3.116   3.128   0.066
 3728SOL    HW112083   3.130   3.154   6.995
 3728SOL    HW212084   3.186   3.172   0.123
 3729SOL     OW12085   0.704   6.963   5.578
 3729SOL    HW112086   0.766   6.915   5.641
 3729SOL    HW212087   0.755   0.009   5.530
 3730SOL     OW12088   3.527   5.890   4.558
 3730SOL    HW112089   3.451   5.951   4.539
 3730SOL    HW212090   3.494   5.811   4.609
 3731SOL     OW12091   0.462   2.498   6.638
 3731SOL    HW112092   0.481   2.426   6.705
 3731SOL    HW212093   0.363   2.508   6.629
 3732SOL     OW12094   3.267   2.178   6.768
 3732SOL    HW112095   3.291   2.154   6.674
 3732SOL    HW212096   3.231   2.098   6.815
 3733SOL     OW12097   2.008   1.539   3.665
 3733SOL    HW112098   2.064   1.562   3.585
 3733SOL    HW212099   1.918   1.507   3.634
 3734SOL     OW12100   4.137   6.797   0.643
 3734SOL    HW112101   4.237   6.809   0.644
 3734SOL    HW212102   4.093   6.886   0.657
 3735SOL     OW12103   4.272   6.843   2.320
 3735SOL    HW112104   4.176   6.871   2.311
 3735SOL    HW212105   4.302   6.854   2.414
 3736SOL     OW12106   6.815   1.484   1.181
 3736SOL    HW112107   6.855   1.435   1.103
 3736SOL    HW212108   6.820   1.426   1.263
 3737SOL     OW12109   0.229   2.900   2.874
 3737SOL    HW112110   0.308   2.923   2.932
 3737SOL    HW212111   0.161   2.851   2.928
 3738SOL     OW12112   6.909   6.453   1.212
 3738SOL    HW112113   6.876   6.547   1.203
 3738SOL    HW212114   7.009   6.453   1.217
 3739SOL     OW12115   2.838   4.198   0.631
 3739SOL    HW112116   2.740   4.214   0.640
 3739SOL    HW212117   2.865   4.123   0.692
 3740SOL     OW12118   5.024   5.147   6.390
 3740SOL    HW112119   4.998   5.131   6.294
 3740SOL    HW212120   4.973   5.225   6.425
 3741SOL     OW12121   5.079   3.493   0.057
 3741SOL    HW112122   5.109   3.542   0.138
 3741SOL    HW212123   5.100   3.396   0.067
 3742SOL     OW12124   3.841   5.522   0.043
 3742SOL    HW112125   3.746   5.548   0.024
 3742SOL    HW212126   3.846   5.423   0.056
 3743SOL     OW12127   4.316   3.119   1.595
 3743SOL    HW112128   4.372   3.198   1.622
 3743SOL    HW212129   4.278   3.135   1.505
 3744SOL     OW12130   0.556   6.967   2.489
 3744SOL    HW112131   0.474   6.975   2.545
 3744SOL    HW212132   0.637   6.971   2.547
 3745SOL     OW12133   4.893   4.229   2.291
 3745SOL    HW112134   4.870   4.234   2.193
 3745SOL    HW212135   4.887   4.134   2.321
 3746SOL     OW12136   6.127   0.267   4.494
 3746SOL    HW112137   6.158   0.183   4.539
 3746SOL    HW212138   6.103   0.247   4.400
 3747SOL     OW12139   3.503   6.538   6.003
 3747SOL    HW112140   3.454   6.624   5.990
 3747SOL    HW212141   3.578   6.552   6.068
 3748SOL     OW12142   5.599   1.564   2.872
 3748SOL    HW112143   5.689   1.580   2.912
 3748SOL    HW212144   5.562   1.478   2.907
 3749SOL     OW12145   6.922   6.646   2.836
 3749SOL    HW112146   6.840   6.623   2.889
 3749SOL    HW212147   6.894   6.692   2.751
 3750SOL     OW12148   5.644   4.226   0.523
 3750SOL    HW112149   5.623   4.310   0.473
 3750SOL    HW212150   5.727   4.240   0.578
 3751SOL     OW12151   2.168   3.873   2.431
 3751SOL    HW112152   2.170   3.792   2.371
 3751SOL    HW212153   2.103   3.940   2.394
 3752SOL     OW12154   1.119   6.569   6.741
 3752SOL    HW112155   1.204   6.533   6.781
 3752SOL    HW212156   1.066   6.615   6.812
 3753SOL     OW12157   6.512   6.435   4.633
 3753SOL    HW112158   6.548   6.367   4.569
 3753SOL    HW212159   6.574   6.443   4.711
 3754SOL     OW12160   6.826   5.721   1.683
 3754SOL    HW112161   6.825   5.705   1.782
 3754SOL    HW212162   6.799   5.815   1.664
 3755SOL     OW12163   5.339   4.018   3.699
 3755SOL    HW112164   5.264   4.003   3.634
 3755SOL    HW212165   5.300   4.040   3.789
 3756SOL     OW12166   2.873   0.724   6.725
 3756SOL    HW112167   2.778   0.738   6.750
 3756SOL    HW212168   2.932   0.772   6.790
 3757SOL     OW12169   2.866   5.669   6.310
 3757SOL    HW112170   2.951   5.617   6.303
 3757SOL    HW212171   2.815   5.662   6.224
 3758SOL     OW12172   2.173   1.035   4.272
 3758SOL    HW112173   2.135   0.973   4.340
 3758SOL    HW212174   2.120   1.120   4.271
 3759SOL     OW12175   4.900   4.796   5.996
 3759SOL    HW112176   4.813   4.836   5.968
 3759SOL    HW212177   4.894   4.696   5.988
 3760SOL     OW12178   1.586   2.469   4.803
 3760SOL    HW112179   1.567   2.487   4.899
 3760SOL    HW212180   1.511   2.505   4.747
 3761SOL     OW12181   0.134   6.273   4.112
 3761SOL    HW112182   0.174   6.319   4.191
 3761SOL    HW212183   0.047   6.231   4.139
 3762SOL     OW12184   0.471   4.042   0.687
 3762SOL    HW112185   0.454   3.949   0.654
 3762SOL    HW212186   0.389   4.098   0.673
 3763SOL     OW12187   6.661   3.115   6.584
 3763SOL    HW112188   6.577   3.104   6.531
 3763SOL    HW212189   6.666   3.208   6.620
 3764SOL     OW12190   2.561   6.614   3.430
 3764SOL    HW112191   2.564   6.700   3.481
 3764SOL    HW212192   2.510   6.546   3.484
 3765SOL     OW12193   5.571   0.545   4.073
 3765SOL    HW112194   5.667   0.559   4.098
 3765SOL    HW212195   5.554   0.448   4.055
 3766SOL     OW12196   1.069   0.541   4.483
 3766SOL    HW112197   1.111   0.624   4.447
 3766SOL    HW212198   1.037   0.558   4.576
 3767SOL     OW12199   1.853   4.946   0.878
 3767SOL    HW112200   1.946   4.938   0.841
 3767SOL    HW212201   1.842   5.035   0.922
 3768SOL     OW12202   5.136   6.353   0.202
 3768SOL    HW112203   5.162   6.266   0.244
 3768SOL    HW212204   5.111   6.419   0.272
 3769SOL     OW12205   4.686   6.176   5.491
 3769SOL    HW112206   4.761   6.138   5.435
 3769SOL    HW212207   4.705   6.272   5.512
 3770SOL     OW12208   2.244   1.737   6.477
 3770SOL    HW112209   2.148   1.763   6.464
 3770SOL    HW212210   2.253   1.684   6.561
 3771SOL     OW12211   5.400   2.400   5.987
 3771SOL    HW112212   5.338   2.358   5.919
 3771SOL    HW212213   5.417   2.334   6.060
 3772SOL     OW12214   5.684   1.192   1.667
 3772SOL    HW112215   5.626   1.218   1.589
 3772SOL    HW212216   5.712   1.274   1.716
 3773SOL     OW12217   6.553   2.675   6.311
 3773SOL    HW112218   6.537   2.610   6.386
 3773SOL    HW212219   6.599   2.756   6.346
 3774SOL     OW12220   0.234   0.631   1.215
 3774SOL    HW112221   0.293   0.711   1.210
 3774SOL    HW212222   0.140   0.657   1.193
 3775SOL     OW12223   5.936   3.734   4.053
 3775SOL    HW112224   5.913   3.831   4.048
 3775SOL    HW212225   5.859   3.679   4.019
 3776SOL     OW12226   2.379   3.261   0.963
 3776SOL    HW112227   2.299   3.215   1.001
 3776SOL    HW212228   2.365   3.360   0.965
 3777SOL     OW12229   2.289   4.302   4.143
 3777SOL    HW112230   2.253   4.347   4.061
 3777SOL    HW212231   2.309   4.370   4.213
 3778SOL     OW12232   2.844   5.751   1.593
 3778SOL    HW112233   2.861   5.653   1.580
 3778SOL    HW212234   2.932   5.799   1.600
 3779SOL     OW12235   2.435   4.692   6.117
 3779SOL    HW112236   2.507   4.705   6.049
 3779SOL    HW212237   2.367   4.627   6.083
 3780SOL     OW12238   3.082   6.302   5.287
 3780SOL    HW112239   3.142   6.229   5.254
 3780SOL    HW212240   2.990   6.290   5.250
 3781SOL     OW12241   3.076   6.269   4.523
 3781SOL    HW112242   3.028   6.225   4.599
 3781SOL    HW212243   3.122   6.352   4.556
 3782SOL     OW12244   2.548   1.413   4.236
 3782SOL    HW112245   2.549   1.495   4.294
 3782SOL    HW212246   2.462   1.410   4.185
 3783SOL     OW12247   5.302   6.091   5.158
 3783SOL    HW112248   5.260   6.011   5.114
 3783SOL    HW212249   5.401   6.087   5.146
 3784SOL     OW12250   5.285   1.193   3.093
 3784SOL    HW112251   5.192   1.211   3.060
 3784SOL    HW212252   5.282   1.119   3.160
 3785SOL     OW12253   2.401   2.188   1.343
 3785SOL    HW112254   2.487   2.158   1.301
 3785SOL    HW212255   2.417   2.216   1.437
 3786SOL     OW12256   3.224   5.242   3.144
 3786SOL    HW112257   3.251   5.258   3.049
 3786SOL    HW212258   3.250   5.320   3.200
 3787SOL     OW12259   3.960   1.267   3.495
 3787SOL    HW112260   3.936   1.218   3.412
 3787SOL    HW212261   3.878   1.305   3.537
 3788SOL     OW12262   5.566   2.842   2.653
 3788SOL    HW112263   5.589   2.878   2.743
 3788SOL    HW212264   5.473   2.803   2.655
 3789SOL     OW12265   1.867   5.397   3.538
 3789SOL    HW112266   1.875   5.422   3.442
 3789SOL    HW212267   1.955   5.362   3.571
 3790SOL     OW12268   2.201   3.083   3.869
 3790SOL    HW112269   2.233   3.045   3.956
 3790SOL    HW212270   2.198   3.183   3.875
 3791SOL     OW12271   4.524   6.844   1.248
 3791SOL    HW112272   4.575   6.813   1.328
 3791SOL    HW212273   4.486   6.935   1.266
 3792SOL     OW12274   6.385   6.641   5.481
 3792SOL    HW112275   6.311   6.587   5.440
 3792SOL    HW212276   6.355   6.736   5.491
 3793SOL     OW12277   2.119   1.521   3.058
 3793SOL    HW112278   2.093   1.529   2.962
 3793SOL    HW212279   2.097   1.429   3.091
 3794SOL     OW12280   4.604   5.929   1.982
 3794SOL    HW112281   4.692   5.887   2.005
 3794SOL    HW212282   4.611   6.028   1.993
 3795SOL     OW12283   5.329   6.717   6.724
 3795SOL    HW112284   5.293   6.778   6.653
 3795SOL    HW212285   5.375   6.772   6.794
 3796SOL     OW12286   1.544   2.600   1.686
 3796SOL    HW112287   1.615   2.615   1.618
 3796SOL    HW212288   1.458   2.579   1.640
 3797SOL     OW12289   0.942   4.842   2.868
 3797SOL    HW112290   0.842   4.838   2.865
 3797SOL    HW212291   0.979   4.811   2.780
 3798SOL     OW12292   1.995   5.333   2.205
 3798SOL    HW112293   2.040   5.256   2.251
 3798SOL    HW212294   1.904   5.306   2.174
 3799SOL     OW12295   1.539   0.848   5.360
 3799SOL    HW112296   1.563   0.898   5.443
 3799SOL    HW212297   1.606   0.868   5.288
 3800SOL     OW12298   4.477   2.354   4.448
 3800SOL    HW112299   4.400   2.294   4.424
 3800SOL    HW212300   4.452   2.409   4.528
 3801SOL     OW12301   0.172   6.503   5.797
 3801SOL    HW112302   0.251   6.548   5.756
 3801SOL    HW212303   0.202   6.438   5.866
 3802SOL     OW12304   1.322   1.712   5.467
 3802SOL    HW112305   1.401   1.653   5.448
 3802SOL    HW212306   1.252   1.697   5.398
 3803SOL     OW12307   3.492   0.994   1.605
 3803SOL    HW112308   3.556   1.051   1.655
 3803SOL    HW212309   3.472   1.035   1.516
 3804SOL     OW12310   4.814   2.288   4.264
 3804SOL    HW112311   4.867   2.228   4.325
 3804SOL    HW212312   4.746   2.233   4.215
 3805SOL     OW12313   2.717   4.428   1.660
 3805SOL    HW112314   2.761   4.457   1.745
 3805SOL    HW212315   2.629   4.385   1.681
 3806SOL     OW12316   2.653   1.932   0.320
 3806SOL    HW112317   2.566   1.883   0.331
 3806SOL    HW212318   2.657   1.973   0.229
 3807SOL     OW12319   1.709   6.493   3.651
 3807SOL    HW112320   1.705   6.573   3.710
 3807SOL    HW212321   1.770   6.424   3.691
 3808SOL     OW12322   3.451   0.165   1.521
 3808SOL    HW112323   3.489   0.257   1.512
 3808SOL    HW212324   3.353   0.168   1.499
 3809SOL     OW12325   5.786   1.115   6.803
 3809SOL    HW112326   5.871   1.167   6.795
 3809SOL    HW212327   5.710   1.178   6.817
 3810SOL     OW12328   3.155   3.028   5.103
 3810SOL    HW112329   3.132   3.064   5.012
 3810SOL    HW212330   3.240   2.975   5.097
 3811SOL     OW12331   0.499   5.121   5.060
 3811SOL    HW112332   0.488   5.166   4.971
 3811SOL    HW212333   0.539   5.184   5.125
 3812SOL     OW12334   5.709   1.796   5.361
 3812SOL    HW112335   5.806   1.821   5.365
 3812SOL    HW212336   5.654   1.874   5.390
 3813SOL     OW12337   3.231   5.533   0.242
 3813SOL    HW112338   3.167   5.549   0.167
 3813SOL    HW212339   3.299   5.607   0.243
 3814SOL     OW12340   0.096   5.936   2.338
 3814SOL    HW112341   0.088   5.862   2.271
 3814SOL    HW212342   0.192   5.965   2.344
 3815SOL     OW12343   5.233   1.714   1.795
 3815SOL    HW112344   5.190   1.627   1.818
 3815SOL    HW212345   5.187   1.753   1.715
 3816SOL     OW12346   1.153   0.360   1.548
 3816SOL    HW112347   1.160   0.453   1.514
 3816SOL    HW212348   1.106   0.360   1.637
 3817SOL     OW12349   4.659   1.995   4.985
 3817SOL    HW112350   4.736   1.933   5.003
 3817SOL    HW212351   4.638   2.046   5.068
 3818SOL     OW12352   4.679   5.605   1.694
 3818SOL    HW112353   4.593   5.558   1.673
 3818SOL    HW212354   4.708   5.582   1.786
 3819SOL     OW12355   5.243   5.039   0.509
 3819SOL    HW112356   5.289   5.114   0.557
 3819SOL    HW212357   5.227   5.065   0.414
 3820SOL     OW12358   4.935   6.137   4.496
 3820SOL    HW112359   5.023   6.138   4.450
 3820SOL    HW212360   4.924   6.050   4.545
 3821SOL     OW12361   1.555   3.754   1.927
 3821SOL    HW112362   1.523   3.659   1.926
 3821SOL    HW212363   1.565   3.784   2.022
 3822SOL     OW12364   2.763   5.928   1.416
 3822SOL    HW112365   2.777   5.881   1.503
 3822SOL    HW212366   2.852   5.942   1.371
 3823SOL     OW12367   2.989   3.014   5.852
 3823SOL    HW112368   3.016   3.004   5.948
 3823SOL    HW212369   2.967   3.110   5.834
 3824SOL     OW12370   6.977   2.132   5.835
 3824SOL    HW112371   0.007   2.169   5.761
 3824SOL    HW212372   6.880   2.151   5.818
 3825SOL     OW12373   6.846   6.465   6.389
 3825SOL    HW112374   6.784   6.388   6.406
 3825SOL    HW212375   6.900   6.483   6.471
 3826SOL     OW12376   6.636   3.332   1.872
 3826SOL    HW112377   6.661   3.407   1.810
 3826SOL    HW212378   6.592   3.259   1.819
 3827SOL     OW12379   4.245   3.218   0.923
 3827SOL    HW112380   4.148   3.213   0.945
 3827SOL    HW212381   4.282   3.306   0.955
 3828SOL     OW12382   4.688   1.670   2.649
 3828SOL    HW112383   4.621   1.660   2.576
 3828SOL    HW212384   4.643   1.704   2.732
 3829SOL     OW12385   2.162   4.778   4.430
 3829SOL    HW112386   2.215   4.761   4.513
 3829SOL    HW212387   2.148   4.691   4.381
 3830SOL     OW12388   2.546   1.001   4.875
 3830SOL    HW112389   2.506   1.000   4.784
 3830SOL    HW212390   2.474   1.011   4.944
 3831SOL     OW12391   3.571   1.813   2.464
 3831SOL    HW112392   3.575   1.909   2.438
 3831SOL    HW212393   3.661   1.782   2.493
 3832SOL     OW12394   6.975   0.865   1.990
 3832SOL    HW112395   6.985   0.779   1.941
 3832SOL    HW212396   0.041   0.900   2.015
 3833SOL     OW12397   1.549   4.697   0.140
 3833SOL    HW112398   1.558   4.796   0.149
 3833SOL    HW212399   1.457   4.669   0.167
 3834SOL     OW12400   2.891   1.843   0.414
 3834SOL    HW112401   2.944   1.837   0.329
 3834SOL    HW212402   2.802   1.885   0.394
 3835SOL     OW12403   3.760   4.964   5.170
 3835SOL    HW112404   3.784   4.908   5.250
 3835SOL    HW212405   3.785   5.059   5.187
 3836SOL     OW12406   1.125   4.047   6.623
 3836SOL    HW112407   1.169   3.969   6.579
 3836SOL    HW212408   1.195   4.109   6.658
 3837SOL     OW12409   3.762   3.270   0.787
 3837SOL    HW112410   3.754   3.171   0.798
 3837SOL    HW212411   3.760   3.292   0.689
 3838SOL     OW12412   6.232   2.809   4.967
 3838SOL    HW112413   6.216   2.907   4.967
 3838SOL    HW212414   6.154   2.763   4.923
 3839SOL     OW12415   5.813   6.352   5.374
 3839SOL    HW112416   5.730   6.404   5.353
 3839SOL    HW212417   5.803   6.309   5.463
 3840SOL     OW12418   1.598   1.244   4.224
 3840SOL    HW112419   1.660   1.319   4.242
 3840SOL    HW212420   1.624   1.199   4.138
 3841SOL     OW12421   0.801   3.646   5.170
 3841SOL    HW112422   0.884   3.694   5.142
 3841SOL    HW212423   0.813   3.548   5.156
 3842SOL     OW12424   0.962   4.875   6.897
 3842SOL    HW112425   0.926   4.783   6.913
 3842SOL    HW212426   0.993   4.914   6.983
 3843SOL     OW12427   5.977   3.082   0.992
 3843SOL    HW112428   6.055   3.024   1.016
 3843SOL    HW212429   5.930   3.112   1.075
 3844SOL     OW12430   1.974   4.661   6.293
 3844SOL    HW112431   1.910   4.629   6.363
 3844SOL    HW212432   1.957   4.612   6.208
 3845SOL     OW12433   3.768   4.115   4.012
 3845SOL    HW112434   3.677   4.102   3.972
 3845SOL    HW212435   3.838   4.094   3.944
 3846SOL     OW12436   0.336   4.730   4.987
 3846SOL    HW112437   0.284   4.655   4.947
 3846SOL    HW212438   0.416   4.750   4.931
 3847SOL     OW12439   0.981   0.146   0.307
 3847SOL    HW112440   0.967   0.191   0.395
 3847SOL    HW212441   0.929   0.193   0.236
 3848SOL     OW12442   2.650   5.311   1.222
 3848SOL    HW112443   2.748   5.297   1.228
 3848SOL    HW212444   2.616   5.350   1.308
 3849SOL     OW12445   1.000   1.965   5.662
 3849SOL    HW112446   1.032   2.002   5.749
 3849SOL    HW212447   1.050   1.882   5.640
 3850SOL     OW12448   2.964   3.929   1.401
 3850SOL    HW112449   2.882   3.913   1.456
 3850SOL    HW212450   3.002   4.020   1.421
 3851SOL     OW12451   2.421   2.570   2.391
 3851SOL    HW112452   2.495   2.636   2.407
 3851SOL    HW212453   2.395   2.528   2.478
 3852SOL     OW12454   3.897   0.846   4.781
 3852SOL    HW112455   3.962   0.770   4.776
 3852SOL    HW212456   3.923   0.906   4.856
 3853SOL     OW12457   1.095   3.177   1.644
 3853SOL    HW112458   1.024   3.232   1.687
 3853SOL    HW212459   1.120   3.217   1.556
 3854SOL     OW12460   1.420   3.451   4.408
 3854SOL    HW112461   1.343   3.444   4.344
 3854SOL    HW212462   1.505   3.428   4.361
 3855SOL     OW12463   6.892   2.327   5.486
 3855SOL    HW112464   6.854   2.307   5.396
 3855SOL    HW212465   6.991   2.341   5.478
 3856SOL     OW12466   0.624   6.055   6.005
 3856SOL    HW112467   0.710   6.024   5.964
 3856SOL    HW212468   0.617   6.020   6.098
 3857SOL     OW12469   0.591   6.662   5.062
 3857SOL    HW112470   0.572   6.614   5.148
 3857SOL    HW212471   0.638   6.748   5.083
 3858SOL     OW12472   2.639   5.742   0.050
 3858SOL    HW112473   2.705   5.745   0.125
 3858SOL    HW212474   2.547   5.743   0.087
 3859SOL     OW12475   0.549   2.738   2.381
 3859SOL    HW112476   0.648   2.756   2.380
 3859SOL    HW212477   0.500   2.820   2.410
 3860SOL     OW12478   2.150   6.875   5.437
 3860SOL    HW112479   2.182   6.968   5.454
 3860SOL    HW212480   2.102   6.872   5.349
 3861SOL     OW12481   4.244   4.449   0.854
 3861SOL    HW112482   4.157   4.438   0.903
 3861SOL    HW212483   4.255   4.544   0.827
 3862SOL     OW12484   1.172   6.035   6.328
 3862SOL    HW112485   1.239   5.961   6.336
 3862SOL    HW212486   1.118   6.022   6.245
 3863SOL     OW12487   3.489   3.320   1.536
 3863SOL    HW112488   3.400   3.309   1.580
 3863SOL    HW212489   3.477   3.317   1.437
 3864SOL     OW12490   3.548   2.439   6.983
 3864SOL    HW112491   3.571   2.356   6.932
 3864SOL    HW212492   3.562   2.519   6.925
 3865SOL     OW12493   4.922   0.304   2.656
 3865SOL    HW112494   4.861   0.364   2.707
 3865SOL    HW212495   4.988   0.262   2.719
 3866SOL     OW12496   4.265   6.668   6.687
 3866SOL    HW112497   4.184   6.704   6.642
 3866SOL    HW212498   4.329   6.632   6.619
 3867SOL     OW12499   1.789   2.947   3.621
 3867SOL    HW112500   1.807   2.862   3.671
 3867SOL    HW212501   1.860   3.014   3.642
 3868SOL     OW12502   1.797   5.730   2.396
 3868SOL    HW112503   1.714   5.748   2.448
 3868SOL    HW212504   1.876   5.763   2.448
 3869SOL     OW12505   0.929   2.861   3.762
 3869SOL    HW112506   0.890   2.809   3.687
 3869SOL    HW212507   0.899   2.823   3.850
 3870SOL     OW12508   3.080   5.099   0.313
 3870SOL    HW112509   3.034   5.034   0.374
 3870SOL    HW212510   3.052   5.081   0.219
 3871SOL     OW12511   2.731   0.566   3.903
 3871SOL    HW112512   2.744   0.475   3.865
 3871SOL    HW212513   2.639   0.598   3.880
 3872SOL     OW12514   4.086   3.740   0.200
 3872SOL    HW112515   4.155   3.754   0.129
 3872SOL    HW212516   4.130   3.730   0.289
 3873SOL     OW12517   5.155   5.028   2.175
 3873SOL    HW112518   5.099   5.020   2.093
 3873SOL    HW212519   5.151   5.123   2.208
 3874SOL     OW12520   4.449   6.629   6.066
 3874SOL    HW112521   4.401   6.714   6.046
 3874SOL    HW212522   4.385   6.563   6.105
 3875SOL     OW12523   2.118   4.497   0.572
 3875SOL    HW112524   2.205   4.546   0.577
 3875SOL    HW212525   2.069   4.506   0.659
 3876SOL     OW12526   4.852   3.995   2.401
 3876SOL    HW112527   4.797   3.936   2.341
 3876SOL    HW212528   4.807   4.004   2.489
 3877SOL     OW12529   5.441   1.449   2.218
 3877SOL    HW112530   5.477   1.373   2.163
 3877SOL    HW212531   5.481   1.445   2.310
 3878SOL     OW12532   3.285   6.067   5.270
 3878SOL    HW112533   3.295   6.013   5.187
 3878SOL    HW212534   3.225   6.018   5.334
 3879SOL     OW12535   4.012   6.293   1.312
 3879SOL    HW112536   3.952   6.229   1.264
 3879SOL    HW212537   4.102   6.294   1.268
 3880SOL     OW12538   5.627   2.829   4.092
 3880SOL    HW112539   5.592   2.735   4.091
 3880SOL    HW212540   5.604   2.874   4.006
 3881SOL     OW12541   1.076   4.557   0.994
 3881SOL    HW112542   1.055   4.531   0.899
 3881SOL    HW212543   1.144   4.631   0.993
 3882SOL     OW12544   0.253   0.099   6.292
 3882SOL    HW112545   0.215   0.025   6.236
 3882SOL    HW212546   0.260   0.182   6.237
 3883SOL     OW12547   3.146   0.757   5.848
 3883SOL    HW112548   3.048   0.750   5.861
 3883SOL    HW212549   3.185   0.666   5.833
 3884SOL     OW12550   1.813   4.898   5.702
 3884SOL    HW112551   1.839   4.834   5.773
 3884SOL    HW212552   1.803   4.850   5.615
 3885SOL     OW12553   0.552   1.348   4.344
 3885SOL    HW112554   0.495   1.312   4.270
 3885SOL    HW212555   0.647   1.350   4.314
 3886SOL     OW12556   6.893   5.910   5.333
 3886SOL    HW112557   6.875   5.993   5.385
 3886SOL    HW212558   6.842   5.834   5.373
 3887SOL     OW12559   4.810   2.516   5.338
 3887SOL    HW112560   4.795   2.436   5.281
 3887SOL    HW212561   4.833   2.488   5.431
 3888SOL     OW12562   5.871   1.991   1.371
 3888SOL    HW112563   5.839   2.004   1.464
 3888SOL    HW212564   5.797   1.956   1.314
 3889SOL     OW12565   0.187   5.762   6.657
 3889SOL    HW112566   0.232   5.676   6.681
 3889SOL    HW212567   0.101   5.770   6.706
 3890SOL     OW12568   5.773   3.728   1.675
 3890SOL    HW112569   5.728   3.639   1.679
 3890SOL    HW212570   5.873   3.715   1.677
 3891SOL     OW12571   5.865   4.850   5.800
 3891SOL    HW112572   5.790   4.912   5.825
 3891SOL    HW212573   5.873   4.778   5.868
 3892SOL     OW12574   4.889   6.856   4.030
 3892SOL    HW112575   4.874   6.947   3.993
 3892SOL    HW212576   4.987   6.835   4.031
 3893SOL     OW12577   3.057   6.317   4.045
 3893SOL    HW112578   3.076   6.377   3.968
 3893SOL    HW212579   3.113   6.234   4.037
 3894SOL     OW12580   5.135   4.949   0.160
 3894SOL    HW112581   5.084   4.864   0.171
 3894SOL    HW212582   5.219   4.930   0.108
 3895SOL     OW12583   1.770   1.998   5.922
 3895SOL    HW112584   1.812   2.036   5.839
 3895SOL    HW212585   1.712   2.067   5.965
 3896SOL     OW12586   6.795   2.374   5.766
 3896SOL    HW112587   6.795   2.474   5.761
 3896SOL    HW212588   6.848   2.337   5.690
 3897SOL     OW12589   3.613   6.235   2.298
 3897SOL    HW112590   3.697   6.211   2.250
 3897SOL    HW212591   3.635   6.280   2.384
 3898SOL     OW12592   3.376   4.083   4.762
 3898SOL    HW112593   3.415   4.175   4.753
 3898SOL    HW212594   3.412   4.025   4.689
 3899SOL     OW12595   5.310   1.393   5.013
 3899SOL    HW112596   5.393   1.448   5.003
 3899SOL    HW212597   5.252   1.404   4.933
 3900SOL     OW12598   6.708   2.263   3.928
 3900SOL    HW112599   6.747   2.336   3.873
 3900SOL    HW212600   6.630   2.222   3.880
 3901SOL     OW12601   2.642   5.680   5.112
 3901SOL    HW112602   2.702   5.758   5.130
 3901SOL    HW212603   2.696   5.597   5.100
 3902SOL     OW12604   3.705   4.970   1.455
 3902SOL    HW112605   3.617   5.003   1.421
 3902SOL    HW212606   3.692   4.925   1.543
 3903SOL     OW12607   3.795   2.815   6.192
 3903SOL    HW112608   3.789   2.860   6.103
 3903SOL    HW212609   3.869   2.747   6.190
 3904SOL     OW12610   1.945   6.395   0.492
 3904SOL    HW112611   1.945   6.411   0.393
 3904SOL    HW212612   1.941   6.482   0.540
 3905SOL     OW12613   7.020   0.169   5.199
 3905SOL    HW112614   0.020   0.253   5.245
 3905SOL    HW212615   0.025   0.090   5.254
 3906SOL     OW12616   0.449   5.501   5.008
 3906SOL    HW112617   0.424   5.491   5.104
 3906SOL    HW212618   0.389   5.568   4.965
 3907SOL     OW12619   1.198   1.145   4.678
 3907SOL    HW112620   1.198   1.235   4.721
 3907SOL    HW212621   1.105   1.108   4.677
 3908SOL     OW12622   2.188   0.618   4.562
 3908SOL    HW112623   2.248   0.540   4.545
 3908SOL    HW212624   2.092   0.587   4.560
 3909SOL     OW12625   5.728   2.596   1.231
 3909SOL    HW112626   5.805   2.552   1.279
 3909SOL    HW212627   5.643   2.572   1.277
 3910SOL     OW12628   3.246   2.878   1.314
 3910SOL    HW112629   3.187   2.933   1.255
 3910SOL    HW212630   3.342   2.893   1.290
 3911SOL     OW12631   6.438   0.632   1.051
 3911SOL    HW112632   6.497   0.712   1.060
 3911SOL    HW212633   6.369   0.649   0.980
 3912SOL     OW12634   4.237   3.435   6.989
 3912SOL    HW112635   4.289   3.392   6.916
 3912SOL    HW212636   4.169   3.370   7.024
 3913SOL     OW12637   4.356   5.773   1.159
 3913SOL    HW112638   4.363   5.744   1.063
 3913SOL    HW212639   4.423   5.845   1.176
 3914SOL     OW12640   6.560   1.393   6.960
 3914SOL    HW112641   6.523   1.485   6.972
 3914SOL    HW212642   6.544   1.339   0.018
 3915SOL     OW12643   4.956   5.726   5.483
 3915SOL    HW112644   4.912   5.636   5.471
 3915SOL    HW212645   4.893   5.787   5.531
 3916SOL     OW12646   2.288   1.730   2.589
 3916SOL    HW112647   2.284   1.680   2.676
 3916SOL    HW212648   2.237   1.816   2.598
 3917SOL     OW12649   3.622   4.668   1.214
 3917SOL    HW112650   3.564   4.648   1.293
 3917SOL    HW212651   3.627   4.767   1.200
 3918SOL     OW12652   4.786   0.892   6.852
 3918SOL    HW112653   4.811   0.971   6.908
 3918SOL    HW212654   4.791   0.809   6.908
 3919SOL     OW12655   4.456   6.105   2.247
 3919SOL    HW112656   4.360   6.090   2.223
 3919SOL    HW212657   4.504   6.018   2.250
 3920SOL     OW12658   3.712   1.628   5.382
 3920SOL    HW112659   3.671   1.713   5.348
 3920SOL    HW212660   3.644   1.555   5.380
 3921SOL     OW12661   6.974   2.982   6.733
 3921SOL    HW112662   6.951   3.076   6.758
 3921SOL    HW212663   6.939   2.963   6.641
 3922SOL     OW12664   4.806   4.003   2.997
 3922SOL    HW112665   4.841   3.951   2.918
 3922SOL    HW212666   4.774   4.092   2.967
 3923SOL     OW12667   5.187   1.509   2.120
 3923SOL    HW112668   5.282   1.511   2.149
 3923SOL    HW212669   5.131   1.563   2.183
 3924SOL     OW12670   5.939   5.129   3.932
 3924SOL    HW112671   5.963   5.188   3.855
 3924SOL    HW212672   5.970   5.035   3.913
 3925SOL     OW12673   5.255   5.033   0.989
 3925SOL    HW112674   5.223   4.939   1.000
 3925SOL    HW212675   5.181   5.090   0.952
 3926SOL     OW12676   0.682   5.519   4.883
 3926SOL    HW112677   0.599   5.500   4.934
 3926SOL    HW212678   0.712   5.613   4.902
 3927SOL     OW12679   5.658   1.932   6.228
 3927SOL    HW112680   5.632   1.920   6.132
 3927SOL    HW212681   5.593   1.883   6.286
 3928SOL     OW12682   3.469   5.849   1.990
 3928SOL    HW112683   3.508   5.868   1.900
 3928SOL    HW212684   3.469   5.750   2.006
 3929SOL     OW12685   0.718   1.899   5.446
 3929SOL    HW112686   0.773   1.851   5.378
 3929SOL    HW212687   0.749   1.994   5.454
 3930SOL     OW12688   2.482   4.509   3.938
 3930SOL    HW112689   2.493   4.547   3.846
 3930SOL    HW212690   2.386   4.485   3.953
 3931SOL     OW12691   2.103   2.680   0.816
 3931SOL    HW112692   2.198   2.649   0.806
 3931SOL    HW212693   2.068   2.652   0.906
 3932SOL     OW12694   2.405   4.323   3.671
 3932SOL    HW112695   2.478   4.261   3.698
 3932SOL    HW212696   2.437   4.417   3.678
 3933SOL     OW12697   1.538   6.244   1.159
 3933SOL    HW112698   1.560   6.250   1.257
 3933SOL    HW212699   1.622   6.246   1.106
 3934SOL     OW12700   1.140   6.953   1.588
 3934SOL    HW112701   1.231   6.954   1.630
 3934SOL    HW212702   1.079   7.013   1.640
 3935SOL     OW12703   6.769   3.682   5.490
 3935SOL    HW112704   6.695   3.668   5.557
 3935SOL    HW212705   6.829   3.755   5.523
 3936SOL     OW12706   6.737   4.079   5.730
 3936SOL    HW112707   6.793   4.086   5.813
 3936SOL    HW212708   6.646   4.046   5.754
 3937SOL     OW12709   0.804   6.218   1.606
 3937SOL    HW112710   0.717   6.220   1.557
 3937SOL    HW212711   0.880   6.231   1.541
 3938SOL     OW12712   0.747   3.413   1.487
 3938SOL    HW112713   0.731   3.486   1.421
 3938SOL    HW212714   0.782   3.332   1.440
 3939SOL     OW12715   0.628   1.085   3.057
 3939SOL    HW112716   0.563   1.042   3.119
 3939SOL    HW212717   0.703   1.021   3.037
 3940SOL     OW12718   3.043   6.381   0.432
 3940SOL    HW112719   3.137   6.414   0.435
 3940SOL    HW212720   3.041   6.284   0.457
 3941SOL     OW12721   5.591   5.554   1.822
 3941SOL    HW112722   5.579   5.470   1.770
 3941SOL    HW212723   5.505   5.577   1.869
 3942SOL     OW12724   6.739   6.057   5.646
 3942SOL    HW112725   6.657   6.019   5.602
 3942SOL    HW212726   6.744   6.155   5.629
 3943SOL     OW12727   2.152   3.060   0.579
 3943SOL    HW112728   2.146   2.986   0.512
 3943SOL    HW212729   2.167   3.146   0.531
 3944SOL     OW12730   4.912   2.770   6.896
 3944SOL    HW112731   4.977   2.833   6.939
 3944SOL    HW212732   4.957   2.719   6.823
 3945SOL     OW12733   5.342   0.346   3.982
 3945SOL    HW112734   5.341   0.339   4.081
 3945SOL    HW212735   5.311   0.260   3.942
 3946SOL     OW12736   6.967   3.546   0.751
 3946SOL    HW112737   6.894   3.600   0.795
 3946SOL    HW212738   0.000   3.607   0.697
 3947SOL     OW12739   6.069   5.632   2.008
 3947SOL    HW112740   6.057   5.725   2.043
 3947SOL    HW212741   5.980   5.587   2.002
 3948SOL     OW12742   1.620   2.554   6.061
 3948SOL    HW112743   1.617   2.653   6.075
 3948SOL    HW212744   1.534   2.514   6.091
 3949SOL     OW12745   6.036   0.159   2.526
 3949SOL    HW112746   6.092   0.086   2.566
 3949SOL    HW212747   6.013   0.135   2.432
 3950SOL     OW12748   2.710   4.734   1.733
 3950SOL    HW112749   2.742   4.702   1.822
 3950SOL    HW212750   2.733   4.668   1.662
 3951SOL     OW12751   0.659   2.519   4.694
 3951SOL    HW112752   0.623   2.440   4.646
 3951SOL    HW212753   0.654   2.504   4.793
 3952SOL     OW12754   5.419   4.083   0.386
 3952SOL    HW112755   5.486   4.015   0.357
 3952SOL    HW212756   5.466   4.162   0.424
 3953SOL     OW12757   3.478   3.161   6.931
 3953SOL    HW112758   3.425   3.241   6.905
 3953SOL    HW212759   3.574   3.186   6.941
 3954SOL     OW12760   0.854   2.799   5.572
 3954SOL    HW112761   0.812   2.775   5.485
 3954SOL    HW212762   0.841   2.725   5.638
 3955SOL     OW12763   6.704   3.576   0.570
 3955SOL    HW112764   6.739   3.523   0.647
 3955SOL    HW212765   6.605   3.585   0.578
 3956SOL     OW12766   6.691   2.632   5.649
 3956SOL    HW112767   6.722   2.640   5.554
 3956SOL    HW212768   6.738   2.700   5.705
 3957SOL     OW12769   0.658   1.547   3.273
 3957SOL    HW112770   0.677   1.462   3.224
 3957SOL    HW212771   0.743   1.600   3.282
 3958SOL     OW12772   5.493   6.290   6.756
 3958SOL    HW112773   5.459   6.292   6.661
 3958SOL    HW212774   5.559   6.215   6.766
 3959SOL     OW12775   2.443   6.319   1.278
 3959SOL    HW112776   2.401   6.258   1.211
 3959SOL    HW212777   2.513   6.269   1.329
 3960SOL     OW12778   5.135   3.469   1.459
 3960SOL    HW112779   5.037   3.477   1.481
 3960SOL    HW212780   5.166   3.555   1.419
 3961SOL     OW12781   5.420   0.492   1.013
 3961SOL    HW112782   5.500   0.533   1.057
 3961SOL    HW212783   5.387   0.416   1.068
 3962SOL     OW12784   0.887   6.880   5.768
 3962SOL    HW112785   0.859   6.810   5.834
 3962SOL    HW212786   0.985   6.893   5.773
 3963SOL     OW12787   4.558   5.199   2.692
 3963SOL    HW112788   4.467   5.241   2.693
 3963SOL    HW212789   4.589   5.189   2.597
 3964SOL     OW12790   6.086   6.295   6.361
 3964SOL    HW112791   6.136   6.380   6.348
 3964SOL    HW212792   6.112   6.229   6.291
 3965SOL     OW12793   4.053   2.929   0.876
 3965SOL    HW112794   4.142   2.949   0.918
 3965SOL    HW212795   4.024   2.837   0.902
 3966SOL     OW12796   6.378   3.834   5.510
 3966SOL    HW112797   6.422   3.899   5.449
 3966SOL    HW212798   6.291   3.805   5.470
 3967SOL     OW12799   1.778   6.823   6.764
 3967SOL    HW112800   1.761   6.870   6.850
 3967SOL    HW212801   1.707   6.848   6.698
 3968SOL     OW12802   5.476   0.481   1.831
 3968SOL    HW112803   5.447   0.568   1.871
 3968SOL    HW212804   5.432   0.469   1.741
 3969SOL     OW12805   1.369   6.180   1.829
 3969SOL    HW112806   1.448   6.198   1.888
 3969SOL    HW212807   1.312   6.262   1.822
 3970SOL     OW12808   4.778   4.003   4.126
 3970SOL    HW112809   4.767   4.009   4.225
 3970SOL    HW212810   4.723   4.074   4.082
 3971SOL     OW12811   1.327   6.116   3.487
 3971SOL    HW112812   1.411   6.075   3.523
 3971SOL    HW212813   1.327   6.109   3.388
 3972SOL     OW12814   0.844   0.567   6.683
 3972SOL    HW112815   0.803   0.475   6.686
 3972SOL    HW212816   0.775   0.635   6.708
 3973SOL     OW12817   3.207   3.042   3.180
 3973SOL    HW112818   3.288   2.987   3.202
 3973SOL    HW212819   3.161   3.069   3.264
 3974SOL     OW12820   5.402   0.382   6.417
 3974SOL    HW112821   5.396   0.283   6.400
 3974SOL    HW212822   5.496   0.412   6.400
 3975SOL     OW12823   6.752   6.384   5.597
 3975SOL    HW112824   6.850   6.369   5.585
 3975SOL    HW212825   6.730   6.480   5.577
 3976SOL     OW12826   1.380   3.035   6.659
 3976SOL    HW112827   1.460   3.081   6.618
 3976SOL    HW212828   1.394   2.936   6.658
 3977SOL     OW12829   3.690   5.485   5.957
 3977SOL    HW112830   3.647   5.473   5.868
 3977SOL    HW212831   3.694   5.583   5.980
 3978SOL     OW12832   6.153   3.943   6.419
 3978SOL    HW112833   6.219   3.883   6.464
 3978SOL    HW212834   6.150   4.032   6.465
 3979SOL     OW12835   1.236   6.628   3.136
 3979SOL    HW112836   1.308   6.682   3.179
 3979SOL    HW212837   1.193   6.681   3.063
 3980SOL     OW12838   4.987   3.505   4.872
 3980SOL    HW112839   4.952   3.414   4.850
 3980SOL    HW212840   4.925   3.550   4.937
 3981SOL     OW12841   6.481   2.194   5.333
 3981SOL    HW112842   6.420   2.257   5.285
 3981SOL    HW212843   6.502   2.231   5.423
 3982SOL     OW12844   2.367   2.687   4.000
 3982SOL    HW112845   2.279   2.645   3.977
 3982SOL    HW212846   2.407   2.640   4.078
 3983SOL     OW12847   3.643   0.042   3.464
 3983SOL    HW112848   3.544   0.046   3.475
 3983SOL    HW212849   3.681   0.135   3.461
 3984SOL     OW12850   1.749   0.233   1.477
 3984SOL    HW112851   1.803   0.310   1.443
 3984SOL    HW212852   1.804   0.178   1.539
 3985SOL     OW12853   1.909   3.086   1.676
 3985SOL    HW112854   1.820   3.041   1.684
 3985SOL    HW212855   1.897   3.185   1.685
 3986SOL     OW12856   1.484   2.406   2.085
 3986SOL    HW112857   1.424   2.327   2.089
 3986SOL    HW212858   1.521   2.425   2.176
 3987SOL     OW12859   1.402   4.140   5.723
 3987SOL    HW112860   1.378   4.054   5.678
 3987SOL    HW212861   1.354   4.216   5.678
 3988SOL     OW12862   4.789   1.197   6.904
 3988SOL    HW112863   4.717   1.226   6.968
 3988SOL    HW212864   4.816   1.275   6.848
 3989SOL     OW12865   4.164   0.270   6.267
 3989SOL    HW112866   4.067   0.288   6.249
 3989SOL    HW212867   4.178   0.261   6.365
 3990SOL     OW12868   1.447   2.595   4.172
 3990SOL    HW112869   1.484   2.511   4.210
 3990SOL    HW212870   1.516   2.639   4.114
 3991SOL     OW12871   0.609   1.080   4.113
 3991SOL    HW112872   0.540   1.148   4.138
 3991SOL    HW212873   0.564   1.000   4.073
 3992SOL     OW12874   5.660   3.942   6.681
 3992SOL    HW112875   5.719   3.870   6.717
 3992SOL    HW212876   5.565   3.925   6.708
 3993SOL     OW12877   1.305   0.885   4.065
 3993SOL    HW112878   1.290   0.954   4.135
 3993SOL    HW212879   1.297   0.927   3.974
 3994SOL     OW12880   2.626   1.787   3.274
 3994SOL    HW112881   2.590   1.731   3.200
 3994SOL    HW212882   2.690   1.734   3.329
 3995SOL     OW12883   1.349   3.325   2.237
 3995SOL    HW112884   1.341   3.226   2.223
 3995SOL    HW212885   1.367   3.343   2.333
 3996SOL     OW12886   6.064   6.204   3.941
 3996SOL    HW112887   6.145   6.146   3.950
 3996SOL    HW212888   5.982   6.147   3.941
 3997SOL     OW12889   5.065   3.760   2.920
 3997SOL    HW112890   5.002   3.821   2.872
 3997SOL    HW212891   5.159   3.780   2.891
 3998SOL     OW12892   5.828   2.648   2.965
 3998SOL    HW112893   5.857   2.631   2.871
 3998SOL    HW212894   5.728   2.651   2.969
 3999SOL     OW12895   4.894   2.556   1.356
 3999SOL    HW112896   4.799   2.523   1.357
 3999SOL    HW212897   4.923   2.577   1.449
 4000SOL     OW12898   3.232   4.897   2.288
 4000SOL    HW112899   3.298   4.867   2.219
 4000SOL    HW212900   3.279   4.917   2.374
 4001SOL     OW12901   1.165   4.981   4.401
 4001SOL    HW112902   1.084   4.982   4.460
 4001SOL    HW212903   1.247   4.990   4.457
 4002SOL     OW12904   3.799   4.107   3.396
 4002SOL    HW112905   3.857   4.032   3.428
 4002SOL    HW212906   3.812   4.187   3.453
 4003SOL     OW12907   1.817   0.911   5.580
 4003SOL    HW112908   1.873   0.947   5.655
 4003SOL    HW212909   1.721   0.933   5.598
 4004SOL     OW12910   1.002   3.916   3.426
 4004SOL    HW112911   1.048   3.949   3.508
 4004SOL    HW212912   0.917   3.966   3.412
 4005SOL     OW12913   4.848   2.998   0.100
 4005SOL    HW112914   4.923   2.938   0.128
 4005SOL    HW212915   4.766   2.943   0.082
 4006SOL     OW12916   5.288   5.627   2.999
 4006SOL    HW112917   5.275   5.554   2.931
 4006SOL    HW212918   5.199   5.669   3.020
 4007SOL     OW12919   0.225   1.172   2.954
 4007SOL    HW112920   0.278   1.213   2.880
 4007SOL    HW212921   0.145   1.126   2.916
 4008SOL     OW12922   3.504   0.982   0.420
 4008SOL    HW112923   3.434   1.028   0.475
 4008SOL    HW212924   3.575   0.945   0.481
 4009SOL     OW12925   4.936   2.053   0.682
 4009SOL    HW112926   4.941   1.967   0.631
 4009SOL    HW212927   4.946   2.033   0.780
 4010SOL     OW12928   3.028   5.157   1.891
 4010SOL    HW112929   3.021   5.105   1.805
 4010SOL    HW212930   3.038   5.093   1.967
 4011SOL     OW12931   5.189   6.158   6.638
 4011SOL    HW112932   5.194   6.157   6.738
 4011SOL    HW212933   5.098   6.189   6.609
 4012SOL     OW12934   4.716   6.550   2.879
 4012SOL    HW112935   4.808   6.535   2.842
 4012SOL    HW212936   4.651   6.560   2.804
 4013SOL     OW12937   0.274   1.238   5.952
 4013SOL    HW112938   0.359   1.230   5.899
 4013SOL    HW212939   0.278   1.320   6.009
 4014SOL     OW12940   3.107   4.927   2.695
 4014SOL    HW112941   3.026   4.869   2.687
 4014SOL    HW212942   3.097   5.007   2.635
 4015SOL     OW12943   4.284   4.852   5.848
 4015SOL    HW112944   4.351   4.862   5.921
 4015SOL    HW212945   4.271   4.754   5.828
 4016SOL     OW12946   4.116   4.999   5.296
 4016SOL    HW112947   4.097   4.907   5.259
 4016SOL    HW212948   4.090   5.001   5.392
 4017SOL     OW12949   0.781   4.571   5.488
 4017SOL    HW112950   0.785   4.627   5.571
 4017SOL    HW212951   0.871   4.529   5.472
 4018SOL     OW12952   4.593   6.185   1.581
 4018SOL    HW112953   4.545   6.206   1.496
 4018SOL    HW212954   4.586   6.087   1.601
 4019SOL     OW12955   5.184   3.438   3.125
 4019SOL    HW112956   5.142   3.520   3.165
 4019SOL    HW212957   5.163   3.359   3.182
 4020SOL     OW12958   6.813   5.337   4.411
 4020SOL    HW112959   6.824   5.238   4.419
 4020SOL    HW212960   6.872   5.372   4.338
 4021SOL     OW12961   4.406   3.555   6.534
 4021SOL    HW112962   4.379   3.489   6.605
 4021SOL    HW212963   4.335   3.561   6.465
 4022SOL     OW12964   2.246   0.566   1.697
 4022SOL    HW112965   2.340   0.545   1.722
 4022SOL    HW212966   2.190   0.483   1.704
 4023SOL     OW12967   0.626   1.113   4.999
 4023SOL    HW112968   0.657   1.208   4.993
 4023SOL    HW212969   0.526   1.110   5.001
 4024SOL     OW12970   1.015   6.107   4.354
 4024SOL    HW112971   0.944   6.178   4.351
 4024SOL    HW212972   0.972   6.018   4.366
 4025SOL     OW12973   0.145   5.685   3.905
 4025SOL    HW112974   0.218   5.735   3.951
 4025SOL    HW212975   0.183   5.635   3.827
 4026SOL     OW12976   6.792   6.926   3.851
 4026SOL    HW112977   6.851   7.004   3.876
 4026SOL    HW212978   6.830   6.881   3.770
 4027SOL     OW12979   2.442   3.852   5.998
 4027SOL    HW112980   2.365   3.885   5.943
 4027SOL    HW212981   2.527   3.862   5.945
 4028SOL     OW12982   4.486   1.785   3.192
 4028SOL    HW112983   4.571   1.734   3.182
 4028SOL    HW212984   4.493   1.845   3.272
 4029SOL     OW12985   2.165   5.641   6.944
 4029SOL    HW112986   2.092   5.627   6.876
 4029SOL    HW212987   2.201   5.734   6.934
 4030SOL     OW12988   6.929   1.423   2.731
 4030SOL    HW112989   6.848   1.472   2.699
 4030SOL    HW212990   6.909   1.376   2.816
 4031SOL     OW12991   6.170   6.358   0.960
 4031SOL    HW112992   6.250   6.360   0.901
 4031SOL    HW212993   6.167   6.269   1.007
 4032SOL     OW12994   5.448   0.733   1.918
 4032SOL    HW112995   5.394   0.742   2.002
 4032SOL    HW212996   5.532   0.786   1.927
 4033SOL     OW12997   1.382   2.720   3.016
 4033SOL    HW112998   1.456   2.653   3.022
 4033SOL    HW212999   1.414   2.808   3.052
 4034SOL     OW13000   0.284   3.271   5.182
 4034SOL    HW113001   0.254   3.317   5.266
 4034SOL    HW213002   0.376   3.301   5.158
 4035SOL     OW13003   4.660   1.613   1.986
 4035SOL    HW113004   4.695   1.544   1.923
 4035SOL    HW213005   4.636   1.696   1.935
 4036SOL     OW13006   2.483   5.566   2.805
 4036SOL    HW113007   2.545   5.629   2.758
 4036SOL    HW213008   2.392   5.573   2.766
 4037SOL     OW13009   2.575   1.169   6.266
 4037SOL    HW113010   2.524   1.184   6.181
 4037SOL    HW213011   2.570   1.252   6.323
 4038SOL     OW13012   3.417   3.882   5.859
 4038SOL    HW113013   3.400   3.888   5.957
 4038SOL    HW213014   3.505   3.926   5.838
 4039SOL     OW13015   5.865   4.669   1.374
 4039SOL    HW113016   5.907   4.618   1.449
 4039SOL    HW213017   5.888   4.626   1.287
 4040SOL     OW13018   3.154   6.102   4.860
 4040SOL    HW113019   3.150   6.002   4.857
 4040SOL    HW213020   3.246   6.132   4.835
 4041SOL     OW13021   2.431   6.602   0.865
 4041SOL    HW113022   2.526   6.571   0.862
 4041SOL    HW213023   2.384   6.558   0.942
 4042SOL     OW13024   6.236   1.022   3.458
 4042SOL    HW113025   6.192   1.093   3.513
 4042SOL    HW213026   6.281   0.956   3.519
 4043SOL     OW13027   5.406   3.192   7.012
 4043SOL    HW113028   5.320   3.143   7.021
 4043SOL    HW213029   5.461   3.179   0.070
 4044SOL     OW13030   4.574   5.526   2.726
 4044SOL    HW113031   4.594   5.503   2.631
 4044SOL    HW213032   4.660   5.533   2.777
 4045SOL     OW13033   4.777   0.190   5.681
 4045SOL    HW113034   4.817   0.099   5.670
 4045SOL    HW213035   4.765   0.210   5.778
 4046SOL     OW13036   6.103   2.005   2.649
 4046SOL    HW113037   6.084   2.098   2.617
 4046SOL    HW213038   6.157   1.956   2.581
 4047SOL     OW13039   2.937   3.537   6.945
 4047SOL    HW113040   3.012   3.546   7.011
 4047SOL    HW213041   2.853   3.575   6.984
 4048SOL     OW13042   4.486   1.679   2.409
 4048SOL    HW113043   4.438   1.732   2.339
 4048SOL    HW213044   4.420   1.646   2.477
 4049SOL     OW13045   3.920   4.446   6.508
 4049SOL    HW113046   3.906   4.386   6.429
 4049SOL    HW213047   3.890   4.399   6.591
 4050SOL     OW13048   0.772   5.624   2.529
 4050SOL    HW113049   0.784   5.529   2.499
 4050SOL    HW213050   0.832   5.643   2.606
 4051SOL     OW13051   5.628   0.964   5.127
 4051SOL    HW113052   5.720   1.004   5.132
 4051SOL    HW213053   5.562   1.035   5.101
 4052SOL     OW13054   6.220   2.328   3.675
 4052SOL    HW113055   6.122   2.342   3.692
 4052SOL    HW213056   6.240   2.230   3.674
 4053SOL     OW13057   1.118   5.252   4.533
 4053SOL    HW113058   1.024   5.286   4.539
 4053SOL    HW213059   1.145   5.243   4.437
 4054SOL     OW13060   4.447   4.030   0.532
 4054SOL    HW113061   4.531   3.978   0.515
 4054SOL    HW213062   4.408   4.058   0.444
 4055SOL     OW13063   0.365   4.663   1.096
 4055SOL    HW113064   0.366   4.656   0.996
 4055SOL    HW213065   0.285   4.617   1.132
 4056SOL     OW13066   5.438   3.319   0.835
 4056SOL    HW113067   5.406   3.253   0.766
 4056SOL    HW213068   5.394   3.298   0.923
 4057SOL     OW13069   6.671   3.035   6.887
 4057SOL    HW113070   6.645   3.122   6.929
 4057SOL    HW213071   6.732   3.051   6.810
 4058SOL     OW13072   2.670   6.556   5.672
 4058SOL    HW113073   2.644   6.651   5.687
 4058SOL    HW213074   2.624   6.521   5.591
 4059SOL     OW13075   0.989   1.708   4.388
 4059SOL    HW113076   1.046   1.672   4.314
 4059SOL    HW213077   0.997   1.808   4.391
 4060SOL     OW13078   6.340   5.966   5.707
 4060SOL    HW113079   6.319   5.943   5.802
 4060SOL    HW213080   6.260   6.009   5.665
 4061SOL     OW13081   2.227   6.087   1.105
 4061SOL    HW113082   2.185   6.012   1.156
 4061SOL    HW213083   2.311   6.054   1.062
 4062SOL     OW13084   1.355   2.081   1.510
 4062SOL    HW113085   1.321   2.120   1.425
 4062SOL    HW213086   1.376   2.155   1.574
 4063SOL     OW13087   5.435   1.351   0.126
 4063SOL    HW113088   5.456   1.255   0.145
 4063SOL    HW213089   5.388   1.357   0.038
 4064SOL     OW13090   2.034   2.107   5.320
 4064SOL    HW113091   2.058   2.063   5.406
 4064SOL    HW213092   2.041   2.040   5.246
 4065SOL     OW13093   2.239   6.819   0.947
 4065SOL    HW113094   2.180   6.749   0.987
 4065SOL    HW213095   2.202   6.847   0.858
 4066SOL     OW13096   0.375   4.272   3.790
 4066SOL    HW113097   0.353   4.325   3.872
 4066SOL    HW213098   0.304   4.202   3.776
 4067SOL     OW13099   4.773   4.907   1.536
 4067SOL    HW113100   4.685   4.878   1.575
 4067SOL    HW213101   4.766   5.001   1.504
 4068SOL     OW13102   1.701   2.898   5.261
 4068SOL    HW113103   1.761   2.974   5.236
 4068SOL    HW213104   1.735   2.854   5.344
 4069SOL     OW13105   4.327   0.052   6.824
 4069SOL    HW113106   4.365   6.995   6.868
 4069SOL    HW213107   4.352   0.052   6.727
 4070SOL     OW13108   1.566   3.098   3.667
 4070SOL    HW113109   1.578   3.168   3.597
 4070SOL    HW213110   1.641   3.032   3.661
 4071SOL     OW13111   0.717   0.445   3.955
 4071SOL    HW113112   0.692   0.477   3.863
 4071SOL    HW213113   0.676   0.505   4.023
 4072SOL     OW13114   2.059   5.641   3.376
 4072SOL    HW113115   2.016   5.561   3.334
 4072SOL    HW213116   2.127   5.611   3.443
 4073SOL     OW13117   2.877   4.780   0.094
 4073SOL    HW113118   2.920   4.868   0.116
 4073SOL    HW213119   2.924   4.739   0.016
 4074SOL     OW13120   1.249   6.012   2.942
 4074SOL    HW113121   1.307   6.068   3.001
 4074SOL    HW213122   1.296   5.926   2.921
 4075SOL     OW13123   6.253   0.682   0.585
 4075SOL    HW113124   6.193   0.667   0.506
 4075SOL    HW213125   6.349   0.674   0.556
 4076SOL     OW13126   2.880   3.582   5.181
 4076SOL    HW113127   2.867   3.679   5.205
 4076SOL    HW213128   2.842   3.525   5.254
 4077SOL     OW13129   3.280   1.577   1.649
 4077SOL    HW113130   3.208   1.510   1.666
 4077SOL    HW213131   3.241   1.658   1.606
 4078SOL     OW13132   2.688   4.584   2.781
 4078SOL    HW113133   2.636   4.525   2.843
 4078SOL    HW213134   2.655   4.571   2.687
 4079SOL     OW13135   0.879   2.206   4.410
 4079SOL    HW113136   0.839   2.221   4.500
 4079SOL    HW213137   0.948   2.277   4.392
 4080SOL     OW13138   6.140   1.406   4.887
 4080SOL    HW113139   6.056   1.459   4.901
 4080SOL    HW213140   6.213   1.467   4.858
 4081SOL     OW13141   1.608   3.237   3.357
 4081SOL    HW113142   1.559   3.255   3.272
 4081SOL    HW213143   1.702   3.210   3.337
 4082SOL     OW13144   0.714   2.708   1.428
 4082SOL    HW113145   0.771   2.707   1.345
 4082SOL    HW213146   0.757   2.652   1.498
 4083SOL     OW13147   5.617   2.602   5.244
 4083SOL    HW113148   5.613   2.540   5.166
 4083SOL    HW213149   5.525   2.632   5.268
 4084SOL     OW13150   0.356   1.262   4.162
 4084SOL    HW113151   0.349   1.331   4.091
 4084SOL    HW213152   0.268   1.216   4.172
 4085SOL     OW13153   3.338   6.755   0.264
 4085SOL    HW113154   3.278   6.835   0.273
 4085SOL    HW213155   3.422   6.771   0.317
 4086SOL     OW13156   1.608   4.292   1.018
 4086SOL    HW113157   1.513   4.307   1.044
 4086SOL    HW213158   1.654   4.239   1.089
 4087SOL     OW13159   2.048   1.755   3.198
 4087SOL    HW113160   2.066   1.667   3.154
 4087SOL    HW213161   1.986   1.741   3.276
 4088SOL     OW13162   6.536   1.667   1.474
 4088SOL    HW113163   6.509   1.640   1.382
 4088SOL    HW213164   6.547   1.767   1.477
 4089SOL     OW13165   1.065   0.741   4.240
 4089SOL    HW113166   1.159   0.735   4.273
 4089SOL    HW213167   1.055   0.688   4.157
 4090SOL     OW13168   2.236   4.383   6.233
 4090SOL    HW113169   2.305   4.368   6.162
 4090SOL    HW213170   2.277   4.367   6.323
 4091SOL     OW13171   4.437   5.973   0.513
 4091SOL    HW113172   4.355   5.952   0.567
 4091SOL    HW213173   4.455   5.898   0.449
 4092SOL     OW13174   0.536   2.794   4.724
 4092SOL    HW113175   0.502   2.843   4.643
 4092SOL    HW213176   0.523   2.696   4.711
 4093SOL     OW13177   5.412   0.323   3.667
 4093SOL    HW113178   5.355   0.241   3.660
 4093SOL    HW213179   5.357   0.400   3.697
 4094SOL     OW13180   1.937   4.118   5.313
 4094SOL    HW113181   2.005   4.105   5.240
 4094SOL    HW213182   1.876   4.193   5.288
 4095SOL     OW13183   1.099   3.168   6.056
 4095SOL    HW113184   1.045   3.188   6.137
 4095SOL    HW213185   1.043   3.184   5.974
 4096SOL     OW13186   4.087   4.470   0.171
 4096SOL    HW113187   4.096   4.393   0.234
 4096SOL    HW213188   4.014   4.451   0.105
 4097SOL     OW13189   3.688   3.277   5.882
 4097SOL    HW113190   3.609   3.231   5.922
 4097SOL    HW213191   3.713   3.355   5.940
 4098SOL     OW13192   0.439   2.031   3.121
 4098SOL    HW113193   0.435   2.045   3.022
 4098SOL    HW213194   0.392   2.106   3.168
 4099SOL     OW13195   4.018   5.793   1.717
 4099SOL    HW113196   3.963   5.726   1.668
 4099SOL    HW213197   4.039   5.870   1.657
 4100SOL     OW13198   4.028   5.740   3.762
 4100SOL    HW113199   3.934   5.706   3.765
 4100SOL    HW213200   4.071   5.710   3.677
 4101SOL     OW13201   5.929   1.507   6.268
 4101SOL    HW113202   5.925   1.494   6.169
 4101SOL    HW213203   6.013   1.466   6.303
 4102SOL     OW13204   6.170   1.031   0.359
 4102SOL    HW113205   6.117   0.957   0.319
 4102SOL    HW213206   6.193   1.008   0.454
 4103SOL     OW13207   0.500   0.562   2.160
 4103SOL    HW113208   0.495   0.478   2.105
 4103SOL    HW213209   0.567   0.550   2.233
 4104SOL     OW13210   1.095   4.800   2.645
 4104SOL    HW113211   1.105   4.837   2.552
 4104SOL    HW213212   1.178   4.820   2.698
 4105SOL     OW13213   3.991   5.049   0.333
 4105SOL    HW113214   3.935   5.122   0.371
 4105SOL    HW213215   3.940   4.999   0.264
 4106SOL     OW13216   0.192   3.821   4.430
 4106SOL    HW113217   0.100   3.849   4.455
 4106SOL    HW213218   0.248   3.902   4.413
 4107SOL     OW13219   0.219   0.134   1.192
 4107SOL    HW113220   0.129   0.168   1.221
 4107SOL    HW213221   0.211   0.037   1.168
 4108SOL     OW13222   6.514   3.450   6.260
 4108SOL    HW113223   6.480   3.380   6.198
 4108SOL    HW213224   6.525   3.536   6.210
 4109SOL     OW13225   3.438   6.690   3.655
 4109SOL    HW113226   3.479   6.640   3.732
 4109SOL    HW213227   3.494   6.676   3.573
 4110SOL     OW13228   5.233   3.756   5.927
 4110SOL    HW113229   5.311   3.708   5.889
 4110SOL    HW213230   5.158   3.756   5.860
 4111SOL     OW13231   4.285   2.650   7.017
 4111SOL    HW113232   4.247   2.589   0.061
 4111SOL    HW213233   4.381   2.629   7.002
 4112SOL     OW13234   3.423   1.510   3.663
 4112SOL    HW113235   3.434   1.609   3.660
 4112SOL    HW213236   3.349   1.486   3.726
 4113SOL     OW13237   3.497   4.896   5.108
 4113SOL    HW113238   3.583   4.945   5.126
 4113SOL    HW213239   3.449   4.940   5.032
 4114SOL     OW13240   2.770   1.706   3.588
 4114SOL    HW113241   2.796   1.676   3.680
 4114SOL    HW213242   2.849   1.700   3.527
 4115SOL     OW13243   4.852   4.773   1.924
 4115SOL    HW113244   4.752   4.770   1.932
 4115SOL    HW213245   4.892   4.698   1.976
 4116SOL     OW13246   3.740   1.604   1.409
 4116SOL    HW113247   3.757   1.664   1.331
 4116SOL    HW213248   3.768   1.650   1.493
 4117SOL     OW13249   1.099   5.441   1.320
 4117SOL    HW113250   1.194   5.416   1.339
 4117SOL    HW213251   1.039   5.370   1.356
 4118SOL     OW13252   1.217   6.634   0.753
 4118SOL    HW113253   1.215   6.540   0.721
 4118SOL    HW213254   1.276   6.689   0.693
 4119SOL     OW13255   3.141   0.630   4.360
 4119SOL    HW113256   3.043   0.649   4.354
 4119SOL    HW213257   3.191   0.704   4.315
 4120SOL     OW13258   4.136   6.865   1.166
 4120SOL    HW113259   4.097   6.799   1.102
 4120SOL    HW213260   4.196   6.928   1.116
 4121SOL     OW13261   0.022   2.632   4.271
 4121SOL    HW113262   7.016   2.545   4.231
 4121SOL    HW213263   0.074   2.683   4.203
 4122SOL     OW13264   1.272   5.472   5.833
 4122SOL    HW113265   1.363   5.434   5.820
 4122SOL    HW213266   1.233   5.496   5.744
 4123SOL     OW13267   5.239   4.032   5.819
 4123SOL    HW113268   5.256   3.934   5.826
 4123SOL    HW213269   5.300   4.072   5.751
 4124SOL     OW13270   5.687   6.489   4.330
 4124SOL    HW113271   5.692   6.580   4.289
 4124SOL    HW213272   5.624   6.489   4.407
 4125SOL     OW13273   4.319   1.278   0.822
 4125SOL    HW113274   4.231   1.320   0.846
 4125SOL    HW213275   4.386   1.349   0.801
 4126SOL     OW13276   2.138   4.022   4.763
 4126SOL    HW113277   2.186   4.020   4.850
 4126SOL    HW213278   2.153   4.110   4.718
 4127SOL     OW13279   5.727   3.387   5.144
 4127SOL    HW113280   5.653   3.328   5.176
 4127SOL    HW213281   5.807   3.376   5.204
 4128SOL     OW13282   1.619   3.172   2.433
 4128SOL    HW113283   1.687   3.166   2.506
 4128SOL    HW213284   1.549   3.101   2.446
 4129SOL     OW13285   5.634   2.076   5.798
 4129SOL    HW113286   5.607   2.005   5.733
 4129SOL    HW213287   5.603   2.165   5.765
 4130SOL     OW13288   6.637   4.122   6.551
 4130SOL    HW113289   6.625   4.221   6.557
 4130SOL    HW213290   6.562   4.082   6.499
 4131SOL     OW13291   6.792   5.004   4.204
 4131SOL    HW113292   6.740   5.054   4.134
 4131SOL    HW213293   6.790   4.907   4.182
 4132SOL     OW13294   5.113   2.863   3.333
 4132SOL    HW113295   5.127   2.861   3.432
 4132SOL    HW213296   5.200   2.846   3.287
 4133SOL     OW13297   2.620   1.440   0.878
 4133SOL    HW113298   2.702   1.399   0.839
 4133SOL    HW213299   2.605   1.405   0.970
 4134SOL     OW13300   2.057   1.811   0.000
 4134SOL    HW113301   1.967   1.840   6.992
 4134SOL    HW213302   2.128   1.864   6.978
 4135SOL     OW13303   2.269   1.452   2.290
 4135SOL    HW113304   2.273   1.389   2.368
 4135SOL    HW213305   2.353   1.506   2.286
 4136SOL     OW13306   0.138   2.003   4.190
 4136SOL    HW113307   0.104   1.978   4.099
 4136SOL    HW213308   0.067   1.984   4.258
 4137SOL     OW13309   3.337   3.592   6.464
 4137SOL    HW113310   3.278   3.546   6.398
 4137SOL    HW213311   3.286   3.609   6.549
 4138SOL     OW13312   3.954   4.920   3.382
 4138SOL    HW113313   4.030   4.934   3.445
 4138SOL    HW213314   3.988   4.875   3.299
 4139SOL     OW13315   1.473   1.598   6.098
 4139SOL    HW113316   1.454   1.678   6.041
 4139SOL    HW213317   1.560   1.557   6.072
 4140SOL     OW13318   4.386   0.949   5.140
 4140SOL    HW113319   4.341   0.929   5.054
 4140SOL    HW213320   4.444   0.871   5.166
 4141SOL     OW13321   5.525   5.557   0.464
 4141SOL    HW113322   5.427   5.553   0.480
 4141SOL    HW213323   5.571   5.488   0.520
 4142SOL     OW13324   0.048   4.249   1.415
 4142SOL    HW113325   0.145   4.259   1.435
 4142SOL    HW213326   7.023   4.228   1.499
 4143SOL     OW13327   6.906   3.003   0.868
 4143SOL    HW113328   6.899   2.915   0.822
 4143SOL    HW213329   6.966   3.064   0.816
 4144SOL     OW13330   5.080   1.270   2.544
 4144SOL    HW113331   5.137   1.337   2.592
 4144SOL    HW213332   5.004   1.318   2.499
 4145SOL     OW13333   1.867   0.194   1.163
 4145SOL    HW113334   1.791   0.143   1.205
 4145SOL    HW213335   1.831   0.269   1.108
 4146SOL     OW13336   5.058   6.857   7.017
 4146SOL    HW113337   5.070   6.779   6.955
 4146SOL    HW213338   5.147   6.880   0.033
 4147SOL     OW13339   3.487   1.817   5.710
 4147SOL    HW113340   3.445   1.788   5.624
 4147SOL    HW213341   3.519   1.911   5.701
 4148SOL     OW13342   6.268   0.708   3.290
 4148SOL    HW113343   6.361   0.746   3.294
 4148SOL    HW213344   6.261   0.648   3.211
 4149SOL     OW13345   6.110   4.154   1.703
 4149SOL    HW113346   6.070   4.174   1.613
 4149SOL    HW213347   6.045   4.103   1.758
 4150SOL     OW13348   5.744   7.005   6.802
 4150SOL    HW113349   5.779   6.915   6.775
 4150SOL    HW213350   5.755   7.017   6.900
 4151SOL     OW13351   0.063   5.843   0.470
 4151SOL    HW113352   7.024   5.772   0.503
 4151SOL    HW213353   0.088   5.823   0.375
 4152SOL     OW13354   3.981   4.551   1.600
 4152SOL    HW113355   4.043   4.579   1.673
 4152SOL    HW213356   4.034   4.509   1.526
 4153SOL     OW13357   6.117   4.686   6.354
 4153SOL    HW113358   6.120   4.618   6.281
 4153SOL    HW213359   6.198   4.745   6.348
 4154SOL     OW13360   6.337   3.055   5.623
 4154SOL    HW113361   6.373   2.968   5.657
 4154SOL    HW213362   6.378   3.076   5.534
 4155SOL     OW13363   0.889   3.360   1.748
 4155SOL    HW113364   0.863   3.444   1.796
 4155SOL    HW213365   0.851   3.362   1.655
 4156SOL     OW13366   5.493   6.794   5.420
 4156SOL    HW113367   5.592   6.797   5.436
 4156SOL    HW213368   5.464   6.700   5.407
 4157SOL     OW13369   4.380   0.656   4.137
 4157SOL    HW113370   4.292   0.647   4.089
 4157SOL    HW213371   4.441   0.581   4.111
 4158SOL     OW13372   0.436   5.938   3.398
 4158SOL    HW113373   0.436   5.910   3.494
 4158SOL    HW213374   0.438   5.857   3.339
 4159SOL     OW13375   1.209   2.825   4.024
 4159SOL    HW113376   1.138   2.864   4.083
 4159SOL    HW213377   1.219   2.882   3.942
 4160SOL     OW13378   6.847   0.481   1.099
 4160SOL    HW113379   6.832   0.426   1.181
 4160SOL    HW213380   6.867   0.420   1.022
 4161SOL     OW13381   1.014   1.909   0.239
 4161SOL    HW113382   0.993   1.819   0.277
 4161SOL    HW213383   1.035   1.899   0.141
 4162SOL     OW13384   5.821   6.596   4.861
 4162SOL    HW113385   5.918   6.616   4.877
 4162SOL    HW213386   5.771   6.603   4.947
 4163SOL     OW13387   5.579   1.425   3.874
 4163SOL    HW113388   5.553   1.509   3.922
 4163SOL    HW213389   5.678   1.425   3.860
 4164SOL     OW13390   1.621   0.767   6.969
 4164SOL    HW113391   1.625   0.788   6.871
 4164SOL    HW213392   1.526   0.761   6.998
 4165SOL     OW13393   3.736   6.864   1.268
 4165SOL    HW113394   3.676   6.831   1.195
 4165SOL    HW213395   3.831   6.844   1.245
 4166SOL     OW13396   4.776   2.977   0.741
 4166SOL    HW113397   4.696   3.035   0.754
 4166SOL    HW213398   4.853   3.032   0.712
 4167SOL     OW13399   2.400   2.528   1.690
 4167SOL    HW113400   2.478   2.495   1.636
 4167SOL    HW213401   2.341   2.450   1.713
 4168SOL     OW13402   0.908   5.679   1.620
 4168SOL    HW113403   0.951   5.671   1.530
 4168SOL    HW213404   0.946   5.610   1.681
 4169SOL     OW13405   5.113   3.257   3.290
 4169SOL    HW113406   5.168   3.214   3.362
 4169SOL    HW213407   5.023   3.215   3.287
 4170SOL     OW13408   3.709   2.725   5.477
 4170SOL    HW113409   3.717   2.820   5.508
 4170SOL    HW213410   3.772   2.710   5.400
 4171SOL     OW13411   4.839   3.652   1.522
 4171SOL    HW113412   4.773   3.633   1.594
 4171SOL    HW213413   4.919   3.696   1.561
 4172SOL     OW13414   0.626   1.682   0.809
 4172SOL    HW113415   0.641   1.652   0.903
 4172SOL    HW213416   0.628   1.603   0.748
 4173SOL     OW13417   5.228   2.921   5.205
 4173SOL    HW113418   5.193   2.888   5.292
 4173SOL    HW213419   5.207   2.854   5.133
 4174SOL     OW13420   4.776   0.516   4.074
 4174SOL    HW113421   4.845   0.448   4.051
 4174SOL    HW213422   4.689   0.490   4.034
 4175SOL     OW13423   3.160   6.908   3.331
 4175SOL    HW113424   3.173   6.835   3.398
 4175SOL    HW213425   3.231   6.902   3.261
 4176SOL     OW13426   4.811   6.811   3.299
 4176SOL    HW113427   4.753   6.892   3.299
 4176SOL    HW213428   4.875   6.816   3.376
 4177SOL     OW13429   0.603   6.395   2.621
 4177SOL    HW113430   0.529   6.428   2.563
 4177SOL    HW213431   0.590   6.297   2.640
 4178SOL     OW13432   3.542   2.079   5.692
 4178SOL    HW113433   3.525   2.173   5.663
 4178SOL    HW213434   3.534   2.072   5.791
 4179SOL     OW13435   5.625   3.962   5.337
 4179SOL    HW113436   5.533   3.944   5.303
 4179SOL    HW213437   5.692   3.926   5.273
 4180SOL     OW13438   4.552   4.149   1.626
 4180SOL    HW113439   4.490   4.119   1.699
 4180SOL    HW213440   4.565   4.248   1.631
 4181SOL     OW13441   0.584   1.534   0.138
 4181SOL    HW113442   0.607   1.471   0.212
 4181SOL    HW213443   0.516   1.493   0.079
 4182SOL     OW13444   5.784   0.166   2.643
 4182SOL    HW113445   5.785   0.138   2.739
 4182SOL    HW213446   5.877   0.163   2.606
 4183SOL     OW13447   1.449   1.682   1.742
 4183SOL    HW113448   1.420   1.732   1.823
 4183SOL    HW213449   1.540   1.643   1.757
 4184SOL     OW13450   4.120   5.386   0.437
 4184SOL    HW113451   4.099   5.414   0.342
 4184SOL    HW213452   4.203   5.432   0.467
 4185SOL     OW13453   0.500   0.099   3.775
 4185SOL    HW113454   0.582   0.120   3.721
 4185SOL    HW213455   0.520   0.022   3.836
 4186SOL     OW13456   2.157   3.714   1.269
 4186SOL    HW113457   2.131   3.618   1.280
 4186SOL    HW213458   2.075   3.768   1.246
 4187SOL     OW13459   3.873   3.341   6.454
 4187SOL    HW113460   3.871   3.426   6.505
 4187SOL    HW213461   3.824   3.353   6.368
 4188SOL     OW13462   4.310   0.163   4.662
 4188SOL    HW113463   4.287   0.072   4.627
 4188SOL    HW213464   4.405   0.184   4.638
 4189SOL     OW13465   2.090   1.862   4.784
 4189SOL    HW113466   2.094   1.857   4.685
 4189SOL    HW213467   2.040   1.944   4.812
 4190SOL     OW13468   3.267   1.223   0.308
 4190SOL    HW113469   3.207   1.296   0.277
 4190SOL    HW213470   3.231   1.182   0.392
 4191SOL     OW13471   6.371   2.075   2.700
 4191SOL    HW113472   6.381   2.078   2.600
 4191SOL    HW213473   6.274   2.078   2.724
 4192SOL     OW13474   6.036   1.264   3.743
 4192SOL    HW113475   6.081   1.190   3.793
 4192SOL    HW213476   6.075   1.271   3.652
 4193SOL     OW13477   2.112   6.804   2.198
 4193SOL    HW113478   2.096   6.719   2.148
 4193SOL    HW213479   2.187   6.855   2.155
 4194SOL     OW13480   0.157   1.340   3.788
 4194SOL    HW113481   0.171   1.347   3.690
 4194SOL    HW213482   0.118   1.251   3.810
 4195SOL     OW13483   5.349   0.440   1.594
 4195SOL    HW113484   5.249   0.443   1.594
 4195SOL    HW213485   5.385   0.519   1.545
 4196SOL     OW13486   4.978   2.741   3.949
 4196SOL    HW113487   4.947   2.653   3.984
 4196SOL    HW213488   5.022   2.792   4.023
 4197SOL     OW13489   4.728   4.536   4.382
 4197SOL    HW113490   4.772   4.516   4.294
 4197SOL    HW213491   4.728   4.635   4.396
 4198SOL     OW13492   6.417   3.706   0.109
 4198SOL    HW113493   6.509   3.743   0.121
 4198SOL    HW213494   6.357   3.776   0.070
 4199SOL     OW13495   2.975   3.608   5.556
 4199SOL    HW113496   3.012   3.575   5.643
 4199SOL    HW213497   3.048   3.652   5.504
 4200SOL     OW13498   2.054   0.147   0.165
 4200SOL    HW113499   2.030   0.240   0.192
 4200SOL    HW213500   2.153   0.136   0.168
 4201SOL     OW13501   5.651   6.227   3.631
 4201SOL    HW113502   5.624   6.258   3.540
 4201SOL    HW213503   5.750   6.220   3.636
 4202SOL     OW13504   5.336   4.689   4.617
 4202SOL    HW113505   5.374   4.769   4.570
 4202SOL    HW213506   5.337   4.611   4.556
 4203SOL     OW13507   5.318   5.908   3.141
 4203SOL    HW113508   5.411   5.945   3.133
 4203SOL    HW213509   5.277   5.937   3.227
 4204SOL     OW13510   3.107   2.959   1.565
 4204SOL    HW113511   3.150   3.004   1.643
 4204SOL    HW213512   3.170   2.960   1.487
 4205SOL     OW13513   2.564   5.355   3.765
 4205SOL    HW113514   2.621   5.363   3.683
 4205SOL    HW213515   2.552   5.446   3.806
 4206SOL     OW13516   5.097   0.520   4.874
 4206SOL    HW113517   5.040   0.473   4.806
 4206SOL    HW213518   5.039   0.560   4.944
 4207SOL     OW13519   1.102   1.651   1.912
 4207SOL    HW113520   1.153   1.611   1.836
 4207SOL    HW213521   1.075   1.579   1.976
 4208SOL     OW13522   1.014   3.205   0.793
 4208SOL    HW113523   1.090   3.145   0.817
 4208SOL    HW213524   1.028   3.240   0.700
 4209SOL     OW13525   2.909   0.176   5.178
 4209SOL    HW113526   2.975   0.242   5.142
 4209SOL    HW213527   2.879   0.116   5.104
 4210SOL     OW13528   4.653   2.810   0.399
 4210SOL    HW113529   4.593   2.730   0.393
 4210SOL    HW213530   4.604   2.885   0.443
 4211SOL     OW13531   4.277   4.945   3.380
 4211SOL    HW113532   4.233   4.862   3.346
 4211SOL    HW213533   4.309   5.000   3.303
 4212SOL     OW13534   6.136   1.283   2.740
 4212SOL    HW113535   6.224   1.273   2.788
 4212SOL    HW213536   6.119   1.201   2.685
 4213SOL     OW13537   1.240   1.204   2.461
 4213SOL    HW113538   1.199   1.295   2.449
 4213SOL    HW213539   1.186   1.152   2.527
 4214SOL     OW13540   0.777   3.058   4.574
 4214SOL    HW113541   0.760   2.963   4.550
 4214SOL    HW213542   0.699   3.114   4.544
 4215SOL     OW13543   0.700   5.439   4.305
 4215SOL    HW113544   0.743   5.456   4.394
 4215SOL    HW213545   0.600   5.435   4.317
 4216SOL     OW13546   1.149   2.774   4.779
 4216SOL    HW113547   1.089   2.772   4.859
 4216SOL    HW213548   1.172   2.868   4.756
 4217SOL     OW13549   0.122   0.282   3.198
 4217SOL    HW113550   0.193   0.245   3.138
 4217SOL    HW213551   0.037   0.293   3.146
 4218SOL     OW13552   4.209   0.144   1.906
 4218SOL    HW113553   4.222   0.046   1.922
 4218SOL    HW213554   4.273   0.197   1.962
 4219SOL     OW13555   4.181   5.731   3.524
 4219SOL    HW113556   4.149   5.769   3.437
 4219SOL    HW213557   4.261   5.783   3.555
 4220SOL     OW13558   5.928   2.629   3.574
 4220SOL    HW113559   5.947   2.550   3.516
 4220SOL    HW213560   5.865   2.602   3.647
 4221SOL     OW13561   5.586   5.626   5.934
 4221SOL    HW113562   5.517   5.578   5.879
 4221SOL    HW213563   5.547   5.711   5.969
 4222SOL     OW13564   4.546   1.806   0.999
 4222SOL    HW113565   4.643   1.830   1.003
 4222SOL    HW213566   4.497   1.853   1.074
 4223SOL     OW13567   3.534   4.092   2.503
 4223SOL    HW113568   3.612   4.148   2.531
 4223SOL    HW213569   3.562   3.997   2.495
 4224SOL     OW13570   4.488   2.419   5.149
 4224SOL    HW113571   4.553   2.478   5.101
 4224SOL    HW213572   4.406   2.406   5.092
 4225SOL     OW13573   5.510   0.049   5.030
 4225SOL    HW113574   5.545   0.084   4.943
 4225SOL    HW213575   5.419   0.088   5.047
 4226SOL     OW13576   0.983   1.404   3.701
 4226SOL    HW113577   0.905   1.388   3.763
 4226SOL    HW213578   0.990   1.502   3.681
 4227SOL     OW13579   5.273   4.384   0.378
 4227SOL    HW113580   5.260   4.322   0.301
 4227SOL    HW213581   5.194   4.380   0.438
 4228SOL     OW13582   6.135   5.501   2.829
 4228SOL    HW113583   6.180   5.542   2.908
 4228SOL    HW213584   6.079   5.571   2.783
 4229SOL     OW13585   4.955   4.967   5.676
 4229SOL    HW113586   4.905   4.915   5.607
 4229SOL    HW213587   5.020   4.908   5.723
 4230SOL     OW13588   3.525   6.794   5.121
 4230SOL    HW113589   3.585   6.739   5.063
 4230SOL    HW213590   3.494   6.739   5.199
 4231SOL     OW13591   4.541   6.926   5.791
 4231SOL    HW113592   4.615   6.910   5.727
 4231SOL    HW213593   4.465   6.863   5.772
 4232SOL     OW13594   2.099   4.332   2.214
 4232SOL    HW113595   2.038   4.321   2.293
 4232SOL    HW213596   2.163   4.256   2.211
 4233SOL     OW13597   6.445   6.309   0.425
 4233SOL    HW113598   6.421   6.396   0.468
 4233SOL    HW213599   6.451   6.239   0.496
 4234SOL     OW13600   2.971   4.314   5.612
 4234SOL    HW113601   2.932   4.361   5.533
 4234SOL    HW213602   2.898   4.265   5.661
 4235SOL     OW13603   6.521   3.646   5.661
 4235SOL    HW113604   6.462   3.613   5.735
 4235SOL    HW213605   6.479   3.727   5.619
 4236SOL     OW13606   1.064   2.869   4.304
 4236SOL    HW113607   0.980   2.917   4.278
 4236SOL    HW213608   1.120   2.929   4.361
 4237SOL     OW13609   5.225   2.780   4.975
 4237SOL    HW113610   5.278   2.696   4.963
 4237SOL    HW213611   5.282   2.859   4.953
 4238SOL     OW13612   4.444   5.365   3.922
 4238SOL    HW113613   4.422   5.292   3.987
 4238SOL    HW213614   4.371   5.373   3.855
 4239SOL     OW13615   4.704   5.518   5.898
 4239SOL    HW113616   4.777   5.500   5.831
 4239SOL    HW213617   4.704   5.615   5.921
 4240SOL     OW13618   2.390   4.492   6.910
 4240SOL    HW113619   2.341   4.521   6.828
 4240SOL    HW213620   2.398   4.392   6.910
 4241SOL     OW13621   4.135   0.490   6.918
 4241SOL    HW113622   4.157   0.580   6.957
 4241SOL    HW213623   4.069   0.501   6.844
 4242SOL     OW13624   2.430   0.695   2.822
 4242SOL    HW113625   2.350   0.688   2.882
 4242SOL    HW213626   2.494   0.762   2.859
 4243SOL     OW13627   1.523   3.140   3.010
 4243SOL    HW113628   1.484   3.217   3.059
 4243SOL    HW213629   1.506   3.056   3.061
 4244SOL     OW13630   3.866   6.532   1.308
 4244SOL    HW113631   3.907   6.443   1.288
 4244SOL    HW213632   3.919   6.604   1.262
 4245SOL     OW13633   6.218   3.798   0.996
 4245SOL    HW113634   6.156   3.748   0.935
 4245SOL    HW213635   6.281   3.734   1.039
 4246SOL     OW13636   5.087   1.743   3.491
 4246SOL    HW113637   5.002   1.790   3.515
 4246SOL    HW213638   5.144   1.736   3.573
 4247SOL     OW13639   1.385   5.101   5.533
 4247SOL    HW113640   1.294   5.143   5.540
 4247SOL    HW213641   1.405   5.051   5.617
 4248SOL     OW13642   1.700   1.041   3.403
 4248SOL    HW113643   1.780   1.101   3.406
 4248SOL    HW213644   1.726   0.948   3.428
 4249SOL     OW13645   6.931   6.690   4.661
 4249SOL    HW113646   6.870   6.735   4.597
 4249SOL    HW213647   6.878   6.649   4.735
 4250SOL     OW13648   0.292   5.468   4.438
 4250SOL    HW113649   0.269   5.433   4.348
 4250SOL    HW213650   0.368   5.415   4.476
 4251SOL     OW13651   6.197   2.049   5.669
 4251SOL    HW113652   6.150   2.120   5.617
 4251SOL    HW213653   6.194   2.073   5.767
 4252SOL     OW13654   0.005   6.218   0.195
 4252SOL    HW113655   0.094   6.260   0.210
 4252SOL    HW213656   6.999   6.172   0.279
 4253SOL     OW13657   4.751   5.706   2.399
 4253SOL    HW113658   4.745   5.736   2.494
 4253SOL    HW213659   4.694   5.625   2.387
 4254SOL     OW13660   1.865   3.255   0.398
 4254SOL    HW113661   1.905   3.329   0.344
 4254SOL    HW213662   1.826   3.187   0.336
 4255SOL     OW13663   1.313   3.754   2.912
 4255SOL    HW113664   1.235   3.816   2.897
 4255SOL    HW213665   1.308   3.679   2.846
 4256SOL     OW13666   0.637   5.862   2.136
 4256SOL    HW113667   0.635   5.880   2.234
 4256SOL    HW213668   0.725   5.892   2.099
 4257SOL     OW13669   6.387   0.720   4.242
 4257SOL    HW113670   6.483   0.694   4.254
 4257SOL    HW213671   6.367   0.800   4.297
 4258SOL     OW13672   3.651   6.201   0.835
 4258SOL    HW113673   3.657   6.268   0.761
 4258SOL    HW213674   3.729   6.139   0.830
 4259SOL     OW13675   1.124   0.263   2.146
 4259SOL    HW113676   1.028   0.292   2.146
 4259SOL    HW213677   1.181   0.339   2.115
 4260SOL     OW13678   5.644   0.894   4.481
 4260SOL    HW113679   5.691   0.918   4.396
 4260SOL    HW213680   5.642   0.795   4.492
 4261SOL     OW13681   1.914   6.537   4.433
 4261SOL    HW113682   1.945   6.558   4.340
 4261SOL    HW213683   1.956   6.601   4.497
 4262SOL     OW13684   1.906   4.058   6.613
 4262SOL    HW113685   1.839   3.990   6.640
 4262SOL    HW213686   1.977   4.015   6.557
 4263SOL     OW13687   2.618   1.857   4.123
 4263SOL    HW113688   2.558   1.841   4.202
 4263SOL    HW213689   2.567   1.838   4.039
 4264SOL     OW13690   5.086   1.098   5.051
 4264SOL    HW113691   5.128   1.148   5.127
 4264SOL    HW213692   5.144   1.105   4.970
 4265SOL     OW13693   3.655   0.744   0.125
 4265SOL    HW113694   3.668   0.707   0.033
 4265SOL    HW213695   3.670   0.843   0.122
 4266SOL     OW13696   1.316   5.767   1.182
 4266SOL    HW113697   1.257   5.773   1.263
 4266SOL    HW213698   1.392   5.831   1.192
 4267SOL     OW13699   1.626   4.454   4.970
 4267SOL    HW113700   1.712   4.437   4.922
 4267SOL    HW213701   1.631   4.543   5.016
 4268SOL     OW13702   1.274   4.408   0.247
 4268SOL    HW113703   1.215   4.450   0.178
 4268SOL    HW213704   1.225   4.404   0.334
 4269SOL     OW13705   2.827   1.319   5.017
 4269SOL    HW113706   2.734   1.291   4.993
 4269SOL    HW213707   2.846   1.408   4.976
 4270SOL     OW13708   3.957   2.677   0.882
 4270SOL    HW113709   4.034   2.641   0.934
 4270SOL    HW213710   3.907   2.601   0.839
 4271SOL     OW13711   0.188   0.840   1.532
 4271SOL    HW113712   0.099   0.836   1.578
 4271SOL    HW213713   0.232   0.927   1.553
 4272SOL     OW13714   0.054   1.292   6.391
 4272SOL    HW113715   0.029   1.381   6.353
 4272SOL    HW213716   7.005   1.227   6.376
 4273SOL     OW13717   3.303   5.984   4.436
 4273SOL    HW113718   3.310   6.074   4.392
 4273SOL    HW213719   3.207   5.965   4.457
 4274SOL     OW13720   0.145   1.456   1.897
 4274SOL    HW113721   0.112   1.365   1.923
 4274SOL    HW213722   0.072   1.523   1.912
 4275SOL     OW13723   6.969   2.957   3.179
 4275SOL    HW113724   7.006   3.049   3.187
 4275SOL    HW213725   6.880   2.961   3.132
 4276SOL     OW13726   2.592   5.595   4.228
 4276SOL    HW113727   2.579   5.498   4.208
 4276SOL    HW213728   2.687   5.620   4.209
 4277SOL     OW13729   5.902   5.516   3.275
 4277SOL    HW113730   5.953   5.595   3.308
 4277SOL    HW213731   5.880   5.529   3.178
 4278SOL     OW13732   1.401   6.954   1.670
 4278SOL    HW113733   1.430   6.929   1.762
 4278SOL    HW213734   1.431   0.023   1.649
 4279SOL     OW13735   1.478   1.680   3.444
 4279SOL    HW113736   1.499   1.764   3.394
 4279SOL    HW213737   1.479   1.603   3.380
 4280SOL     OW13738   0.429   6.881   6.575
 4280SOL    HW113739   0.406   6.978   6.569
 4280SOL    HW213740   0.517   6.871   6.621
 4281SOL     OW13741   5.038   5.680   3.075
 4281SOL    HW113742   4.997   5.658   3.164
 4281SOL    HW213743   5.003   5.768   3.043
 4282SOL     OW13744   3.580   4.167   0.773
 4282SOL    HW113745   3.488   4.129   0.771
 4282SOL    HW213746   3.647   4.093   0.767
 4283SOL     OW13747   5.120   1.368   4.336
 4283SOL    HW113748   5.147   1.416   4.420
 4283SOL    HW213749   5.020   1.361   4.332
 4284SOL     OW13750   4.346   5.812   6.013
 4284SOL    HW113751   4.267   5.872   6.013
 4284SOL    HW213752   4.430   5.867   6.012
 4285SOL     OW13753   3.325   0.562   5.577
 4285SOL    HW113754   3.287   0.602   5.494
 4285SOL    HW213755   3.256   0.506   5.622
 4286SOL     OW13756   5.648   0.670   6.279
 4286SOL    HW113757   5.562   0.655   6.230
 4286SOL    HW213758   5.718   0.699   6.214
 4287SOL     OW13759   4.678   0.378   0.699
 4287SOL    HW113760   4.721   0.290   0.678
 4287SOL    HW213761   4.747   0.442   0.731
 4288SOL     OW13762   7.019   6.222   2.292
 4288SOL    HW113763   0.001   6.124   2.307
 4288SOL    HW213764   0.032   6.271   2.371
 4289SOL     OW13765   0.448   4.006   4.098
 4289SOL    HW113766   0.498   4.012   4.011
 4289SOL    HW213767   0.351   3.995   4.080
 4290SOL     OW13768   0.686   1.229   3.573
 4290SOL    HW113769   0.615   1.231   3.644
 4290SOL    HW213770   0.766   1.180   3.608
 4291SOL     OW13771   4.824   3.348   6.245
 4291SOL    HW113772   4.921   3.373   6.235
 4291SOL    HW213773   4.767   3.427   6.224
 4292SOL     OW13774   5.877   2.500   1.445
 4292SOL    HW113775   5.817   2.530   1.518
 4292SOL    HW213776   5.972   2.510   1.474
 4293SOL     OW13777   3.818   4.273   6.705
 4293SOL    HW113778   3.891   4.266   6.772
 4293SOL    HW213779   3.745   4.208   6.729
 4294SOL     OW13780   1.734   1.824   6.285
 4294SOL    HW113781   1.756   1.743   6.338
 4294SOL    HW213782   1.785   1.824   6.199
 4295SOL     OW13783   4.048   6.020   2.829
 4295SOL    HW113784   4.042   6.090   2.900
 4295SOL    HW213785   3.961   5.970   2.824
 4296SOL     OW13786   2.851   5.805   2.460
 4296SOL    HW113787   2.892   5.814   2.370
 4296SOL    HW213788   2.920   5.775   2.525
 4297SOL     OW13789   5.812   4.808   0.733
 4297SOL    HW113790   5.878   4.880   0.754
 4297SOL    HW213791   5.737   4.846   0.678
 4298SOL     OW13792   2.097   6.712   0.358
 4298SOL    HW113793   2.194   6.738   0.362
 4298SOL    HW213794   2.088   6.629   0.303
 4299SOL     OW13795   0.401   3.270   0.262
 4299SOL    HW113796   0.372   3.186   0.307
 4299SOL    HW213797   0.483   3.306   0.307
 4300SOL     OW13798   2.673   1.078   0.833
 4300SOL    HW113799   2.707   1.130   0.911
 4300SOL    HW213800   2.661   1.140   0.755
 4301SOL     OW13801   2.724   6.859   1.002
 4301SOL    HW113802   2.757   6.827   0.913
 4301SOL    HW213803   2.792   6.920   1.043
 4302SOL     OW13804   2.395   5.734   5.963
 4302SOL    HW113805   2.391   5.683   5.877
 4302SOL    HW213806   2.303   5.746   5.999
 4303SOL     OW13807   6.135   5.280   3.019
 4303SOL    HW113808   6.095   5.242   2.936
 4303SOL    HW213809   6.135   5.380   3.014
 4304SOL     OW13810   3.503   3.794   1.502
 4304SOL    HW113811   3.531   3.884   1.535
 4304SOL    HW213812   3.405   3.780   1.521
 4305SOL     OW13813   1.647   0.041   5.408
 4305SOL    HW113814   1.700   6.985   5.383
 4305SOL    HW213815   1.657   0.059   5.506
 4306SOL     OW13816   6.334   3.210   5.108
 4306SOL    HW113817   6.431   3.235   5.103
 4306SOL    HW213818   6.289   3.269   5.175
 4307SOL     OW13819   0.260   1.485   5.667
 4307SOL    HW113820   0.284   1.391   5.644
 4307SOL    HW213821   0.330   1.523   5.728
 4308SOL     OW13822   4.915   5.738   6.727
 4308SOL    HW113823   4.896   5.834   6.707
 4308SOL    HW213824   4.833   5.695   6.765
 4309SOL     OW13825   0.948   2.558   0.754
 4309SOL    HW113826   0.920   2.467   0.783
 4309SOL    HW213827   0.993   2.553   0.665
 4310SOL     OW13828   6.508   1.854   3.391
 4310SOL    HW113829   6.479   1.943   3.357
 4310SOL    HW213830   6.607   1.844   3.378
 4311SOL     OW13831   0.497   0.319   2.484
 4311SOL    HW113832   0.407   0.361   2.482
 4311SOL    HW213833   0.502   0.246   2.416
 4312SOL     OW13834   0.500   5.288   2.959
 4312SOL    HW113835   0.533   5.199   2.928
 4312SOL    HW213836   0.462   5.338   2.881
 4313SOL     OW13837   6.537   2.310   6.988
 4313SOL    HW113838   6.452   2.260   7.003
 4313SOL    HW213839   6.611   2.264   0.012
 4314SOL     OW13840   6.714   1.897   5.361
 4314SOL    HW113841   6.759   1.939   5.441
 4314SOL    HW213842   6.619   1.877   5.383
 4315SOL     OW13843   2.846   1.381   4.443
 4315SOL    HW113844   2.940   1.358   4.468
 4315SOL    HW213845   2.791   1.389   4.526
 4316SOL     OW13846   5.320   6.909   1.651
 4316SOL    HW113847   5.275   6.909   1.740
 4316SOL    HW213848   5.341   7.003   1.623
 4317SOL     OW13849   4.653   0.887   5.759
 4317SOL    HW113850   4.654   0.972   5.706
 4317SOL    HW213851   4.581   0.892   5.828
 4318SOL     OW13852   0.611   0.473   4.340
 4318SOL    HW113853   0.616   0.553   4.400
 4318SOL    HW213854   0.535   0.415   4.368
 4319SOL     OW13855   1.879   5.220   3.083
 4319SOL    HW113856   1.918   5.182   3.167
 4319SOL    HW213857   1.790   5.179   3.065
 4320SOL     OW13858   3.228   6.495   1.061
 4320SOL    HW113859   3.218   6.565   0.990
 4320SOL    HW213860   3.265   6.537   1.145
 4321SOL     OW13861   6.501   6.679   2.429
 4321SOL    HW113862   6.537   6.730   2.507
 4321SOL    HW213863   6.474   6.587   2.459
 4322SOL     OW13864   0.789   3.317   5.193
 4322SOL    HW113865   0.856   3.258   5.150
 4322SOL    HW213866   0.811   3.326   5.291
 4323SOL     OW13867   3.972   4.799   6.595
 4323SOL    HW113868   3.931   4.884   6.561
 4323SOL    HW213869   3.932   4.721   6.548
 4324SOL     OW13870   6.935   4.071   5.926
 4324SOL    HW113871   6.878   4.070   6.009
 4324SOL    HW213872   7.013   4.131   5.940
 4325SOL     OW13873   2.414   0.766   2.560
 4325SOL    HW113874   2.430   0.749   2.657
 4325SOL    HW213875   2.499   0.792   2.515
 4326SOL     OW13876   4.756   2.381   2.245
 4326SOL    HW113877   4.711   2.301   2.206
 4326SOL    HW213878   4.695   2.460   2.240
 4327SOL     OW13879   2.901   6.419   3.484
 4327SOL    HW113880   2.824   6.358   3.504
 4327SOL    HW213881   2.966   6.371   3.424
 4328SOL     OW13882   6.053   6.817   4.522
 4328SOL    HW113883   5.971   6.874   4.524
 4328SOL    HW213884   6.078   6.791   4.615
 4329SOL     OW13885   0.277   1.912   6.358
 4329SOL    HW113886   0.237   1.833   6.404
 4329SOL    HW213887   0.212   1.950   6.293
 4330SOL     OW13888   2.854   4.864   4.924
 4330SOL    HW113889   2.939   4.907   4.956
 4330SOL    HW213890   2.837   4.781   4.977
 4331SOL     OW13891   5.881   1.030   2.079
 4331SOL    HW113892   5.959   0.989   2.126
 4331SOL    HW213893   5.889   1.129   2.080
 4332SOL     OW13894   0.464   5.499   2.463
 4332SOL    HW113895   0.459   5.493   2.364
 4332SOL    HW213896   0.419   5.582   2.494
 4333SOL     OW13897   3.522   2.344   5.684
 4333SOL    HW113898   3.562   2.365   5.773
 4333SOL    HW213899   3.477   2.426   5.648
 4334SOL     OW13900   0.267   2.575   4.528
 4334SOL    HW113901   0.312   2.567   4.618
 4334SOL    HW213902   0.336   2.573   4.456
 4335SOL     OW13903   2.556   4.064   1.675
 4335SOL    HW113904   2.461   4.034   1.678
 4335SOL    HW213905   2.580   4.090   1.581
 4336SOL     OW13906   2.496   4.795   5.580
 4336SOL    HW113907   2.564   4.867   5.570
 4336SOL    HW213908   2.404   4.833   5.570
 4337SOL     OW13909   1.510   5.293   3.961
 4337SOL    HW113910   1.595   5.285   3.909
 4337SOL    HW213911   1.486   5.390   3.971
 4338SOL     OW13912   3.899   0.956   5.904
 4338SOL    HW113913   3.890   0.985   6.000
 4338SOL    HW213914   3.918   0.858   5.900
 4339SOL     OW13915   3.793   3.382   6.155
 4339SOL    HW113916   3.882   3.369   6.112
 4339SOL    HW213917   3.786   3.476   6.189
 4340SOL     OW13918   6.325   4.028   0.884
 4340SOL    HW113919   6.353   3.935   0.908
 4340SOL    HW213920   6.283   4.028   0.794
 4341SOL     OW13921   0.354   7.012   2.658
 4341SOL    HW113922   0.356   0.078   2.702
 4341SOL    HW213923   0.285   6.955   2.702
 4342SOL     OW13924   5.171   3.519   2.149
 4342SOL    HW113925   5.136   3.447   2.089
 4342SOL    HW213926   5.116   3.601   2.139
 4343SOL     OW13927   4.065   6.934   5.947
 4343SOL    HW113928   4.105   6.950   6.038
 4343SOL    HW213929   4.124   6.871   5.896
 4344SOL     OW13930   0.340   3.479   3.835
 4344SOL    HW113931   0.383   3.539   3.903
 4344SOL    HW213932   0.315   3.392   3.877
 4345SOL     OW13933   3.199   2.944   2.320
 4345SOL    HW113934   3.126   2.991   2.371
 4345SOL    HW213935   3.216   2.993   2.234
 4346SOL     OW13936   1.103   2.833   2.308
 4346SOL    HW113937   1.095   2.808   2.404
 4346SOL    HW213938   1.167   2.909   2.298
 4347SOL     OW13939   5.811   5.655   0.447
 4347SOL    HW113940   5.722   5.610   0.441
 4347SOL    HW213941   5.872   5.617   0.378
 4348SOL     OW13942   6.057   5.622   4.177
 4348SOL    HW113943   6.125   5.548   4.171
 4348SOL    HW213944   6.032   5.636   4.273
 4349SOL     OW13945   6.885   4.083   4.332
 4349SOL    HW113946   6.803   4.057   4.280
 4349SOL    HW213947   6.858   4.111   4.424
 4350SOL     OW13948   4.272   1.816   4.775
 4350SOL    HW113949   4.370   1.812   4.756
 4350SOL    HW213950   4.225   1.744   4.723
 4351SOL     OW13951   0.830   6.648   0.420
 4351SOL    HW113952   0.929   6.654   0.406
 4351SOL    HW213953   0.811   6.582   0.493
 4352SOL     OW13954   3.790   3.973   0.784
 4352SOL    HW113955   3.778   3.941   0.878
 4352SOL    HW213956   3.776   3.897   0.721
 4353SOL     OW13957   2.617   3.387   1.324
 4353SOL    HW113958   2.660   3.463   1.373
 4353SOL    HW213959   2.591   3.316   1.389
 4354SOL     OW13960   5.278   6.783   3.636
 4354SOL    HW113961   5.349   6.764   3.569
 4354SOL    HW213962   5.230   6.698   3.659
 4355SOL     OW13963   1.376   6.112   3.190
 4355SOL    HW113964   1.451   6.052   3.162
 4355SOL    HW213965   1.409   6.206   3.196
 4356SOL     OW13966   5.058   2.448   6.049
 4356SOL    HW113967   5.069   2.541   6.015
 4356SOL    HW213968   4.975   2.441   6.103
 4357SOL     OW13969   5.813   0.558   2.383
 4357SOL    HW113970   5.806   0.632   2.316
 4357SOL    HW213971   5.826   0.471   2.335
 4358SOL     OW13972   2.050   6.769   6.804
 4358SOL    HW113973   1.955   6.786   6.779
 4358SOL    HW213974   2.107   6.846   6.774
 4359SOL     OW13975   2.633   2.353   6.930
 4359SOL    HW113976   2.559   2.285   6.935
 4359SOL    HW213977   2.620   2.410   6.849
 4360SOL     OW13978   1.759   3.686   3.800
 4360SOL    HW113979   1.780   3.779   3.831
 4360SOL    HW213980   1.789   3.620   3.869
 4361SOL     OW13981   6.632   1.716   0.609
 4361SOL    HW113982   6.585   1.804   0.611
 4361SOL    HW213983   6.715   1.724   0.553
 4362SOL     OW13984   1.420   5.638   3.500
 4362SOL    HW113985   1.513   5.673   3.513
 4362SOL    HW213986   1.394   5.584   3.580
 4363SOL     OW13987   4.334   1.582   2.618
 4363SOL    HW113988   4.337   1.572   2.717
 4363SOL    HW213989   4.264   1.521   2.580
 4364SOL     OW13990   3.891   3.394   2.673
 4364SOL    HW113991   3.947   3.334   2.617
 4364SOL    HW213992   3.842   3.340   2.742
 4365SOL     OW13993   2.665   2.070   1.378
 4365SOL    HW113994   2.649   2.133   1.454
 4365SOL    HW213995   2.763   2.064   1.359
 4366SOL     OW13996   4.267   5.801   4.917
 4366SOL    HW113997   4.329   5.729   4.949
 4366SOL    HW213998   4.320   5.871   4.869
 4367SOL     OW13999   2.616   5.732   3.437
 4367SOL    HW114000   2.678   5.670   3.389
 4367SOL    HW214001   2.663   5.818   3.456
 4368SOL     OW14002   4.640   4.371   3.301
 4368SOL    HW114003   4.581   4.421   3.364
 4368SOL    HW214004   4.613   4.392   3.207
 4369SOL     OW14005   4.010   4.834   2.935
 4369SOL    HW114006   3.935   4.899   2.941
 4369SOL    HW214007   3.997   4.774   2.856
 4370SOL     OW14008   3.621   4.357   1.663
 4370SOL    HW114009   3.640   4.451   1.692
 4370SOL    HW214010   3.646   4.293   1.736
 4371SOL     OW14011   3.008   1.832   0.878
 4371SOL    HW114012   3.083   1.831   0.811
 4371SOL    HW214013   3.003   1.743   0.923
 4372SOL     OW14014   2.009   3.030   4.439
 4372SOL    HW114015   2.054   2.963   4.379
 4372SOL    HW214016   2.058   3.033   4.526
 4373SOL     OW14017   4.286   1.365   5.528
 4373SOL    HW114018   4.359   1.400   5.469
 4373SOL    HW214019   4.325   1.335   5.615
 4374SOL     OW14020   2.345   1.041   1.504
 4374SOL    HW114021   2.426   0.986   1.483
 4374SOL    HW214022   2.345   1.124   1.448
 4375SOL     OW14023   4.953   1.333   3.746
 4375SOL    HW114024   4.944   1.408   3.681
 4375SOL    HW214025   4.917   1.362   3.835
 4376SOL     OW14026   1.162   6.220   0.459
 4376SOL    HW114027   1.201   6.300   0.505
 4376SOL    HW214028   1.232   6.149   0.451
 4377SOL     OW14029   6.089   6.961   6.512
 4377SOL    HW114030   6.154   6.892   6.543
 4377SOL    HW214031   6.052   7.010   6.592
 4378SOL     OW14032   2.059   5.798   2.581
 4378SOL    HW114033   2.000   5.743   2.640
 4378SOL    HW214034   2.042   5.895   2.597
 4379SOL     OW14035   1.545   0.671   2.055
 4379SOL    HW114036   1.562   0.637   2.148
 4379SOL    HW214037   1.618   0.733   2.028
 4380SOL     OW14038   2.031   5.621   5.149
 4380SOL    HW114039   2.080   5.578   5.074
 4380SOL    HW214040   1.952   5.671   5.113
 4381SOL     OW14041   4.221   5.870   5.191
 4381SOL    HW114042   4.214   5.839   5.096
 4381SOL    HW214043   4.182   5.962   5.199
 4382SOL     OW14044   4.839   3.937   3.492
 4382SOL    HW114045   4.876   3.918   3.401
 4382SOL    HW214046   4.796   4.028   3.492
 4383SOL     OW14047   0.643   2.918   6.571
 4383SOL    HW114048   0.584   2.946   6.646
 4383SOL    HW214049   0.729   2.968   6.575
 4384SOL     OW14050   4.039   5.856   0.882
 4384SOL    HW114051   4.019   5.759   0.867
 4384SOL    HW214052   4.064   5.871   0.977
 4385SOL     OW14053   0.133   1.661   2.577
 4385SOL    HW114054   0.045   1.697   2.545
 4385SOL    HW214055   0.133   1.656   2.677
 4386SOL     OW14056   1.070   3.282   6.949
 4386SOL    HW114057   1.098   3.272   6.854
 4386SOL    HW214058   1.084   3.195   6.997
 4387SOL     OW14059   0.223   3.385   1.849
 4387SOL    HW114060   0.228   3.479   1.882
 4387SOL    HW214061   0.303   3.334   1.880
 4388SOL     OW14062   3.523   1.281   5.479
 4388SOL    HW114063   3.594   1.247   5.540
 4388SOL    HW214064   3.436   1.284   5.528
 4389SOL     OW14065   4.986   2.257   3.110
 4389SOL    HW114066   4.953   2.249   3.204
 4389SOL    HW214067   4.975   2.352   3.079
 4390SOL     OW14068   4.659   2.648   2.247
 4390SOL    HW114069   4.625   2.705   2.321
 4390SOL    HW214070   4.750   2.680   2.219
 4391SOL     OW14071   1.130   5.506   0.542
 4391SOL    HW114072   1.061   5.482   0.610
 4391SOL    HW214073   1.218   5.470   0.570
 4392SOL     OW14074   5.202   3.141   4.540
 4392SOL    HW114075   5.104   3.153   4.557
 4392SOL    HW214076   5.242   3.229   4.515
 4393SOL     OW14077   4.525   6.410   3.458
 4393SOL    HW114078   4.530   6.509   3.440
 4393SOL    HW214079   4.438   6.389   3.503
 4394SOL     OW14080   5.038   0.155   2.257
 4394SOL    HW114081   5.078   0.106   2.179
 4394SOL    HW214082   5.106   0.163   2.330
 4395SOL     OW14083   5.223   1.950   2.422
 4395SOL    HW114084   5.321   1.972   2.423
 4395SOL    HW214085   5.197   1.923   2.329
 4396SOL     OW14086   1.287   0.606   3.739
 4396SOL    HW114087   1.203   0.589   3.688
 4396SOL    HW214088   1.264   0.631   3.833
 4397SOL     OW14089   6.684   0.346   5.611
 4397SOL    HW114090   6.684   0.380   5.706
 4397SOL    HW214091   6.590   0.340   5.578
 4398SOL     OW14092   0.149   4.789   4.279
 4398SOL    HW114093   0.174   4.775   4.183
 4398SOL    HW214094   0.210   4.857   4.319
 4399SOL     OW14095   2.591   1.474   1.194
 4399SOL    HW114096   2.665   1.540   1.207
 4399SOL    HW214097   2.507   1.522   1.168
 4400SOL     OW14098   3.311   6.321   5.046
 4400SOL    HW114099   3.396   6.313   5.099
 4400SOL    HW214100   3.330   6.298   4.950
 4401SOL     OW14101   5.443   6.127   4.347
 4401SOL    HW114102   5.476   6.186   4.274
 4401SOL    HW214103   5.350   6.154   4.372
 4402SOL     OW14104   0.165   6.835   2.744
 4402SOL    HW114105   0.136   6.854   2.838
 4402SOL    HW214106   0.109   6.760   2.708
 4403SOL     OW14107   0.667   0.452   3.281
 4403SOL    HW114108   0.714   0.541   3.288
 4403SOL    HW214109   0.660   0.411   3.372
 4404SOL     OW14110   1.526   4.341   3.383
 4404SOL    HW114111   1.551   4.356   3.478
 4404SOL    HW214112   1.609   4.334   3.327
 4405SOL     OW14113   3.280   4.428   5.418
 4405SOL    HW114114   3.306   4.477   5.501
 4405SOL    HW214115   3.363   4.393   5.374
 4406SOL     OW14116   5.321   3.872   1.215
 4406SOL    HW114117   5.351   3.962   1.248
 4406SOL    HW214118   5.342   3.865   1.117
 4407SOL     OW14119   6.189   6.819   6.994
 4407SOL    HW114120   6.199   6.901   6.938
 4407SOL    HW214121   6.092   6.793   6.996
 4408SOL     OW14122   4.677   5.599   6.797
 4408SOL    HW114123   4.609   5.556   6.737
 4408SOL    HW214124   4.718   5.530   6.856
 4409SOL     OW14125   3.430   1.207   1.872
 4409SOL    HW114126   3.409   1.304   1.889
 4409SOL    HW214127   3.361   1.169   1.810
 4410SOL     OW14128   2.746   5.325   2.031
 4410SOL    HW114129   2.665   5.320   1.973
 4410SOL    HW214130   2.809   5.251   2.007
 4411SOL     OW14131   3.861   2.937   2.590
 4411SOL    HW114132   3.849   2.841   2.618
 4411SOL    HW214133   3.893   2.940   2.495
 4412SOL     OW14134   3.821   2.094   6.728
 4412SOL    HW114135   3.864   2.063   6.812
 4412SOL    HW214136   3.776   2.017   6.683
 4413SOL     OW14137   4.073   5.989   4.714
 4413SOL    HW114138   4.064   6.082   4.748
 4413SOL    HW214139   4.018   5.927   4.771
 4414SOL     OW14140   3.663   4.936   1.742
 4414SOL    HW114141   3.575   4.983   1.749
 4414SOL    HW214142   3.677   4.880   1.824
 4415SOL     OW14143   5.211   2.699   6.974
 4415SOL    HW114144   5.300   2.658   6.990
 4415SOL    HW214145   5.140   2.628   6.983
 4416SOL     OW14146   3.857   0.551   3.413
 4416SOL    HW114147   3.864   0.574   3.510
 4416SOL    HW214148   3.825   0.631   3.362
 4417SOL     OW14149   0.193   6.890   1.905
 4417SOL    HW114150   0.114   6.946   1.880
 4417SOL    HW214151   0.202   6.815   1.840
 4418SOL     OW14152   4.342   6.772   3.267
 4418SOL    HW114153   4.284   6.778   3.348
 4418SOL    HW214154   4.428   6.727   3.291
 4419SOL     OW14155   0.458   4.776   6.302
 4419SOL    HW114156   0.474   4.702   6.366
 4419SOL    HW214157   0.415   4.853   6.349
 4420SOL     OW14158   5.140   1.707   6.463
 4420SOL    HW114159   5.162   1.617   6.425
 4420SOL    HW214160   5.050   1.704   6.507
 4421SOL     OW14161   1.742   1.826   4.032
 4421SOL    HW114162   1.805   1.811   3.956
 4421SOL    HW214163   1.684   1.745   4.043
 4422SOL     OW14164   2.269   3.597   5.936
 4422SOL    HW114165   2.319   3.683   5.948
 4422SOL    HW214166   2.283   3.563   5.843
 4423SOL     OW14167   1.076   1.982   6.234
 4423SOL    HW114168   1.031   1.902   6.193
 4423SOL    HW214169   1.016   2.022   6.304
 4424SOL     OW14170   6.425   0.014   3.197
 4424SOL    HW114171   6.369   7.003   3.122
 4424SOL    HW214172   6.383   7.015   3.284
 4425SOL     OW14173   4.701   4.647   6.353
 4425SOL    HW114174   4.659   4.681   6.437
 4425SOL    HW214175   4.781   4.703   6.331
 4426SOL     OW14176   0.581   0.556   6.113
 4426SOL    HW114177   0.544   0.543   6.021
 4426SOL    HW214178   0.656   0.492   6.129
 4427SOL     OW14179   1.084   0.412   3.704
 4427SOL    HW114180   1.183   0.400   3.714
 4427SOL    HW214181   1.037   0.330   3.736
 4428SOL     OW14182   2.429   5.317   3.257
 4428SOL    HW114183   2.383   5.404   3.242
 4428SOL    HW214184   2.528   5.329   3.249
 4429SOL     OW14185   4.324   6.775   2.988
 4429SOL    HW114186   4.336   6.772   3.087
 4429SOL    HW214187   4.226   6.768   2.966
 4430SOL     OW14188   1.766   1.290   1.932
 4430SOL    HW114189   1.861   1.307   1.959
 4430SOL    HW214190   1.760   1.290   1.832
 4431SOL     OW14191   2.126   2.575   2.854
 4431SOL    HW114192   2.092   2.518   2.779
 4431SOL    HW214193   2.049   2.617   2.901
 4432SOL     OW14194   3.025   3.908   2.951
 4432SOL    HW114195   3.080   3.942   3.027
 4432SOL    HW214196   2.928   3.921   2.972
 4433SOL     OW14197   6.494   6.911   2.886
 4433SOL    HW114198   6.466   6.971   2.812
 4433SOL    HW214199   6.587   6.935   2.915
 4434SOL     OW14200   5.861   2.298   4.390
 4434SOL    HW114201   5.892   2.339   4.477
 4434SOL    HW214202   5.893   2.204   4.385
 4435SOL     OW14203   3.674   2.893   1.795
 4435SOL    HW114204   3.581   2.867   1.823
 4435SOL    HW214205   3.669   2.973   1.736
 4436SOL     OW14206   4.891   1.729   6.570
 4436SOL    HW114207   4.798   1.696   6.586
 4436SOL    HW214208   4.895   1.827   6.588
 4437SOL     OW14209   3.257   0.614   4.882
 4437SOL    HW114210   3.323   0.665   4.938
 4437SOL    HW214211   3.173   0.667   4.873
 4438SOL     OW14212   4.467   2.935   6.670
 4438SOL    HW114213   4.517   3.021   6.672
 4438SOL    HW214214   4.406   2.930   6.750
 4439SOL     OW14215   2.228   5.911   2.020
 4439SOL    HW114216   2.218   5.832   2.081
 4439SOL    HW214217   2.275   5.985   2.068
 4440SOL     OW14218   0.588   6.988   6.033
 4440SOL    HW114219   0.596   6.922   6.108
 4440SOL    HW214220   0.540   6.945   5.956
 4441SOL     OW14221   6.261   2.858   2.802
 4441SOL    HW114222   6.221   2.817   2.884
 4441SOL    HW214223   6.190   2.902   2.748
 4442SOL     OW14224   2.927   6.880   2.704
 4442SOL    HW114225   2.845   6.862   2.649
 4442SOL    HW214226   2.963   6.794   2.739
 4443SOL     OW14227   2.684   1.719   5.322
 4443SOL    HW114228   2.688   1.816   5.346
 4443SOL    HW214229   2.760   1.697   5.259
 4444SOL     OW14230   5.601   0.939   1.694
 4444SOL    HW114231   5.505   0.925   1.667
 4444SOL    HW214232   5.625   1.036   1.686
 4445SOL     OW14233   1.667   1.225   6.467
 4445SOL    HW114234   1.761   1.198   6.448
 4445SOL    HW214235   1.608   1.194   6.392
 4446SOL     OW14236   6.694   6.799   3.474
 4446SOL    HW114237   6.692   6.849   3.387
 4446SOL    HW214238   6.623   6.835   3.534
 4447SOL     OW14239   5.590   2.663   5.637
 4447SOL    HW114240   5.583   2.591   5.706
 4447SOL    HW214241   5.685   2.694   5.631
 4448SOL     OW14242   2.530   3.555   6.573
 4448SOL    HW114243   2.446   3.547   6.519
 4448SOL    HW214244   2.510   3.539   6.669
 4449SOL     OW14245   1.179   1.144   5.207
 4449SOL    HW114246   1.179   1.061   5.150
 4449SOL    HW214247   1.087   1.184   5.207
 4450SOL     OW14248   3.846   4.036   3.106
 4450SOL    HW114249   3.902   3.968   3.152
 4450SOL    HW214250   3.840   4.118   3.163
 4451SOL     OW14251   6.260   4.263   2.403
 4451SOL    HW114252   6.167   4.227   2.405
 4451SOL    HW214253   6.305   4.243   2.490
 4452SOL     OW14254   6.404   5.918   6.510
 4452SOL    HW114255   6.441   5.955   6.425
 4452SOL    HW214256   6.339   5.983   6.549
 4453SOL     OW14257   5.513   2.105   1.455
 4453SOL    HW114258   5.502   2.141   1.362
 4453SOL    HW214259   5.559   2.174   1.511
 4454SOL     OW14260   5.214   3.134   1.601
 4454SOL    HW114261   5.121   3.138   1.639
 4454SOL    HW214262   5.221   3.200   1.526
 4455SOL     OW14263   4.264   1.092   2.208
 4455SOL    HW114264   4.290   1.189   2.206
 4455SOL    HW214265   4.242   1.062   2.115
 4456SOL     OW14266   1.191   5.573   3.062
 4456SOL    HW114267   1.254   5.532   3.128
 4456SOL    HW214268   1.108   5.603   3.109
 4457SOL     OW14269   5.221   2.217   6.546
 4457SOL    HW114270   5.242   2.229   6.643
 4457SOL    HW214271   5.306   2.212   6.494
 4458SOL     OW14272   3.829   2.218   5.960
 4458SOL    HW114273   3.761   2.145   5.967
 4458SOL    HW214274   3.832   2.250   5.865
 4459SOL     OW14275   4.674   6.112   4.863
 4459SOL    HW114276   4.603   6.041   4.867
 4459SOL    HW214277   4.633   6.201   4.883
 4460SOL     OW14278   2.384   1.581   6.237
 4460SOL    HW114279   2.316   1.646   6.270
 4460SOL    HW214280   2.472   1.626   6.227
 4461SOL     OW14281   2.454   0.155   1.967
 4461SOL    HW114282   2.423   0.247   1.992
 4461SOL    HW214283   2.482   0.155   1.871
 4462SOL     OW14284   0.041   5.199   1.763
 4462SOL    HW114285   0.010   5.266   1.829
 4462SOL    HW214286   0.137   5.176   1.781
 4463SOL     OW14287   1.016   3.610   6.129
 4463SOL    HW114288   1.046   3.674   6.058
 4463SOL    HW214289   1.075   3.618   6.209
 4464SOL     OW14290   5.542   3.310   6.784
 4464SOL    HW114291   5.485   3.363   6.721
 4464SOL    HW214292   5.484   3.264   6.851
 4465SOL     OW14293   1.501   6.504   2.269
 4465SOL    HW114294   1.559   6.439   2.319
 4465SOL    HW214295   1.411   6.509   2.313
 4466SOL     OW14296   0.709   2.055   3.698
 4466SOL    HW114297   0.698   2.078   3.601
 4466SOL    HW214298   0.638   2.102   3.751
 4467SOL     OW14299   0.879   6.726   3.070
 4467SOL    HW114300   0.946   6.752   3.141
 4467SOL    HW214301   0.803   6.678   3.113
 4468SOL     OW14302   1.500   2.354   0.624
 4468SOL    HW114303   1.412   2.376   0.581
 4468SOL    HW214304   1.568   2.422   0.597
 4469SOL     OW14305   4.214   0.466   0.178
 4469SOL    HW114306   4.142   0.497   0.116
 4469SOL    HW214307   4.226   0.367   0.168
 4470SOL     OW14308   4.749   4.806   0.929
 4470SOL    HW114309   4.663   4.847   0.960
 4470SOL    HW214310   4.821   4.823   0.997
 4471SOL     OW14311   6.137   3.646   0.768
 4471SOL    HW114312   6.220   3.634   0.715
 4471SOL    HW214313   6.087   3.560   0.773
 4472SOL     OW14314   1.297   4.085   2.775
 4472SOL    HW114315   1.303   4.154   2.703
 4472SOL    HW214316   1.336   4.121   2.859
 4473SOL     OW14317   0.435   6.394   4.622
 4473SOL    HW114318   0.466   6.373   4.715
 4473SOL    HW214319   0.357   6.336   4.599
 4474SOL     OW14320   4.768   0.485   3.321
 4474SOL    HW114321   4.740   0.470   3.416
 4474SOL    HW214322   4.689   0.514   3.267
 4475SOL     OW14323   1.715   3.827   0.277
 4475SOL    HW114324   1.739   3.733   0.254
 4475SOL    HW214325   1.755   3.890   0.210
 4476SOL     OW14326   4.931   6.181   1.858
 4476SOL    HW114327   4.896   6.198   1.766
 4476SOL    HW214328   4.858   6.194   1.925
 4477SOL     OW14329   1.022   1.908   0.713
 4477SOL    HW114330   1.077   1.901   0.630
 4477SOL    HW214331   0.955   1.982   0.702
 4478SOL     OW14332   2.269   6.074   1.771
 4478SOL    HW114333   2.363   6.071   1.806
 4478SOL    HW214334   2.205   6.070   1.847
 4479SOL     OW14335   0.868   0.102   5.426
 4479SOL    HW114336   0.900   0.195   5.408
 4479SOL    HW214337   0.937   0.037   5.397
 4480SOL     OW14338   0.764   5.003   3.785
 4480SOL    HW114339   0.771   4.959   3.695
 4480SOL    HW214340   0.684   4.968   3.833
 4481SOL     OW14341   1.154   6.509   4.436
 4481SOL    HW114342   1.160   6.469   4.345
 4481SOL    HW214343   1.059   6.521   4.462
 4482SOL     OW14344   0.168   4.401   4.026
 4482SOL    HW114345   0.101   4.351   3.972
 4482SOL    HW214346   0.151   4.387   4.123
 4483SOL     OW14347   5.720   2.907   2.452
 4483SOL    HW114348   5.681   2.862   2.532
 4483SOL    HW214349   5.662   2.984   2.425
 4484SOL     OW14350   4.434   2.943   5.406
 4484SOL    HW114351   4.362   2.875   5.394
 4484SOL    HW214352   4.401   3.016   5.467
 4485SOL     OW14353   5.316   1.942   6.608
 4485SOL    HW114354   5.379   1.889   6.550
 4485SOL    HW214355   5.266   2.007   6.552
 4486SOL     OW14356   6.296   2.911   3.934
 4486SOL    HW114357   6.282   2.971   3.855
 4486SOL    HW214358   6.226   2.930   4.003
 4487SOL     OW14359   3.285   3.034   6.315
 4487SOL    HW114360   3.217   3.102   6.343
 4487SOL    HW214361   3.303   2.971   6.390
 4488SOL     OW14362   0.009   1.091   4.609
 4488SOL    HW114363   0.022   1.113   4.706
 4488SOL    HW214364   0.017   0.993   4.595
 4489SOL     OW14365   6.374   6.953   4.430
 4489SOL    HW114366   6.400   6.891   4.504
 4489SOL    HW214367   6.357   6.899   4.347
 4490SOL     OW14368   6.726   1.865   3.001
 4490SOL    HW114369   6.733   1.768   3.023
 4490SOL    HW214370   6.805   1.913   3.039
 4491SOL     OW14371   0.889   3.136   3.192
 4491SOL    HW114372   0.962   3.135   3.260
 4491SOL    HW214373   0.858   3.230   3.178
 4492SOL     OW14374   4.843   3.130   6.890
 4492SOL    HW114375   4.867   3.082   6.974
 4492SOL    HW214376   4.871   3.076   6.811
 4493SOL     OW14377   5.920   5.097   4.377
 4493SOL    HW114378   5.999   5.135   4.329
 4493SOL    HW214379   5.839   5.152   4.357
 4494SOL     OW14380   6.097   4.178   4.504
 4494SOL    HW114381   6.138   4.087   4.497
 4494SOL    HW214382   6.042   4.183   4.587
 4495SOL     OW14383   4.869   6.513   1.118
 4495SOL    HW114384   4.803   6.556   1.057
 4495SOL    HW214385   4.827   6.499   1.208
 4496SOL     OW14386   4.947   3.805   5.549
 4496SOL    HW114387   4.962   3.728   5.612
 4496SOL    HW214388   4.886   3.776   5.476
 4497SOL     OW14389   6.169   4.850   0.673
 4497SOL    HW114390   6.138   4.785   0.603
 4497SOL    HW214391   6.111   4.931   0.671
 4498SOL     OW14392   6.733   3.523   0.099
 4498SOL    HW114393   6.756   3.505   0.195
 4498SOL    HW214394   6.696   3.615   0.091
 4499SOL     OW14395   6.915   2.609   6.157
 4499SOL    HW114396   6.979   2.637   6.229
 4499SOL    HW214397   6.967   2.586   6.074
 4500SOL     OW14398   2.923   3.858   4.976
 4500SOL    HW114399   2.883   3.768   4.961
 4500SOL    HW214400   3.011   3.864   4.929
 4501SOL     OW14401   0.199   4.524   5.430
 4501SOL    HW114402   0.246   4.537   5.343
 4501SOL    HW214403   0.110   4.480   5.413
 4502SOL     OW14404   0.386   2.570   0.446
 4502SOL    HW114405   0.444   2.589   0.366
 4502SOL    HW214406   0.322   2.646   0.459
 4503SOL     OW14407   1.265   1.648   3.904
 4503SOL    HW114408   1.167   1.644   3.922
 4503SOL    HW214409   1.280   1.674   3.808
 4504SOL     OW14410   5.205   1.822   4.291
 4504SOL    HW114411   5.196   1.846   4.195
 4504SOL    HW214412   5.225   1.903   4.345
 4505SOL     OW14413   1.830   6.102   5.947
 4505SOL    HW114414   1.919   6.141   5.969
 4505SOL    HW214415   1.810   6.025   6.007
 4506SOL     OW14416   4.623   0.183   5.413
 4506SOL    HW114417   4.672   0.230   5.340
 4506SOL    HW214418   4.678   0.184   5.497
 4507SOL     OW14419   6.209   4.564   0.606
 4507SOL    HW114420   6.303   4.558   0.640
 4507SOL    HW214421   6.209   4.563   0.506
 4508SOL     OW14422   1.062   3.993   0.471
 4508SOL    HW114423   1.147   3.940   0.462
 4508SOL    HW214424   1.053   4.055   0.393
 4509SOL     OW14425   2.384   1.652   3.813
 4509SOL    HW114426   2.310   1.593   3.846
 4509SOL    HW214427   2.397   1.637   3.715
 4510SOL     OW14428   4.115   6.127   5.246
 4510SOL    HW114429   4.128   6.225   5.263
 4510SOL    HW214430   4.046   6.114   5.175
 4511SOL     OW14431   6.105   2.254   0.623
 4511SOL    HW114432   6.116   2.293   0.714
 4511SOL    HW214433   6.194   2.252   0.577
 4512SOL     OW14434   2.892   5.438   6.758
 4512SOL    HW114435   2.875   5.401   6.849
 4512SOL    HW214436   2.835   5.518   6.743
 4513SOL     OW14437   5.082   1.220   2.084
 4513SOL    HW114438   5.130   1.305   2.062
 4513SOL    HW214439   5.106   1.191   2.177
 4514SOL     OW14440   3.257   1.685   5.109
 4514SOL    HW114441   3.230   1.647   5.198
 4514SOL    HW214442   3.216   1.776   5.098
 4515SOL     OW14443   0.347   5.312   1.292
 4515SOL    HW114444   0.270   5.292   1.232
 4515SOL    HW214445   0.370   5.230   1.345
 4516SOL     OW14446   0.831   0.653   5.038
 4516SOL    HW114447   0.744   0.613   5.010
 4516SOL    HW214448   0.838   0.746   5.000
 4517SOL     OW14449   3.294   6.699   5.302
 4517SOL    HW114450   3.228   6.750   5.357
 4517SOL    HW214451   3.323   6.618   5.353
 4518SOL     OW14452   1.267   2.152   4.449
 4518SOL    HW114453   1.273   2.250   4.429
 4518SOL    HW214454   1.242   2.139   4.544
 4519SOL     OW14455   0.022   3.138   3.880
 4519SOL    HW114456   7.024   3.222   3.831
 4519SOL    HW214457   6.965   3.103   3.925
 4520SOL     OW14458   6.804   4.057   3.162
 4520SOL    HW114459   6.840   4.150   3.150
 4520SOL    HW214460   6.795   4.013   3.072
 4521SOL     OW14461   5.788   1.956   6.954
 4521SOL    HW114462   5.790   2.051   6.924
 4521SOL    HW214463   5.769   1.953   0.028
 4522SOL     OW14464   5.975   0.105   3.917
 4522SOL    HW114465   5.969   0.117   3.818
 4522SOL    HW214466   6.046   0.165   3.953
 4523SOL     OW14467   3.590   3.991   0.511
 4523SOL    HW114468   3.612   4.082   0.477
 4523SOL    HW214469   3.674   3.937   0.517
 4524SOL     OW14470   5.834   0.013   4.575
 4524SOL    HW114471   5.839   0.067   4.490
 4524SOL    HW214472   5.888   0.057   4.646
 4525SOL     OW14473   6.273   1.431   5.361
 4525SOL    HW114474   6.182   1.435   5.402
 4525SOL    HW214475   6.275   1.488   5.278
 4526SOL     OW14476   4.940   0.032   0.820
 4526SOL    HW114477   4.894   0.042   0.908
 4526SOL    HW214478   4.990   6.970   0.818
 4527SOL     OW14479   5.032   0.621   2.743
 4527SOL    HW114480   5.072   0.709   2.768
 4527SOL    HW214481   4.934   0.632   2.727
 4528SOL     OW14482   5.922   0.147   0.233
 4528SOL    HW114483   5.840   0.151   0.176
 4528SOL    HW214484   5.925   0.060   0.281
 4529SOL     OW14485   3.709   6.351   3.004
 4529SOL    HW114486   3.738   6.258   3.028
 4529SOL    HW214487   3.610   6.352   2.988
 4530SOL     OW14488   0.566   3.286   5.491
 4530SOL    HW114489   0.579   3.275   5.590
 4530SOL    HW214490   0.480   3.334   5.474
 4531SOL     OW14491   0.242   3.733   4.184
 4531SOL    HW114492   0.151   3.741   4.144
 4531SOL    HW214493   0.236   3.744   4.283
 4532SOL     OW14494   6.125   1.253   0.560
 4532SOL    HW114495   6.120   1.187   0.485
 4532SOL    HW214496   6.221   1.267   0.585
 4533SOL     OW14497   2.272   5.652   2.466
 4533SOL    HW114498   2.364   5.689   2.456
 4533SOL    HW214499   2.213   5.721   2.509
 4534SOL     OW14500   6.210   3.469   5.006
 4534SOL    HW114501   6.234   3.372   5.003
 4534SOL    HW214502   6.160   3.494   4.924
 4535SOL     OW14503   5.013   2.960   1.990
 4535SOL    HW114504   5.069   3.020   2.047
 4535SOL    HW214505   4.917   2.984   2.000
 4536SOL     OW14506   6.281   0.716   4.631
 4536SOL    HW114507   6.288   0.622   4.599
 4536SOL    HW214508   6.200   0.726   4.689
 4537SOL     OW14509   3.864   2.598   6.623
 4537SOL    HW114510   3.826   2.689   6.638
 4537SOL    HW214511   3.948   2.588   6.676
 4538SOL     OW14512   3.034   1.285   3.004
 4538SOL    HW114513   3.110   1.306   2.943
 4538SOL    HW214514   3.018   1.186   3.005
 4539SOL     OW14515   1.968   1.724   2.809
 4539SOL    HW114516   1.958   1.720   2.710
 4539SOL    HW214517   2.065   1.715   2.833
 4540SOL     OW14518   3.647   3.226   3.966
 4540SOL    HW114519   3.641   3.161   4.042
 4540SOL    HW214520   3.632   3.319   4.000
 4541SOL     OW14521   4.757   1.593   1.423
 4541SOL    HW114522   4.842   1.628   1.384
 4541SOL    HW214523   4.776   1.509   1.474
 4542SOL     OW14524   5.205   0.184   2.464
 4542SOL    HW114525   5.258   0.268   2.452
 4542SOL    HW214526   5.204   0.160   2.561
 4543SOL     OW14527   5.525   1.353   1.188
 4543SOL    HW114528   5.613   1.314   1.161
 4543SOL    HW214529   5.502   1.428   1.126
 4544SOL     OW14530   3.534   4.748   6.516
 4544SOL    HW114531   3.482   4.798   6.585
 4544SOL    HW214532   3.506   4.777   6.425
 4545SOL     OW14533   3.865   2.185   5.702
 4545SOL    HW114534   3.833   2.091   5.703
 4545SOL    HW214535   3.960   2.188   5.670
 4546SOL     OW14536   1.181   6.327   6.602
 4546SOL    HW114537   1.135   6.405   6.645
 4546SOL    HW214538   1.153   6.320   6.506
 4547SOL     OW14539   4.864   2.030   2.157
 4547SOL    HW114540   4.778   2.037   2.208
 4547SOL    HW214541   4.845   2.002   2.063
 4548SOL     OW14542   1.156   3.997   3.653
 4548SOL    HW114543   1.246   4.000   3.609
 4548SOL    HW214544   1.150   4.070   3.722
 4549SOL     OW14545   6.824   3.055   2.673
 4549SOL    HW114546   6.912   3.057   2.626
 4549SOL    HW214547   6.774   2.972   2.647
 4550SOL     OW14548   1.529   5.876   4.414
 4550SOL    HW114549   1.502   5.925   4.332
 4550SOL    HW214550   1.604   5.924   4.459
 4551SOL     OW14551   0.766   2.421   5.953
 4551SOL    HW114552   0.674   2.460   5.952
 4551SOL    HW214553   0.760   2.323   5.975
 4552SOL     OW14554   0.173   3.426   4.806
 4552SOL    HW114555   0.081   3.424   4.767
 4552SOL    HW214556   0.241   3.422   4.733
 4553SOL     OW14557   4.972   4.713   0.524
 4553SOL    HW114558   4.913   4.719   0.605
 4553SOL    HW214559   4.921   4.670   0.449
 4554SOL     OW14560   5.329   6.960   2.365
 4554SOL    HW114561   5.320   6.955   2.266
 4554SOL    HW214562   5.309   0.029   2.396
 4555SOL     OW14563   4.967   2.342   6.686
 4555SOL    HW114564   5.045   2.305   6.634
 4555SOL    HW214565   4.907   2.267   6.714
 4556SOL     OW14566   4.814   1.102   3.654
 4556SOL    HW114567   4.745   1.129   3.587
 4556SOL    HW214568   4.884   1.173   3.661
 4557SOL     OW14569   5.380   6.853   6.020
 4557SOL    HW114570   5.281   6.843   6.027
 4557SOL    HW214571   5.402   6.926   5.956
 4558SOL     OW14572   6.161   3.035   6.510
 4558SOL    HW114573   6.202   3.072   6.594
 4558SOL    HW214574   6.155   3.107   6.442
 4559SOL     OW14575   1.024   6.372   1.488
 4559SOL    HW114576   1.084   6.380   1.568
 4559SOL    HW214577   1.079   6.381   1.404
 4560SOL     OW14578   4.909   3.439   3.004
 4560SOL    HW114579   4.923   3.393   2.916
 4560SOL    HW214580   4.982   3.413   3.067
 4561SOL     OW14581   3.396   0.311   6.560
 4561SOL    HW114582   3.314   0.353   6.521
 4561SOL    HW214583   3.417   0.355   6.647
 4562SOL     OW14584   2.578   5.097   6.551
 4562SOL    HW114585   2.635   5.015   6.540
 4562SOL    HW214586   2.636   5.179   6.547
 4563SOL     OW14587   6.047   2.178   0.054
 4563SOL    HW114588   6.040   2.086   0.090
 4563SOL    HW214589   5.979   2.191   7.006
 4564SOL     OW14590   1.568   5.762   0.139
 4564SOL    HW114591   1.576   5.740   0.236
 4564SOL    HW214592   1.547   5.859   0.129
 4565SOL     OW14593   1.723   0.127   5.673
 4565SOL    HW114594   1.815   0.160   5.652
 4565SOL    HW214595   1.726   0.064   5.750
 4566SOL     OW14596   6.927   1.338   6.945
 4566SOL    HW114597   6.876   1.339   6.859
 4566SOL    HW214598   6.974   1.426   6.956
 4567SOL     OW14599   6.779   1.101   1.019
 4567SOL    HW114600   6.835   1.060   1.090
 4567SOL    HW214601   6.808   1.196   1.003
 4568SOL     OW14602   3.474   4.413   5.791
 4568SOL    HW114603   3.400   4.474   5.763
 4568SOL    HW214604   3.546   4.414   5.722
 4569SOL     OW14605   0.833   1.893   4.191
 4569SOL    HW114606   0.914   1.941   4.227
 4569SOL    HW214607   0.856   1.797   4.177
 4570SOL     OW14608   0.432   5.375   4.066
 4570SOL    HW114609   0.420   5.276   4.073
 4570SOL    HW214610   0.529   5.396   4.059
 4571SOL     OW14611   3.598   2.945   4.843
 4571SOL    HW114612   3.665   3.012   4.875
 4571SOL    HW214613   3.640   2.885   4.775
 4572SOL     OW14614   2.087   0.092   1.643
 4572SOL    HW114615   2.104   0.001   1.604
 4572SOL    HW214616   2.005   0.088   1.701
 4573SOL     OW14617   5.454   6.745   0.770
 4573SOL    HW114618   5.536   6.798   0.752
 4573SOL    HW214619   5.434   6.686   0.691
 4574SOL     OW14620   0.109   4.650   1.898
 4574SOL    HW114621   0.073   4.643   1.805
 4574SOL    HW214622   0.199   4.695   1.896
 4575SOL     OW14623   6.304   0.311   2.611
 4575SOL    HW114624   6.214   0.289   2.573
 4575SOL    HW214625   6.349   0.379   2.553
 4576SOL     OW14626   3.090   5.641   6.010
 4576SOL    HW114627   3.189   5.648   6.007
 4576SOL    HW214628   3.050   5.731   5.990
 4577SOL     OW14629   1.111   3.289   3.892
 4577SOL    HW114630   1.152   3.230   3.822
 4577SOL    HW214631   1.051   3.235   3.950
 4578SOL     OW14632   6.643   4.019   4.209
 4578SOL    HW114633   6.630   3.922   4.229
 4578SOL    HW214634   6.575   4.072   4.259
 4579SOL     OW14635   5.750   2.186   3.586
 4579SOL    HW114636   5.738   2.191   3.487
 4579SOL    HW214637   5.732   2.276   3.626
 4580SOL     OW14638   6.808   5.800   1.008
 4580SOL    HW114639   6.837   5.745   1.087
 4580SOL    HW214640   6.708   5.802   1.004
 4581SOL     OW14641   2.954   5.457   2.612
 4581SOL    HW114642   2.900   5.493   2.688
 4581SOL    HW214643   2.905   5.382   2.568
 4582SOL     OW14644   5.066   6.362   2.574
 4582SOL    HW114645   5.021   6.324   2.493
 4582SOL    HW214646   5.035   6.456   2.589
 4583SOL     OW14647   3.823   1.840   5.529
 4583SOL    HW114648   3.892   1.850   5.601
 4583SOL    HW214649   3.804   1.744   5.514
 4584SOL     OW14650   0.635   5.686   5.221
 4584SOL    HW114651   0.598   5.779   5.219
 4584SOL    HW214652   0.559   5.621   5.222
 4585SOL     OW14653   3.599   6.348   2.583
 4585SOL    HW114654   3.610   6.299   2.670
 4585SOL    HW214655   3.512   6.398   2.585
 4586SOL     OW14656   3.238   5.282   2.327
 4586SOL    HW114657   3.156   5.238   2.362
 4586SOL    HW214658   3.273   5.230   2.249
 4587SOL     OW14659   2.375   3.917   1.281
 4587SOL    HW114660   2.309   3.843   1.264
 4587SOL    HW214661   2.435   3.891   1.356
 4588SOL     OW14662   4.124   3.614   4.665
 4588SOL    HW114663   4.063   3.693   4.659
 4588SOL    HW214664   4.117   3.560   4.582
 4589SOL     OW14665   6.525   2.020   4.577
 4589SOL    HW114666   6.540   2.070   4.492
 4589SOL    HW214667   6.453   2.063   4.630
 4590SOL     OW14668   4.316   5.376   2.361
 4590SOL    HW114669   4.349   5.358   2.453
 4590SOL    HW214670   4.218   5.393   2.363
 4591SOL     OW14671   5.562   6.125   5.344
 4591SOL    HW114672   5.609   6.170   5.420
 4591SOL    HW214673   5.482   6.076   5.379
 4592SOL     OW14674   3.859   2.405   6.390
 4592SOL    HW114675   3.881   2.425   6.295
 4592SOL    HW214676   3.819   2.486   6.432
 4593SOL     OW14677   3.911   6.503   2.311
 4593SOL    HW114678   3.886   6.483   2.406
 4593SOL    HW214679   3.829   6.533   2.261
 4594SOL     OW14680   2.573   1.564   2.185
 4594SOL    HW114681   2.567   1.494   2.114
 4594SOL    HW214682   2.579   1.521   2.275
 4595SOL     OW14683   4.068   3.314   6.067
 4595SOL    HW114684   4.063   3.217   6.092
 4595SOL    HW214685   4.159   3.349   6.087
 4596SOL     OW14686   5.466   0.227   1.931
 4596SOL    HW114687   5.443   0.309   1.878
 4596SOL    HW214688   5.501   0.254   2.021
 4597SOL     OW14689   5.570   4.368   6.660
 4597SOL    HW114690   5.502   4.303   6.693
 4597SOL    HW214691   5.623   4.402   6.737
 4598SOL     OW14692   2.696   4.825   6.827
 4598SOL    HW114693   2.740   4.906   6.865
 4598SOL    HW214694   2.700   4.829   6.727
 4599SOL     OW14695   1.733   4.358   0.781
 4599SOL    HW114696   1.816   4.410   0.799
 4599SOL    HW214697   1.691   4.330   0.867
 4600SOL     OW14698   3.012   5.468   1.379
 4600SOL    HW114699   3.111   5.468   1.393
 4600SOL    HW214700   2.989   5.531   1.304
 4601SOL     OW14701   1.520   6.600   5.446
 4601SOL    HW114702   1.458   6.559   5.513
 4601SOL    HW214703   1.528   6.539   5.367
 4602SOL     OW14704   2.136   0.804   1.825
 4602SOL    HW114705   2.150   0.733   1.755
 4602SOL    HW214706   2.056   0.782   1.879
 4603SOL     OW14707   3.304   7.024   1.228
 4603SOL    HW114708   3.282   6.993   1.321
 4603SOL    HW214709   3.331   0.095   1.230
 4604SOL     OW14710   3.592   6.844   1.764
 4604SOL    HW114711   3.651   6.857   1.684
 4604SOL    HW214712   3.627   6.899   1.840
 4605SOL     OW14713   5.170   6.914   4.716
 4605SOL    HW114714   5.250   6.898   4.773
 4605SOL    HW214715   5.131   7.004   4.737
 4606SOL     OW14716   0.004   6.265   5.596
 4606SOL    HW114717   0.032   6.194   5.661
 4606SOL    HW214718   0.026   6.355   5.634
 4607SOL     OW14719   3.567   2.209   1.433
 4607SOL    HW114720   3.480   2.176   1.470
 4607SOL    HW214721   3.621   2.250   1.507
 4608SOL     OW14722   1.747   3.947   5.320
 4608SOL    HW114723   1.719   3.927   5.414
 4608SOL    HW214724   1.823   4.012   5.322
 4609SOL     OW14725   4.689   6.821   6.701
 4609SOL    HW114726   4.788   6.829   6.687
 4609SOL    HW214727   4.642   6.821   6.613
 4610SOL     OW14728   0.163   3.401   6.776
 4610SOL    HW114729   0.102   3.426   6.852
 4610SOL    HW214730   0.170   3.301   6.771
 4611SOL     OW14731   0.577   4.166   0.428
 4611SOL    HW114732   0.608   4.096   0.364
 4611SOL    HW214733   0.504   4.128   0.485
 4612SOL     OW14734   2.381   6.547   6.700
 4612SOL    HW114735   2.470   6.557   6.657
 4612SOL    HW214736   2.383   6.473   6.767
 4613SOL     OW14737   3.064   5.184   2.552
 4613SOL    HW114738   2.972   5.154   2.575
 4613SOL    HW214739   3.074   5.281   2.570
 4614SOL     OW14740   1.966   5.408   0.364
 4614SOL    HW114741   2.062   5.418   0.337
 4614SOL    HW214742   1.923   5.336   0.309
 4615SOL     OW14743   0.547   2.828   0.605
 4615SOL    HW114744   0.471   2.764   0.614
 4615SOL    HW214745   0.625   2.795   0.657
 4616SOL     OW14746   5.145   1.072   0.013
 4616SOL    HW114747   5.112   1.005   0.080
 4616SOL    HW214748   5.071   1.134   7.014
 4617SOL     OW14749   0.431   2.704   2.049
 4617SOL    HW114750   0.440   2.707   1.949
 4617SOL    HW214751   0.453   2.612   2.082
 4618SOL     OW14752   1.135   2.301   6.150
 4618SOL    HW114753   1.051   2.355   6.146
 4618SOL    HW214754   1.112   2.206   6.171
 4619SOL     OW14755   3.409   0.649   3.443
 4619SOL    HW114756   3.376   0.743   3.442
 4619SOL    HW214757   3.444   0.625   3.353
 4620SOL     OW14758   2.374   4.451   6.485
 4620SOL    HW114759   2.330   4.540   6.493
 4620SOL    HW214760   2.468   4.463   6.451
 4621SOL     OW14761   0.491   6.304   5.943
 4621SOL    HW114762   0.504   6.226   6.004
 4621SOL    HW214763   0.468   6.270   5.851
 4622SOL     OW14764   1.811   4.052   0.893
 4622SOL    HW114765   1.795   4.098   0.806
 4622SOL    HW214766   1.903   4.072   0.926
 4623SOL     OW14767   6.492   4.962   1.796
 4623SOL    HW114768   6.534   4.958   1.887
 4623SOL    HW214769   6.411   5.020   1.799
 4624SOL     OW14770   5.055   0.177   4.783
 4624SOL    HW114771   5.154   0.188   4.772
 4624SOL    HW214772   5.009   0.262   4.760
 4625SOL     OW14773   1.244   3.793   6.843
 4625SOL    HW114774   1.184   3.757   6.772
 4625SOL    HW214775   1.277   3.718   6.900
 4626SOL     OW14776   6.927   5.295   1.300
 4626SOL    HW114777   6.981   5.352   1.362
 4626SOL    HW214778   6.845   5.262   1.347
 4627SOL     OW14779   3.166   6.409   5.867
 4627SOL    HW114780   3.121   6.336   5.919
 4627SOL    HW214781   3.262   6.386   5.854
 4628SOL     OW14782   6.971   4.431   1.933
 4628SOL    HW114783   6.878   4.461   1.914
 4628SOL    HW214784   0.005   4.511   1.947
 4629SOL     OW14785   2.010   4.612   5.568
 4629SOL    HW114786   2.019   4.569   5.479
 4629SOL    HW214787   2.100   4.621   5.611
 4630SOL     OW14788   1.955   6.406   2.813
 4630SOL    HW114789   1.929   6.364   2.900
 4630SOL    HW214790   2.049   6.382   2.791
 4631SOL     OW14791   3.141   6.762   2.396
 4631SOL    HW114792   3.190   6.839   2.437
 4631SOL    HW214793   3.105   6.789   2.307
 4632SOL     OW14794   5.165   5.592   3.854
 4632SOL    HW114795   5.100   5.641   3.796
 4632SOL    HW214796   5.156   5.623   3.948
 4633SOL     OW14797   6.343   1.998   4.838
 4633SOL    HW114798   6.338   2.087   4.792
 4633SOL    HW214799   6.262   1.984   4.894
 4634SOL     OW14800   3.264   4.436   0.564
 4634SOL    HW114801   3.179   4.388   0.542
 4634SOL    HW214802   3.246   4.510   0.627
 4635SOL     OW14803   5.032   3.800   1.644
 4635SOL    HW114804   5.050   3.805   1.742
 4635SOL    HW214805   5.046   3.890   1.603
 4636SOL     OW14806   2.577   5.409   0.552
 4636SOL    HW114807   2.505   5.478   0.555
 4636SOL    HW214808   2.577   5.356   0.636
 4637SOL     OW14809   1.311   1.523   5.211
 4637SOL    HW114810   1.324   1.492   5.118
 4637SOL    HW214811   1.400   1.530   5.257
 4638SOL     OW14812   5.542   3.459   5.641
 4638SOL    HW114813   5.456   3.453   5.590
 4638SOL    HW214814   5.619   3.449   5.578
 4639SOL     OW14815   0.169   3.823   5.394
 4639SOL    HW114816   0.195   3.831   5.297
 4639SOL    HW214817   0.245   3.782   5.445
 4640SOL     OW14818   5.391   4.010   2.602
 4640SOL    HW114819   5.467   4.063   2.565
 4640SOL    HW214820   5.307   4.034   2.554
 4641SOL     OW14821   2.237   5.410   5.371
 4641SOL    HW114822   2.332   5.401   5.402
 4641SOL    HW214823   2.200   5.497   5.403
 4642SOL     OW14824   6.000   6.130   4.550
 4642SOL    HW114825   5.950   6.211   4.519
 4642SOL    HW214826   5.998   6.061   4.478
 4643SOL     OW14827   3.928   2.178   1.852
 4643SOL    HW114828   3.999   2.220   1.908
 4643SOL    HW214829   3.838   2.214   1.878
 4644SOL     OW14830   2.336   5.863   5.309
 4644SOL    HW114831   2.412   5.802   5.331
 4644SOL    HW214832   2.341   5.889   5.212
 4645SOL     OW14833   2.142   5.938   4.600
 4645SOL    HW114834   2.121   5.847   4.564
 4645SOL    HW214835   2.228   5.935   4.652
 4646SOL     OW14836   4.036   0.796   1.689
 4646SOL    HW114837   4.061   0.780   1.785
 4646SOL    HW214838   3.936   0.791   1.680
 4647SOL     OW14839   6.170   0.301   4.022
 4647SOL    HW114840   6.211   0.350   4.099
 4647SOL    HW214841   6.206   0.337   3.936
 4648SOL     OW14842   2.383   5.876   2.774
 4648SOL    HW114843   2.455   5.945   2.763
 4648SOL    HW214844   2.321   5.882   2.696
 4649SOL     OW14845   4.971   0.837   6.180
 4649SOL    HW114846   4.995   0.878   6.092
 4649SOL    HW214847   5.009   0.745   6.186
 4650SOL     OW14848   5.954   4.578   2.493
 4650SOL    HW114849   5.855   4.583   2.485
 4650SOL    HW214850   5.996   4.595   2.404
 4651SOL     OW14851   0.255   2.293   1.988
 4651SOL    HW114852   0.225   2.382   2.021
 4651SOL    HW214853   0.282   2.300   1.892
 4652SOL     OW14854   6.919   6.549   5.787
 4652SOL    HW114855   7.017   6.542   5.802
 4652SOL    HW214856   6.875   6.462   5.809
 4653SOL     OW14857   0.290   6.174   6.902
 4653SOL    HW114858   0.352   6.194   6.977
 4653SOL    HW214859   0.205   6.226   6.913
 4654SOL     OW14860   1.184   1.074   6.954
 4654SOL    HW114861   1.252   1.146   6.940
 4654SOL    HW214862   1.205   0.996   6.895
 4655SOL     OW14863   0.028   4.826   3.249
 4655SOL    HW114864   6.957   4.819   3.220
 4655SOL    HW214865   0.085   4.855   3.171
 4656SOL     OW14866   2.000   6.699   3.526
 4656SOL    HW114867   2.006   6.640   3.445
 4656SOL    HW214868   2.029   6.792   3.501
 4657SOL     OW14869   5.348   0.209   0.698
 4657SOL    HW114870   5.376   0.171   0.610
 4657SOL    HW214871   5.386   0.153   0.772
 4658SOL     OW14872   5.250   0.527   3.483
 4658SOL    HW114873   5.337   0.569   3.455
 4658SOL    HW214874   5.224   0.563   3.573
 4659SOL     OW14875   1.642   2.671   5.113
 4659SOL    HW114876   1.675   2.595   5.170
 4659SOL    HW214877   1.703   2.749   5.123
 4660SOL     OW14878   0.031   0.669   6.064
 4660SOL    HW114879   7.008   0.755   6.079
 4660SOL    HW214880   0.127   0.688   6.041
 4661SOL     OW14881   3.698   4.162   4.585
 4661SOL    HW114882   3.724   4.142   4.490
 4661SOL    HW214883   3.613   4.114   4.608
 4662SOL     OW14884   5.008   0.073   5.169
 4662SOL    HW114885   4.936   0.057   5.102
 4662SOL    HW214886   5.005   0.002   5.240
 4663SOL     OW14887   0.305   2.265   2.829
 4663SOL    HW114888   0.330   2.287   2.735
 4663SOL    HW214889   0.268   2.347   2.873
 4664SOL     OW14890   2.943   2.272   6.891
 4664SOL    HW114891   2.859   2.324   6.906
 4664SOL    HW214892   2.920   2.179   6.862
 4665SOL     OW14893   5.237   0.564   0.277
 4665SOL    HW114894   5.159   0.502   0.283
 4665SOL    HW214895   5.296   0.550   0.356
 4666SOL     OW14896   2.174   1.281   0.572
 4666SOL    HW114897   2.176   1.368   0.521
 4666SOL    HW214898   2.079   1.259   0.596
 4667SOL     OW14899   0.549   5.290   6.202
 4667SOL    HW114900   0.504   5.379   6.201
 4667SOL    HW214901   0.648   5.302   6.204
 4668SOL     OW14902   6.721   1.719   4.075
 4668SOL    HW114903   6.669   1.633   4.076
 4668SOL    HW214904   6.818   1.698   4.067
 4669SOL     OW14905   1.634   0.240   0.336
 4669SOL    HW114906   1.588   0.236   0.424
 4669SOL    HW214907   1.655   0.148   0.304
 4670SOL     OW14908   2.240   1.973   4.079
 4670SOL    HW114909   2.173   1.902   4.098
 4670SOL    HW214910   2.322   1.956   4.133
 4671SOL     OW14911   5.879   3.565   1.311
 4671SOL    HW114912   5.876   3.489   1.376
 4671SOL    HW214913   5.908   3.531   1.222
 4672SOL     OW14914   1.583   3.781   5.957
 4672SOL    HW114915   1.541   3.742   6.039
 4672SOL    HW214916   1.565   3.880   5.955
 4673SOL     OW14917   4.106   0.922   2.782
 4673SOL    HW114918   4.132   0.861   2.707
 4673SOL    HW214919   4.011   0.904   2.808
 4674SOL     OW14920   4.332   5.586   5.840
 4674SOL    HW114921   4.334   5.658   5.908
 4674SOL    HW214922   4.243   5.540   5.843
 4675SOL     OW14923   1.024   4.035   0.186
 4675SOL    HW114924   1.111   3.997   0.156
 4675SOL    HW214925   0.951   3.970   0.166
 4676SOL     OW14926   1.241   5.722   3.731
 4676SOL    HW114927   1.233   5.750   3.636
 4676SOL    HW214928   1.283   5.631   3.736
 4677SOL     OW14929   1.686   2.807   0.115
 4677SOL    HW114930   1.732   2.815   0.204
 4677SOL    HW214931   1.609   2.745   0.123
 4678SOL     OW14932   2.342   5.013   2.576
 4678SOL    HW114933   2.431   4.968   2.577
 4678SOL    HW214934   2.270   4.947   2.597
 4679SOL     OW14935   5.106   0.184   1.724
 4679SOL    HW114936   5.017   0.146   1.699
 4679SOL    HW214937   5.134   0.252   1.655
 4680SOL     OW14938   2.038   1.320   1.491
 4680SOL    HW114939   2.061   1.256   1.565
 4680SOL    HW214940   2.122   1.361   1.455
 4681SOL     OW14941   5.382   4.439   1.205
 4681SOL    HW114942   5.386   4.444   1.305
 4681SOL    HW214943   5.469   4.468   1.167
 4682SOL     OW14944   3.954   3.329   6.789
 4682SOL    HW114945   4.011   3.327   6.871
 4682SOL    HW214946   4.002   3.376   6.715
 4683SOL     OW14947   6.464   4.226   3.368
 4683SOL    HW114948   6.446   4.324   3.357
 4683SOL    HW214949   6.528   4.212   3.443
 4684SOL     OW14950   4.918   6.451   0.027
 4684SOL    HW114951   4.834   6.479   0.073
 4684SOL    HW214952   4.992   6.444   0.095
 4685SOL     OW14953   2.591   3.334   5.958
 4685SOL    HW114954   2.572   3.425   5.923
 4685SOL    HW214955   2.564   3.265   5.890
 4686SOL     OW14956   2.881   5.955   0.445
 4686SOL    HW114957   2.937   5.904   0.380
 4686SOL    HW214958   2.819   6.016   0.395
 4687SOL     OW14959   3.045   0.645   2.876
 4687SOL    HW114960   3.003   0.735   2.875
 4687SOL    HW214961   3.081   0.624   2.785
 4688SOL     OW14962   5.851   3.374   5.835
 4688SOL    HW114963   5.809   3.312   5.769
 4688SOL    HW214964   5.789   3.450   5.853
 4689SOL     OW14965   5.683   1.011   1.300
 4689SOL    HW114966   5.694   1.101   1.342
 4689SOL    HW214967   5.770   0.983   1.258
 4690SOL     OW14968   2.741   1.602   0.512
 4690SOL    HW114969   2.656   1.599   0.458
 4690SOL    HW214970   2.807   1.662   0.468
 4691SOL     OW14971   0.019   4.254   1.723
 4691SOL    HW114972   7.004   4.302   1.802
 4691SOL    HW214973   0.114   4.284   1.710
 4692SOL     OW14974   6.237   3.935   2.895
 4692SOL    HW114975   6.253   3.836   2.886
 4692SOL    HW214976   6.212   3.973   2.806
 4693SOL     OW14977   2.107   0.882   3.674
 4693SOL    HW114978   2.031   0.905   3.734
 4693SOL    HW214979   2.192   0.916   3.714
 4694SOL     OW14980   2.229   1.668   6.741
 4694SOL    HW114981   2.134   1.676   6.770
 4694SOL    HW214982   2.276   1.755   6.753
 4695SOL     OW14983   1.004   6.303   1.794
 4695SOL    HW114984   0.990   6.392   1.836
 4695SOL    HW214985   0.939   6.290   1.719
 4696SOL     OW14986   1.174   4.950   5.784
 4696SOL    HW114987   1.241   5.009   5.829
 4696SOL    HW214988   1.141   4.995   5.701
 4697SOL     OW14989   3.247   5.193   0.662
 4697SOL    HW114990   3.306   5.112   0.660
 4697SOL    HW214991   3.248   5.238   0.573
 4698SOL     OW14992   5.765   1.318   3.150
 4698SOL    HW114993   5.809   1.308   3.061
 4698SOL    HW214994   5.763   1.230   3.197
 4699SOL     OW14995   1.113   0.038   2.971
 4699SOL    HW114996   1.025   0.011   2.932
 4699SOL    HW214997   1.151   0.114   2.918
 4700SOL     OW14998   5.840   2.289   2.747
 4700SOL    HW114999   5.800   2.214   2.800
 4700SOL    HW215000   5.846   2.371   2.804
 4701SOL     OW15001   3.358   1.793   1.867
 4701SOL    HW115002   3.389   1.873   1.919
 4701SOL    HW215003   3.267   1.766   1.900
 4702SOL     OW15004   5.148   4.834   6.413
 4702SOL    HW115005   5.141   4.852   6.511
 4702SOL    HW215006   5.219   4.892   6.374
 4703SOL     OW15007   1.038   4.997   3.497
 4703SOL    HW115008   1.074   5.023   3.587
 4703SOL    HW215009   1.115   4.979   3.435
 4704SOL     OW15010   0.970   4.851   5.327
 4704SOL    HW115011   0.948   4.876   5.233
 4704SOL    HW215012   0.891   4.808   5.370
 4705SOL     OW15013   3.348   2.639   1.563
 4705SOL    HW115014   3.250   2.656   1.570
 4705SOL    HW215015   3.369   2.593   1.477
 4706SOL     OW15016   1.742   0.665   0.533
 4706SOL    HW115017   1.841   0.656   0.522
 4706SOL    HW215018   1.699   0.577   0.511
 4707SOL     OW15019   1.905   6.658   1.296
 4707SOL    HW115020   1.960   6.668   1.379
 4707SOL    HW215021   1.893   6.747   1.253
 4708SOL     OW15022   0.484   3.061   4.096
 4708SOL    HW115023   0.534   3.143   4.123
 4708SOL    HW215024   0.394   3.060   4.140
 4709SOL     OW15025   4.734   3.748   5.384
 4709SOL    HW115026   4.702   3.838   5.355
 4709SOL    HW215027   4.766   3.697   5.304
 4710SOL     OW15028   6.007   6.326   4.177
 4710SOL    HW115029   5.951   6.407   4.161
 4710SOL    HW215030   6.045   6.294   4.089
 4711SOL     OW15031   6.110   3.339   3.070
 4711SOL    HW115032   6.195   3.342   3.123
 4711SOL    HW215033   6.085   3.243   3.053
 4712SOL     OW15034   4.539   4.082   5.388
 4712SOL    HW115035   4.445   4.049   5.384
 4712SOL    HW215036   4.591   4.045   5.311
 4713SOL     OW15037   5.734   4.448   1.216
 4713SOL    HW115038   5.815   4.390   1.207
 4713SOL    HW215039   5.697   4.467   1.126
 4714SOL     OW15040   5.701   0.835   5.802
 4714SOL    HW115041   5.758   0.873   5.730
 4714SOL    HW215042   5.685   0.904   5.873
 4715SOL     OW15043   6.082   1.245   1.525
 4715SOL    HW115044   6.164   1.202   1.561
 4715SOL    HW215045   6.103   1.338   1.494
 4716SOL     OW15046   4.005   4.145   5.660
 4716SOL    HW115047   4.055   4.121   5.576
 4716SOL    HW215048   3.914   4.104   5.658
 4717SOL     OW15049   2.745   5.340   5.279
 4717SOL    HW115050   2.743   5.396   5.196
 4717SOL    HW215051   2.787   5.252   5.258
 4718SOL     OW15052   4.801   4.342   0.904
 4718SOL    HW115053   4.809   4.322   0.806
 4718SOL    HW215054   4.714   4.306   0.938
 4719SOL     OW15055   6.806   3.777   3.836
 4719SOL    HW115056   6.897   3.738   3.854
 4719SOL    HW215057   6.752   3.711   3.783
 4720SOL     OW15058   2.755   4.018   6.531
 4720SOL    HW115059   2.672   3.967   6.508
 4720SOL    HW215060   2.731   4.111   6.557
 4721SOL     OW15061   6.616   3.760   2.846
 4721SOL    HW115062   6.545   3.754   2.775
 4721SOL    HW215063   6.582   3.720   2.931
 4722SOL     OW15064   1.608   4.614   6.880
 4722SOL    HW115065   1.693   4.660   6.853
 4722SOL    HW215066   1.598   4.618   6.979
 4723SOL     OW15067   3.975   3.955   6.710
 4723SOL    HW115068   4.013   3.938   6.800
 4723SOL    HW215069   3.880   3.925   6.707
 4724SOL     OW15070   1.394   6.865   4.800
 4724SOL    HW115071   1.429   6.807   4.874
 4724SOL    HW215072   1.319   6.819   4.754
 4725SOL     OW15073   5.645   6.036   0.310
 4725SOL    HW115074   5.590   5.954   0.325
 4725SOL    HW215075   5.712   6.045   0.383
 4726SOL     OW15076   1.389   3.129   5.311
 4726SOL    HW115077   1.357   3.041   5.277
 4726SOL    HW215078   1.315   3.174   5.361
 4727SOL     OW15079   0.979   5.454   0.318
 4727SOL    HW115080   1.009   5.517   0.247
 4727SOL    HW215081   1.011   5.486   0.407
 4728SOL     OW15082   6.541   1.079   4.216
 4728SOL    HW115083   6.578   1.040   4.300
 4728SOL    HW215084   6.459   1.132   4.236
 4729SOL     OW15085   6.368   0.918   0.910
 4729SOL    HW115086   6.353   0.966   0.824
 4729SOL    HW215087   6.301   0.843   0.918
 4730SOL     OW15088   3.420   0.402   4.920
 4730SOL    HW115089   3.347   0.468   4.905
 4730SOL    HW215090   3.509   0.447   4.910
 4731SOL     OW15091   3.318   0.819   0.676
 4731SOL    HW115092   3.252   0.780   0.740
 4731SOL    HW215093   3.372   0.745   0.635
 4732SOL     OW15094   0.507   4.335   4.394
 4732SOL    HW115095   0.491   4.434   4.395
 4732SOL    HW215096   0.600   4.316   4.426
 4733SOL     OW15097   2.134   3.669   3.199
 4733SOL    HW115098   2.159   3.603   3.270
 4733SOL    HW215099   2.136   3.624   3.110
 4734SOL     OW15100   4.995   4.060   6.661
 4734SOL    HW115101   4.901   4.029   6.648
 4734SOL    HW215102   5.043   3.997   6.722
 4735SOL     OW15103   0.059   7.004   4.693
 4735SOL    HW115104   0.120   6.926   4.675
 4735SOL    HW215105   6.998   6.990   4.642
 4736SOL     OW15106   6.292   1.706   3.284
 4736SOL    HW115107   6.383   1.746   3.293
 4736SOL    HW215108   6.256   1.683   3.374
 4737SOL     OW15109   2.251   4.698   1.230
 4737SOL    HW115110   2.274   4.617   1.283
 4737SOL    HW215111   2.166   4.738   1.265
 4738SOL     OW15112   2.071   6.655   4.068
 4738SOL    HW115113   2.058   6.654   3.968
 4738SOL    HW215114   2.055   6.564   4.104
 4739SOL     OW15115   5.588   3.230   3.908
 4739SOL    HW115116   5.569   3.196   4.000
 4739SOL    HW215117   5.686   3.248   3.899
 4740SOL     OW15118   0.367   0.885   1.306
 4740SOL    HW115119   0.332   0.926   1.390
 4740SOL    HW215120   0.339   0.940   1.227
 4741SOL     OW15121   4.537   4.817   1.662
 4741SOL    HW115122   4.575   4.801   1.753
 4741SOL    HW215123   4.437   4.812   1.667
 4742SOL     OW15124   2.956   6.424   1.573
 4742SOL    HW115125   2.970   6.325   1.580
 4742SOL    HW215126   2.967   6.452   1.478
 4743SOL     OW15127   2.426   2.306   0.318
 4743SOL    HW115128   2.333   2.336   0.339
 4743SOL    HW215129   2.466   2.264   0.399
 4744SOL     OW15130   1.847   3.165   5.502
 4744SOL    HW115131   1.859   3.167   5.602
 4744SOL    HW215132   1.772   3.227   5.477
 4745SOL     OW15133   3.007   6.059   5.083
 4745SOL    HW115134   3.062   6.111   5.017
 4745SOL    HW215135   2.927   6.112   5.110
 4746SOL     OW15136   6.801   0.083   0.702
 4746SOL    HW115137   6.838   0.167   0.744
 4746SOL    HW215138   6.773   0.103   0.608
 4747SOL     OW15139   6.152   2.498   0.832
 4747SOL    HW115140   6.204   2.561   0.890
 4747SOL    HW215141   6.077   2.459   0.886
 4748SOL     OW15142   1.753   1.223   1.411
 4748SOL    HW115143   1.793   1.157   1.348
 4748SOL    HW215144   1.796   1.312   1.398
 4749SOL     OW15145   1.416   6.614   6.783
 4749SOL    HW115146   1.504   6.614   6.736
 4749SOL    HW215147   1.363   6.693   6.754
 4750SOL     OW15148   0.040   0.483   4.763
 4750SOL    HW115149   0.117   0.533   4.723
 4750SOL    HW215150   0.053   0.477   4.862
 4751SOL     OW15151   1.373   4.188   6.648
 4751SOL    HW115152   1.390   4.165   6.552
 4751SOL    HW215153   1.409   4.115   6.707
 4752SOL     OW15154   3.066   5.905   1.659
 4752SOL    HW115155   3.087   5.908   1.757
 4752SOL    HW215156   3.142   5.861   1.610
 4753SOL     OW15157   5.687   6.626   5.078
 4753SOL    HW115158   5.723   6.534   5.093
 4753SOL    HW215159   5.588   6.625   5.090
 4754SOL     OW15160   0.502   0.452   5.871
 4754SOL    HW115161   0.444   0.487   5.797
 4754SOL    HW215162   0.511   0.353   5.862
 4755SOL     OW15163   2.376   1.374   6.381
 4755SOL    HW115164   2.282   1.343   6.369
 4755SOL    HW215165   2.394   1.450   6.318
 4756SOL     OW15166   4.881   2.845   1.296
 4756SOL    HW115167   4.978   2.857   1.279
 4756SOL    HW215168   4.862   2.749   1.318
 4757SOL     OW15169   2.005   2.346   1.358
 4757SOL    HW115170   1.908   2.356   1.335
 4757SOL    HW215171   2.049   2.284   1.293
 4758SOL     OW15172   5.086   5.138   5.207
 4758SOL    HW115173   5.157   5.103   5.268
 4758SOL    HW215174   5.051   5.064   5.150
 4759SOL     OW15175   5.337   5.395   6.044
 4759SOL    HW115176   5.369   5.300   6.036
 4759SOL    HW215177   5.257   5.407   5.985
 4760SOL     OW15178   1.747   1.668   1.558
 4760SOL    HW115179   1.754   1.623   1.647
 4760SOL    HW215180   1.667   1.729   1.558
 4761SOL     OW15181   0.176   0.071   6.737
 4761SOL    HW115182   0.237   0.098   6.662
 4761SOL    HW215183   0.204   0.118   6.821
 4762SOL     OW15184   1.992   5.556   1.814
 4762SOL    HW115185   2.049   5.474   1.817
 4762SOL    HW215186   2.049   5.635   1.792
 4763SOL     OW15187   6.112   6.014   3.626
 4763SOL    HW115188   6.194   6.070   3.626
 4763SOL    HW215189   6.116   5.948   3.700
 4764SOL     OW15190   3.801   3.281   4.362
 4764SOL    HW115191   3.876   3.216   4.348
 4764SOL    HW215192   3.726   3.235   4.410
 4765SOL     OW15193   5.176   5.991   4.753
 4765SOL    HW115194   5.079   6.018   4.745
 4765SOL    HW215195   5.189   5.903   4.708
 4766SOL     OW15196   2.769   0.137   3.245
 4766SOL    HW115197   2.773   0.135   3.145
 4766SOL    HW215198   2.830   0.067   3.282
 4767SOL     OW15199   4.179   6.275   6.684
 4767SOL    HW115200   4.272   6.243   6.700
 4767SOL    HW215201   4.171   6.371   6.711
 4768SOL     OW15202   6.776   0.753   5.482
 4768SOL    HW115203   6.751   0.664   5.442
 4768SOL    HW215204   6.784   0.821   5.409
 4769SOL     OW15205   4.087   6.970   1.420
 4769SOL    HW115206   4.012   0.006   1.445
 4769SOL    HW215207   4.090   6.960   1.321
 4770SOL     OW15208   2.794   0.720   3.297
 4770SOL    HW115209   2.794   0.625   3.266
 4770SOL    HW215210   2.830   0.725   3.390
 4771SOL     OW15211   4.081   4.141   5.365
 4771SOL    HW115212   4.164   4.093   5.337
 4771SOL    HW215213   4.004   4.113   5.307
 4772SOL     OW15214   2.643   2.205   1.648
 4772SOL    HW115215   2.678   2.172   1.737
 4772SOL    HW215216   2.690   2.289   1.623
 4773SOL     OW15217   0.186   6.045   3.630
 4773SOL    HW115218   0.165   5.952   3.600
 4773SOL    HW215219   0.202   6.104   3.551
 4774SOL     OW15220   0.501   3.853   1.387
 4774SOL    HW115221   0.522   3.870   1.290
 4774SOL    HW215222   0.586   3.853   1.440
 4775SOL     OW15223   4.229   0.249   2.579
 4775SOL    HW115224   4.271   0.167   2.617
 4775SOL    HW215225   4.134   0.256   2.609
 4776SOL     OW15226   3.079   5.563   2.235
 4776SOL    HW115227   3.025   5.483   2.261
 4776SOL    HW215228   3.167   5.561   2.283
 4777SOL     OW15229   2.924   3.905   1.020
 4777SOL    HW115230   2.995   3.935   1.083
 4777SOL    HW215231   2.852   3.858   1.071
 4778SOL     OW15232   4.749   4.284   2.037
 4778SOL    HW115233   4.793   4.274   1.947
 4778SOL    HW215234   4.650   4.284   2.026
 4779SOL     OW15235   5.766   0.614   2.838
 4779SOL    HW115236   5.758   0.692   2.900
 4779SOL    HW215237   5.689   0.553   2.852
 4780SOL     OW15238   0.679   6.796   6.683
 4780SOL    HW115239   0.733   6.712   6.678
 4780SOL    HW215240   0.691   6.839   6.773
 4781SOL     OW15241   2.596   5.403   1.468
 4781SOL    HW115242   2.545   5.319   1.487
 4781SOL    HW215243   2.547   5.481   1.506
 4782SOL     OW15244   5.573   6.107   6.435
 4782SOL    HW115245   5.611   6.030   6.382
 4782SOL    HW215246   5.648   6.169   6.461
 4783SOL     OW15247   5.575   4.495   0.992
 4783SOL    HW115248   5.567   4.415   0.933
 4783SOL    HW215249   5.608   4.573   0.938
 4784SOL     OW15250   5.593   4.860   4.519
 4784SOL    HW115251   5.623   4.935   4.578
 4784SOL    HW215252   5.556   4.898   4.433
 4785SOL     OW15253   6.996   6.744   1.772
 4785SOL    HW115254   7.022   6.695   1.689
 4785SOL    HW215255   6.980   6.679   1.846
 4786SOL     OW15256   1.885   3.282   2.004
 4786SOL    HW115257   1.880   3.273   2.103
 4786SOL    HW215258   1.930   3.369   1.981
 4787SOL     OW15259   3.040   2.149   3.132
 4787SOL    HW115260   2.976   2.212   3.090
 4787SOL    HW215261   3.091   2.100   3.061
 4788SOL     OW15262   1.192   5.303   4.206
 4788SOL    HW115263   1.109   5.311   4.151
 4788SOL    HW215264   1.242   5.220   4.179
 4789SOL     OW15265   5.897   0.626   0.178
 4789SOL    HW115266   5.936   0.543   0.215
 4789SOL    HW215267   5.952   0.658   0.101
 4790SOL     OW15268   5.546   2.436   6.431
 4790SOL    HW115269   5.636   2.469   6.460
 4790SOL    HW215270   5.487   2.426   6.511
 4791SOL     OW15271   5.634   6.998   2.153
 4791SOL    HW115272   5.693   0.030   2.211
 4791SOL    HW215273   5.649   6.901   2.175
 4792SOL     OW15274   2.065   2.597   2.395
 4792SOL    HW115275   2.131   2.652   2.447
 4792SOL    HW215276   2.114   2.541   2.328
 4793SOL     OW15277   1.127   6.743   6.388
 4793SOL    HW115278   1.064   6.666   6.383
 4793SOL    HW215279   1.107   6.797   6.470
 4794SOL     OW15280   2.820   0.514   2.405
 4794SOL    HW115281   2.831   0.477   2.498
 4794SOL    HW215282   2.723   0.513   2.380
 4795SOL     OW15283   6.527   2.970   4.054
 4795SOL    HW115284   6.432   2.948   4.032
 4795SOL    HW215285   6.530   3.019   4.141
 4796SOL     OW15286   5.847   4.632   0.960
 4796SOL    HW115287   5.829   4.687   0.878
 4796SOL    HW215288   5.920   4.675   1.014
 4797SOL     OW15289   0.366   4.567   5.225
 4797SOL    HW115290   0.460   4.584   5.255
 4797SOL    HW215291   0.340   4.634   5.156
 4798SOL     OW15292   6.819   4.420   4.240
 4798SOL    HW115293   6.864   4.509   4.231
 4798SOL    HW215294   6.721   4.434   4.252
 4799SOL     OW15295   4.372   1.502   5.099
 4799SOL    HW115296   4.281   1.541   5.109
 4799SOL    HW215297   4.366   1.402   5.100
 4800SOL     OW15298   1.965   2.459   5.079
 4800SOL    HW115299   2.064   2.446   5.083
 4800SOL    HW215300   1.937   2.521   5.152
 4801SOL     OW15301   0.964   1.908   0.978
 4801SOL    HW115302   0.997   1.887   0.886
 4801SOL    HW215303   0.903   1.836   1.010
 4802SOL     OW15304   2.902   0.371   1.886
 4802SOL    HW115305   2.883   0.347   1.791
 4802SOL    HW215306   2.922   0.287   1.938
 4803SOL     OW15307   1.289   0.059   0.464
 4803SOL    HW115308   1.263   0.150   0.434
 4803SOL    HW215309   1.329   0.063   0.555
 4804SOL     OW15310   3.895   5.207   6.753
 4804SOL    HW115311   3.978   5.239   6.709
 4804SOL    HW215312   3.861   5.125   6.706
 4805SOL     OW15313   6.711   1.812   1.004
 4805SOL    HW115314   6.657   1.733   1.035
 4805SOL    HW215315   6.727   1.873   1.082
 4806SOL     OW15316   0.802   2.876   3.103
 4806SOL    HW115317   0.812   2.970   3.135
 4806SOL    HW215318   0.843   2.868   3.012
 4807SOL     OW15319   0.222   6.812   1.184
 4807SOL    HW115320   0.189   6.729   1.141
 4807SOL    HW215321   0.315   6.798   1.218
 4808SOL     OW15322   5.064   3.102   1.125
 4808SOL    HW115323   4.998   3.120   1.053
 4808SOL    HW215324   5.102   3.010   1.113
 4809SOL     OW15325   3.642   5.309   6.751
 4809SOL    HW115326   3.626   5.367   6.672
 4809SOL    HW215327   3.740   5.286   6.757
 4810SOL     OW15328   0.765   6.984   1.318
 4810SOL    HW115329   0.762   6.903   1.259
 4810SOL    HW215330   0.819   0.031   1.274
 4811SOL     OW15331   3.702   5.218   2.170
 4811SOL    HW115332   3.793   5.224   2.211
 4811SOL    HW215333   3.641   5.167   2.231
 4812SOL     OW15334   0.065   5.742   4.244
 4812SOL    HW115335   0.124   5.768   4.321
 4812SOL    HW215336   0.119   5.739   4.160
 4813SOL     OW15337   5.242   2.296   2.726
 4813SOL    HW115338   5.146   2.303   2.699
 4813SOL    HW215339   5.295   2.259   2.650
 4814SOL     OW15340   0.012   3.843   1.291
 4814SOL    HW115341   0.030   3.927   1.240
 4814SOL    HW215342   0.079   3.773   1.265
 4815SOL     OW15343   4.654   6.183   1.089
 4815SOL    HW115344   4.750   6.205   1.075
 4815SOL    HW215345   4.600   6.267   1.086
 4816SOL     OW15346   5.270   5.161   3.150
 4816SOL    HW115347   5.341   5.206   3.096
 4816SOL    HW215348   5.187   5.151   3.096
 4817SOL     OW15349   1.093   2.656   6.341
 4817SOL    HW115350   1.032   2.720   6.294
 4817SOL    HW215351   1.050   2.566   6.345
 4818SOL     OW15352   0.260   0.147   3.874
 4818SOL    HW115353   0.356   0.164   3.849
 4818SOL    HW215354   0.205   0.137   3.791
 4819SOL     OW15355   1.295   3.353   0.834
 4819SOL    HW115356   1.248   3.399   0.910
 4819SOL    HW215357   1.387   3.390   0.824
 4820SOL     OW15358   0.094   2.985   1.892
 4820SOL    HW115359   0.050   2.895   1.895
 4820SOL    HW215360   0.191   2.976   1.913
 4821SOL     OW15361   6.959   5.791   2.529
 4821SOL    HW115362   6.916   5.870   2.573
 4821SOL    HW215363   0.012   5.822   2.474
 4822SOL     OW15364   1.467   3.719   4.435
 4822SOL    HW115365   1.401   3.749   4.366
 4822SOL    HW215366   1.484   3.621   4.424
 4823SOL     OW15367   2.167   2.855   2.038
 4823SOL    HW115368   2.162   2.953   2.024
 4823SOL    HW215369   2.122   2.808   1.962
 4824SOL     OW15370   5.972   1.476   5.479
 4824SOL    HW115371   5.929   1.393   5.446
 4824SOL    HW215372   6.045   1.452   5.544
 4825SOL     OW15373   1.731   6.691   4.114
 4825SOL    HW115374   1.640   6.719   4.144
 4825SOL    HW215375   1.800   6.749   4.157
 4826SOL     OW15376   4.535   0.579   1.757
 4826SOL    HW115377   4.522   0.676   1.776
 4826SOL    HW215378   4.564   0.532   1.841
 4827SOL     OW15379   0.022   1.637   1.239
 4827SOL    HW115380   6.975   1.577   1.203
 4827SOL    HW215381   0.074   1.675   1.162
 4828SOL     OW15382   4.648   0.544   3.581
 4828SOL    HW115383   4.566   0.521   3.632
 4828SOL    HW215384   4.691   0.625   3.622
 4829SOL     OW15385   3.936   6.924   5.223
 4829SOL    HW115386   3.946   6.935   5.322
 4829SOL    HW215387   3.875   6.995   5.188
 4830SOL     OW15388   2.866   5.771   3.244
 4830SOL    HW115389   2.935   5.763   3.173
 4830SOL    HW215390   2.805   5.847   3.224
 4831SOL     OW15391   2.982   4.749   5.999
 4831SOL    HW115392   2.992   4.803   6.082
 4831SOL    HW215393   3.066   4.756   5.944
 4832SOL     OW15394   3.503   3.215   4.409
 4832SOL    HW115395   3.509   3.306   4.367
 4832SOL    HW215396   3.540   3.218   4.502
 4833SOL     OW15397   0.219   2.892   3.877
 4833SOL    HW115398   0.230   2.985   3.910
 4833SOL    HW215399   0.143   2.889   3.812
 4834SOL     OW15400   1.371   5.155   1.728
 4834SOL    HW115401   1.397   5.112   1.641
 4834SOL    HW215402   1.433   5.124   1.800
 4835SOL     OW15403   6.751   2.273   5.261
 4835SOL    HW115404   6.672   2.232   5.306
 4835SOL    HW215405   6.730   2.367   5.235
 4836SOL     OW15406   5.502   1.467   5.491
 4836SOL    HW115407   5.598   1.450   5.471
 4836SOL    HW215408   5.459   1.381   5.519
 4837SOL     OW15409   0.125   4.561   4.484
 4837SOL    HW115410   0.055   4.500   4.522
 4837SOL    HW215411   0.081   4.644   4.450
 4838SOL     OW15412   1.951   4.326   6.505
 4838SOL    HW115413   1.947   4.232   6.537
 4838SOL    HW215414   1.969   4.327   6.407
 4839SOL     OW15415   2.502   1.451   6.869
 4839SOL    HW115416   2.553   1.367   6.888
 4839SOL    HW215417   2.405   1.430   6.857
 4840SOL     OW15418   5.691   3.512   4.917
 4840SOL    HW115419   5.719   3.452   4.993
 4840SOL    HW215420   5.602   3.553   4.938
 4841SOL     OW15421   3.246   5.733   2.569
 4841SOL    HW115422   3.298   5.743   2.484
 4841SOL    HW215423   3.275   5.802   2.635
 4842SOL     OW15424   3.021   5.458   3.055
 4842SOL    HW115425   3.100   5.398   3.043
 4842SOL    HW215426   2.962   5.421   3.127
 4843SOL     OW15427   0.578   1.720   1.953
 4843SOL    HW115428   0.530   1.639   1.919
 4843SOL    HW215429   0.565   1.728   2.052
 4844SOL     OW15430   1.020   5.595   4.676
 4844SOL    HW115431   1.067   5.611   4.589
 4844SOL    HW215432   1.079   5.540   4.735
 4845SOL     OW15433   4.911   3.889   5.012
 4845SOL    HW115434   4.863   3.804   5.031
 4845SOL    HW215435   4.917   3.903   4.913
 4846SOL     OW15436   6.832   3.617   4.518
 4846SOL    HW115437   6.792   3.527   4.536
 4846SOL    HW215438   6.903   3.609   4.448
 4847SOL     OW15439   2.448   6.310   6.265
 4847SOL    HW115440   2.364   6.297   6.318
 4847SOL    HW215441   2.442   6.397   6.215
 4848SOL     OW15442   3.351   1.099   4.314
 4848SOL    HW115443   3.446   1.128   4.327
 4848SOL    HW215444   3.349   1.001   4.295
 4849SOL     OW15445   1.911   6.893   1.161
 4849SOL    HW115446   1.899   6.850   1.071
 4849SOL    HW215447   1.968   6.974   1.152
 4850SOL     OW15448   4.501   7.010   0.317
 4850SOL    HW115449   4.509   6.926   0.371
 4850SOL    HW215450   4.447   6.992   0.235
 4851SOL     OW15451   3.630   4.753   6.817
 4851SOL    HW115452   3.676   4.758   6.728
 4851SOL    HW215453   3.671   4.819   6.880
 4852SOL     OW15454   4.732   5.448   4.494
 4852SOL    HW115455   4.704   5.353   4.480
 4852SOL    HW215456   4.808   5.470   4.434
 4853SOL     OW15457   4.230   6.908   2.023
 4853SOL    HW115458   4.132   6.912   2.002
 4853SOL    HW215459   4.244   6.933   2.119
 4854SOL     OW15460   5.696   6.292   1.635
 4854SOL    HW115461   5.698   6.333   1.544
 4854SOL    HW215462   5.602   6.288   1.668
 4855SOL     OW15463   5.544   5.115   5.513
 4855SOL    HW115464   5.465   5.076   5.466
 4855SOL    HW215465   5.619   5.126   5.447
 4856SOL     OW15466   0.001   3.777   3.059
 4856SOL    HW115467   6.970   3.854   3.028
 4856SOL    HW215468   6.981   3.691   3.033
 4857SOL     OW15469   2.491   2.202   4.921
 4857SOL    HW115470   2.541   2.288   4.922
 4857SOL    HW215471   2.554   2.127   4.897
 4858SOL     OW15472   0.625   6.006   4.168
 4858SOL    HW115473   0.678   5.970   4.092
 4858SOL    HW215474   0.538   6.043   4.134
 4859SOL     OW15475   1.043   6.218   2.170
 4859SOL    HW115476   0.975   6.185   2.236
 4859SOL    HW215477   1.035   6.317   2.160
 4860SOL     OW15478   4.135   5.478   1.086
 4860SOL    HW115479   4.222   5.527   1.080
 4860SOL    HW215480   4.070   5.520   1.023
 4861SOL     OW15481   0.209   4.500   6.729
 4861SOL    HW115482   0.209   4.504   6.829
 4861SOL    HW215483   0.194   4.405   6.700
 4862SOL     OW15484   2.621   5.420   5.587
 4862SOL    HW115485   2.714   5.382   5.590
 4862SOL    HW215486   2.574   5.386   5.505
 4863SOL     OW15487   4.649   2.028   2.872
 4863SOL    HW115488   4.746   2.030   2.898
 4863SOL    HW215489   4.642   2.021   2.772
 4864SOL     OW15490   2.339   1.278   1.358
 4864SOL    HW115491   2.305   1.369   1.383
 4864SOL    HW215492   2.386   1.283   1.269
 4865SOL     OW15493   3.514   5.881   5.332
 4865SOL    HW115494   3.452   5.928   5.269
 4865SOL    HW215495   3.609   5.905   5.308
 4866SOL     OW15496   6.447   4.498   1.764
 4866SOL    HW115497   6.367   4.550   1.793
 4866SOL    HW215498   6.499   4.551   1.697
 4867SOL     OW15499   4.954   6.015   3.359
 4867SOL    HW115500   5.026   5.946   3.364
 4867SOL    HW215501   4.871   5.980   3.402
 4868SOL     OW15502   0.735   5.909   1.090
 4868SOL    HW115503   0.804   5.930   1.021
 4868SOL    HW215504   0.721   5.810   1.094
 4869SOL     OW15505   6.399   0.339   0.877
 4869SOL    HW115506   6.310   0.316   0.916
 4869SOL    HW215507   6.471   0.288   0.924
 4870SOL     OW15508   6.706   6.696   1.737
 4870SOL    HW115509   6.714   6.748   1.652
 4870SOL    HW215510   6.748   6.606   1.725
 4871SOL     OW15511   0.731   3.714   3.952
 4871SOL    HW115512   0.729   3.723   4.052
 4871SOL    HW215513   0.825   3.696   3.923
 4872SOL     OW15514   0.801   0.709   3.332
 4872SOL    HW115515   0.845   0.799   3.329
 4872SOL    HW215516   0.804   0.674   3.425
 4873SOL     OW15517   0.394   5.687   5.545
 4873SOL    HW115518   0.343   5.681   5.631
 4873SOL    HW215519   0.362   5.766   5.493
 4874SOL     OW15520   4.867   3.850   3.219
 4874SOL    HW115521   4.959   3.835   3.184
 4874SOL    HW215522   4.815   3.907   3.156
 4875SOL     OW15523   6.251   2.624   6.936
 4875SOL    HW115524   6.328   2.644   6.996
 4875SOL    HW215525   6.247   2.692   6.863
 4876SOL     OW15526   0.864   1.442   6.560
 4876SOL    HW115527   0.914   1.412   6.641
 4876SOL    HW215528   0.907   1.524   6.522
 4877SOL     OW15529   6.356   1.591   1.244
 4877SOL    HW115530   6.371   1.505   1.294
 4877SOL    HW215531   6.412   1.591   1.161
 4878SOL     OW15532   6.809   1.905   1.723
 4878SOL    HW115533   6.779   1.997   1.749
 4878SOL    HW215534   6.760   1.876   1.642
 4879SOL     OW15535   4.193   5.465   3.437
 4879SOL    HW115536   4.191   5.564   3.449
 4879SOL    HW215537   4.234   5.443   3.349
 4880SOL     OW15538   5.566   2.246   6.196
 4880SOL    HW115539   5.592   2.268   6.290
 4880SOL    HW215540   5.646   2.210   6.148
 4881SOL     OW15541   3.279   6.194   6.447
 4881SOL    HW115542   3.236   6.283   6.439
 4881SOL    HW215543   3.375   6.201   6.419
 4882SOL     OW15544   5.529   0.633   5.485
 4882SOL    HW115545   5.524   0.733   5.478
 4882SOL    HW215546   5.470   0.602   5.560
 4883SOL     OW15547   0.183   5.845   1.267
 4883SOL    HW115548   0.158   5.755   1.302
 4883SOL    HW215549   0.256   5.836   1.200
 4884SOL     OW15550   3.290   6.728   1.635
 4884SOL    HW115551   3.370   6.752   1.580
 4884SOL    HW215552   3.307   6.641   1.682
 4885SOL     OW15553   2.370   6.935   2.048
 4885SOL    HW115554   2.404   7.024   2.017
 4885SOL    HW215555   2.326   6.888   1.971
 4886SOL     OW15556   6.089   0.771   6.426
 4886SOL    HW115557   6.172   0.827   6.425
 4886SOL    HW215558   6.043   0.776   6.337
 4887SOL     OW15559   0.421   1.563   4.684
 4887SOL    HW115560   0.359   1.569   4.606
 4887SOL    HW215561   0.470   1.650   4.693
 4888SOL     OW15562   2.796   5.284   2.430
 4888SOL    HW115563   2.844   5.295   2.343
 4888SOL    HW215564   2.700   5.308   2.419
 4889SOL     OW15565   1.467   2.710   0.481
 4889SOL    HW115566   1.543   2.773   0.466
 4889SOL    HW215567   1.440   2.712   0.577
 4890SOL     OW15568   1.362   0.544   4.668
 4890SOL    HW115569   1.289   0.613   4.664
 4890SOL    HW215570   1.336   0.465   4.612
 4891SOL     OW15571   1.312   4.140   0.588
 4891SOL    HW115572   1.392   4.195   0.608
 4891SOL    HW215573   1.330   4.045   0.614
 4892SOL     OW15574   1.214   5.663   1.430
 4892SOL    HW115575   1.305   5.667   1.471
 4892SOL    HW215576   1.194   5.570   1.402
 4893SOL     OW15577   0.253   3.521   6.551
 4893SOL    HW115578   0.206   3.492   6.467
 4893SOL    HW215579   0.214   3.471   6.629
 4894SOL     OW15580   2.335   0.781   3.171
 4894SOL    HW115581   2.363   0.696   3.214
 4894SOL    HW215582   2.263   0.763   3.104
 4895SOL     OW15583   0.398   3.454   0.715
 4895SOL    HW115584   0.474   3.395   0.687
 4895SOL    HW215585   0.401   3.468   0.814
 4896SOL     OW15586   3.997   5.359   3.971
 4896SOL    HW115587   4.037   5.270   3.989
 4896SOL    HW215588   3.900   5.348   3.947
 4897SOL     OW15589   3.380   5.452   6.265
 4897SOL    HW115590   3.407   5.525   6.202
 4897SOL    HW215591   3.336   5.378   6.213
 4898SOL     OW15592   5.570   2.348   5.609
 4898SOL    HW115593   5.668   2.350   5.627
 4898SOL    HW215594   5.543   2.434   5.566
 4899SOL     OW15595   5.682   3.893   4.275
 4899SOL    HW115596   5.608   3.894   4.208
 4899SOL    HW215597   5.741   3.972   4.260
 4900SOL     OW15598   1.115   6.649   5.224
 4900SOL    HW115599   1.069   6.637   5.136
 4900SOL    HW215600   1.075   6.728   5.271
 4901SOL     OW15601   1.448   6.707   3.757
 4901SOL    HW115602   1.414   6.799   3.774
 4901SOL    HW215603   1.534   6.693   3.806
 4902SOL     OW15604   2.956   4.790   1.973
 4902SOL    HW115605   3.000   4.762   1.887
 4902SOL    HW215606   2.903   4.713   2.009
 4903SOL     OW15607   4.913   6.763   6.379
 4903SOL    HW115608   4.952   6.807   6.298
 4903SOL    HW215609   4.975   6.774   6.457
 4904SOL     OW15610   3.291   6.059   3.729
 4904SOL    HW115611   3.201   6.073   3.771
 4904SOL    HW215612   3.362   6.090   3.793
 4905SOL     OW15613   6.178   3.379   2.527
 4905SOL    HW115614   6.251   3.371   2.459
 4905SOL    HW215615   6.129   3.465   2.514
 4906SOL     OW15616   5.952   0.572   0.824
 4906SOL    HW115617   5.936   0.667   0.854
 4906SOL    HW215618   5.954   0.513   0.905
 4907SOL     OW15619   3.055   1.011   2.052
 4907SOL    HW115620   2.962   1.040   2.072
 4907SOL    HW215621   3.097   1.073   1.986
 4908SOL     OW15622   3.407   5.573   6.727
 4908SOL    HW115623   3.374   5.645   6.665
 4908SOL    HW215624   3.385   5.484   6.688
 4909SOL     OW15625   6.785   0.329   5.168
 4909SOL    HW115626   6.692   0.293   5.177
 4909SOL    HW215627   6.851   0.255   5.182
 4910SOL     OW15628   6.263   0.186   5.093
 4910SOL    HW115629   6.242   0.114   5.027
 4910SOL    HW215630   6.213   0.168   5.178
 4911SOL     OW15631   6.785   2.837   6.066
 4911SOL    HW115632   6.696   2.812   6.105
 4911SOL    HW215633   6.849   2.762   6.080
 4912SOL     OW15634   2.248   2.370   2.241
 4912SOL    HW115635   2.178   2.420   2.190
 4912SOL    HW215636   2.313   2.434   2.281
 4913SOL     OW15637   3.110   3.532   2.684
 4913SOL    HW115638   3.124   3.591   2.764
 4913SOL    HW215639   3.105   3.589   2.602
 4914SOL     OW15640   2.022   6.460   3.402
 4914SOL    HW115641   2.045   6.370   3.439
 4914SOL    HW215642   2.102   6.498   3.355
 4915SOL     OW15643   3.061   5.820   3.438
 4915SOL    HW115644   2.994   5.850   3.370
 4915SOL    HW215645   3.128   5.760   3.395
 4916SOL     OW15646   2.549   1.207   2.231
 4916SOL    HW115647   2.644   1.235   2.248
 4916SOL    HW215648   2.504   1.273   2.171
 4917SOL     OW15649   1.793   4.953   0.502
 4917SOL    HW115650   1.854   4.875   0.518
 4917SOL    HW215651   1.703   4.934   0.542
 4918SOL     OW15652   2.527   0.526   2.252
 4918SOL    HW115653   2.546   0.622   2.229
 4918SOL    HW215654   2.534   0.470   2.169
 4919SOL     OW15655   2.590   2.475   2.011
 4919SOL    HW115656   2.544   2.561   2.033
 4919SOL    HW215657   2.688   2.491   1.999
 4920SOL     OW15658   4.457   0.496   6.901
 4920SOL    HW115659   4.527   0.485   6.830
 4920SOL    HW215660   4.367   0.479   6.862
 4921SOL     OW15661   1.585   4.985   1.852
 4921SOL    HW115662   1.650   5.015   1.783
 4921SOL    HW215663   1.530   4.910   1.816
 4922SOL     OW15664   1.596   2.791   6.197
 4922SOL    HW115665   1.641   2.861   6.253
 4922SOL    HW215666   1.533   2.738   6.254
 4923SOL     OW15667   4.033   1.236   0.618
 4923SOL    HW115668   3.972   1.297   0.668
 4923SOL    HW215669   4.030   1.145   0.660
 4924SOL     OW15670   0.540   3.806   4.500
 4924SOL    HW115671   0.567   3.860   4.420
 4924SOL    HW215672   0.516   3.713   4.471
 4925SOL     OW15673   3.916   6.112   0.118
 4925SOL    HW115674   3.997   6.055   0.134
 4925SOL    HW215675   3.923   6.157   0.029
 4926SOL     OW15676   4.737   2.250   1.837
 4926SOL    HW115677   4.675   2.174   1.853
 4926SOL    HW215678   4.686   2.336   1.832
 4927SOL     OW15679   3.678   3.614   3.256
 4927SOL    HW115680   3.736   3.569   3.323
 4927SOL    HW215681   3.655   3.706   3.288
 4928SOL     OW15682   0.630   5.880   0.729
 4928SOL    HW115683   0.589   5.950   0.787
 4928SOL    HW215684   0.655   5.919   0.641
 4929SOL     OW15685   0.784   5.162   4.240
 4929SOL    HW115686   0.823   5.098   4.305
 4929SOL    HW215687   0.745   5.240   4.289
 4930SOL     OW15688   6.959   2.074   0.790
 4930SOL    HW115689   6.860   2.082   0.784
 4930SOL    HW215690   6.986   2.058   0.885
 4931SOL     OW15691   0.018   0.965   1.045
 4931SOL    HW115692   6.985   0.933   1.121
 4931SOL    HW215693   7.020   0.913   0.963
 4932SOL     OW15694   2.894   2.633   1.406
 4932SOL    HW115695   2.827   2.691   1.360
 4932SOL    HW215696   2.888   2.540   1.368
 4933SOL     OW15697   3.140   1.212   4.465
 4933SOL    HW115698   3.217   1.177   4.412
 4933SOL    HW215699   3.065   1.146   4.463
 4934SOL     OW15700   1.402   6.187   4.887
 4934SOL    HW115701   1.319   6.243   4.879
 4934SOL    HW215702   1.454   6.215   4.967
 4935SOL     OW15703   1.203   1.479   0.709
 4935SOL    HW115704   1.232   1.563   0.755
 4935SOL    HW215705   1.206   1.403   0.773
 4936SOL     OW15706   3.788   5.435   0.637
 4936SOL    HW115707   3.695   5.447   0.672
 4936SOL    HW215708   3.815   5.518   0.588
 4937SOL     OW15709   0.499   3.244   6.607
 4937SOL    HW115710   0.447   3.177   6.660
 4937SOL    HW215711   0.460   3.251   6.516
 4938SOL     OW15712   3.409   4.351   1.268
 4938SOL    HW115713   3.396   4.275   1.331
 4938SOL    HW215714   3.463   4.422   1.312
 4939SOL     OW15715   1.710   1.849   1.929
 4939SOL    HW115716   1.805   1.820   1.936
 4939SOL    HW215717   1.706   1.946   1.905
 4940SOL     OW15718   6.954   2.131   5.146
 4940SOL    HW115719   6.878   2.184   5.182
 4940SOL    HW215720   6.952   2.133   5.046
 4941SOL     OW15721   4.012   1.846   5.300
 4941SOL    HW115722   3.933   1.864   5.358
 4941SOL    HW215723   4.095   1.843   5.356
 4942SOL     OW15724   6.777   1.733   3.792
 4942SOL    HW115725   6.856   1.671   3.787
 4942SOL    HW215726   6.739   1.730   3.884
 4943SOL     OW15727   5.181   3.304   6.394
 4943SOL    HW115728   5.228   3.246   6.328
 4943SOL    HW215729   5.188   3.400   6.366
 4944SOL     OW15730   1.491   5.145   0.824
 4944SOL    HW115731   1.502   5.065   0.766
 4944SOL    HW215732   1.432   5.122   0.902
 4945SOL     OW15733   1.847   1.300   4.829
 4945SOL    HW115734   1.818   1.207   4.853
 4945SOL    HW215735   1.902   1.337   4.904
 4946SOL     OW15736   2.475   4.936   6.914
 4946SOL    HW115737   2.508   4.913   7.006
 4946SOL    HW215738   2.527   4.885   6.846
 4947SOL     OW15739   1.739   1.186   1.685
 4947SOL    HW115740   1.744   1.189   1.585
 4947SOL    HW215741   1.643   1.195   1.714
 4948SOL     OW15742   1.413   2.817   1.853
 4948SOL    HW115743   1.448   2.757   1.782
 4948SOL    HW215744   1.314   2.829   1.842
 4949SOL     OW15745   0.035   4.089   0.009
 4949SOL    HW115746   0.101   4.041   0.066
 4949SOL    HW215747   0.068   4.092   6.939
 4950SOL     OW15748   2.476   3.636   5.413
 4950SOL    HW115749   2.491   3.731   5.386
 4950SOL    HW215750   2.544   3.578   5.369
 4951SOL     OW15751   4.935   5.576   3.331
 4951SOL    HW115752   4.958   5.480   3.348
 4951SOL    HW215753   4.836   5.586   3.330
 4952SOL     OW15754   0.420   6.868   5.841
 4952SOL    HW115755   0.450   6.859   5.746
 4952SOL    HW215756   0.324   6.895   5.844
 4953SOL     OW15757   0.412   2.118   4.849
 4953SOL    HW115758   0.323   2.163   4.860
 4953SOL    HW215759   0.408   2.056   4.771
 4954SOL     OW15760   3.513   4.368   5.278
 4954SOL    HW115761   3.580   4.437   5.306
 4954SOL    HW215762   3.526   4.348   5.181
 4955SOL     OW15763   3.600   5.046   6.816
 4955SOL    HW115764   3.586   5.027   6.913
 4955SOL    HW215765   3.615   5.144   6.802
 4956SOL     OW15766   2.752   0.378   4.593
 4956SOL    HW115767   2.698   0.451   4.552
 4956SOL    HW215768   2.831   0.417   4.640
 4957SOL     OW15769   6.196   4.160   6.837
 4957SOL    HW115770   6.109   4.156   6.885
 4957SOL    HW215771   6.180   4.156   6.738
 4958SOL     OW15772   3.607   6.024   0.343
 4958SOL    HW115773   3.662   6.106   0.329
 4958SOL    HW215774   3.535   6.020   0.275
 4959SOL     OW15775   0.567   3.047   2.910
 4959SOL    HW115776   0.544   3.048   3.007
 4959SOL    HW215777   0.667   3.043   2.899
 4960SOL     OW15778   4.336   5.546   4.155
 4960SOL    HW115779   4.327   5.488   4.074
 4960SOL    HW215780   4.288   5.633   4.140
 4961SOL     OW15781   4.243   1.220   0.016
 4961SOL    HW115782   4.291   1.134   0.032
 4961SOL    HW215783   4.203   1.220   6.949
 4962SOL     OW15784   1.163   4.218   1.379
 4962SOL    HW115785   1.121   4.278   1.311
 4962SOL    HW215786   1.230   4.158   1.335
 4963SOL     OW15787   1.299   3.862   6.508
 4963SOL    HW115788   1.367   3.836   6.576
 4963SOL    HW215789   1.340   3.924   6.442
 4964SOL     OW15790   2.986   6.820   4.647
 4964SOL    HW115791   2.958   6.852   4.556
 4964SOL    HW215792   3.035   6.733   4.638
 4965SOL     OW15793   1.846   5.922   3.258
 4965SOL    HW115794   1.850   5.868   3.343
 4965SOL    HW215795   1.927   5.901   3.203
 4966SOL     OW15796   3.180   6.507   4.236
 4966SOL    HW115797   3.268   6.545   4.207
 4966SOL    HW215798   3.142   6.452   4.162
 4967SOL     OW15799   4.506   4.553   4.694
 4967SOL    HW115800   4.516   4.652   4.707
 4967SOL    HW215801   4.471   4.512   4.778
 4968SOL     OW15802   6.151   2.756   3.032
 4968SOL    HW115803   6.097   2.813   3.093
 4968SOL    HW215804   6.152   2.662   3.066
 4969SOL     OW15805   0.844   6.269   3.290
 4969SOL    HW115806   0.837   6.311   3.380
 4969SOL    HW215807   0.940   6.259   3.265
 4970SOL     OW15808   0.533   1.765   1.512
 4970SOL    HW115809   0.607   1.753   1.577
 4970SOL    HW215810   0.458   1.816   1.555
 4971SOL     OW15811   6.698   6.068   2.951
 4971SOL    HW115812   6.710   5.987   3.007
 4971SOL    HW215813   6.616   6.117   2.980
 4972SOL     OW15814   1.354   4.298   1.140
 4972SOL    HW115815   1.362   4.211   1.188
 4972SOL    HW215816   1.260   4.332   1.147
 4973SOL     OW15817   6.767   0.708   0.901
 4973SOL    HW115818   6.856   0.735   0.865
 4973SOL    HW215819   6.779   0.646   0.978
 4974SOL     OW15820   3.376   5.659   5.233
 4974SOL    HW115821   3.291   5.708   5.214
 4974SOL    HW215822   3.429   5.710   5.302
 4975SOL     OW15823   6.061   4.127   0.955
 4975SOL    HW115824   6.064   4.200   0.887
 4975SOL    HW215825   6.155   4.099   0.977
 4976SOL     OW15826   1.907   7.019   3.905
 4976SOL    HW115827   1.931   6.988   3.997
 4976SOL    HW215828   1.975   6.986   3.840
 4977SOL     OW15829   1.898   4.571   6.032
 4977SOL    HW115830   1.911   4.493   5.970
 4977SOL    HW215831   1.802   4.598   6.032
 4978SOL     OW15832   5.027   4.684   4.485
 4978SOL    HW115833   5.125   4.669   4.501
 4978SOL    HW215834   4.976   4.603   4.512
 4979SOL     OW15835   2.319   0.257   6.081
 4979SOL    HW115836   2.403   0.202   6.073
 4979SOL    HW215837   2.256   0.211   6.143
 4980SOL     OW15838   5.385   3.700   3.136
 4980SOL    HW115839   5.466   3.680   3.081
 4980SOL    HW215840   5.382   3.638   3.215
 4981SOL     OW15841   3.391   4.871   2.065
 4981SOL    HW115842   3.325   4.853   1.992
 4981SOL    HW215843   3.483   4.854   2.031
 4982SOL     OW15844   4.305   1.460   6.147
 4982SOL    HW115845   4.380   1.406   6.109
 4982SOL    HW215846   4.242   1.484   6.073
 4983SOL     OW15847   6.235   5.597   3.056
 4983SOL    HW115848   6.321   5.545   3.062
 4983SOL    HW215849   6.223   5.651   3.139
 4984SOL     OW15850   5.155   4.579   2.829
 4984SOL    HW115851   5.238   4.525   2.843
 4984SOL    HW215852   5.176   4.676   2.845
 4985SOL     OW15853   5.524   6.760   2.477
 4985SOL    HW115854   5.479   6.673   2.459
 4985SOL    HW215855   5.457   6.834   2.473
 4986SOL     OW15856   0.576   5.019   2.845
 4986SOL    HW115857   0.552   5.042   2.751
 4986SOL    HW215858   0.610   4.925   2.848
 4987SOL     OW15859   0.662   0.826   2.511
 4987SOL    HW115860   0.643   0.924   2.504
 4987SOL    HW215861   0.575   0.776   2.519
 4988SOL     OW15862   5.651   6.538   3.623
 4988SOL    HW115863   5.587   6.534   3.701
 4988SOL    HW215864   5.698   6.626   3.624
 4989SOL     OW15865   4.411   0.420   2.463
 4989SOL    HW115866   4.343   0.355   2.499
 4989SOL    HW215867   4.473   0.447   2.537
 4990SOL     OW15868   4.701   2.169   5.461
 4990SOL    HW115869   4.645   2.089   5.444
 4990SOL    HW215870   4.696   2.194   5.558
 4991SOL     OW15871   1.427   5.381   4.879
 4991SOL    HW115872   1.472   5.421   4.799
 4991SOL    HW215873   1.479   5.301   4.910
 4992SOL     OW15874   0.434   2.026   3.522
 4992SOL    HW115875   0.521   2.076   3.526
 4992SOL    HW215876   0.358   2.090   3.535
 4993SOL     OW15877   3.576   6.373   4.115
 4993SOL    HW115878   3.556   6.294   4.173
 4993SOL    HW215879   3.496   6.393   4.058
 4994SOL     OW15880   3.148   4.504   5.686
 4994SOL    HW115881   3.072   4.440   5.675
 4994SOL    HW215882   3.127   4.590   5.640
 4995SOL     OW15883   0.391   0.221   5.437
 4995SOL    HW115884   0.463   0.206   5.505
 4995SOL    HW215885   0.317   0.275   5.478
 4996SOL     OW15886   6.708   0.960   4.746
 4996SOL    HW115887   6.682   0.865   4.733
 4996SOL    HW215888   6.717   1.005   4.657
 4997SOL     OW15889   3.884   2.165   1.124
 4997SOL    HW115890   3.901   2.121   1.035
 4997SOL    HW215891   3.866   2.095   1.193
 4998SOL     OW15892   0.702   3.678   3.676
 4998SOL    HW115893   0.793   3.682   3.634
 4998SOL    HW215894   0.710   3.670   3.775
 4999SOL     OW15895   0.847   4.396   4.206
 4999SOL    HW115896   0.778   4.334   4.170
 4999SOL    HW215897   0.938   4.363   4.181
 5000SOL     OW15898   2.764   5.466   3.290
 5000SOL    HW115899   2.745   5.526   3.212
 5000SOL    HW215900   2.766   5.371   3.258
 5001SOL     OW15901   0.819   5.311   2.849
 5001SOL    HW115902   0.759   5.283   2.775
 5001SOL    HW215903   0.817   5.411   2.857
 5002SOL     OW15904   0.468   3.257   3.520
 5002SOL    HW115905   0.493   3.350   3.546
 5002SOL    HW215906   0.434   3.256   3.426
 5003SOL     OW15907   3.843   6.774   4.103
 5003SOL    HW115908   3.933   6.736   4.083
 5003SOL    HW215909   3.851   6.840   4.178
 5004SOL     OW15910   2.216   6.254   6.397
 5004SOL    HW115911   2.137   6.291   6.348
 5004SOL    HW215912   2.195   6.250   6.495
 5005SOL     OW15913   3.788   2.642   6.943
 5005SOL    HW115914   3.783   2.618   0.015
 5005SOL    HW215915   3.883   2.664   6.919
 5006SOL     OW15916   5.520   1.964   2.122
 5006SOL    HW115917   5.606   1.933   2.082
 5006SOL    HW215918   5.443   1.936   2.064
 5007SOL     OW15919   6.200   6.592   1.874
 5007SOL    HW115920   6.243   6.527   1.811
 5007SOL    HW215921   6.270   6.633   1.932
 5008SOL     OW15922   5.289   6.680   2.143
 5008SOL    HW115923   5.367   6.617   2.136
 5008SOL    HW215924   5.254   6.679   2.237
 5009SOL     OW15925   0.179   2.263   0.686
 5009SOL    HW115926   0.193   2.308   0.598
 5009SOL    HW215927   0.088   2.220   0.687
 5010SOL     OW15928   3.761   3.306   0.527
 5010SOL    HW115929   3.670   3.275   0.498
 5010SOL    HW215930   3.792   3.378   0.464
 5011SOL     OW15931   2.356   3.759   6.633
 5011SOL    HW115932   2.332   3.663   6.619
 5011SOL    HW215933   2.312   3.815   6.562
 5012SOL     OW15934   6.099   1.692   5.100
 5012SOL    HW115935   6.054   1.699   5.189
 5012SOL    HW215936   6.184   1.640   5.111
 5013SOL     OW15937   5.847   0.420   5.671
 5013SOL    HW115938   5.802   0.364   5.602
 5013SOL    HW215939   5.888   0.361   5.741
 5014SOL     OW15940   6.407   3.455   1.299
 5014SOL    HW115941   6.489   3.413   1.260
 5014SOL    HW215942   6.393   3.420   1.392
 5015SOL     OW15943   5.783   6.975   4.255
 5015SOL    HW115944   5.780   6.964   4.155
 5015SOL    HW215945   5.690   6.984   4.291
 5016SOL     OW15946   1.300   3.823   5.157
 5016SOL    HW115947   1.289   3.835   5.058
 5016SOL    HW215948   1.363   3.891   5.192
 5017SOL     OW15949   0.843   2.628   1.872
 5017SOL    HW115950   0.912   2.633   1.943
 5017SOL    HW215951   0.886   2.631   1.782
 5018SOL     OW15952   0.640   6.491   1.104
 5018SOL    HW115953   0.621   6.393   1.110
 5018SOL    HW215954   0.737   6.506   1.089
 5019SOL     OW15955   1.201   5.132   5.257
 5019SOL    HW115956   1.286   5.183   5.242
 5019SOL    HW215957   1.123   5.193   5.247
 5020SOL     OW15958   1.615   0.014   4.510
 5020SOL    HW115959   1.644   6.943   4.502
 5020SOL    HW215960   1.665   0.059   4.584
 5021SOL     OW15961   1.592   1.447   1.197
 5021SOL    HW115962   1.682   1.450   1.242
 5021SOL    HW215963   1.550   1.538   1.202
 5022SOL     OW15964   0.444   3.445   1.662
 5022SOL    HW115965   0.373   3.416   1.599
 5022SOL    HW215966   0.531   3.454   1.614
 5023SOL     OW15967   6.909   4.720   2.689
 5023SOL    HW115968   6.916   4.745   2.592
 5023SOL    HW215969   6.950   4.630   2.703
 5024SOL     OW15970   4.502   3.658   1.587
 5024SOL    HW115971   4.484   3.733   1.650
 5024SOL    HW215972   4.511   3.693   1.494
 5025SOL     OW15973   4.095   0.951   3.363
 5025SOL    HW115974   4.030   1.002   3.307
 5025SOL    HW215975   4.131   1.010   3.435
 5026SOL     OW15976   4.959   6.441   5.102
 5026SOL    HW115977   4.992   6.366   5.159
 5026SOL    HW215978   5.030   6.468   5.037
 5027SOL     OW15979   5.422   0.573   6.910
 5027SOL    HW115980   5.490   0.576   6.836
 5027SOL    HW215981   5.349   0.638   6.890
 5028SOL     OW15982   0.555   2.236   2.903
 5028SOL    HW115983   0.603   2.322   2.889
 5028SOL    HW215984   0.459   2.247   2.880
 5029SOL     OW15985   6.310   1.426   2.287
 5029SOL    HW115986   6.294   1.450   2.383
 5029SOL    HW215987   6.327   1.327   2.280
 5030SOL     OW15988   0.045   4.762   6.937
 5030SOL    HW115989   6.980   4.790   6.971
 5030SOL    HW215990   0.042   4.749   6.838
 5031SOL     OW15991   0.046   0.382   5.760
 5031SOL    HW115992   0.105   0.372   5.840
 5031SOL    HW215993   0.002   0.294   5.740
 5032SOL     OW15994   3.312   3.502   5.521
 5032SOL    HW115995   3.269   3.575   5.466
 5032SOL    HW215996   3.263   3.416   5.505
 5033SOL     OW15997   1.883   1.507   6.967
 5033SOL    HW115998   1.911   1.580   6.903
 5033SOL    HW215999   1.808   1.455   6.927
 5034SOL     OW16000   4.319   6.193   4.370
 5034SOL    HW116001   4.275   6.120   4.422
 5034SOL    HW216002   4.264   6.215   4.289
 5035SOL     OW16003   1.269   5.035   4.161
 5035SOL    HW116004   1.211   5.015   4.240
 5035SOL    HW216005   1.225   4.999   4.078
 5036SOL     OW16006   6.693   2.692   4.982
 5036SOL    HW116007   6.723   2.638   4.904
 5036SOL    HW216008   6.628   2.762   4.952
 5037SOL     OW16009   4.411   4.539   1.071
 5037SOL    HW116010   4.384   4.484   0.992
 5037SOL    HW216011   4.384   4.491   1.155
 5038SOL     OW16012   3.389   3.708   3.632
 5038SOL    HW116013   3.348   3.704   3.540
 5038SOL    HW216014   3.454   3.783   3.636
 5039SOL     OW16015   0.588   3.348   6.844
 5039SOL    HW116016   0.538   3.424   6.885
 5039SOL    HW216017   0.537   3.312   6.766
 5040SOL     OW16018   1.280   5.437   6.371
 5040SOL    HW116019   1.301   5.373   6.296
 5040SOL    HW216020   1.198   5.406   6.419
 5041SOL     OW16021   0.047   2.945   2.298
 5041SOL    HW116022   7.015   2.994   2.232
 5041SOL    HW216023   0.139   2.932   2.260
 5042SOL     OW16024   0.382   3.283   6.354
 5042SOL    HW116025   0.306   3.347   6.365
 5042SOL    HW216026   0.410   3.281   6.259
 5043SOL     OW16027   3.766   0.415   0.871
 5043SOL    HW116028   3.856   0.441   0.906
 5043SOL    HW216029   3.726   0.344   0.929
 5044SOL     OW16030   6.150   5.450   0.731
 5044SOL    HW116031   6.179   5.422   0.823
 5044SOL    HW216032   6.214   5.518   0.695
 5045SOL     OW16033   6.169   3.640   6.031
 5045SOL    HW116034   6.082   3.684   6.009
 5045SOL    HW216035   6.164   3.603   6.124
 5046SOL     OW16036   3.367   3.259   3.301
 5046SOL    HW116037   3.293   3.235   3.237
 5046SOL    HW216038   3.432   3.318   3.255
 5047SOL     OW16039   2.228   3.915   3.307
 5047SOL    HW116040   2.218   3.901   3.406
 5047SOL    HW216041   2.205   3.830   3.259
 5048SOL     OW16042   1.012   0.964   5.795
 5048SOL    HW116043   0.935   0.937   5.738
 5048SOL    HW216044   0.980   0.982   5.888
 5049SOL     OW16045   6.081   0.640   6.083
 5049SOL    HW116046   6.001   0.700   6.095
 5049SOL    HW216047   6.054   0.545   6.099
 5050SOL     OW16048   1.881   1.286   0.649
 5050SOL    HW116049   1.830   1.225   0.710
 5050SOL    HW216050   1.868   1.381   0.678
 5051SOL     OW16051   3.468   4.583   1.431
 5051SOL    HW116052   3.535   4.603   1.503
 5051SOL    HW216053   3.379   4.565   1.472
 5052SOL     OW16054   3.889   1.167   5.353
 5052SOL    HW116055   3.915   1.264   5.350
 5052SOL    HW216056   3.833   1.149   5.434
 5053SOL     OW16057   0.865   6.347   2.443
 5053SOL    HW116058   0.785   6.368   2.500
 5053SOL    HW216059   0.867   6.249   2.423
 5054SOL     OW16060   4.058   4.832   4.148
 5054SOL    HW116061   4.111   4.780   4.080
 5054SOL    HW216062   4.094   4.814   4.239
 5055SOL     OW16063   6.373   2.905   6.374
 5055SOL    HW116064   6.467   2.900   6.409
 5055SOL    HW216065   6.317   2.958   6.437
 5056SOL     OW16066   5.289   3.923   4.993
 5056SOL    HW116067   5.274   3.829   4.963
 5056SOL    HW216068   5.385   3.935   5.018
 5057SOL     OW16069   1.077   6.678   2.898
 5057SOL    HW116070   1.061   6.718   2.807
 5057SOL    HW216071   1.000   6.700   2.958
 5058SOL     OW16072   2.945   4.482   6.062
 5058SOL    HW116073   2.972   4.574   6.035
 5058SOL    HW216074   2.959   4.419   5.985
 5059SOL     OW16075   0.503   0.447   2.830
 5059SOL    HW116076   0.530   0.404   2.916
 5059SOL    HW216077   0.578   0.503   2.796
 5060SOL     OW16078   6.225   1.771   5.718
 5060SOL    HW116079   6.323   1.755   5.704
 5060SOL    HW216080   6.206   1.869   5.716
 5061SOL     OW16081   4.839   3.237   0.239
 5061SOL    HW116082   4.845   3.150   0.190
 5061SOL    HW216083   4.928   3.258   0.280
 5062SOL     OW16084   0.417   0.249   1.578
 5062SOL    HW116085   0.456   0.330   1.534
 5062SOL    HW216086   0.486   0.176   1.579
 5063SOL     OW16087   1.265   6.846   2.235
 5063SOL    HW116088   1.229   6.906   2.307
 5063SOL    HW216089   1.361   6.826   2.253
 5064SOL     OW16090   4.656   3.389   0.400
 5064SOL    HW116091   4.707   3.331   0.335
 5064SOL    HW216092   4.719   3.423   0.470
 5065SOL     OW16093   2.817   0.019   5.704
 5065SOL    HW116094   2.850   0.035   5.611
 5065SOL    HW216095   2.885   6.990   5.754
 5066SOL     OW16096   5.967   5.021   1.067
 5066SOL    HW116097   5.928   5.067   1.146
 5066SOL    HW216098   6.017   4.939   1.096
 5067SOL     OW16099   4.987   1.058   0.571
 5067SOL    HW116100   4.954   1.064   0.477
 5067SOL    HW216101   4.951   1.135   0.624
 5068SOL     OW16102   2.631   4.912   0.143
 5068SOL    HW116103   2.697   4.837   0.141
 5068SOL    HW216104   2.567   4.898   0.218
 5069SOL     OW16105   0.585   4.477   2.542
 5069SOL    HW116106   0.544   4.388   2.562
 5069SOL    HW216107   0.550   4.546   2.606
 5070SOL     OW16108   4.872   3.008   3.686
 5070SOL    HW116109   4.804   2.939   3.711
 5070SOL    HW216110   4.956   2.993   3.738
 5071SOL     OW16111   4.868   2.020   6.526
 5071SOL    HW116112   4.807   2.057   6.596
 5071SOL    HW216113   4.900   2.093   6.466
 5072SOL     OW16114   0.641   4.740   1.248
 5072SOL    HW116115   0.614   4.716   1.155
 5072SOL    HW216116   0.581   4.694   1.313
 5073SOL     OW16117   5.132   0.389   2.873
 5073SOL    HW116118   5.065   0.381   2.946
 5073SOL    HW216119   5.134   0.484   2.840
 5074SOL     OW16120   2.466   3.998   6.361
 5074SOL    HW116121   2.525   4.033   6.288
 5074SOL    HW216122   2.438   4.073   6.420
 5075SOL     OW16123   0.281   5.601   4.821
 5075SOL    HW116124   0.337   5.653   4.756
 5075SOL    HW216125   0.194   5.577   4.777
 5076SOL     OW16126   3.547   0.946   0.817
 5076SOL    HW116127   3.454   0.919   0.791
 5076SOL    HW216128   3.613   0.884   0.773
 5077SOL     OW16129   0.343   2.462   3.564
 5077SOL    HW116130   0.257   2.505   3.592
 5077SOL    HW216131   0.409   2.467   3.639
 5078SOL     OW16132   1.536   2.020   4.589
 5078SOL    HW116133   1.481   2.097   4.557
 5078SOL    HW216134   1.497   1.935   4.554
 5079SOL     OW16135   3.614   4.750   5.682
 5079SOL    HW116136   3.654   4.835   5.646
 5079SOL    HW216137   3.520   4.742   5.651
 5080SOL     OW16138   5.485   0.011   5.845
 5080SOL    HW116139   5.566   6.989   5.809
 5080SOL    HW216140   5.451   0.077   5.778
 5081SOL     OW16141   3.666   3.824   3.555
 5081SOL    HW116142   3.645   3.848   3.460
 5081SOL    HW216143   3.762   3.794   3.561
 5082SOL     OW16144   5.216   5.896   5.019
 5082SOL    HW116145   5.264   5.815   4.983
 5082SOL    HW216146   5.199   5.960   4.944
 5083SOL     OW16147   1.578   6.431   1.683
 5083SOL    HW116148   1.481   6.452   1.697
 5083SOL    HW216149   1.632   6.515   1.689
 5084SOL     OW16150   1.580   6.203   3.922
 5084SOL    HW116151   1.678   6.211   3.906
 5084SOL    HW216152   1.531   6.258   3.854
 5085SOL     OW16153   6.068   2.011   6.493
 5085SOL    HW116154   6.066   2.065   6.577
 5085SOL    HW216155   6.160   2.013   6.454
 5086SOL     OW16156   6.383   5.069   3.801
 5086SOL    HW116157   6.318   5.000   3.769
 5086SOL    HW216158   6.334   5.155   3.817
 5087SOL     OW16159   0.015   5.497   5.494
 5087SOL    HW116160   6.961   5.529   5.546
 5087SOL    HW216161   0.056   5.573   5.444
 5088SOL     OW16162   5.638   0.341   6.125
 5088SOL    HW116163   5.727   0.371   6.159
 5088SOL    HW216164   5.594   0.416   6.077
 5089SOL     OW16165   5.592   3.619   2.955
 5089SOL    HW116166   5.593   3.709   2.999
 5089SOL    HW216167   5.668   3.564   2.991
 5090SOL     OW16168   1.872   5.424   1.382
 5090SOL    HW116169   1.801   5.455   1.319
 5090SOL    HW216170   1.949   5.389   1.330
 5091SOL     OW16171   1.534   6.331   2.785
 5091SOL    HW116172   1.508   6.393   2.710
 5091SOL    HW216173   1.476   6.349   2.864
 5092SOL     OW16174   4.239   2.118   1.386
 5092SOL    HW116175   4.310   2.048   1.375
 5092SOL    HW216176   4.153   2.073   1.413
 5093SOL     OW16177   0.788   2.230   1.978
 5093SOL    HW116178   0.775   2.135   2.009
 5093SOL    HW216179   0.862   2.272   2.031
 5094SOL     OW16180   0.769   6.233   4.968
 5094SOL    HW116181   0.773   6.317   4.914
 5094SOL    HW216182   0.859   6.189   4.968
 5095SOL     OW16183   3.013   0.062   4.753
 5095SOL    HW116184   2.994   6.996   4.714
 5095SOL    HW216185   3.104   0.092   4.724
 5096SOL     OW16186   4.442   4.052   0.803
 5096SOL    HW116187   4.471   4.044   0.707
 5096SOL    HW216188   4.483   3.979   0.857
 5097SOL     OW16189   1.482   6.318   6.084
 5097SOL    HW116190   1.406   6.377   6.055
 5097SOL    HW216191   1.446   6.228   6.109
 5098SOL     OW16192   0.296   1.597   3.006
 5098SOL    HW116193   0.292   1.581   3.104
 5098SOL    HW216194   0.392   1.597   2.976
 5099SOL     OW16195   1.646   0.543   5.438
 5099SOL    HW116196   1.581   0.569   5.367
 5099SOL    HW216197   1.682   0.625   5.482
 5100SOL     OW16198   5.724   6.515   0.081
 5100SOL    HW116199   5.707   6.419   0.061
 5100SOL    HW216200   5.645   6.569   0.051
 5101SOL     OW16201   4.185   6.380   0.300
 5101SOL    HW116202   4.270   6.362   0.349
 5101SOL    HW216203   4.166   6.305   0.236
 5102SOL     OW16204   3.779   5.921   5.283
 5102SOL    HW116205   3.770   5.879   5.373
 5102SOL    HW216206   3.791   6.020   5.293
 5103SOL     OW16207   0.195   7.005   4.119
 5103SOL    HW116208   0.254   0.006   4.042
 5103SOL    HW216209   0.119   0.045   4.127
 5104SOL     OW16210   1.541   0.604   1.799
 5104SOL    HW116211   1.516   0.627   1.894
 5104SOL    HW216212   1.561   0.687   1.749
 5105SOL     OW16213   3.550   3.796   6.462
 5105SOL    HW116214   3.486   3.719   6.464
 5105SOL    HW216215   3.521   3.862   6.393
 5106SOL     OW16216   3.721   0.600   2.239
 5106SOL    HW116217   3.674   0.518   2.209
 5106SOL    HW216218   3.753   0.589   2.333
 5107SOL     OW16219   2.069   6.974   5.710
 5107SOL    HW116220   2.059   0.046   5.686
 5107SOL    HW216221   2.082   6.920   5.627
 5108SOL     OW16222   3.305   3.676   4.376
 5108SOL    HW116223   3.247   3.635   4.306
 5108SOL    HW216224   3.383   3.721   4.332
 5109SOL     OW16225   0.066   1.305   1.335
 5109SOL    HW116226   0.003   1.240   1.378
 5109SOL    HW216227   0.090   1.377   1.400
 5110SOL     OW16228   2.019   5.615   5.803
 5110SOL    HW116229   2.081   5.559   5.748
 5110SOL    HW216230   1.926   5.607   5.767
 5111SOL     OW16231   1.408   1.492   0.493
 5111SOL    HW116232   1.404   1.475   0.592
 5111SOL    HW216233   1.400   1.406   0.444
 5112SOL     OW16234   0.342   5.849   4.036
 5112SOL    HW116235   0.323   5.925   3.973
 5112SOL    HW216236   0.425   5.801   4.007
 5113SOL     OW16237   1.134   0.291   6.902
 5113SOL    HW116238   1.177   0.294   6.992
 5113SOL    HW216239   1.124   0.384   6.867
 5114SOL     OW16240   3.546   5.014   0.049
 5114SOL    HW116241   3.633   5.010   0.097
 5114SOL    HW216242   3.479   4.958   0.096
 5115SOL     OW16243   1.447   3.606   5.218
 5115SOL    HW116244   1.416   3.694   5.182
 5115SOL    HW216245   1.422   3.533   5.154
 5116SOL     OW16246   6.654   4.597   0.703
 5116SOL    HW116247   6.699   4.570   0.618
 5116SOL    HW216248   6.664   4.695   0.718
 5117SOL     OW16249   2.384   4.444   4.596
 5117SOL    HW116250   2.335   4.360   4.619
 5117SOL    HW216251   2.403   4.495   4.680
 5118SOL     OW16252   4.297   6.425   0.679
 5118SOL    HW116253   4.210   6.460   0.714
 5118SOL    HW216254   4.367   6.496   0.687
 5119SOL     OW16255   6.163   6.975   2.168
 5119SOL    HW116256   6.207   7.012   2.087
 5119SOL    HW216257   6.233   6.940   2.230
 5120SOL     OW16258   5.026   2.029   2.591
 5120SOL    HW116259   4.947   1.995   2.542
 5120SOL    HW216260   5.097   2.056   2.526
 5121SOL     OW16261   0.392   3.556   5.332
 5121SOL    HW116262   0.311   3.516   5.374
 5121SOL    HW216263   0.427   3.495   5.262
 5122SOL     OW16264   2.490   6.605   3.837
 5122SOL    HW116265   2.573   6.573   3.791
 5122SOL    HW216266   2.416   6.539   3.822
 5123SOL     OW16267   5.228   4.607   1.789
 5123SOL    HW116268   5.259   4.696   1.756
 5123SOL    HW216269   5.148   4.578   1.738
 5124SOL     OW16270   2.625   6.632   6.534
 5124SOL    HW116271   2.682   6.585   6.601
 5124SOL    HW216272   2.650   6.728   6.531
 5125SOL     OW16273   0.102   3.205   4.522
 5125SOL    HW116274   0.067   3.161   4.605
 5125SOL    HW216275   0.088   3.145   4.444
 5126SOL     OW16276   5.742   3.786   6.431
 5126SOL    HW116277   5.712   3.855   6.497
 5126SOL    HW216278   5.675   3.712   6.427
 5127SOL     OW16279   5.786   2.769   6.375
 5127SOL    HW116280   5.842   2.848   6.396
 5127SOL    HW216281   5.690   2.796   6.371
 5128SOL     OW16282   0.163   0.632   6.829
 5128SOL    HW116283   0.096   0.599   6.896
 5128SOL    HW216284   0.124   0.627   6.737
 5129SOL     OW16285   4.257   1.917   2.452
 5129SOL    HW116286   4.334   1.937   2.513
 5129SOL    HW216287   4.183   1.983   2.469
 5130SOL     OW16288   1.145   6.080   4.016
 5130SOL    HW116289   1.093   6.013   4.069
 5130SOL    HW216290   1.235   6.042   3.994
 5131SOL     OW16291   3.051   4.905   3.494
 5131SOL    HW116292   3.026   4.851   3.414
 5131SOL    HW216293   2.981   4.974   3.511
 5132SOL     OW16294   3.578   1.475   6.633
 5132SOL    HW116295   3.612   1.542   6.699
 5132SOL    HW216296   3.654   1.442   6.577
 5133SOL     OW16297   4.472   4.443   6.324
 5133SOL    HW116298   4.391   4.484   6.365
 5133SOL    HW216299   4.552   4.498   6.345
 5134SOL     OW16300   6.869   6.182   1.168
 5134SOL    HW116301   6.884   6.150   1.075
 5134SOL    HW216302   6.894   6.279   1.175
 5135SOL     OW16303   6.626   2.997   1.975
 5135SOL    HW116304   6.704   3.017   2.035
 5135SOL    HW216305   6.660   2.967   1.886
 5136SOL     OW16306   1.278   0.814   6.268
 5136SOL    HW116307   1.232   0.782   6.351
 5136SOL    HW216308   1.334   0.741   6.230
 5137SOL     OW16309   5.792   1.006   4.282
 5137SOL    HW116310   5.876   1.060   4.279
 5137SOL    HW216311   5.738   1.023   4.200
 5138SOL     OW16312   2.985   3.230   3.690
 5138SOL    HW116313   2.891   3.264   3.686
 5138SOL    HW216314   3.042   3.295   3.741
 5139SOL     OW16315   2.655   0.286   4.825
 5139SOL    HW116316   2.557   0.304   4.825
 5139SOL    HW216317   2.692   0.300   4.733
 5140SOL     OW16318   4.172   2.456   6.567
 5140SOL    HW116319   4.215   2.390   6.629
 5140SOL    HW216320   4.221   2.455   6.479
 5141SOL     OW16321   6.491   2.769   1.724
 5141SOL    HW116322   6.407   2.823   1.729
 5141SOL    HW216323   6.570   2.830   1.733
 5142SOL     OW16324   0.174   0.147   2.917
 5142SOL    HW116325   0.233   0.183   2.844
 5142SOL    HW216326   0.080   0.178   2.902
 5143SOL     OW16327   0.331   6.412   2.902
 5143SOL    HW116328   0.243   6.440   2.942
 5143SOL    HW216329   0.340   6.452   2.811
 5144SOL     OW16330   2.348   2.830   5.479
 5144SOL    HW116331   2.438   2.849   5.441
 5144SOL    HW216332   2.300   2.764   5.421
 5145SOL     OW16333   2.498   6.062   0.036
 5145SOL    HW116334   2.530   6.016   6.978
 5145SOL    HW216335   2.466   5.994   0.102
 5146SOL     OW16336   4.910   4.801   6.282
 5146SOL    HW116337   4.993   4.818   6.335
 5146SOL    HW216338   4.934   4.797   6.184
 5147SOL     OW16339   4.594   2.554   3.588
 5147SOL    HW116340   4.585   2.530   3.684
 5147SOL    HW216341   4.520   2.512   3.535
 5148SOL     OW16342   0.755   0.179   6.747
 5148SOL    HW116343   0.799   0.206   6.661
 5148SOL    HW216344   0.794   0.233   6.822
 5149SOL     OW16345   4.847   4.825   3.810
 5149SOL    HW116346   4.935   4.778   3.805
 5149SOL    HW216347   4.846   4.902   3.746
 5150SOL     OW16348   0.127   6.085   3.893
 5150SOL    HW116349   0.151   6.104   3.798
 5150SOL    HW216350   0.140   6.167   3.947
 5151SOL     OW16351   6.011   5.219   2.106
 5151SOL    HW116352   5.963   5.199   2.021
 5151SOL    HW216353   6.110   5.215   2.089
 5152SOL     OW16354   0.887   1.590   0.130
 5152SOL    HW116355   0.878   1.651   0.051
 5152SOL    HW216356   0.797   1.569   0.167
 5153SOL     OW16357   1.156   1.589   1.064
 5153SOL    HW116358   1.191   1.534   0.989
 5153SOL    HW216359   1.224   1.658   1.090
 5154SOL     OW16360   6.945   3.051   0.224
 5154SOL    HW116361   7.003   3.128   0.197
 5154SOL    HW216362   6.856   3.085   0.253
 5155SOL     OW16363   1.682   1.562   0.418
 5155SOL    HW116364   1.585   1.574   0.439
 5155SOL    HW216365   1.692   1.519   0.329
 5156SOL     OW16366   5.308   6.048   5.480
 5156SOL    HW116367   5.286   6.145   5.468
 5156SOL    HW216368   5.268   5.996   5.404
 5157SOL     OW16369   3.095   0.217   0.937
 5157SOL    HW116370   3.068   0.122   0.920
 5157SOL    HW216371   3.173   0.219   0.999
 5158SOL     OW16372   2.258   2.150   2.041
 5158SOL    HW116373   2.205   2.203   2.107
 5158SOL    HW216374   2.325   2.210   1.997
 5159SOL     OW16375   6.718   3.078   5.638
 5159SOL    HW116376   6.669   3.002   5.682
 5159SOL    HW216377   6.657   3.157   5.632
 5160SOL     OW16378   6.668   6.448   3.477
 5160SOL    HW116379   6.738   6.410   3.537
 5160SOL    HW216380   6.630   6.531   3.519
 5161SOL     OW16381   0.897   3.775   0.499
 5161SOL    HW116382   0.938   3.867   0.500
 5161SOL    HW216383   0.877   3.748   0.405
 5162SOL     OW16384   0.330   6.895   3.513
 5162SOL    HW116385   0.327   6.985   3.556
 5162SOL    HW216386   0.383   6.900   3.428
 5163SOL     OW16387   2.892   0.141   2.080
 5163SOL    HW116388   2.926   0.061   2.032
 5163SOL    HW216389   2.793   0.137   2.085
 5164SOL     OW16390   3.213   3.471   0.400
 5164SOL    HW116391   3.166   3.540   0.455
 5164SOL    HW216392   3.306   3.502   0.380
 5165SOL     OW16393   1.689   4.270   6.326
 5165SOL    HW116394   1.776   4.301   6.289
 5165SOL    HW216395   1.615   4.300   6.266
 5166SOL     OW16396   1.540   5.482   0.910
 5166SOL    HW116397   1.550   5.389   0.946
 5166SOL    HW216398   1.599   5.544   0.961
 5167SOL     OW16399   5.494   3.259   5.232
 5167SOL    HW116400   5.395   3.271   5.242
 5167SOL    HW216401   5.515   3.161   5.234
 5168SOL     OW16402   4.332   2.363   2.838
 5168SOL    HW116403   4.238   2.396   2.847
 5168SOL    HW216404   4.396   2.434   2.867
 5169SOL     OW16405   3.914   6.147   4.152
 5169SOL    HW116406   3.931   6.087   4.074
 5169SOL    HW216407   3.917   6.094   4.237
 5170SOL     OW16408   1.426   3.533   6.633
 5170SOL    HW116409   1.454   3.621   6.671
 5170SOL    HW216410   1.507   3.477   6.615
 5171SOL     OW16411   2.240   6.306   5.061
 5171SOL    HW116412   2.320   6.249   5.041
 5171SOL    HW216413   2.173   6.295   4.988
 5172SOL     OW16414   6.505   5.276   4.764
 5172SOL    HW116415   6.594   5.305   4.727
 5172SOL    HW216416   6.514   5.262   4.863
 5173SOL     OW16417   4.621   4.014   5.701
 5173SOL    HW116418   4.627   3.954   5.780
 5173SOL    HW216419   4.581   4.102   5.729
 5174SOL     OW16420   2.199   6.589   3.246
 5174SOL    HW116421   2.181   6.582   3.148
 5174SOL    HW216422   2.257   6.668   3.264
 5175SOL     OW16423   3.373   3.560   6.951
 5175SOL    HW116424   3.463   3.570   6.909
 5175SOL    HW216425   3.318   3.641   6.932
 5176SOL     OW16426   5.913   6.040   6.858
 5176SOL    HW116427   5.963   5.999   6.783
 5176SOL    HW216428   5.936   5.993   6.943
 5177SOL     OW16429   6.157   6.987   0.228
 5177SOL    HW116430   6.139   6.933   0.146
 5177SOL    HW216431   6.236   0.022   0.211
 5178SOL     OW16432   0.667   4.814   2.137
 5178SOL    HW116433   0.621   4.731   2.103
 5178SOL    HW216434   0.762   4.814   2.106
 5179SOL     OW16435   5.285   5.862   2.425
 5179SOL    HW116436   5.227   5.870   2.506
 5179SOL    HW216437   5.329   5.950   2.407
 5180SOL     OW16438   2.651   6.795   2.494
 5180SOL    HW116439   2.605   6.848   2.565
 5180SOL    HW216440   2.622   6.827   2.404
 5181SOL     OW16441   0.439   0.196   5.954
 5181SOL    HW116442   0.412   0.269   6.016
 5181SOL    HW216443   0.500   0.132   6.002
 5182SOL     OW16444   2.891   6.019   3.558
 5182SOL    HW116445   2.899   5.942   3.495
 5182SOL    HW216446   2.800   6.017   3.601
 5183SOL     OW16447   4.078   1.855   3.635
 5183SOL    HW116448   4.086   1.766   3.681
 5183SOL    HW216449   4.047   1.842   3.541
 5184SOL     OW16450   2.868   1.188   3.788
 5184SOL    HW116451   2.908   1.215   3.876
 5184SOL    HW216452   2.803   1.259   3.759
 5185SOL     OW16453   6.347   0.480   1.794
 5185SOL    HW116454   6.314   0.421   1.721
 5185SOL    HW216455   6.420   0.433   1.844
 5186SOL     OW16456   6.895   3.222   6.792
 5186SOL    HW116457   6.796   3.234   6.793
 5186SOL    HW216458   6.937   3.275   6.866
 5187SOL     OW16459   1.779   4.943   5.294
 5187SOL    HW116460   1.752   4.866   5.351
 5187SOL    HW216461   1.701   5.005   5.282
 5188SOL     OW16462   6.198   6.753   2.434
 5188SOL    HW116463   6.183   6.664   2.391
 5188SOL    HW216464   6.262   6.806   2.378
 5189SOL     OW16465   5.389   6.850   6.460
 5189SOL    HW116466   5.333   6.926   6.427
 5189SOL    HW216467   5.410   6.788   6.384
 5190SOL     OW16468   1.559   3.892   0.693
 5190SOL    HW116469   1.615   3.958   0.643
 5190SOL    HW216470   1.586   3.890   0.789
 5191SOL     OW16471   3.337   4.956   2.556
 5191SOL    HW116472   3.262   4.907   2.599
 5191SOL    HW216473   3.379   5.018   2.622
 5192SOL     OW16474   1.943   4.834   2.379
 5192SOL    HW116475   2.006   4.910   2.363
 5192SOL    HW216476   1.957   4.763   2.310
 5193SOL     OW16477   5.393   0.149   5.619
 5193SOL    HW116478   5.380   0.114   5.527
 5193SOL    HW216479   5.429   0.242   5.615
 5194SOL     OW16480   5.482   2.331   6.703
 5194SOL    HW116481   5.545   2.266   6.661
 5194SOL    HW216482   5.531   2.388   6.769
 5195SOL     OW16483   0.115   0.292   4.309
 5195SOL    HW116484   0.210   0.319   4.327
 5195SOL    HW216485   0.056   0.373   4.312
 5196SOL     OW16486   5.620   6.480   2.622
 5196SOL    HW116487   5.670   6.512   2.542
 5196SOL    HW216488   5.603   6.381   2.613
 5197SOL     OW16489   1.105   3.717   5.302
 5197SOL    HW116490   1.181   3.744   5.242
 5197SOL    HW216491   1.082   3.621   5.285
 5198SOL     OW16492   5.688   5.456   2.879
 5198SOL    HW116493   5.747   5.529   2.915
 5198SOL    HW216494   5.662   5.477   2.785
 5199SOL     OW16495   6.931   4.652   1.665
 5199SOL    HW116496   6.987   4.638   1.584
 5199SOL    HW216497   6.940   4.746   1.696
 5200SOL     OW16498   0.168   3.801   4.803
 5200SOL    HW116499   0.217   3.876   4.847
 5200SOL    HW216500   0.215   3.715   4.821
 5201SOL     OW16501   1.743   5.245   4.208
 5201SOL    HW116502   1.829   5.195   4.200
 5201SOL    HW216503   1.668   5.188   4.173
 5202SOL     OW16504   0.413   4.970   1.485
 5202SOL    HW116505   0.335   4.987   1.546
 5202SOL    HW216506   0.383   4.974   1.390
 5203SOL     OW16507   0.986   2.578   0.473
 5203SOL    HW116508   1.065   2.594   0.413
 5203SOL    HW216509   0.907   2.628   0.437
 5204SOL     OW16510   4.909   4.756   6.927
 5204SOL    HW116511   4.841   4.684   6.918
 5204SOL    HW216512   4.864   4.845   6.916
 5205SOL     OW16513   1.823   0.434   1.828
 5205SOL    HW116514   1.756   0.473   1.766
 5205SOL    HW216515   1.781   0.419   1.918
 5206SOL     OW16516   0.430   4.305   5.778
 5206SOL    HW116517   0.443   4.357   5.694
 5206SOL    HW216518   0.515   4.307   5.832
 5207SOL     OW16519   1.921   4.639   4.137
 5207SOL    HW116520   2.020   4.621   4.139
 5207SOL    HW216521   1.904   4.733   4.168
 5208SOL     OW16522   4.082   1.662   6.525
 5208SOL    HW116523   4.045   1.747   6.487
 5208SOL    HW216524   4.153   1.627   6.464
 5209SOL     OW16525   5.248   6.488   2.873
 5209SOL    HW116526   5.198   6.412   2.913
 5209SOL    HW216527   5.187   6.540   2.813
 5210SOL     OW16528   4.723   5.278   3.517
 5210SOL    HW116529   4.648   5.340   3.495
 5210SOL    HW216530   4.796   5.329   3.562
 5211SOL     OW16531   4.002   3.252   2.968
 5211SOL    HW116532   3.918   3.257   3.022
 5211SOL    HW216533   3.981   3.215   2.877
 5212SOL     OW16534   0.867   2.328   0.469
 5212SOL    HW116535   0.905   2.417   0.447
 5212SOL    HW216536   0.774   2.321   0.432
 5213SOL     OW16537   4.329   1.902   6.372
 5213SOL    HW116538   4.347   1.893   6.274
 5213SOL    HW216539   4.250   1.962   6.386
 5214SOL     OW16540   5.717   1.599   5.570
 5214SOL    HW116541   5.712   1.650   5.484
 5214SOL    HW216542   5.792   1.534   5.566
 5215SOL     OW16543   4.970   4.989   2.751
 5215SOL    HW116544   4.907   5.061   2.720
 5215SOL    HW216545   4.917   4.906   2.771
 5216SOL     OW16546   4.834   5.130   0.955
 5216SOL    HW116547   4.890   5.141   0.873
 5216SOL    HW216548   4.877   5.066   1.017
 5217SOL     OW16549   2.522   4.748   4.257
 5217SOL    HW116550   2.538   4.839   4.296
 5217SOL    HW216551   2.586   4.731   4.183
 5218SOL     OW16552   1.729   6.691   3.831
 5218SOL    HW116553   1.816   6.689   3.781
 5218SOL    HW216554   1.746   6.714   3.926
 5219SOL     OW16555   3.246   6.410   0.156
 5219SOL    HW116556   3.296   6.439   0.238
 5219SOL    HW216557   3.161   6.463   0.148
 5220SOL     OW16558   0.762   6.525   2.804
 5220SOL    HW116559   0.702   6.490   2.732
 5220SOL    HW216560   0.708   6.545   2.886
 5221SOL     OW16561   5.012   1.437   4.722
 5221SOL    HW116562   4.981   1.358   4.669
 5221SOL    HW216563   5.094   1.475   4.680
 5222SOL     OW16564   1.583   0.719   2.995
 5222SOL    HW116565   1.573   0.746   2.899
 5222SOL    HW216566   1.571   0.620   3.003
 5223SOL     OW16567   4.849   0.117   1.656
 5223SOL    HW116568   4.816   0.024   1.643
 5223SOL    HW216569   4.773   0.177   1.682
 5224SOL     OW16570   5.811   1.918   2.481
 5224SOL    HW116571   5.853   1.888   2.396
 5224SOL    HW216572   5.825   2.016   2.493
 5225SOL     OW16573   5.506   6.093   4.726
 5225SOL    HW116574   5.585   6.050   4.683
 5225SOL    HW216575   5.438   6.023   4.750
 5226SOL     OW16576   1.486   6.365   3.750
 5226SOL    HW116577   1.545   6.435   3.709
 5226SOL    HW216578   1.398   6.406   3.773
 5227SOL     OW16579   5.990   4.589   3.328
 5227SOL    HW116580   5.944   4.544   3.252
 5227SOL    HW216581   6.024   4.679   3.299
 5228SOL     OW16582   5.303   1.124   0.735
 5228SOL    HW116583   5.238   1.182   0.784
 5228SOL    HW216584   5.393   1.134   0.777
 5229SOL     OW16585   1.299   4.149   5.418
 5229SOL    HW116586   1.316   4.239   5.377
 5229SOL    HW216587   1.372   4.086   5.393
 5230SOL     OW16588   0.454   0.108   0.239
 5230SOL    HW116589   0.495   0.066   0.320
 5230SOL    HW216590   0.435   0.204   0.257
 5231SOL     OW16591   3.987   3.092   3.261
 5231SOL    HW116592   4.033   3.180   3.275
 5231SOL    HW216593   3.889   3.107   3.248
 5232SOL     OW16594   4.740   2.490   6.577
 5232SOL    HW116595   4.770   2.584   6.597
 5232SOL    HW216596   4.808   2.426   6.613
 5233SOL     OW16597   1.077   0.357   2.510
 5233SOL    HW116598   1.148   0.386   2.573
 5233SOL    HW216599   1.037   0.437   2.466
 5234SOL     OW16600   3.862   6.994   0.865
 5234SOL    HW116601   3.872   6.905   0.909
 5234SOL    HW216602   3.952   0.004   0.838
 5235SOL     OW16603   0.725   2.905   1.052
 5235SOL    HW116604   0.788   2.851   1.108
 5235SOL    HW216605   0.773   2.941   0.972
 5236SOL     OW16606   5.306   3.237   1.063
 5236SOL    HW116607   5.243   3.195   1.128
 5236SOL    HW216608   5.275   3.329   1.040
 5237SOL     OW16609   2.470   2.089   5.215
 5237SOL    HW116610   2.447   2.109   5.120
 5237SOL    HW216611   2.512   2.169   5.258
 5238SOL     OW16612   1.829   4.506   1.088
 5238SOL    HW116613   1.883   4.522   1.005
 5238SOL    HW216614   1.792   4.592   1.121
 5239SOL     OW16615   3.073   3.380   3.908
 5239SOL    HW116616   3.159   3.422   3.881
 5239SOL    HW216617   3.083   3.336   3.997
 5240SOL     OW16618   3.307   2.037   5.007
 5240SOL    HW116619   3.394   2.042   5.055
 5240SOL    HW216620   3.260   2.125   5.013
 5241SOL     OW16621   1.768   6.078   6.967
 5241SOL    HW116622   1.709   6.077   6.885
 5241SOL    HW216623   1.840   6.009   6.957
 5242SOL     OW16624   6.144   1.305   5.620
 5242SOL    HW116625   6.240   1.318   5.645
 5242SOL    HW216626   6.131   1.214   5.583
 5243SOL     OW16627   1.675   4.633   1.416
 5243SOL    HW116628   1.586   4.624   1.371
 5243SOL    HW216629   1.715   4.542   1.427
 5244SOL     OW16630   5.155   4.268   5.518
 5244SOL    HW116631   5.128   4.358   5.484
 5244SOL    HW216632   5.089   4.237   5.587
 5245SOL     OW16633   4.699   4.099   6.883
 5245SOL    HW116634   4.751   4.077   6.966
 5245SOL    HW216635   4.734   4.044   6.807
 5246SOL     OW16636   1.259   3.253   2.950
 5246SOL    HW116637   1.223   3.166   2.985
 5246SOL    HW216638   1.213   3.329   2.997
 5247SOL     OW16639   1.063   5.473   1.012
 5247SOL    HW116640   1.156   5.460   1.046
 5247SOL    HW216641   1.016   5.542   1.067
 5248SOL     OW16642   5.230   0.929   5.845
 5248SOL    HW116643   5.200   0.869   5.771
 5248SOL    HW216644   5.256   1.018   5.807
 5249SOL     OW16645   1.241   5.119   4.744
 5249SOL    HW116646   1.181   5.173   4.685
 5249SOL    HW216647   1.313   5.077   4.688
 5250SOL     OW16648   0.713   1.255   6.440
 5250SOL    HW116649   0.780   1.317   6.480
 5250SOL    HW216650   0.759   1.184   6.387
 5251SOL     OW16651   6.505   3.128   1.440
 5251SOL    HW116652   6.477   3.223   1.456
 5251SOL    HW216653   6.424   3.070   1.430
 5252SOL     OW16654   4.208   5.912   0.641
 5252SOL    HW116655   4.170   5.905   0.734
 5252SOL    HW216656   4.151   5.974   0.587
 5253SOL     OW16657   5.732   3.511   4.005
 5253SOL    HW116658   5.792   3.433   3.986
 5253SOL    HW216659   5.715   3.561   3.920
 5254SOL     OW16660   4.657   1.064   3.886
 5254SOL    HW116661   4.712   1.078   3.803
 5254SOL    HW216662   4.594   0.988   3.871
 5255SOL     OW16663   3.083   6.562   5.139
 5255SOL    HW116664   3.112   6.477   5.181
 5255SOL    HW216665   3.133   6.639   5.179
 5256SOL     OW16666   5.516   6.570   3.891
 5256SOL    HW116667   5.442   6.635   3.908
 5256SOL    HW216668   5.479   6.487   3.850
 5257SOL     OW16669   3.843   0.222   1.176
 5257SOL    HW116670   3.912   0.291   1.196
 5257SOL    HW216671   3.795   0.198   1.260
 5258SOL     OW16672   5.538   3.673   2.469
 5258SOL    HW116673   5.451   3.629   2.445
 5258SOL    HW216674   5.578   3.628   2.548
 5259SOL     OW16675   4.820   5.209   2.638
 5259SOL    HW116676   4.738   5.215   2.695
 5259SOL    HW216677   4.794   5.175   2.547
 5260SOL     OW16678   5.544   3.458   1.199
 5260SOL    HW116679   5.444   3.458   1.211
 5260SOL    HW216680   5.587   3.506   1.275
 5261SOL     OW16681   1.234   2.491   4.761
 5261SOL    HW116682   1.289   2.496   4.677
 5261SOL    HW216683   1.198   2.582   4.783
 5262SOL     OW16684   2.897   6.714   1.892
 5262SOL    HW116685   2.804   6.742   1.915
 5262SOL    HW216686   2.948   6.793   1.858
 5263SOL     OW16687   1.600   6.856   6.554
 5263SOL    HW116688   1.521   6.836   6.610
 5263SOL    HW216689   1.605   6.792   6.478
 5264SOL     OW16690   0.435   2.365   0.862
 5264SOL    HW116691   0.527   2.357   0.900
 5264SOL    HW216692   0.377   2.413   0.928
 5265SOL     OW16693   5.083   4.378   1.573
 5265SOL    HW116694   4.999   4.337   1.607
 5265SOL    HW216695   5.060   4.449   1.506
 5266SOL     OW16696   1.409   6.679   1.622
 5266SOL    HW116697   1.457   6.687   1.535
 5266SOL    HW216698   1.384   6.770   1.655
 5267SOL     OW16699   4.862   4.642   4.929
 5267SOL    HW116700   4.947   4.643   4.877
 5267SOL    HW216701   4.825   4.549   4.931
 5268SOL     OW16702   5.684   5.152   4.986
 5268SOL    HW116703   5.755   5.127   4.920
 5268SOL    HW216704   5.723   5.210   5.057
 5269SOL     OW16705   2.291   5.685   3.869
 5269SOL    HW116706   2.288   5.778   3.831
 5269SOL    HW216707   2.299   5.690   3.969
 5270SOL     OW16708   6.286   2.608   2.162
 5270SOL    HW116709   6.363   2.669   2.144
 5270SOL    HW216710   6.200   2.658   2.149
 5271SOL     OW16711   5.082   4.350   4.794
 5271SOL    HW116712   5.165   4.405   4.807
 5271SOL    HW216713   5.103   4.254   4.815
 5272SOL     OW16714   1.135   0.668   4.957
 5272SOL    HW116715   1.093   0.655   5.046
 5272SOL    HW216716   1.192   0.589   4.934
 5273SOL     OW16717   0.732   1.482   3.841
 5273SOL    HW116718   0.706   1.565   3.890
 5273SOL    HW216719   0.743   1.503   3.743
 5274SOL     OW16720   6.578   5.309   4.185
 5274SOL    HW116721   6.576   5.238   4.114
 5274SOL    HW216722   6.647   5.378   4.160
 5275SOL     OW16723   1.891   6.969   7.011
 5275SOL    HW116724   1.964   6.924   0.039
 5275SOL    HW216725   1.926   0.031   6.974
 5276SOL     OW16726   0.184   6.847   1.475
 5276SOL    HW116727   0.185   6.944   1.496
 5276SOL    HW216728   0.172   6.834   1.377
 5277SOL     OW16729   0.878   1.859   3.593
 5277SOL    HW116730   0.822   1.894   3.669
 5277SOL    HW216731   0.829   1.873   3.507
 5278SOL     OW16732   0.652   5.141   5.514
 5278SOL    HW116733   0.630   5.166   5.420
 5278SOL    HW216734   0.749   5.116   5.520
 5279SOL     OW16735   1.697   5.622   6.681
 5279SOL    HW116736   1.664   5.559   6.751
 5279SOL    HW216737   1.733   5.571   6.603
 5280SOL     OW16738   3.989   5.567   4.599
 5280SOL    HW116739   4.089   5.574   4.606
 5280SOL    HW216740   3.965   5.535   4.508
 5281SOL     OW16741   2.204   0.707   5.172
 5281SOL    HW116742   2.159   0.635   5.224
 5281SOL    HW216743   2.301   0.687   5.163
 5282SOL     OW16744   1.405   0.868   2.234
 5282SOL    HW116745   1.425   0.844   2.139
 5282SOL    HW216746   1.336   0.805   2.270
 5283SOL     OW16747   0.092   1.130   4.183
 5283SOL    HW116748   0.116   1.185   4.263
 5283SOL    HW216749   0.075   1.036   4.211
 5284SOL     OW16750   4.941   2.253   2.033
 5284SOL    HW116751   4.872   2.264   1.962
 5284SOL    HW216752   4.916   2.176   2.092
 5285SOL     OW16753   0.876   2.806   4.033
 5285SOL    HW116754   0.883   2.718   4.079
 5285SOL    HW216755   0.807   2.862   4.079
 5286SOL     OW16756   6.100   2.790   1.295
 5286SOL    HW116757   6.200   2.798   1.294
 5286SOL    HW216758   6.074   2.696   1.273
 5287SOL     OW16759   2.777   5.002   1.190
 5287SOL    HW116760   2.839   5.080   1.180
 5287SOL    HW216761   2.684   5.036   1.208
 5288SOL     OW16762   5.136   0.452   2.548
 5288SOL    HW116763   5.072   0.376   2.536
 5288SOL    HW216764   5.115   0.499   2.634
 5289SOL     OW16765   1.733   4.803   6.543
 5289SOL    HW116766   1.797   4.826   6.617
 5289SOL    HW216767   1.747   4.708   6.516
 5290SOL     OW16768   1.565   2.956   5.582
 5290SOL    HW116769   1.553   2.943   5.484
 5290SOL    HW216770   1.649   3.008   5.599
 5291SOL     OW16771   2.542   4.738   4.966
 5291SOL    HW116772   2.632   4.697   4.953
 5291SOL    HW216773   2.543   4.795   5.048
 5292SOL     OW16774   6.972   3.934   6.341
 5292SOL    HW116775   6.995   3.845   6.302
 5292SOL    HW216776   6.902   3.922   6.411
 5293SOL     OW16777   2.454   5.813   4.588
 5293SOL    HW116778   2.545   5.817   4.547
 5293SOL    HW216779   2.401   5.740   4.545
 5294SOL     OW16780   4.098   0.783   5.071
 5294SOL    HW116781   4.058   0.870   5.042
 5294SOL    HW216782   4.117   0.726   4.990
 5295SOL     OW16783   3.381   0.609   1.942
 5295SOL    HW116784   3.404   0.661   2.024
 5295SOL    HW216785   3.283   0.620   1.923
 5296SOL     OW16786   3.905   4.240   0.866
 5296SOL    HW116787   3.898   4.141   0.877
 5296SOL    HW216788   3.978   4.275   0.923
 5297SOL     OW16789   2.577   4.277   0.631
 5297SOL    HW116790   2.604   4.284   0.535
 5297SOL    HW216791   2.478   4.267   0.637
 5298SOL     OW16792   2.016   0.078   0.423
 5298SOL    HW116793   1.953   0.003   0.441
 5298SOL    HW216794   2.030   0.087   0.325
 5299SOL     OW16795   2.993   2.217   0.318
 5299SOL    HW116796   3.071   2.199   0.378
 5299SOL    HW216797   2.909   2.211   0.371
 5300SOL     OW16798   2.182   4.456   0.118
 5300SOL    HW116799   2.276   4.457   0.152
 5300SOL    HW216800   2.176   4.398   0.037
 5301SOL     OW16801   4.605   0.315   6.214
 5301SOL    HW116802   4.677   0.381   6.232
 5301SOL    HW216803   4.516   0.358   6.229
 5302SOL     OW16804   5.400   5.745   3.399
 5302SOL    HW116805   5.383   5.699   3.312
 5302SOL    HW216806   5.496   5.737   3.423
 5303SOL     OW16807   6.849   4.913   6.513
 5303SOL    HW116808   6.946   4.926   6.495
 5303SOL    HW216809   6.825   4.951   6.602
 5304SOL     OW16810   6.339   1.110   1.327
 5304SOL    HW116811   6.409   1.040   1.319
 5304SOL    HW216812   6.276   1.104   1.249
 5305SOL     OW16813   1.537   5.551   2.683
 5305SOL    HW116814   1.568   5.537   2.777
 5305SOL    HW216815   1.562   5.472   2.627
 5306SOL     OW16816   6.910   3.884   5.577
 5306SOL    HW116817   6.837   3.930   5.627
 5306SOL    HW216818   6.949   3.946   5.509
 5307SOL     OW16819   5.023   2.309   0.650
 5307SOL    HW116820   4.971   2.224   0.655
 5307SOL    HW216821   4.961   2.385   0.633
 5308SOL     OW16822   1.380   4.876   3.009
 5308SOL    HW116823   1.358   4.806   2.942
 5308SOL    HW216824   1.326   4.861   3.092
 5309SOL     OW16825   4.533   5.965   3.264
 5309SOL    HW116826   4.620   5.917   3.271
 5309SOL    HW216827   4.520   6.024   3.344
 5310SOL     OW16828   6.265   3.144   2.872
 5310SOL    HW116829   6.192   3.113   2.933
 5310SOL    HW216830   6.352   3.104   2.902
 5311SOL     OW16831   6.101   0.011   0.709
 5311SOL    HW116832   6.080   7.010   0.804
 5311SOL    HW216833   6.149   0.099   0.708
 5312SOL     OW16834   0.342   6.479   1.551
 5312SOL    HW116835   0.415   6.528   1.503
 5312SOL    HW216836   0.290   6.543   1.607
 5313SOL     OW16837   6.417   5.143   5.141
 5313SOL    HW116838   6.491   5.152   5.207
 5313SOL    HW216839   6.331   5.169   5.184
 5314SOL     OW16840   6.162   6.671   1.257
 5314SOL    HW116841   6.164   6.585   1.307
 5314SOL    HW216842   6.239   6.728   1.285
 5315SOL     OW16843   4.193   1.384   3.407
 5315SOL    HW116844   4.117   1.353   3.465
 5315SOL    HW216845   4.279   1.364   3.453
 5316SOL     OW16846   0.799   2.994   4.879
 5316SOL    HW116847   0.790   3.005   4.780
 5316SOL    HW216848   0.712   2.963   4.917
 5317SOL     OW16849   6.451   1.463   5.953
 5317SOL    HW116850   6.434   1.404   5.874
 5317SOL    HW216851   6.371   1.461   6.014
 5318SOL     OW16852   6.346   3.438   0.063
 5318SOL    HW116853   6.368   3.411   6.994
 5318SOL    HW216854   6.363   3.536   0.074
 5319SOL     OW16855   4.441   6.926   0.884
 5319SOL    HW116856   4.373   6.987   0.924
 5319SOL    HW216857   4.533   6.959   0.905
 5320SOL     OW16858   3.308   6.276   1.318
 5320SOL    HW116859   3.283   6.190   1.362
 5320SOL    HW216860   3.381   6.321   1.370
 5321SOL     OW16861   1.733   4.821   4.918
 5321SOL    HW116862   1.728   4.813   4.818
 5321SOL    HW216863   1.648   4.860   4.952
 5322SOL     OW16864   5.527   6.923   1.908
 5322SOL    HW116865   5.551   6.974   1.991
 5322SOL    HW216866   5.460   6.853   1.930
 5323SOL     OW16867   4.529   1.732   5.176
 5323SOL    HW116868   4.456   1.783   5.129
 5323SOL    HW216869   4.492   1.646   5.211
 5324SOL     OW16870   2.817   2.473   0.064
 5324SOL    HW116871   2.749   2.428   0.005
 5324SOL    HW216872   2.782   2.477   0.157
 5325SOL     OW16873   2.691   1.991   4.986
 5325SOL    HW116874   2.771   2.039   5.022
 5325SOL    HW216875   2.621   1.985   5.057
 5326SOL     OW16876   6.399   6.078   2.706
 5326SOL    HW116877   6.322   6.137   2.686
 5326SOL    HW216878   6.423   6.086   2.803
 5327SOL     OW16879   5.624   2.575   4.856
 5327SOL    HW116880   5.643   2.508   4.928
 5327SOL    HW216881   5.631   2.667   4.893
 5328SOL     OW16882   4.032   4.063   6.441
 5328SOL    HW116883   4.016   4.049   6.539
 5328SOL    HW216884   4.120   4.110   6.428
 5329SOL     OW16885   1.362   5.842   6.337
 5329SOL    HW116886   1.420   5.815   6.261
 5329SOL    HW216887   1.418   5.879   6.411
 5330SOL     OW16888   3.339   3.105   0.552
 5330SOL    HW116889   3.325   3.176   0.621
 5330SOL    HW216890   3.316   3.016   0.591
 5331SOL     OW16891   6.412   1.259   6.316
 5331SOL    HW116892   6.488   1.284   6.255
 5331SOL    HW216893   6.444   1.261   6.411
 5332SOL     OW16894   1.491   4.758   1.782
 5332SOL    HW116895   1.588   4.734   1.781
 5332SOL    HW216896   1.437   4.680   1.750
 5333SOL     OW16897   1.365   6.951   3.895
 5333SOL    HW116898   1.425   7.017   3.940
 5333SOL    HW216899   1.328   6.887   3.963
 5334SOL     OW16900   3.277   0.051   4.626
 5334SOL    HW116901   3.334   0.066   4.707
 5334SOL    HW216902   3.268   0.137   4.576
 5335SOL     OW16903   6.905   5.538   0.918
 5335SOL    HW116904   6.854   5.484   0.984
 5335SOL    HW216905   6.886   5.635   0.933
 5336SOL     OW16906   1.847   3.225   2.276
 5336SOL    HW116907   1.766   3.238   2.334
 5336SOL    HW216908   1.929   3.255   2.325
 5337SOL     OW16909   4.820   4.004   0.973
 5337SOL    HW116910   4.766   4.065   1.032
 5337SOL    HW216911   4.916   4.010   0.998
 5338SOL     OW16912   6.591   2.053   0.298
 5338SOL    HW116913   6.649   2.001   0.236
 5338SOL    HW216914   6.495   2.035   0.278
 5339SOL     OW16915   6.802   1.710   3.461
 5339SOL    HW116916   6.835   1.752   3.376
 5339SOL    HW216917   6.861   1.736   3.537
 5340SOL     OW16918   5.585   2.899   0.013
 5340SOL    HW116919   5.614   2.960   0.087
 5340SOL    HW216920   5.624   2.931   6.951
 5341SOL     OW16921   4.209   1.588   5.851
 5341SOL    HW116922   4.299   1.620   5.824
 5341SOL    HW216923   4.204   1.488   5.845
 5342SOL     OW16924   4.084   0.372   5.239
 5342SOL    HW116925   4.181   0.354   5.257
 5342SOL    HW216926   4.064   0.353   5.143
 5343SOL     OW16927   3.776   3.352   2.305
 5343SOL    HW116928   3.775   3.402   2.218
 5343SOL    HW216929   3.683   3.322   2.327
 5344SOL     OW16930   1.641   2.957   3.375
 5344SOL    HW116931   1.686   2.941   3.463
 5344SOL    HW216932   1.578   3.034   3.383
 5345SOL     OW16933   4.572   6.678   1.027
 5345SOL    HW116934   4.554   6.730   1.111
 5345SOL    HW216935   4.623   6.736   0.963
 5346SOL     OW16936   3.043   6.290   3.240
 5346SOL    HW116937   3.082   6.198   3.237
 5346SOL    HW216938   3.045   6.329   3.148
 5347SOL     OW16939   0.207   1.716   1.678
 5347SOL    HW116940   0.257   1.798   1.652
 5347SOL    HW216941   0.143   1.737   1.751
 5348SOL     OW16942   0.980   1.218   0.330
 5348SOL    HW116943   0.910   1.253   0.392
 5348SOL    HW216944   1.033   1.295   0.293
 5349SOL     OW16945   0.062   1.471   0.457
 5349SOL    HW116946   0.073   1.384   0.408
 5349SOL    HW216947   6.994   1.477   0.493
 5350SOL     OW16948   2.779   1.005   6.391
 5350SOL    HW116949   2.856   0.995   6.328
 5350SOL    HW216950   2.702   1.046   6.344
 5351SOL     OW16951   4.944   6.246   1.123
 5351SOL    HW116952   4.950   6.345   1.137
 5351SOL    HW216953   4.942   6.225   1.026
 5352SOL     OW16954   2.353   5.785   3.529
 5352SOL    HW116955   2.449   5.774   3.503
 5352SOL    HW216956   2.316   5.697   3.559
 5353SOL     OW16957   4.530   5.576   4.865
 5353SOL    HW116958   4.459   5.571   4.935
 5353SOL    HW216959   4.619   5.587   4.909
 5354SOL     OW16960   1.739   4.966   2.062
 5354SOL    HW116961   1.705   4.964   1.968
 5354SOL    HW216962   1.828   5.011   2.065
 5355SOL     OW16963   4.563   1.651   3.484
 5355SOL    HW116964   4.619   1.626   3.405
 5355SOL    HW216965   4.510   1.733   3.463
 5356SOL     OW16966   5.983   3.885   1.389
 5356SOL    HW116967   5.883   3.888   1.394
 5356SOL    HW216968   6.018   3.807   1.440
 5357SOL     OW16969   3.947   0.156   0.472
 5357SOL    HW116970   3.992   0.160   0.383
 5357SOL    HW216971   3.916   0.247   0.498
 5358SOL     OW16972   4.494   2.343   0.886
 5358SOL    HW116973   4.511   2.400   0.806
 5358SOL    HW216974   4.573   2.283   0.901
 5359SOL     OW16975   2.417   2.159   0.971
 5359SOL    HW116976   2.385   2.071   0.937
 5359SOL    HW216977   2.502   2.145   1.022
 5360SOL     OW16978   3.802   6.634   5.676
 5360SOL    HW116979   3.826   6.537   5.668
 5360SOL    HW216980   3.705   6.643   5.701
 5361SOL     OW16981   1.952   1.410   5.092
 5361SOL    HW116982   2.022   1.474   5.061
 5361SOL    HW216983   1.995   1.326   5.125
 5362SOL     OW16984   4.718   4.981   2.989
 5362SOL    HW116985   4.652   4.936   2.930
 5362SOL    HW216986   4.706   5.080   2.982
 5363SOL     OW16987   1.089   5.233   6.158
 5363SOL    HW116988   1.062   5.163   6.224
 5363SOL    HW216989   1.187   5.227   6.140
 5364SOL     OW16990   6.652   6.078   0.796
 5364SOL    HW116991   6.606   6.152   0.844
 5364SOL    HW216992   6.747   6.071   0.827
 5365SOL     OW16993   4.413   2.643   6.005
 5365SOL    HW116994   4.358   2.621   5.925
 5365SOL    HW216995   4.504   2.602   5.995
 5366SOL     OW16996   4.018   4.509   0.598
 5366SOL    HW116997   4.019   4.418   0.640
 5366SOL    HW216998   3.934   4.520   0.545
 5367SOL     OW16999   0.359   4.942   1.230
 5367SOL    HW117000   0.349   4.992   1.144
 5367SOL    HW217001   0.387   4.848   1.210
 5368SOL     OW17002   5.544   2.424   3.098
 5368SOL    HW117003   5.453   2.399   3.130
 5368SOL    HW217004   5.550   2.523   3.088
 5369SOL     OW17005   2.454   4.712   3.256
 5369SOL    HW117006   2.541   4.667   3.273
 5369SOL    HW217007   2.386   4.644   3.229
 5370SOL     OW17008   3.827   3.299   1.449
 5370SOL    HW117009   3.892   3.264   1.516
 5370SOL    HW217010   3.735   3.301   1.488
 5371SOL     OW17011   1.672   4.468   4.534
 5371SOL    HW117012   1.715   4.382   4.560
 5371SOL    HW217013   1.638   4.514   4.617
 5372SOL     OW17014   2.879   4.778   2.671
 5372SOL    HW117015   2.880   4.767   2.571
 5372SOL    HW217016   2.844   4.695   2.713
 5373SOL     OW17017   3.207   4.883   4.359
 5373SOL    HW117018   3.278   4.818   4.388
 5373SOL    HW217019   3.119   4.854   4.396
 5374SOL     OW17020   2.089   2.954   6.580
 5374SOL    HW117021   2.098   2.989   6.487
 5374SOL    HW217022   2.030   2.873   6.580
 5375SOL     OW17023   1.562   4.587   4.747
 5375SOL    HW117024   1.501   4.660   4.778
 5375SOL    HW217025   1.576   4.521   4.821
 5376SOL     OW17026   1.677   3.382   1.796
 5376SOL    HW117027   1.666   3.360   1.893
 5376SOL    HW217028   1.775   3.389   1.774
 5377SOL     OW17029   0.164   0.109   1.500
 5377SOL    HW117030   0.252   0.150   1.526
 5377SOL    HW217031   0.126   0.158   1.423
 5378SOL     OW17032   6.103   0.613   0.004
 5378SOL    HW117033   6.192   0.571   7.015
 5378SOL    HW217034   6.084   0.678   6.955
 5379SOL     OW17035   0.200   5.387   3.419
 5379SOL    HW117036   0.218   5.452   3.345
 5379SOL    HW217037   0.113   5.340   3.403
 5380SOL     OW17038   2.119   6.933   3.767
 5380SOL    HW117039   2.118   6.843   3.810
 5380SOL    HW217040   2.213   6.966   3.762
 5381SOL     OW17041   5.962   4.304   1.186
 5381SOL    HW117042   5.972   4.254   1.272
 5381SOL    HW217043   5.981   4.243   1.110
 5382SOL     OW17044   3.381   0.818   1.285
 5382SOL    HW117045   3.473   0.803   1.321
 5382SOL    HW217046   3.317   0.834   1.361
 5383SOL     OW17047   2.739   2.209   5.446
 5383SOL    HW117048   2.683   2.286   5.475
 5383SOL    HW217049   2.796   2.236   5.368
 5384SOL     OW17050   6.126   6.520   4.565
 5384SOL    HW117051   6.167   6.470   4.488
 5384SOL    HW217052   6.089   6.607   4.532
 5385SOL     OW17053   3.066   3.755   2.499
 5385SOL    HW117054   3.074   3.786   2.404
 5385SOL    HW217055   3.039   3.831   2.557
 5386SOL     OW17056   4.579   6.460   4.121
 5386SOL    HW117057   4.643   6.463   4.044
 5386SOL    HW217058   4.503   6.522   4.103
 5387SOL     OW17059   3.296   5.290   1.945
 5387SOL    HW117060   3.236   5.225   1.899
 5387SOL    HW217061   3.268   5.383   1.923
 5388SOL     OW17062   5.709   6.630   2.299
 5388SOL    HW117063   5.631   6.661   2.352
 5388SOL    HW217064   5.788   6.687   2.319
 5389SOL     OW17065   4.546   1.065   1.850
 5389SOL    HW117066   4.516   1.104   1.763
 5389SOL    HW217067   4.618   1.122   1.889
 5390SOL     OW17068   5.742   5.066   4.629
 5390SOL    HW117069   5.753   5.135   4.700
 5390SOL    HW217070   5.820   5.069   4.567
 5391SOL     OW17071   2.712   3.510   0.318
 5391SOL    HW117072   2.739   3.415   0.301
 5391SOL    HW217073   2.713   3.528   0.416
 5392SOL     OW17074   5.780   2.863   1.715
 5392SOL    HW117075   5.783   2.768   1.683
 5392SOL    HW217076   5.687   2.883   1.748
 5393SOL     OW17077   6.753   6.968   0.026
 5393SOL    HW117078   6.777   6.998   0.118
 5393SOL    HW217079   6.825   6.910   7.015
 5394SOL     OW17080   0.897   3.857   6.460
 5394SOL    HW117081   0.925   3.886   6.368
 5394SOL    HW217082   0.799   3.870   6.471
 5395SOL     OW17083   4.361   0.554   0.884
 5395SOL    HW117084   4.421   0.580   0.809
 5395SOL    HW217085   4.275   0.518   0.847
 5396SOL     OW17086   5.040   3.768   2.230
 5396SOL    HW117087   5.071   3.855   2.269
 5396SOL    HW217088   4.993   3.715   2.300
 5397SOL     OW17089   6.712   3.146   1.619
 5397SOL    HW117090   6.766   3.213   1.567
 5397SOL    HW217091   6.619   3.143   1.581
 5398SOL     OW17092   3.040   2.397   1.557
 5398SOL    HW117093   3.088   2.475   1.597
 5398SOL    HW217094   3.064   2.313   1.607
 5399SOL     OW17095   2.138   6.326   0.847
 5399SOL    HW117096   2.142   6.275   0.761
 5399SOL    HW217097   2.230   6.353   0.874
 5400SOL     OW17098   2.763   4.661   0.575
 5400SOL    HW117099   2.840   4.648   0.512
 5400SOL    HW217100   2.679   4.674   0.522
 5401SOL     OW17101   6.017   3.308   1.770
 5401SOL    HW117102   6.053   3.228   1.722
 5401SOL    HW217103   5.933   3.284   1.818
 5402SOL     OW17104   2.629   6.255   1.700
 5402SOL    HW117105   2.601   6.202   1.780
 5402SOL    HW217106   2.696   6.324   1.727
 5403SOL     OW17107   6.980   3.303   6.535
 5403SOL    HW117108   6.978   3.283   6.633
 5403SOL    HW217109   6.981   3.218   6.483
 5404SOL     OW17110   1.598   2.927   4.098
 5404SOL    HW117111   1.534   2.948   4.024
 5404SOL    HW217112   1.548   2.915   4.184
 5405SOL     OW17113   0.344   5.234   6.008
 5405SOL    HW117114   0.413   5.301   6.038
 5405SOL    HW217115   0.389   5.159   5.960
 5406SOL     OW17116   1.367   1.912   0.276
 5406SOL    HW117117   1.432   1.851   0.231
 5406SOL    HW217118   1.395   2.007   0.263
 5407SOL     OW17119   4.198   3.388   0.600
 5407SOL    HW117120   4.208   3.341   0.687
 5407SOL    HW217121   4.205   3.487   0.614
 5408SOL     OW17122   2.208   0.824   5.429
 5408SOL    HW117123   2.184   0.730   5.452
 5408SOL    HW217124   2.248   0.828   5.337
 5409SOL     OW17125   5.265   0.656   3.052
 5409SOL    HW117126   5.323   0.738   3.043
 5409SOL    HW217127   5.323   0.574   3.047
 5410SOL     OW17128   3.431   2.014   2.039
 5410SOL    HW117129   3.367   2.085   2.067
 5410SOL    HW217130   3.523   2.053   2.032
 5411SOL     OW17131   6.583   4.857   6.088
 5411SOL    HW117132   6.567   4.956   6.086
 5411SOL    HW217133   6.665   4.836   6.034
 5412SOL     OW17134   5.354   3.097   0.670
 5412SOL    HW117135   5.268   3.047   0.662
 5412SOL    HW217136   5.401   3.069   0.753
 5413SOL     OW17137   3.262   2.133   1.509
 5413SOL    HW117138   3.249   2.190   1.590
 5413SOL    HW217139   3.231   2.183   1.428
 5414SOL     OW17140   4.432   1.354   4.781
 5414SOL    HW117141   4.457   1.451   4.773
 5414SOL    HW217142   4.346   1.338   4.731
 5415SOL     OW17143   0.406   5.821   1.107
 5415SOL    HW117144   0.420   5.833   1.009
 5415SOL    HW217145   0.489   5.845   1.156
 5416SOL     OW17146   4.216   4.766   4.635
 5416SOL    HW117147   4.225   4.672   4.600
 5416SOL    HW217148   4.231   4.766   4.734
 5417SOL     OW17149   3.642   6.755   5.403
 5417SOL    HW117150   3.739   6.771   5.419
 5417SOL    HW217151   3.597   6.841   5.382
 5418SOL     OW17152   3.663   0.158   2.361
 5418SOL    HW117153   3.761   0.144   2.378
 5418SOL    HW217154   3.621   0.072   2.333
 5419SOL     OW17155   3.280   4.859   0.106
 5419SOL    HW117156   3.220   4.938   0.110
 5419SOL    HW217157   3.281   4.822   0.013
 5420SOL     OW17158   1.962   2.539   3.607
 5420SOL    HW117159   1.956   2.487   3.521
 5420SOL    HW217160   2.034   2.608   3.599
 5421SOL     OW17161   1.521   3.823   1.249
 5421SOL    HW117162   1.469   3.742   1.276
 5421SOL    HW217163   1.613   3.817   1.287
 5422SOL     OW17164   1.377   4.366   1.466
 5422SOL    HW117165   1.451   4.308   1.431
 5422SOL    HW217166   1.289   4.324   1.444
 5423SOL     OW17167   6.231   3.025   6.137
 5423SOL    HW117168   6.156   2.971   6.100
 5423SOL    HW217169   6.293   2.966   6.188
 5424SOL     OW17170   5.012   3.454   4.531
 5424SOL    HW117171   5.106   3.421   4.533
 5424SOL    HW217172   4.956   3.397   4.591
 5425SOL     OW17173   4.160   1.204   4.862
 5425SOL    HW117174   4.118   1.279   4.913
 5425SOL    HW217175   4.134   1.210   4.766
 5426SOL     OW17176   5.398   6.497   4.841
 5426SOL    HW117177   5.445   6.579   4.808
 5426SOL    HW217178   5.365   6.444   4.763
 5427SOL     OW17179   4.298   5.820   6.613
 5427SOL    HW117180   4.393   5.812   6.643
 5427SOL    HW217181   4.287   5.904   6.559
 5428SOL     OW17182   0.633   0.485   0.948
 5428SOL    HW117183   0.667   0.411   0.891
 5428SOL    HW217184   0.562   0.450   1.010
 5429SOL     OW17185   1.646   1.868   6.898
 5429SOL    HW117186   1.733   1.896   6.858
 5429SOL    HW217187   1.580   1.846   6.826
 5430SOL     OW17188   0.656   2.343   6.301
 5430SOL    HW117189   0.611   2.273   6.358
 5430SOL    HW217190   0.710   2.297   6.231
 5431SOL     OW17191   2.977   6.819   6.529
 5431SOL    HW117192   2.916   6.895   6.549
 5431SOL    HW217193   2.978   6.756   6.607
 5432SOL     OW17194   5.321   6.902   0.090
 5432SOL    HW117195   5.362   6.898   7.024
 5432SOL    HW217196   5.339   6.992   0.131
 5433SOL     OW17197   0.083   1.436   4.657
 5433SOL    HW117198   0.053   1.463   4.565
 5433SOL    HW217199   0.083   1.515   4.717
 5434SOL     OW17200   2.898   0.166   5.970
 5434SOL    HW117201   2.890   0.222   5.888
 5434SOL    HW217202   2.807   0.152   6.010
 5435SOL     OW17203   4.412   6.772   1.686
 5435SOL    HW117204   4.373   6.791   1.596
 5435SOL    HW217205   4.415   6.856   1.740
 5436SOL     OW17206   4.550   4.808   3.185
 5436SOL    HW117207   4.647   4.816   3.208
 5436SOL    HW217208   4.511   4.899   3.171
 5437SOL     OW17209   3.024   4.274   7.018
 5437SOL    HW117210   3.103   4.323   6.980
 5437SOL    HW217211   2.981   4.220   6.946
 5438SOL     OW17212   6.349   1.949   1.400
 5438SOL    HW117213   6.308   1.863   1.371
 5438SOL    HW217214   6.294   2.025   1.367
 5439SOL     OW17215   1.454   2.253   1.226
 5439SOL    HW117216   1.471   2.303   1.142
 5439SOL    HW217217   1.366   2.281   1.265
 5440SOL     OW17218   1.136   1.863   1.341
 5440SOL    HW117219   1.207   1.827   1.281
 5440SOL    HW217220   1.095   1.787   1.392
 5441SOL     OW17221   3.714   2.025   4.102
 5441SOL    HW117222   3.620   2.031   4.068
 5441SOL    HW217223   3.713   1.982   4.193
 5442SOL     OW17224   4.054   6.623   2.032
 5442SOL    HW117225   4.000   6.544   2.003
 5442SOL    HW217226   4.137   6.629   1.976
 5443SOL     OW17227   2.800   0.015   4.930
 5443SOL    HW117228   2.792   6.940   4.934
 5443SOL    HW217229   2.863   0.041   4.857
 5444SOL     OW17230   0.840   6.887   4.011
 5444SOL    HW117231   0.921   6.928   4.053
 5444SOL    HW217232   0.814   6.940   3.930
 5445SOL     OW17233   6.306   4.050   3.160
 5445SOL    HW117234   6.309   4.019   3.065
 5445SOL    HW217235   6.394   4.032   3.204
 5446SOL     OW17236   5.802   6.089   4.870
 5446SOL    HW117237   5.826   6.040   4.787
 5446SOL    HW217238   5.807   6.188   4.853
 5447SOL     OW17239   3.708   2.645   0.241
 5447SOL    HW117240   3.699   2.726   0.299
 5447SOL    HW217241   3.617   2.607   0.223
 5448SOL     OW17242   4.924   2.213   5.661
 5448SOL    HW117243   4.929   2.312   5.652
 5448SOL    HW217244   4.856   2.176   5.598
 5449SOL     OW17245   1.060   3.037   0.028
 5449SOL    HW117246   1.013   2.981   0.097
 5449SOL    HW217247   1.157   3.013   0.026
 5450SOL     OW17248   2.086   0.915   1.516
 5450SOL    HW117249   2.185   0.922   1.519
 5450SOL    HW217250   2.053   0.945   1.426
 5451SOL     OW17251   0.754   6.048   3.118
 5451SOL    HW117252   0.791   6.132   3.157
 5451SOL    HW217253   0.740   5.981   3.192
 5452SOL     OW17254   1.978   4.215   0.215
 5452SOL    HW117255   1.936   4.125   0.204
 5452SOL    HW217256   2.014   4.246   0.127
 5453SOL     OW17257   6.197   4.015   0.384
 5453SOL    HW117258   6.286   4.050   0.414
 5453SOL    HW217259   6.204   3.917   0.367
 5454SOL     OW17260   0.107   4.591   6.349
 5454SOL    HW117261   0.052   4.607   6.267
 5454SOL    HW217262   0.136   4.678   6.388
 5455SOL     OW17263   0.001   3.055   1.129
 5455SOL    HW117264   6.963   3.022   1.058
 5455SOL    HW217265   0.084   3.090   1.086
 5456SOL     OW17266   2.965   0.634   6.477
 5456SOL    HW117267   2.931   0.658   6.568
 5456SOL    HW217268   3.009   0.544   6.480
 5457SOL     OW17269   5.544   2.644   0.987
 5457SOL    HW117270   5.638   2.622   1.010
 5457SOL    HW217271   5.539   2.676   0.892
 5458SOL     OW17272   1.126   4.528   7.017
 5458SOL    HW117273   1.176   4.501   6.934
 5458SOL    HW217274   1.070   4.451   0.024
 5459SOL     OW17275   2.072   5.102   0.136
 5459SOL    HW117276   2.010   5.025   0.147
 5459SOL    HW217277   2.020   5.187   0.143
 5460SOL     OW17278   2.980   0.587   1.151
 5460SOL    HW117279   2.960   0.683   1.171
 5460SOL    HW217280   2.962   0.531   1.232
 5461SOL     OW17281   4.761   6.398   4.812
 5461SOL    HW117282   4.780   6.477   4.871
 5461SOL    HW217283   4.844   6.345   4.799
 5462SOL     OW17284   1.569   0.214   0.596
 5462SOL    HW117285   1.665   0.208   0.621
 5462SOL    HW217286   1.535   0.306   0.617
 5463SOL     OW17287   5.860   2.402   0.555
 5463SOL    HW117288   5.880   2.490   0.598
 5463SOL    HW217289   5.943   2.347   0.552
 5464SOL     OW17290   1.970   0.791   4.156
 5464SOL    HW117291   2.022   0.708   4.175
 5464SOL    HW217292   1.960   0.845   4.240
 5465SOL     OW17293   3.558   0.110   4.552
 5465SOL    HW117294   3.518   0.025   4.586
 5465SOL    HW217295   3.650   0.092   4.516
 5466SOL     OW17296   4.763   4.086   4.583
 5466SOL    HW117297   4.822   4.083   4.503
 5466SOL    HW217298   4.703   4.166   4.578
 5467SOL     OW17299   5.569   1.041   2.676
 5467SOL    HW117300   5.540   1.005   2.587
 5467SOL    HW217301   5.492   1.089   2.718
 5468SOL     OW17302   4.551   1.830   4.758
 5468SOL    HW117303   4.577   1.873   4.845
 5468SOL    HW217304   4.633   1.812   4.704
 5469SOL     OW17305   4.277   4.605   6.097
 5469SOL    HW117306   4.374   4.583   6.085
 5469SOL    HW217307   4.264   4.650   6.185
 5470SOL     OW17308   1.886   4.944   3.769
 5470SOL    HW117309   1.944   4.920   3.691
 5470SOL    HW217310   1.817   4.873   3.783
 5471SOL     OW17311   6.157   5.731   1.250
 5471SOL    HW117312   6.178   5.679   1.333
 5471SOL    HW217313   6.216   5.699   1.176
 5472SOL     OW17314   3.999   3.765   6.342
 5472SOL    HW117315   4.035   3.795   6.253
 5472SOL    HW217316   3.975   3.846   6.396
 5473SOL     OW17317   1.493   3.389   3.684
 5473SOL    HW117318   1.418   3.409   3.747
 5473SOL    HW217319   1.579   3.385   3.734
 5474SOL     OW17320   1.994   5.126   4.198
 5474SOL    HW117321   2.035   5.112   4.108
 5474SOL    HW217322   2.062   5.105   4.269
 5475SOL     OW17323   3.271   2.163   1.038
 5475SOL    HW117324   3.297   2.218   0.958
 5475SOL    HW217325   3.249   2.224   1.114
 5476SOL     OW17326   1.279   2.968   6.378
 5476SOL    HW117327   1.254   2.990   6.472
 5476SOL    HW217328   1.355   3.026   6.349
 5477SOL     OW17329   2.139   3.156   3.375
 5477SOL    HW117330   2.130   3.147   3.474
 5477SOL    HW217331   2.215   3.099   3.344
 5478SOL     OW17332   5.158   5.993   5.772
 5478SOL    HW117333   5.144   5.900   5.740
 5478SOL    HW217334   5.184   6.051   5.695
 5479SOL     OW17335   4.878   0.381   4.710
 5479SOL    HW117336   4.816   0.371   4.631
 5479SOL    HW217337   4.837   0.443   4.777
 5480SOL     OW17338   0.930   4.168   4.530
 5480SOL    HW117339   0.953   4.118   4.447
 5480SOL    HW217340   0.961   4.263   4.522
 5481SOL     OW17341   3.482   6.862   4.758
 5481SOL    HW117342   3.405   6.875   4.821
 5481SOL    HW217343   3.567   6.885   4.805
 5482SOL     OW17344   3.158   4.549   1.510
 5482SOL    HW117345   3.208   4.469   1.543
 5482SOL    HW217346   3.088   4.520   1.445
 5483SOL     OW17347   0.194   2.637   6.155
 5483SOL    HW117348   0.182   2.671   6.062
 5483SOL    HW217349   0.146   2.698   6.219
 5484SOL     OW17350   4.538   0.847   4.229
 5484SOL    HW117351   4.536   0.863   4.328
 5484SOL    HW217352   4.494   0.759   4.209
 5485SOL     OW17353   2.878   6.702   5.509
 5485SOL    HW117354   2.791   6.730   5.550
 5485SOL    HW217355   2.884   6.602   5.510
 5486SOL     OW17356   2.837   5.872   4.704
 5486SOL    HW117357   2.778   5.901   4.779
 5486SOL    HW217358   2.784   5.869   4.619
 5487SOL     OW17359   2.514   4.723   5.825
 5487SOL    HW117360   2.510   4.747   5.728
 5487SOL    HW217361   2.605   4.744   5.861
 5488SOL     OW17362   6.275   0.948   0.647
 5488SOL    HW117363   6.192   0.999   0.625
 5488SOL    HW217364   6.251   0.852   0.666
 5489SOL     OW17365   6.461   3.131   2.351
 5489SOL    HW117366   6.471   3.157   2.255
 5489SOL    HW217367   6.496   3.204   2.410
 5490SOL     OW17368   1.259   6.945   2.599
 5490SOL    HW117369   1.358   6.933   2.596
 5490SOL    HW217370   1.216   6.860   2.630
 5491SOL     OW17371   6.771   3.664   0.897
 5491SOL    HW117372   6.762   3.713   0.983
 5491SOL    HW217373   6.680   3.648   0.858
 5492SOL     OW17374   0.657   1.085   5.444
 5492SOL    HW117375   0.600   1.032   5.381
 5492SOL    HW217376   0.711   1.022   5.500
 5493SOL     OW17377   4.151   3.719   1.750
 5493SOL    HW117378   4.131   3.631   1.707
 5493SOL    HW217379   4.143   3.711   1.849
 5494SOL     OW17380   6.135   4.064   5.184
 5494SOL    HW117381   6.049   4.017   5.204
 5494SOL    HW217382   6.122   4.163   5.196
 5495SOL     OW17383   6.219   0.368   0.618
 5495SOL    HW117384   6.122   0.350   0.632
 5495SOL    HW217385   6.256   0.419   0.696
 5496SOL     OW17386   4.229   0.727   4.359
 5496SOL    HW117387   4.284   0.693   4.282
 5496SOL    HW217388   4.133   0.736   4.330
 5497SOL     OW17389   1.089   0.710   6.441
 5497SOL    HW117390   1.024   0.768   6.490
 5497SOL    HW217391   1.055   0.616   6.439
 5498SOL     OW17392   0.664   5.403   2.050
 5498SOL    HW117393   0.732   5.472   2.074
 5498SOL    HW217394   0.657   5.396   1.950
 5499SOL     OW17395   1.244   0.395   4.951
 5499SOL    HW117396   1.228   0.301   4.981
 5499SOL    HW217397   1.286   0.394   4.860
 5500SOL     OW17398   2.438   0.587   0.328
 5500SOL    HW117399   2.387   0.663   0.285
 5500SOL    HW217400   2.439   0.600   0.427
 5501SOL     OW17401   4.038   2.671   6.846
 5501SOL    HW117402   4.074   2.763   6.828
 5501SOL    HW217403   4.095   2.626   6.914
 5502SOL     OW17404   4.242   1.796   0.554
 5502SOL    HW117405   4.335   1.774   0.584
 5502SOL    HW217406   4.243   1.880   0.501
 5503SOL     OW17407   0.263   3.588   0.495
 5503SOL    HW117408   0.183   3.641   0.523
 5503SOL    HW217409   0.308   3.549   0.575
 5504SOL     OW17410   3.914   0.950   6.451
 5504SOL    HW117411   3.927   0.852   6.466
 5504SOL    HW217412   3.988   1.001   6.495
 5505SOL     OW17413   2.369   4.518   4.316
 5505SOL    HW117414   2.398   4.606   4.281
 5505SOL    HW217415   2.393   4.510   4.413
 5506SOL     OW17416   0.227   3.791   6.482
 5506SOL    HW117417   0.248   3.806   6.385
 5506SOL    HW217418   0.263   3.702   6.511
 5507SOL     OW17419   2.904   0.382   6.749
 5507SOL    HW117420   2.869   0.295   6.785
 5507SOL    HW217421   2.861   0.401   6.661
 5508SOL     OW17422   0.401   0.794   6.793
 5508SOL    HW117423   0.404   0.795   6.693
 5508SOL    HW217424   0.326   0.736   6.824
 5509SOL     OW17425   0.152   5.435   0.307
 5509SOL    HW117426   0.124   5.494   0.231
 5509SOL    HW217427   0.108   5.467   0.391
 5510SOL     OW17428   3.807   5.246   0.040
 5510SOL    HW117429   3.803   5.213   6.970
 5510SOL    HW217430   3.740   5.198   0.095
 5511SOL     OW17431   0.692   1.350   5.371
 5511SOL    HW117432   0.714   1.254   5.386
 5511SOL    HW217433   0.604   1.358   5.326
 5512SOL     OW17434   3.566   0.704   2.717
 5512SOL    HW117435   3.501   0.746   2.654
 5512SOL    HW217436   3.652   0.685   2.669
 5513SOL     OW17437   4.120   4.754   6.820
 5513SOL    HW117438   4.088   4.796   6.735
 5513SOL    HW217439   4.154   4.662   6.802
 5514SOL     OW17440   2.711   0.460   6.004
 5514SOL    HW117441   2.622   0.491   6.035
 5514SOL    HW217442   2.769   0.438   6.082
 5515SOL     OW17443   2.600   5.801   1.992
 5515SOL    HW117444   2.522   5.739   1.981
 5515SOL    HW217445   2.638   5.792   2.084
 5516SOL     OW17446   2.425   2.698   5.190
 5516SOL    HW117447   2.344   2.641   5.175
 5516SOL    HW217448   2.404   2.792   5.164
 5517SOL     OW17449   1.697   3.517   3.256
 5517SOL    HW117450   1.614   3.488   3.208
 5517SOL    HW217451   1.674   3.587   3.324
 5518SOL     OW17452   4.850   4.050   5.546
 5518SOL    HW117453   4.754   4.033   5.566
 5518SOL    HW217454   4.904   3.968   5.568
 5519SOL     OW17455   4.843   2.354   3.737
 5519SOL    HW117456   4.907   2.404   3.678
 5519SOL    HW217457   4.857   2.256   3.725
 5520SOL     OW17458   4.952   6.866   2.110
 5520SOL    HW117459   4.904   6.805   2.046
 5520SOL    HW217460   5.007   6.931   2.058
 5521SOL     OW17461   5.819   6.028   1.663
 5521SOL    HW117462   5.804   6.012   1.565
 5521SOL    HW217463   5.774   6.113   1.690
 5522SOL     OW17464   6.096   5.895   0.712
 5522SOL    HW117465   6.126   5.979   0.666
 5522SOL    HW217466   6.147   5.817   0.676
 5523SOL     OW17467   5.412   0.936   2.446
 5523SOL    HW117468   5.320   0.973   2.432
 5523SOL    HW217469   5.410   0.837   2.433
 5524SOL     OW17470   2.909   1.073   4.363
 5524SOL    HW117471   2.954   1.029   4.285
 5524SOL    HW217472   2.828   1.123   4.332
 5525SOL     OW17473   6.188   1.797   1.205
 5525SOL    HW117474   6.264   1.732   1.215
 5525SOL    HW217475   6.107   1.761   1.252
 5526SOL     OW17476   4.392   5.060   3.138
 5526SOL    HW117477   4.465   5.123   3.163
 5526SOL    HW217478   4.363   5.078   3.044
 5527SOL     OW17479   5.879   1.881   4.130
 5527SOL    HW117480   5.803   1.941   4.155
 5527SOL    HW217481   5.936   1.926   4.061
 5528SOL     OW17482   0.840   1.749   1.352
 5528SOL    HW117483   0.747   1.732   1.385
 5528SOL    HW217484   0.905   1.699   1.410
 5529SOL     OW17485   3.744   0.817   2.055
 5529SOL    HW117486   3.739   0.735   2.111
 5529SOL    HW217487   3.691   0.803   1.971
 5530SOL     OW17488   6.353   2.431   1.274
 5530SOL    HW117489   6.375   2.360   1.207
 5530SOL    HW217490   6.347   2.390   1.365
 5531SOL     OW17491   2.573   4.197   1.422
 5531SOL    HW117492   2.480   4.231   1.406
 5531SOL    HW217493   2.632   4.221   1.345
 5532SOL     OW17494   1.872   3.213   1.334
 5532SOL    HW117495   1.963   3.184   1.304
 5532SOL    HW217496   1.843   3.158   1.412
 5533SOL     OW17497   4.506   1.864   3.833
 5533SOL    HW117498   4.568   1.786   3.824
 5533SOL    HW217499   4.417   1.832   3.867
 5534SOL     OW17500   0.828   1.054   4.367
 5534SOL    HW117501   0.876   1.035   4.281
 5534SOL    HW217502   0.894   1.062   4.441
 5535SOL     OW17503   0.635   2.241   3.182
 5535SOL    HW117504   0.734   2.240   3.172
 5535SOL    HW217505   0.592   2.213   3.096
 5536SOL     OW17506   3.828   0.183   4.469
 5536SOL    HW117507   3.761   0.257   4.477
 5536SOL    HW217508   3.920   0.222   4.467
 5537SOL     OW17509   3.421   0.699   3.178
 5537SOL    HW117510   3.490   0.684   3.108
 5537SOL    HW217511   3.418   0.796   3.202
 5538SOL     OW17512   4.387   5.803   4.554
 5538SOL    HW117513   4.487   5.800   4.553
 5538SOL    HW217514   4.350   5.709   4.552
 5539SOL     OW17515   2.217   3.715   0.321
 5539SOL    HW117516   2.189   3.805   0.353
 5539SOL    HW217517   2.158   3.686   0.246
 5540SOL     OW17518   5.548   4.707   2.148
 5540SOL    HW117519   5.549   4.744   2.055
 5540SOL    HW217520   5.515   4.778   2.211
 5541SOL     OW17521   4.526   1.471   5.380
 5541SOL    HW117522   4.625   1.459   5.389
 5541SOL    HW217523   4.491   1.410   5.308
 5542SOL     OW17524   5.077   4.547   5.665
 5542SOL    HW117525   5.050   4.589   5.751
 5542SOL    HW217526   4.995   4.512   5.618
 5543SOL     OW17527   6.643   2.290   6.019
 5543SOL    HW117528   6.730   2.296   5.969
 5543SOL    HW217529   6.638   2.364   6.086
 5544SOL     OW17530   5.959   1.262   5.814
 5544SOL    HW117531   6.021   1.312   5.754
 5544SOL    HW217532   5.864   1.288   5.793
 5545SOL     OW17533   3.154   2.114   2.063
 5545SOL    HW117534   3.078   2.179   2.066
 5545SOL    HW217535   3.126   2.032   2.014
 5546SOL     OW17536   2.016   5.065   5.704
 5546SOL    HW117537   2.081   5.062   5.780
 5546SOL    HW217538   1.948   4.993   5.716
 5547SOL     OW17539   4.045   5.601   4.913
 5547SOL    HW117540   3.961   5.612   4.859
 5547SOL    HW217541   4.111   5.670   4.884
 5548SOL     OW17542   6.996   3.588   5.364
 5548SOL    HW117543   6.911   3.616   5.409
 5548SOL    HW217544   0.032   3.667   5.356
 5549SOL     OW17545   3.093   4.359   6.488
 5549SOL    HW117546   3.077   4.261   6.497
 5549SOL    HW217547   3.155   4.376   6.411
 5550SOL     OW17548   3.682   6.563   1.521
 5550SOL    HW117549   3.762   6.552   1.462
 5550SOL    HW217550   3.708   6.546   1.616
 5551SOL     OW17551   0.714   1.305   3.169
 5551SOL    HW117552   0.659   1.230   3.132
 5551SOL    HW217553   0.798   1.269   3.209
 5552SOL     OW17554   0.297   2.948   2.165
 5552SOL    HW117555   0.348   3.034   2.165
 5552SOL    HW217556   0.349   2.878   2.116
 5553SOL     OW17557   4.824   6.029   0.143
 5553SOL    HW117558   4.872   6.098   0.089
 5553SOL    HW217559   4.810   6.064   0.236
 5554SOL     OW17560   2.700   1.944   4.688
 5554SOL    HW117561   2.791   1.912   4.664
 5554SOL    HW217562   2.690   1.946   4.788
 5555SOL     OW17563   0.167   5.818   2.794
 5555SOL    HW117564   0.123   5.901   2.759
 5555SOL    HW217565   0.246   5.843   2.850
 5556SOL     OW17566   0.350   1.056   4.563
 5556SOL    HW117567   0.253   1.036   4.550
 5556SOL    HW217568   0.373   1.047   4.660
 5557SOL     OW17569   2.419   0.318   3.704
 5557SOL    HW117570   2.478   0.391   3.671
 5557SOL    HW217571   2.329   0.325   3.662
 5558SOL     OW17572   5.082   2.662   4.707
 5558SOL    HW117573   5.144   2.741   4.713
 5558SOL    HW217574   5.121   2.585   4.759
 5559SOL     OW17575   1.737   0.644   1.422
 5559SOL    HW117576   1.803   0.595   1.365
 5559SOL    HW217577   1.774   0.657   1.514
 5560SOL     OW17578   0.262   0.864   4.041
 5560SOL    HW117579   0.276   0.765   4.038
 5560SOL    HW217580   0.280   0.903   3.951
 5561SOL     OW17581   1.495   3.707   3.798
 5561SOL    HW117582   1.495   3.692   3.699
 5561SOL    HW217583   1.588   3.695   3.833
 5562SOL     OW17584   2.257   2.510   5.598
 5562SOL    HW117585   2.184   2.457   5.642
 5562SOL    HW217586   2.273   2.594   5.650
 5563SOL     OW17587   4.148   5.038   1.042
 5563SOL    HW117588   4.084   5.107   1.076
 5563SOL    HW217589   4.097   4.960   1.007
 5564SOL     OW17590   5.964   4.483   1.583
 5564SOL    HW117591   5.952   4.444   1.674
 5564SOL    HW217592   6.049   4.537   1.580
 5565SOL     OW17593   2.923   3.369   5.432
 5565SOL    HW117594   3.015   3.334   5.414
 5565SOL    HW217595   2.924   3.469   5.433
 5566SOL     OW17596   1.999   4.497   0.850
 5566SOL    HW117597   2.023   4.402   0.829
 5566SOL    HW217598   2.081   4.546   0.879
 5567SOL     OW17599   1.778   5.922   2.186
 5567SOL    HW117600   1.772   5.870   2.272
 5567SOL    HW217601   1.692   5.970   2.170
 5568SOL     OW17602   3.662   1.998   1.263
 5568SOL    HW117603   3.621   2.066   1.324
 5568SOL    HW217604   3.601   1.982   1.185
 5569SOL     OW17605   5.674   1.837   0.157
 5569SOL    HW117606   5.629   1.757   0.196
 5569SOL    HW217607   5.605   1.908   0.139
 5570SOL     OW17608   6.544   3.994   5.913
 5570SOL    HW117609   6.475   3.926   5.936
 5570SOL    HW217610   6.589   4.026   5.996
 5571SOL     OW17611   6.725   4.562   6.214
 5571SOL    HW117612   6.738   4.529   6.308
 5571SOL    HW217613   6.629   4.584   6.200
 5572SOL     OW17614   5.165   2.577   5.588
 5572SOL    HW117615   5.197   2.635   5.663
 5572SOL    HW217616   5.244   2.538   5.540
 5573SOL     OW17617   0.804   3.834   0.766
 5573SOL    HW117618   0.817   3.818   0.668
 5573SOL    HW217619   0.757   3.755   0.807
 5574SOL     OW17620   0.151   5.905   4.697
 5574SOL    HW117621   0.091   5.878   4.772
 5574SOL    HW217622   0.151   5.834   4.626
 5575SOL     OW17623   1.581   1.233   1.012
 5575SOL    HW117624   1.607   1.281   1.096
 5575SOL    HW217625   1.493   1.188   1.025
 5576SOL     OW17626   6.557   5.896   0.001
 5576SOL    HW117627   6.558   5.901   6.925
 5576SOL    HW217628   6.545   5.801   0.029
 5577SOL     OW17629   2.204   3.829   5.273
 5577SOL    HW117630   2.281   3.875   5.228
 5577SOL    HW217631   2.134   3.809   5.204
 5578SOL     OW17632   4.154   1.936   5.948
 5578SOL    HW117633   4.223   1.979   5.890
 5578SOL    HW217634   4.064   1.944   5.905
 5579SOL     OW17635   5.001   5.049   0.709
 5579SOL    HW117636   5.013   4.958   0.750
 5579SOL    HW217637   5.069   5.062   0.636
 5580SOL     OW17638   5.098   1.055   1.419
 5580SOL    HW117639   5.183   1.005   1.431
 5580SOL    HW217640   5.107   1.147   1.458
 5581SOL     OW17641   2.988   2.588   0.471
 5581SOL    HW117642   2.947   2.647   0.541
 5581SOL    HW217643   2.919   2.567   0.401
 5582SOL     OW17644   3.773   3.406   3.439
 5582SOL    HW117645   3.702   3.340   3.464
 5582SOL    HW217646   3.834   3.367   3.370
 5583SOL     OW17647   3.498   0.537   0.501
 5583SOL    HW117648   3.527   0.446   0.474
 5583SOL    HW217649   3.502   0.599   0.423
 5584SOL     OW17650   5.951   2.901   2.769
 5584SOL    HW117651   5.953   2.803   2.754
 5584SOL    HW217652   5.963   2.948   2.681
 5585SOL     OW17653   6.614   6.851   4.214
 5585SOL    HW117654   6.654   6.772   4.167
 5585SOL    HW217655   6.516   6.855   4.197
 5586SOL     OW17656   2.359   1.197   6.636
 5586SOL    HW117657   2.295   1.261   6.680
 5586SOL    HW217658   2.436   1.248   6.597
 5587SOL     OW17659   3.513   0.186   3.934
 5587SOL    HW117660   3.437   0.246   3.959
 5587SOL    HW217661   3.551   0.215   3.847
 5588SOL     OW17662   4.284   0.073   6.102
 5588SOL    HW117663   4.342   0.093   6.024
 5588SOL    HW217664   4.231   0.154   6.127
 5589SOL     OW17665   3.853   2.890   6.444
 5589SOL    HW117666   3.942   2.846   6.444
 5589SOL    HW217667   3.813   2.886   6.353
 5590SOL     OW17668   0.115   6.726   3.479
 5590SOL    HW117669   0.185   6.796   3.493
 5590SOL    HW217670   0.056   6.752   3.403
 5591SOL     OW17671   4.833   0.737   0.076
 5591SOL    HW117672   4.870   0.659   0.024
 5591SOL    HW217673   4.906   0.779   0.129
 5592SOL     OW17674   2.553   2.260   2.860
 5592SOL    HW117675   2.578   2.287   2.767
 5592SOL    HW217676   2.597   2.173   2.883
 5593SOL     OW17677   1.251   2.930   5.067
 5593SOL    HW117678   1.306   2.848   5.052
 5593SOL    HW217679   1.278   3.001   5.002
 5594SOL     OW17680   2.419   0.688   6.640
 5594SOL    HW117681   2.485   0.709   6.567
 5594SOL    HW217682   2.465   0.691   6.728
 5595SOL     OW17683   0.302   1.512   5.394
 5595SOL    HW117684   0.237   1.537   5.323
 5595SOL    HW217685   0.257   1.513   5.483
 5596SOL     OW17686   4.778   1.374   2.770
 5596SOL    HW117687   4.764   1.451   2.708
 5596SOL    HW217688   4.841   1.401   2.843
 5597SOL     OW17689   0.436   1.040   6.242
 5597SOL    HW117690   0.372   0.979   6.289
 5597SOL    HW217691   0.430   1.131   6.281
 5598SOL     OW17692   6.932   2.399   4.220
 5598SOL    HW117693   6.853   2.418   4.162
 5598SOL    HW217694   6.910   2.326   4.284
 5599SOL     OW17695   4.738   2.775   3.459
 5599SOL    HW117696   4.758   2.853   3.517
 5599SOL    HW217697   4.688   2.706   3.511
 5600SOL     OW17698   2.309   1.300   2.030
 5600SOL    HW117699   2.275   1.355   2.106
 5600SOL    HW217700   2.309   1.354   1.946
 5601SOL     OW17701   6.159   2.993   5.324
 5601SOL    HW117702   6.114   3.034   5.245
 5601SOL    HW217703   6.152   2.893   5.319
 5602SOL     OW17704   6.637   2.283   2.509
 5602SOL    HW117705   6.574   2.332   2.569
 5602SOL    HW217706   6.586   2.243   2.432
 5603SOL     OW17707   4.435   0.887   5.514
 5603SOL    HW117708   4.391   0.814   5.566
 5603SOL    HW217709   4.366   0.951   5.481
 5604SOL     OW17710   1.122   0.175   3.449
 5604SOL    HW117711   1.138   0.170   3.547
 5604SOL    HW217712   1.209   0.182   3.401
 5605SOL     OW17713   4.022   6.571   4.001
 5605SOL    HW117714   3.942   6.515   3.978
 5605SOL    HW217715   4.086   6.517   4.055
 5606SOL     OW17716   4.904   2.760   0.402
 5606SOL    HW117717   4.810   2.793   0.409
 5606SOL    HW217718   4.930   2.756   0.306
 5607SOL     OW17719   6.357   2.316   2.882
 5607SOL    HW117720   6.383   2.228   2.840
 5607SOL    HW217721   6.260   2.312   2.908
 5608SOL     OW17722   5.122   0.790   3.371
 5608SOL    HW117723   5.141   0.702   3.415
 5608SOL    HW217724   5.027   0.816   3.390
 5609SOL     OW17725   0.060   0.451   0.797
 5609SOL    HW117726   7.002   0.481   0.751
 5609SOL    HW217727   0.134   0.516   0.780
 5610SOL     OW17728   4.970   5.412   1.060
 5610SOL    HW117729   4.894   5.349   1.076
 5610SOL    HW217730   4.934   5.505   1.050
 5611SOL     OW17731   6.199   5.089   1.742
 5611SOL    HW117732   6.151   5.170   1.775
 5611SOL    HW217733   6.134   5.025   1.702
 5612SOL     OW17734   3.754   2.318   0.242
 5612SOL    HW117735   3.725   2.410   0.217
 5612SOL    HW217736   3.688   2.251   0.207
 5613SOL     OW17737   5.784   4.769   6.150
 5613SOL    HW117738   5.699   4.723   6.174
 5613SOL    HW217739   5.831   4.798   6.233
 5614SOL     OW17740   4.868   3.276   3.773
 5614SOL    HW117741   4.854   3.183   3.739
 5614SOL    HW217742   4.909   3.332   3.700
 5615SOL     OW17743   0.226   2.569   3.122
 5615SOL    HW117744   0.269   2.572   3.032
 5615SOL    HW217745   0.142   2.623   3.121
 5616SOL     OW17746   1.643   3.179   2.751
 5616SOL    HW117747   1.603   3.174   2.842
 5616SOL    HW217748   1.636   3.089   2.707
 5617SOL     OW17749   1.649   5.288   6.159
 5617SOL    HW117750   1.708   5.266   6.082
 5617SOL    HW217751   1.679   5.374   6.201
 5618SOL     OW17752   5.182   0.029   2.047
 5618SOL    HW117753   5.199   7.002   1.963
 5618SOL    HW217754   5.262   0.086   2.068
 5619SOL     OW17755   3.296   2.946   3.682
 5619SOL    HW117756   3.374   2.972   3.625
 5619SOL    HW217757   3.328   2.912   3.770
 5620SOL     OW17758   4.637   4.805   4.383
 5620SOL    HW117759   4.685   4.848   4.306
 5620SOL    HW217760   4.554   4.857   4.403
 5621SOL     OW17761   0.223   2.394   6.482
 5621SOL    HW117762   0.247   2.300   6.508
 5621SOL    HW217763   0.288   2.427   6.413
 5622SOL     OW17764   4.782   5.854   3.693
 5622SOL    HW117765   4.766   5.788   3.766
 5622SOL    HW217766   4.730   5.938   3.712
 5623SOL     OW17767   4.949   5.066   4.269
 5623SOL    HW117768   4.860   5.089   4.309
 5623SOL    HW217769   5.021   5.114   4.319
 5624SOL     OW17770   5.520   5.302   3.141
 5624SOL    HW117771   5.517   5.217   3.087
 5624SOL    HW217772   5.607   5.349   3.125
 5625SOL     OW17773   1.964   5.932   5.660
 5625SOL    HW117774   2.040   5.961   5.718
 5625SOL    HW217775   1.924   6.012   5.615
 5626SOL     OW17776   0.817   4.458   6.680
 5626SOL    HW117777   0.850   4.491   6.592
 5626SOL    HW217778   0.845   4.363   6.692
 5627SOL     OW17779   1.066   5.507   6.772
 5627SOL    HW117780   1.014   5.484   6.855
 5627SOL    HW217781   1.148   5.450   6.769
 5628SOL     OW17782   2.688   3.378   0.792
 5628SOL    HW117783   2.677   3.295   0.736
 5628SOL    HW217784   2.782   3.411   0.783
 5629SOL     OW17785   5.873   3.640   2.730
 5629SOL    HW117786   5.784   3.600   2.707
 5629SOL    HW217787   5.920   3.580   2.795
 5630SOL     OW17788   1.391   4.009   6.851
 5630SOL    HW117789   1.345   3.920   6.841
 5630SOL    HW217790   1.352   4.058   6.929
 5631SOL     OW17791   3.567   1.615   2.065
 5631SOL    HW117792   3.519   1.536   2.027
 5631SOL    HW217793   3.503   1.691   2.075
 5632SOL     OW17794   4.895   6.668   5.852
 5632SOL    HW117795   4.820   6.650   5.916
 5632SOL    HW217796   4.857   6.699   5.765
 5633SOL     OW17797   0.938   5.217   5.260
 5633SOL    HW117798   0.915   5.313   5.240
 5633SOL    HW217799   0.883   5.185   5.337
 5634SOL     OW17800   2.285   0.400   1.281
 5634SOL    HW117801   2.254   0.487   1.320
 5634SOL    HW217802   2.210   0.334   1.285
 5635SOL     OW17803   3.133   0.987   0.975
 5635SOL    HW117804   3.095   1.078   0.960
 5635SOL    HW217805   3.230   0.994   0.999
 5636SOL     OW17806   5.473   1.580   6.035
 5636SOL    HW117807   5.486   1.556   5.939
 5636SOL    HW217808   5.508   1.672   6.051
 5637SOL     OW17809   5.132   6.642   4.650
 5637SOL    HW117810   5.180   6.618   4.565
 5637SOL    HW217811   5.140   6.740   4.666
 5638SOL     OW17812   6.369   5.103   1.298
 5638SOL    HW117813   6.426   5.082   1.218
 5638SOL    HW217814   6.313   5.184   1.279
 5639SOL     OW17815   2.380   0.415   2.000
 5639SOL    HW117816   2.411   0.451   1.913
 5639SOL    HW217817   2.307   0.472   2.037
 5640SOL     OW17818   3.363   6.920   2.652
 5640SOL    HW117819   3.441   6.976   2.680
 5640SOL    HW217820   3.296   6.978   2.605
 5641SOL     OW17821   6.399   4.395   3.709
 5641SOL    HW117822   6.307   4.428   3.732
 5641SOL    HW217823   6.420   4.315   3.766
 5642SOL     OW17824   1.932   3.703   6.827
 5642SOL    HW117825   1.904   3.616   6.868
 5642SOL    HW217826   1.933   3.695   6.728
 5643SOL     OW17827   4.832   2.366   5.041
 5643SOL    HW117828   4.781   2.295   5.090
 5643SOL    HW217829   4.785   2.387   4.956
 5644SOL     OW17830   4.474   1.108   4.901
 5644SOL    HW117831   4.429   1.024   4.870
 5644SOL    HW217832   4.422   1.188   4.870
 5645SOL     OW17833   6.253   5.799   4.070
 5645SOL    HW117834   6.330   5.745   4.104
 5645SOL    HW217835   6.170   5.774   4.120
 5646SOL     OW17836   0.388   6.200   4.030
 5646SOL    HW117837   0.430   6.235   3.946
 5646SOL    HW217838   0.298   6.243   4.042
 5647SOL     OW17839   5.939   5.080   6.242
 5647SOL    HW117840   6.032   5.057   6.213
 5647SOL    HW217841   5.912   5.021   6.318
 5648SOL     OW17842   1.707   1.481   5.150
 5648SOL    HW117843   1.790   1.431   5.126
 5648SOL    HW217844   1.659   1.509   5.067
 5649SOL     OW17845   1.387   0.542   5.246
 5649SOL    HW117846   1.368   0.553   5.343
 5649SOL    HW217847   1.330   0.468   5.210
 5650SOL     OW17848   6.380   4.877   0.021
 5650SOL    HW117849   6.374   4.823   0.105
 5650SOL    HW217850   6.370   4.817   6.966
 5651SOL     OW17851   6.535   1.283   2.837
 5651SOL    HW117852   6.494   1.192   2.833
 5651SOL    HW217853   6.463   1.351   2.850
 5652SOL     OW17854   5.254   4.651   0.310
 5652SOL    HW117855   5.183   4.680   0.246
 5652SOL    HW217856   5.244   4.553   0.329
 5653SOL     OW17857   1.993   6.347   6.207
 5653SOL    HW117858   1.945   6.426   6.169
 5653SOL    HW217859   1.941   6.311   6.284
 5654SOL     OW17860   1.116   5.750   5.682
 5654SOL    HW117861   1.084   5.724   5.773
 5654SOL    HW217862   1.167   5.836   5.688
 5655SOL     OW17863   0.047   3.896   3.941
 5655SOL    HW117864   0.112   3.890   3.865
 5655SOL    HW217865   0.081   3.959   4.010
 5656SOL     OW17866   3.203   4.700   6.333
 5656SOL    HW117867   3.195   4.696   6.433
 5656SOL    HW217868   3.293   4.736   6.308
 5657SOL     OW17869   4.287   6.305   1.743
 5657SOL    HW117870   4.384   6.323   1.760
 5657SOL    HW217871   4.247   6.385   1.698
 5658SOL     OW17872   4.708   6.466   5.144
 5658SOL    HW117873   4.805   6.447   5.129
 5658SOL    HW217874   4.673   6.520   5.068
 5659SOL     OW17875   3.514   3.337   2.656
 5659SOL    HW117876   3.565   3.262   2.698
 5659SOL    HW217877   3.534   3.339   2.558
 5660SOL     OW17878   6.116   7.008   0.992
 5660SOL    HW117879   6.024   7.010   1.031
 5660SOL    HW217880   6.182   6.991   1.065
 5661SOL     OW17881   6.897   5.667   4.990
 5661SOL    HW117882   6.877   5.748   5.046
 5661SOL    HW217883   6.931   5.593   5.048
 5662SOL     OW17884   2.284   4.126   4.351
 5662SOL    HW117885   2.245   4.183   4.423
 5662SOL    HW217886   2.311   4.184   4.274
 5663SOL     OW17887   1.449   3.831   0.208
 5663SOL    HW117888   1.388   3.896   0.253
 5663SOL    HW217889   1.539   3.833   0.252
 5664SOL     OW17890   0.361   4.903   2.996
 5664SOL    HW117891   0.382   4.915   3.093
 5664SOL    HW217892   0.432   4.947   2.941
 5665SOL     OW17893   2.353   1.975   6.176
 5665SOL    HW117894   2.371   2.034   6.097
 5665SOL    HW217895   2.413   2.000   6.251
 5666SOL     OW17896   6.221   5.606   0.193
 5666SOL    HW117897   6.296   5.660   0.156
 5666SOL    HW217898   6.257   5.527   0.242
 5667SOL     OW17899   0.485   5.696   3.536
 5667SOL    HW117900   0.481   5.620   3.600
 5667SOL    HW217901   0.555   5.678   3.467
 5668SOL     OW17902   5.798   2.261   5.216
 5668SOL    HW117903   5.746   2.197   5.272
 5668SOL    HW217904   5.845   2.327   5.275
 5669SOL     OW17905   6.962   3.278   5.671
 5669SOL    HW117906   6.899   3.306   5.599
 5669SOL    HW217907   7.023   3.207   5.636
 5670SOL     OW17908   1.707   4.142   3.931
 5670SOL    HW117909   1.731   4.119   4.025
 5670SOL    HW217910   1.640   4.077   3.896
 5671SOL     OW17911   1.674   1.269   5.353
 5671SOL    HW117912   1.771   1.262   5.379
 5671SOL    HW217913   1.663   1.345   5.289
 5672SOL     OW17914   5.293   4.715   5.521
 5672SOL    HW117915   5.381   4.734   5.564
 5672SOL    HW217916   5.247   4.641   5.570
 5673SOL     OW17917   1.280   0.473   2.061
 5673SOL    HW117918   1.358   0.447   2.005
 5673SOL    HW217919   1.278   0.573   2.070
 5674SOL     OW17920   6.396   3.658   1.124
 5674SOL    HW117921   6.398   3.574   1.178
 5674SOL    HW217922   6.439   3.732   1.177
 5675SOL     OW17923   4.136   2.206   5.538
 5675SOL    HW117924   4.193   2.278   5.497
 5675SOL    HW217925   4.150   2.120   5.490
 5676SOL     OW17926   3.040   0.222   1.415
 5676SOL    HW117927   2.990   0.135   1.424
 5676SOL    HW217928   3.029   0.258   1.323
 5677SOL     OW17929   6.995   0.144   4.113
 5677SOL    HW117930   0.016   0.211   4.171
 5677SOL    HW217931   6.903   0.127   4.149
 5678SOL     OW17932   1.607   5.691   3.253
 5678SOL    HW117933   1.588   5.781   3.215
 5678SOL    HW217934   1.685   5.698   3.317
 5679SOL     OW17935   2.014   6.401   5.216
 5679SOL    HW117936   1.950   6.418   5.142
 5679SOL    HW217937   2.104   6.378   5.178
 5680SOL     OW17938   2.192   0.013   6.149
 5680SOL    HW117939   2.246   7.021   6.066
 5680SOL    HW217940   2.160   6.950   6.185
 5681SOL     OW17941   0.665   3.604   0.847
 5681SOL    HW117942   0.728   3.555   0.907
 5681SOL    HW217943   0.584   3.632   0.899
 5682SOL     OW17944   0.981   3.632   3.916
 5682SOL    HW117945   0.963   3.581   3.832
 5682SOL    HW217946   1.038   3.576   3.976
 5683SOL     OW17947   3.605   2.445   5.395
 5683SOL    HW117948   3.541   2.492   5.455
 5683SOL    HW217949   3.689   2.498   5.387
 5684SOL     OW17950   3.296   4.022   3.377
 5684SOL    HW117951   3.383   4.071   3.371
 5684SOL    HW217952   3.314   3.925   3.393
 5685SOL     OW17953   6.790   5.137   1.952
 5685SOL    HW117954   6.728   5.063   1.979
 5685SOL    HW217955   6.736   5.219   1.930
 5686SOL     OW17956   3.235   5.843   6.982
 5686SOL    HW117957   3.187   5.929   6.998
 5686SOL    HW217958   3.288   5.849   6.897
 5687SOL     OW17959   4.967   5.435   5.778
 5687SOL    HW117960   5.037   5.483   5.726
 5687SOL    HW217961   4.966   5.338   5.752
 5688SOL     OW17962   6.000   1.908   1.995
 5688SOL    HW117963   6.027   1.908   1.899
 5688SOL    HW217964   6.082   1.906   2.052
 5689SOL     OW17965   3.540   2.481   0.521
 5689SOL    HW117966   3.527   2.566   0.572
 5689SOL    HW217967   3.514   2.496   0.425
 5690SOL     OW17968   5.109   6.722   1.342
 5690SOL    HW117969   5.169   6.643   1.344
 5690SOL    HW217970   5.132   6.780   1.264
 5691SOL     OW17971   1.735   0.373   2.074
 5691SOL    HW117972   1.723   0.391   2.172
 5691SOL    HW217973   1.718   0.276   2.056
 5692SOL     OW17974   5.504   2.967   6.682
 5692SOL    HW117975   5.563   3.024   6.739
 5692SOL    HW217976   5.429   3.022   6.646
 5693SOL     OW17977   4.564   2.601   3.247
 5693SOL    HW117978   4.478   2.562   3.281
 5693SOL    HW217979   4.607   2.654   3.320
 5694SOL     OW17980   0.182   1.625   4.211
 5694SOL    HW117981   0.250   1.697   4.197
 5694SOL    HW217982   0.207   1.544   4.158
 5695SOL     OW17983   1.978   3.463   3.361
 5695SOL    HW117984   2.026   3.438   3.277
 5695SOL    HW217985   1.896   3.516   3.339
 5696SOL     OW17986   3.097   0.007   5.286
 5696SOL    HW117987   3.056   0.044   5.202
 5696SOL    HW217988   3.188   0.048   5.298
 5697SOL     OW17989   6.619   3.258   7.025
 5697SOL    HW117990   6.649   3.224   0.089
 5697SOL    HW217991   6.617   3.358   0.001
 5698SOL     OW17992   0.281   4.188   2.149
 5698SOL    HW117993   0.360   4.135   2.119
 5698SOL    HW217994   0.291   4.283   2.119
 5699SOL     OW17995   5.897   1.038   5.112
 5699SOL    HW117996   5.928   0.943   5.102
 5699SOL    HW217997   5.975   1.100   5.102
 5700SOL     OW17998   1.183   5.747   3.455
 5700SOL    HW117999   1.176   5.826   3.393
 5700SOL    HW218000   1.276   5.711   3.452
 5701SOL     OW18001   5.779   5.194   1.647
 5701SOL    HW118002   5.696   5.155   1.606
 5701SOL    HW218003   5.782   5.292   1.630
 5702SOL     OW18004   1.927   0.679   6.408
 5702SOL    HW118005   1.962   0.704   6.318
 5702SOL    HW218006   1.946   0.753   6.472
 5703SOL     OW18007   4.031   4.208   0.614
 5703SOL    HW118008   3.977   4.221   0.697
 5703SOL    HW218009   4.093   4.130   0.626
 5704SOL     OW18010   3.481   5.470   3.441
 5704SOL    HW118011   3.557   5.440   3.500
 5704SOL    HW218012   3.442   5.555   3.477
 5705SOL     OW18013   5.956   1.343   1.795
 5705SOL    HW118014   6.020   1.412   1.762
 5705SOL    HW218015   5.982   1.253   1.760
 5706SOL     OW18016   1.868   1.310   6.696
 5706SOL    HW118017   1.815   1.303   6.780
 5706SOL    HW218018   1.819   1.366   6.630
 5707SOL     OW18019   3.267   2.496   6.925
 5707SOL    HW118020   3.354   2.448   6.927
 5707SOL    HW218021   3.198   2.442   6.974
 5708SOL     OW18022   5.258   6.816   1.905
 5708SOL    HW118023   5.201   6.761   1.844
 5708SOL    HW218024   5.249   6.781   1.999
 5709SOL     OW18025   1.421   0.971   2.802
 5709SOL    HW118026   1.458   0.887   2.763
 5709SOL    HW218027   1.411   1.039   2.730
 5710SOL     OW18028   3.177   3.475   6.264
 5710SOL    HW118029   3.088   3.433   6.248
 5710SOL    HW218030   3.249   3.411   6.238
 5711SOL     OW18031   3.934   0.996   3.889
 5711SOL    HW118032   3.842   0.968   3.916
 5711SOL    HW218033   3.957   0.954   3.802
 5712SOL     OW18034   6.734   5.787   6.343
 5712SOL    HW118035   6.752   5.876   6.300
 5712SOL    HW218036   6.637   5.764   6.330
 5713SOL     OW18037   6.483   1.873   2.876
 5713SOL    HW118038   6.573   1.899   2.913
 5713SOL    HW218039   6.462   1.930   2.797
 5714SOL     OW18040   1.676   1.301   6.936
 5714SOL    HW118041   1.583   1.287   6.904
 5714SOL    HW218042   1.717   1.213   6.962
 5715SOL     OW18043   1.472   6.680   3.470
 5715SOL    HW118044   1.480   6.718   3.562
 5715SOL    HW218045   1.440   6.585   3.476
 5716SOL     OW18046   2.275   3.103   6.147
 5716SOL    HW118047   2.257   3.197   6.118
 5716SOL    HW218048   2.234   3.088   6.237
 5717SOL     OW18049   0.705   4.060   0.844
 5717SOL    HW118050   0.757   3.981   0.812
 5717SOL    HW218051   0.620   4.068   0.792
 5718SOL     OW18052   2.127   4.410   5.370
 5718SOL    HW118053   2.207   4.469   5.358
 5718SOL    HW218054   2.157   4.317   5.391
 5719SOL     OW18055   3.460   1.158   6.309
 5719SOL    HW118056   3.527   1.139   6.236
 5719SOL    HW218057   3.375   1.109   6.289
 5720SOL     OW18058   1.476   4.842   4.334
 5720SOL    HW118059   1.536   4.767   4.304
 5720SOL    HW218060   1.411   4.863   4.261
 5721SOL     OW18061   0.769   4.514   1.339
 5721SOL    HW118062   0.712   4.596   1.331
 5721SOL    HW218063   0.817   4.515   1.426
 5722SOL     OW18064   5.266   0.108   4.458
 5722SOL    HW118065   5.262   0.148   4.550
 5722SOL    HW218066   5.174   0.080   4.430
 5723SOL     OW18067   2.137   4.977   0.872
 5723SOL    HW118068   2.161   5.011   0.963
 5723SOL    HW218069   2.163   5.045   0.803
 5724SOL     OW18070   5.135   1.795   6.757
 5724SOL    HW118071   5.199   1.863   6.720
 5724SOL    HW218072   5.108   1.732   6.684
 5725SOL     OW18073   4.836   5.381   6.271
 5725SOL    HW118074   4.898   5.380   6.193
 5725SOL    HW218075   4.851   5.464   6.325
 5726SOL     OW18076   5.701   3.380   6.282
 5726SOL    HW118077   5.761   3.300   6.274
 5726SOL    HW218078   5.658   3.398   6.193
 5727SOL     OW18079   6.540   1.928   4.107
 5727SOL    HW118080   6.582   1.837   4.108
 5727SOL    HW218081   6.451   1.923   4.062
 5728SOL     OW18082   6.276   0.539   5.929
 5728SOL    HW118083   6.210   0.573   5.997
 5728SOL    HW218084   6.234   0.540   5.838
 5729SOL     OW18085   0.496   2.487   5.960
 5729SOL    HW118086   0.493   2.455   5.865
 5729SOL    HW218087   0.463   2.581   5.965
 5730SOL     OW18088   5.295   4.383   6.180
 5730SOL    HW118089   5.309   4.341   6.090
 5730SOL    HW218090   5.255   4.474   6.168
 5731SOL     OW18091   3.454   0.642   4.117
 5731SOL    HW118092   3.528   0.624   4.052
 5731SOL    HW218093   3.366   0.625   4.072
 5732SOL     OW18094   5.688   4.294   4.754
 5732SOL    HW118095   5.649   4.385   4.745
 5732SOL    HW218096   5.746   4.290   4.836
 5733SOL     OW18097   3.054   1.099   0.449
 5733SOL    HW118098   3.043   1.051   0.362
 5733SOL    HW218099   2.966   1.104   0.496
 5734SOL     OW18100   2.450   6.042   5.782
 5734SOL    HW118101   2.498   6.115   5.831
 5734SOL    HW218102   2.514   5.967   5.764
 5735SOL     OW18103   4.038   0.755   1.959
 5735SOL    HW118104   4.056   0.660   1.984
 5735SOL    HW218105   3.950   0.783   1.998
 5736SOL     OW18106   4.977   4.504   6.602
 5736SOL    HW118107   5.060   4.500   6.547
 5736SOL    HW218108   4.938   4.596   6.598
 5737SOL     OW18109   3.960   5.582   0.889
 5737SOL    HW118110   3.981   5.527   0.809
 5737SOL    HW218111   3.862   5.602   0.893
 5738SOL     OW18112   2.918   1.348   6.972
 5738SOL    HW118113   2.826   1.317   6.996
 5738SOL    HW218114   2.927   1.445   6.993
 5739SOL     OW18115   1.900   0.612   5.610
 5739SOL    HW118116   1.871   0.527   5.653
 5739SOL    HW218117   1.843   0.687   5.644
 5740SOL     OW18118   5.593   3.092   2.342
 5740SOL    HW118119   5.680   3.137   2.319
 5740SOL    HW218120   5.543   3.147   2.408
 5741SOL     OW18121   0.245   3.598   4.573
 5741SOL    HW118122   0.340   3.596   4.542
 5741SOL    HW218123   0.206   3.688   4.554
 5742SOL     OW18124   5.154   0.529   4.134
 5742SOL    HW118125   5.154   0.611   4.078
 5742SOL    HW218126   5.246   0.490   4.138
 5743SOL     OW18127   4.115   3.518   6.313
 5743SOL    HW118128   4.089   3.613   6.330
 5743SOL    HW218129   4.171   3.512   6.231
 5744SOL     OW18130   5.740   6.845   2.671
 5744SOL    HW118131   5.669   6.862   2.740
 5744SOL    HW218132   5.699   6.838   2.581
 5745SOL     OW18133   1.757   2.106   2.034
 5745SOL    HW118134   1.848   2.068   2.017
 5745SOL    HW218135   1.762   2.170   2.111
 5746SOL     OW18136   4.171   0.306   3.703
 5746SOL    HW118137   4.089   0.305   3.644
 5746SOL    HW218138   4.142   0.314   3.799
 5747SOL     OW18139   0.547   6.134   0.862
 5747SOL    HW118140   0.494   6.197   0.805
 5747SOL    HW218141   0.558   6.172   0.954
 5748SOL     OW18142   0.670   5.678   0.478
 5748SOL    HW118143   0.719   5.675   0.566
 5748SOL    HW218144   0.729   5.720   0.409
 5749SOL     OW18145   1.774   5.791   5.770
 5749SOL    HW118146   1.855   5.835   5.732
 5749SOL    HW218147   1.743   5.718   5.710
 5750SOL     OW18148   6.264   4.691   4.301
 5750SOL    HW118149   6.175   4.732   4.280
 5750SOL    HW218150   6.249   4.602   4.343
 5751SOL     OW18151   1.857   3.613   4.330
 5751SOL    HW118152   1.869   3.678   4.406
 5751SOL    HW218153   1.855   3.520   4.367
 5752SOL     OW18154   5.136   0.365   0.613
 5752SOL    HW118155   5.183   0.287   0.656
 5752SOL    HW218156   5.135   0.442   0.676
 5753SOL     OW18157   3.520   4.084   5.053
 5753SOL    HW118158   3.548   4.002   5.003
 5753SOL    HW218159   3.425   4.106   5.028
 5754SOL     OW18160   1.032   5.893   1.229
 5754SOL    HW118161   0.944   5.942   1.226
 5754SOL    HW218162   1.106   5.958   1.247
 5755SOL     OW18163   1.233   2.719   6.613
 5755SOL    HW118164   1.177   2.700   6.694
 5755SOL    HW218165   1.193   2.674   6.534
 5756SOL     OW18166   5.845   6.136   1.252
 5756SOL    HW118167   5.917   6.072   1.228
 5756SOL    HW218168   5.845   6.212   1.187
 5757SOL     OW18169   6.331   6.773   4.220
 5757SOL    HW118170   6.236   6.766   4.252
 5757SOL    HW218171   6.359   6.686   4.181
 5758SOL     OW18172   6.976   0.260   2.584
 5758SOL    HW118173   6.889   0.260   2.536
 5758SOL    HW218174   0.021   0.216   2.528
 5759SOL     OW18175   4.281   0.096   0.993
 5759SOL    HW118176   4.253   0.127   1.084
 5759SOL    HW218177   4.265   0.169   0.927
 5760SOL     OW18178   0.785   3.151   1.349
 5760SOL    HW118179   0.766   3.109   1.438
 5760SOL    HW218180   0.769   3.084   1.277
 5761SOL     OW18181   5.571   6.446   4.556
 5761SOL    HW118182   5.490   6.426   4.611
 5761SOL    HW218183   5.651   6.400   4.595
 5762SOL     OW18184   5.980   4.967   0.069
 5762SOL    HW118185   5.890   4.983   0.030
 5762SOL    HW218186   5.989   5.021   0.153
 5763SOL     OW18187   5.453   0.126   0.446
 5763SOL    HW118188   5.424   0.164   0.358
 5763SOL    HW218189   5.484   0.032   0.434
 5764SOL     OW18190   4.186   6.185   4.133
 5764SOL    HW118191   4.087   6.182   4.119
 5764SOL    HW218192   4.231   6.213   4.048
 5765SOL     OW18193   6.592   5.295   1.364
 5765SOL    HW118194   6.589   5.331   1.457
 5765SOL    HW218195   6.552   5.204   1.361
 5766SOL     OW18196   0.356   1.842   4.219
 5766SOL    HW118197   0.283   1.909   4.206
 5766SOL    HW218198   0.444   1.883   4.195
 5767SOL     OW18199   2.630   0.307   0.187
 5767SOL    HW118200   2.591   0.325   0.278
 5767SOL    HW218201   2.560   0.320   0.117
 5768SOL     OW18202   0.658   6.715   4.783
 5768SOL    HW118203   0.654   6.681   4.689
 5768SOL    HW218204   0.569   6.701   4.828
 5769SOL     OW18205   1.369   4.601   6.433
 5769SOL    HW118206   1.432   4.544   6.486
 5769SOL    HW218207   1.296   4.635   6.493
 5770SOL     OW18208   2.231   4.810   1.498
 5770SOL    HW118209   2.317   4.835   1.542
 5770SOL    HW218210   2.231   4.711   1.479
 5771SOL     OW18211   2.101   5.294   3.625
 5771SOL    HW118212   2.086   5.223   3.694
 5771SOL    HW218213   2.180   5.269   3.568
 5772SOL     OW18214   4.092   0.625   2.509
 5772SOL    HW118215   4.116   0.719   2.489
 5772SOL    HW218216   4.144   0.563   2.450
 5773SOL     OW18217   4.118   2.215   3.016
 5773SOL    HW118218   4.215   2.191   3.004
 5773SOL    HW218219   4.066   2.186   2.936
 5774SOL     OW18220   0.257   6.166   2.764
 5774SOL    HW118221   0.285   6.256   2.797
 5774SOL    HW218222   0.336   6.119   2.724
 5775SOL     OW18223   0.071   5.884   1.949
 5775SOL    HW118224   0.122   5.840   1.875
 5775SOL    HW218225   0.051   5.816   2.021
 5776SOL     OW18226   2.111   0.551   4.208
 5776SOL    HW118227   2.100   0.479   4.140
 5776SOL    HW218228   2.202   0.592   4.199
 5777SOL     OW18229   2.030   6.404   3.102
 5777SOL    HW118230   1.959   6.449   3.156
 5777SOL    HW218231   2.055   6.317   3.144
 5778SOL     OW18232   0.565   1.415   0.676
 5778SOL    HW118233   0.466   1.408   0.662
 5778SOL    HW218234   0.612   1.404   0.588
 5779SOL     OW18235   5.629   2.524   6.868
 5779SOL    HW118236   5.710   2.467   6.854
 5779SOL    HW218237   5.612   2.579   6.786
 5780SOL     OW18238   5.440   5.620   3.902
 5780SOL    HW118239   5.341   5.618   3.910
 5780SOL    HW218240   5.475   5.526   3.893
 5781SOL     OW18241   0.735   4.123   5.599
 5781SOL    HW118242   0.784   4.052   5.549
 5781SOL    HW218243   0.799   4.171   5.659
 5782SOL     OW18244   7.006   1.124   0.422
 5782SOL    HW118245   0.031   1.038   0.432
 5782SOL    HW218246   0.021   1.177   0.347
 5783SOL     OW18247   1.975   1.817   1.478
 5783SOL    HW118248   1.911   1.759   1.528
 5783SOL    HW218249   1.942   1.911   1.479
 5784SOL     OW18250   0.418   6.431   6.587
 5784SOL    HW118251   0.367   6.345   6.584
 5784SOL    HW218252   0.514   6.411   6.608
 5785SOL     OW18253   1.537   1.789   0.845
 5785SOL    HW118254   1.585   1.726   0.905
 5785SOL    HW218255   1.603   1.838   0.788
 5786SOL     OW18256   6.432   4.257   1.018
 5786SOL    HW118257   6.389   4.247   1.108
 5786SOL    HW218258   6.399   4.184   0.957
 5787SOL     OW18259   2.998   1.964   5.719
 5787SOL    HW118260   3.029   1.942   5.811
 5787SOL    HW218261   2.914   2.018   5.724
 5788SOL     OW18262   3.298   1.001   2.879
 5788SOL    HW118263   3.380   1.026   2.931
 5788SOL    HW218264   3.296   1.051   2.793
 5789SOL     OW18265   3.998   4.976   5.855
 5789SOL    HW118266   4.080   4.919   5.846
 5789SOL    HW218267   3.928   4.926   5.907
 5790SOL     OW18268   0.755   2.756   4.275
 5790SOL    HW118269   0.664   2.714   4.267
 5790SOL    HW218270   0.778   2.767   4.371
 5791SOL     OW18271   2.809   0.449   2.684
 5791SOL    HW118272   2.758   0.416   2.764
 5791SOL    HW218273   2.864   0.528   2.709
 5792SOL     OW18274   6.896   2.260   3.231
 5792SOL    HW118275   6.878   2.254   3.133
 5792SOL    HW218276   6.981   2.310   3.246
 5793SOL     OW18277   6.234   1.057   3.846
 5793SOL    HW118278   6.302   1.102   3.788
 5793SOL    HW218279   6.281   1.009   3.920
 5794SOL     OW18280   3.751   3.617   6.897
 5794SOL    HW118281   3.719   3.651   6.985
 5794SOL    HW218282   3.851   3.609   6.899
 5795SOL     OW18283   5.824   4.232   5.656
 5795SOL    HW118284   5.788   4.324   5.676
 5795SOL    HW218285   5.918   4.225   5.688
 5796SOL     OW18286   3.511   1.857   0.013
 5796SOL    HW118287   3.579   1.922   0.045
 5796SOL    HW218288   3.477   1.885   6.948
 5797SOL     OW18289   3.346   1.932   4.746
 5797SOL    HW118290   3.325   1.964   4.838
 5797SOL    HW218291   3.280   1.970   4.681
 5798SOL     OW18292   6.832   4.617   5.193
 5798SOL    HW118293   6.919   4.664   5.177
 5798SOL    HW218294   6.771   4.632   5.116
 5799SOL     OW18295   5.522   6.995   3.450
 5799SOL    HW118296   5.482   6.904   3.463
 5799SOL    HW218297   5.609   7.001   3.499
 5800SOL     OW18298   5.601   4.878   0.492
 5800SOL    HW118299   5.610   4.821   0.411
 5800SOL    HW218300   5.507   4.871   0.528
 5801SOL     OW18301   1.219   1.007   3.833
 5801SOL    HW118302   1.216   1.087   3.773
 5801SOL    HW218303   1.127   0.984   3.864
 5802SOL     OW18304   0.351   4.078   6.189
 5802SOL    HW118305   0.320   3.985   6.206
 5802SOL    HW218306   0.445   4.088   6.220
 5803SOL     OW18307   1.351   4.710   0.786
 5803SOL    HW118308   1.335   4.797   0.832
 5803SOL    HW218309   1.428   4.663   0.831
 5804SOL     OW18310   5.828   4.113   4.245
 5804SOL    HW118311   5.795   4.159   4.327
 5804SOL    HW218312   5.922   4.081   4.260
 5805SOL     OW18313   5.255   3.844   6.215
 5805SOL    HW118314   5.171   3.878   6.259
 5805SOL    HW218315   5.248   3.858   6.116
 5806SOL     OW18316   0.320   6.443   0.071
 5806SOL    HW118317   0.396   6.504   0.048
 5806SOL    HW218318   0.246   6.455   0.006
 5807SOL     OW18319   1.580   3.510   1.115
 5807SOL    HW118320   1.521   3.575   1.067
 5807SOL    HW218321   1.624   3.555   1.193
 5808SOL     OW18322   5.643   4.559   2.370
 5808SOL    HW118323   5.614   4.594   2.281
 5808SOL    HW218324   5.595   4.473   2.389
 5809SOL     OW18325   0.039   3.450   4.433
 5809SOL    HW118326   0.028   3.352   4.445
 5809SOL    HW218327   0.098   3.487   4.505
 5810SOL     OW18328   2.996   1.638   3.447
 5810SOL    HW118329   3.068   1.697   3.409
 5810SOL    HW218330   3.020   1.542   3.432
 5811SOL     OW18331   2.842   0.235   4.230
 5811SOL    HW118332   2.880   0.274   4.315
 5811SOL    HW218333   2.782   0.159   4.253
 5812SOL     OW18334   4.719   0.277   3.618
 5812SOL    HW118335   4.778   0.358   3.617
 5812SOL    HW218336   4.632   0.300   3.663
 5813SOL     OW18337   1.700   1.018   5.205
 5813SOL    HW118338   1.790   0.993   5.241
 5813SOL    HW218339   1.673   1.107   5.242
 5814SOL     OW18340   6.692   4.920   1.312
 5814SOL    HW118341   6.682   4.891   1.408
 5814SOL    HW218342   6.711   4.840   1.255
 5815SOL     OW18343   3.777   1.905   3.178
 5815SOL    HW118344   3.691   1.934   3.221
 5815SOL    HW218345   3.824   1.985   3.141
 5816SOL     OW18346   4.667   1.008   0.203
 5816SOL    HW118347   4.706   0.980   0.291
 5816SOL    HW218348   4.710   0.954   0.130
 5817SOL     OW18349   5.226   3.020   5.701
 5817SOL    HW118350   5.179   2.989   5.618
 5817SOL    HW218351   5.202   3.115   5.719
 5818SOL     OW18352   5.605   0.071   6.124
 5818SOL    HW118353   5.614   0.170   6.112
 5818SOL    HW218354   5.570   0.030   6.040
 5819SOL     OW18355   5.638   0.559   1.159
 5819SOL    HW118356   5.587   0.490   1.209
 5819SOL    HW218357   5.619   0.649   1.197
 5820SOL     OW18358   5.405   6.724   3.376
 5820SOL    HW118359   5.334   6.656   3.361
 5820SOL    HW218360   5.482   6.707   3.314
 5821SOL     OW18361   3.121   0.566   1.824
 5821SOL    HW118362   3.044   0.503   1.829
 5821SOL    HW218363   3.207   0.515   1.820
 5822SOL     OW18364   0.474   1.900   2.576
 5822SOL    HW118365   0.529   1.940   2.648
 5822SOL    HW218366   0.534   1.868   2.502
 5823SOL     OW18367   1.425   1.654   4.559
 5823SOL    HW118368   1.486   1.687   4.487
 5823SOL    HW218369   1.462   1.570   4.598
 5824SOL     OW18370   5.845   6.676   3.298
 5824SOL    HW118371   5.923   6.616   3.316
 5824SOL    HW218372   5.806   6.706   3.385
 5825SOL     OW18373   2.380   0.420   6.751
 5825SOL    HW118374   2.449   0.484   6.718
 5825SOL    HW218375   2.296   0.471   6.773
 5826SOL     OW18376   6.705   6.335   4.885
 5826SOL    HW118377   6.607   6.332   4.905
 5826SOL    HW218378   6.744   6.243   4.892
 5827SOL     OW18379   0.639   5.797   4.785
 5827SOL    HW118380   0.603   5.769   4.696
 5827SOL    HW218381   0.583   5.871   4.822
 5828SOL     OW18382   0.541   3.457   2.687
 5828SOL    HW118383   0.472   3.396   2.725
 5828SOL    HW218384   0.626   3.407   2.671
 5829SOL     OW18385   2.686   1.199   1.658
 5829SOL    HW118386   2.623   1.157   1.723
 5829SOL    HW218387   2.780   1.186   1.691
 5830SOL     OW18388   3.495   1.131   5.921
 5830SOL    HW118389   3.557   1.110   5.997
 5830SOL    HW218390   3.493   1.229   5.905
 5831SOL     OW18391   5.607   6.830   2.916
 5831SOL    HW118392   5.553   6.913   2.911
 5831SOL    HW218393   5.558   6.755   2.872
 5832SOL     OW18394   4.243   3.571   5.029
 5832SOL    HW118395   4.197   3.624   4.957
 5832SOL    HW218396   4.211   3.476   5.025
 5833SOL     OW18397   3.334   3.646   4.007
 5833SOL    HW118398   3.285   3.595   3.936
 5833SOL    HW218399   3.289   3.632   4.095
 5834SOL     OW18400   5.686   1.723   0.614
 5834SOL    HW118401   5.721   1.810   0.648
 5834SOL    HW218402   5.603   1.740   0.561
 5835SOL     OW18403   5.143   2.119   3.826
 5835SOL    HW118404   5.113   2.184   3.896
 5835SOL    HW218405   5.241   2.131   3.809
 5836SOL     OW18406   3.619   6.313   1.840
 5836SOL    HW118407   3.535   6.281   1.883
 5836SOL    HW218408   3.648   6.399   1.882
 5837SOL     OW18409   4.729   4.142   0.421
 5837SOL    HW118410   4.718   4.044   0.406
 5837SOL    HW218411   4.760   4.186   0.337
 5838SOL     OW18412   1.588   1.663   5.703
 5838SOL    HW118413   1.622   1.725   5.632
 5838SOL    HW218414   1.548   1.583   5.660
 5839SOL     OW18415   6.784   3.342   3.118
 5839SOL    HW118416   6.692   3.364   3.086
 5839SOL    HW218417   6.779   3.310   3.213
 5840SOL     OW18418   1.795   5.187   6.824
 5840SOL    HW118419   1.808   5.184   6.725
 5840SOL    HW218420   1.881   5.165   6.870
 5841SOL     OW18421   6.230   2.880   3.441
 5841SOL    HW118422   6.326   2.907   3.446
 5841SOL    HW218423   6.205   2.834   3.527
 5842SOL     OW18424   4.274   2.948   1.008
 5842SOL    HW118425   4.291   3.041   0.974
 5842SOL    HW218426   4.296   2.944   1.106
 5843SOL     OW18427   1.692   2.943   2.607
 5843SOL    HW118428   1.771   2.912   2.554
 5843SOL    HW218429   1.609   2.901   2.571
 5844SOL     OW18430   0.476   6.352   6.307
 5844SOL    HW118431   0.472   6.378   6.403
 5844SOL    HW218432   0.531   6.269   6.297
 5845SOL     OW18433   0.938   2.533   4.054
 5845SOL    HW118434   0.974   2.542   3.962
 5845SOL    HW218435   1.009   2.555   4.121
 5846SOL     OW18436   0.181   2.395   5.421
 5846SOL    HW118437   0.267   2.353   5.391
 5846SOL    HW218438   0.195   2.493   5.433
 5847SOL     OW18439   2.257   2.782   2.518
 5847SOL    HW118440   2.291   2.820   2.604
 5847SOL    HW218441   2.279   2.844   2.443
 5848SOL     OW18442   1.618   5.107   3.077
 5848SOL    HW118443   1.636   5.043   3.152
 5848SOL    HW218444   1.607   5.199   3.114
 5849SOL     OW18445   1.598   0.573   5.895
 5849SOL    HW118446   1.499   0.581   5.890
 5849SOL    HW218447   1.628   0.495   5.841
 5850SOL     OW18448   0.934   4.542   2.319
 5850SOL    HW118449   1.007   4.575   2.259
 5850SOL    HW218450   0.865   4.613   2.331
 5851SOL     OW18451   6.002   4.157   2.397
 5851SOL    HW118452   6.030   4.062   2.385
 5851SOL    HW218453   5.920   4.175   2.342
 5852SOL     OW18454   3.875   6.173   2.127
 5852SOL    HW118455   3.881   6.139   2.221
 5852SOL    HW218456   3.842   6.100   2.067
 5853SOL     OW18457   2.614   4.379   5.871
 5853SOL    HW118458   2.714   4.377   5.866
 5853SOL    HW218459   2.576   4.379   5.778
 5854SOL     OW18460   6.856   1.685   6.059
 5854SOL    HW118461   6.758   1.697   6.078
 5854SOL    HW218462   6.889   1.762   6.005
 5855SOL     OW18463   1.416   1.011   4.784
 5855SOL    HW118464   1.342   1.057   4.736
 5855SOL    HW218465   1.431   1.055   4.872
 5856SOL     OW18466   2.027   5.171   3.330
 5856SOL    HW118467   1.999   5.075   3.335
 5856SOL    HW218468   2.126   5.177   3.338
 5857SOL     OW18469   6.729   2.576   4.729
 5857SOL    HW118470   6.693   2.495   4.683
 5857SOL    HW218471   6.757   2.644   4.660
 5858SOL     OW18472   3.206   1.088   2.291
 5858SOL    HW118473   3.293   1.091   2.242
 5858SOL    HW218474   3.134   1.060   2.229
 5859SOL     OW18475   6.806   6.724   1.246
 5859SOL    HW118476   6.731   6.749   1.184
 5859SOL    HW218477   6.890   6.768   1.217
 5860SOL     OW18478   1.550   4.420   1.831
 5860SOL    HW118479   1.540   4.324   1.804
 5860SOL    HW218480   1.503   4.478   1.765
 5861SOL     OW18481   5.421   2.491   4.404
 5861SOL    HW118482   5.517   2.509   4.381
 5861SOL    HW218483   5.363   2.519   4.328
 5862SOL     OW18484   4.045   5.052   2.652
 5862SOL    HW118485   3.960   5.041   2.703
 5862SOL    HW218486   4.108   4.977   2.675
 5863SOL     OW18487   2.011   0.832   5.837
 5863SOL    HW118488   2.101   0.823   5.880
 5863SOL    HW218489   1.966   0.743   5.835
 5864SOL     OW18490   4.133   4.204   1.654
 5864SOL    HW118491   4.093   4.113   1.657
 5864SOL    HW218492   4.216   4.206   1.709
 5865SOL     OW18493   4.996   0.698   3.114
 5865SOL    HW118494   5.001   0.692   3.213
 5865SOL    HW218495   5.084   0.670   3.074
 5866SOL     OW18496   3.881   6.373   5.699
 5866SOL    HW118497   3.950   6.301   5.687
 5866SOL    HW218498   3.802   6.336   5.747
 5867SOL     OW18499   0.672   3.051   1.879
 5867SOL    HW118500   0.691   2.974   1.940
 5867SOL    HW218501   0.755   3.074   1.828
 5868SOL     OW18502   1.477   0.306   6.003
 5868SOL    HW118503   1.404   0.374   6.002
 5868SOL    HW218504   1.484   0.264   5.913
 5869SOL     OW18505   2.765   4.767   4.688
 5869SOL    HW118506   2.733   4.675   4.710
 5869SOL    HW218507   2.822   4.802   4.763
 5870SOL     OW18508   5.038   5.113   4.003
 5870SOL    HW118509   5.012   5.120   4.099
 5870SOL    HW218510   5.080   5.024   3.987
 5871SOL     OW18511   3.804   2.889   0.437
 5871SOL    HW118512   3.891   2.884   0.487
 5871SOL    HW218513   3.729   2.891   0.502
 5872SOL     OW18514   3.672   5.756   6.018
 5872SOL    HW118515   3.605   5.823   5.984
 5872SOL    HW218516   3.675   5.761   6.118
 5873SOL     OW18517   3.262   3.307   6.877
 5873SOL    HW118518   3.287   3.393   6.921
 5873SOL    HW218519   3.182   3.321   6.819
 5874SOL     OW18520   2.271   3.700   1.712
 5874SOL    HW118521   2.290   3.633   1.783
 5874SOL    HW218522   2.173   3.700   1.692
 5875SOL     OW18523   3.356   2.086   0.319
 5875SOL    HW118524   3.393   2.154   0.382
 5875SOL    HW218525   3.431   2.030   0.284
 5876SOL     OW18526   3.151   3.698   6.639
 5876SOL    HW118527   3.176   3.790   6.670
 5876SOL    HW218528   3.066   3.703   6.587
 5877SOL     OW18529   6.623   0.684   2.043
 5877SOL    HW118530   6.533   0.682   2.085
 5877SOL    HW218531   6.676   0.604   2.073
 5878SOL     OW18532   4.567   4.780   1.936
 5878SOL    HW118533   4.495   4.711   1.950
 5878SOL    HW218534   4.545   4.862   1.989
 5879SOL     OW18535   3.625   3.154   6.219
 5879SOL    HW118536   3.690   3.208   6.165
 5879SOL    HW218537   3.547   3.211   6.245
 5880SOL     OW18538   5.083   3.260   5.715
 5880SOL    HW118539   5.028   3.204   5.778
 5880SOL    HW218540   5.022   3.318   5.661
 5881SOL     OW18541   1.494   6.545   1.979
 5881SOL    HW118542   1.398   6.534   1.951
 5881SOL    HW218543   1.501   6.531   2.077
 5882SOL     OW18544   1.458   5.804   6.095
 5882SOL    HW118545   1.405   5.739   6.039
 5882SOL    HW218546   1.555   5.784   6.085
 5883SOL     OW18547   0.105   4.069   1.146
 5883SOL    HW118548   0.053   4.084   1.061
 5883SOL    HW218549   0.071   4.129   1.218
 5884SOL     OW18550   6.302   1.965   3.956
 5884SOL    HW118551   6.237   1.890   3.943
 5884SOL    HW218552   6.264   2.030   4.022
 5885SOL     OW18553   0.365   5.343   6.845
 5885SOL    HW118554   0.324   5.424   6.886
 5885SOL    HW218555   0.465   5.352   6.846
 5886SOL     OW18556   1.507   3.993   3.806
 5886SOL    HW118557   1.504   4.018   3.709
 5886SOL    HW218558   1.465   3.904   3.819
 5887SOL     OW18559   2.019   2.935   0.809
 5887SOL    HW118560   2.071   2.984   0.739
 5887SOL    HW218561   2.049   2.840   0.812
 5888SOL     OW18562   3.176   6.842   1.064
 5888SOL    HW118563   3.116   6.779   1.115
 5888SOL    HW218564   3.229   6.896   1.129
 5889SOL     OW18565   6.646   0.862   1.469
 5889SOL    HW118566   6.657   0.776   1.419
 5889SOL    HW218567   6.575   0.851   1.538
 5890SOL     OW18568   2.915   6.322   2.473
 5890SOL    HW118569   2.832   6.289   2.428
 5890SOL    HW218570   2.909   6.420   2.488
 5891SOL     OW18571   2.486   3.566   0.766
 5891SOL    HW118572   2.554   3.493   0.765
 5891SOL    HW218573   2.416   3.548   0.696
 5892SOL     OW18574   0.928   3.474   0.928
 5892SOL    HW118575   0.944   3.539   0.854
 5892SOL    HW218576   0.966   3.385   0.903
 5893SOL     OW18577   0.827   5.631   2.020
 5893SOL    HW118578   0.919   5.668   2.036
 5893SOL    HW218579   0.765   5.706   1.998
 5894SOL     OW18580   2.135   5.646   6.055
 5894SOL    HW118581   2.076   5.609   5.983
 5894SOL    HW218582   2.090   5.724   6.098
 5895SOL     OW18583   5.534   2.773   4.529
 5895SOL    HW118584   5.468   2.802   4.599
 5895SOL    HW218585   5.491   2.708   4.467
 5896SOL     OW18586   6.015   2.532   1.876
 5896SOL    HW118587   5.994   2.629   1.864
 5896SOL    HW218588   5.931   2.482   1.897
 5897SOL     OW18589   4.497   1.564   0.891
 5897SOL    HW118590   4.554   1.537   0.813
 5897SOL    HW218591   4.530   1.650   0.928
 5898SOL     OW18592   1.926   1.587   5.396
 5898SOL    HW118593   1.906   1.506   5.340
 5898SOL    HW218594   2.003   1.636   5.356
 5899SOL     OW18595   6.767   5.241   5.657
 5899SOL    HW118596   6.719   5.154   5.647
 5899SOL    HW218597   6.735   5.305   5.588
 5900SOL     OW18598   6.154   6.282   3.287
 5900SOL    HW118599   6.249   6.289   3.320
 5900SOL    HW218600   6.150   6.309   3.191
 5901SOL     OW18601   2.010   0.379   5.827
 5901SOL    HW118602   1.952   0.456   5.854
 5901SOL    HW218603   2.100   0.390   5.868
 5902SOL     OW18604   5.068   4.472   5.177
 5902SOL    HW118605   5.126   4.399   5.139
 5902SOL    HW218606   4.972   4.447   5.166
 5903SOL     OW18607   6.200   1.877   6.287
 5903SOL    HW118608   6.100   1.873   6.283
 5903SOL    HW218609   6.229   1.973   6.284
 5904SOL     OW18610   1.982   4.238   2.450
 5904SOL    HW118611   2.014   4.223   2.544
 5904SOL    HW218612   1.941   4.328   2.443
 5905SOL     OW18613   6.317   1.183   4.399
 5905SOL    HW118614   6.228   1.152   4.366
 5905SOL    HW218615   6.344   1.129   4.479
 5906SOL     OW18616   4.972   0.324   5.137
 5906SOL    HW118617   5.005   0.367   5.052
 5906SOL    HW218618   4.995   0.227   5.136
 5907SOL     OW18619   1.698   2.884   6.839
 5907SOL    HW118620   1.666   2.934   6.919
 5907SOL    HW218621   1.630   2.816   6.811
 5908SOL     OW18622   4.510   3.295   6.254
 5908SOL    HW118623   4.576   3.371   6.259
 5908SOL    HW218624   4.552   3.217   6.207
 5909SOL     OW18625   6.839   5.075   4.471
 5909SOL    HW118626   6.757   5.085   4.528
 5909SOL    HW218627   6.819   5.011   4.396
 5910SOL     OW18628   2.263   4.114   1.430
 5910SOL    HW118629   2.251   4.085   1.525
 5910SOL    HW218630   2.267   4.034   1.371
 5911SOL     OW18631   6.313   6.281   6.096
 5911SOL    HW118632   6.317   6.364   6.151
 5911SOL    HW218633   6.272   6.207   6.150
 5912SOL     OW18634   6.718   3.746   6.804
 5912SOL    HW118635   6.748   3.670   6.747
 5912SOL    HW218636   6.767   3.829   6.778
 5913SOL     OW18637   1.711   1.458   6.002
 5913SOL    HW118638   1.785   1.496   5.948
 5913SOL    HW218639   1.731   1.363   6.024
 5914SOL     OW18640   1.595   6.021   0.169
 5914SOL    HW118641   1.550   6.109   0.182
 5914SOL    HW218642   1.671   6.031   0.105
 5915SOL     OW18643   4.840   2.633   2.596
 5915SOL    HW118644   4.892   2.595   2.520
 5915SOL    HW218645   4.812   2.726   2.574
 5916SOL     OW18646   3.797   0.345   5.983
 5916SOL    HW118647   3.752   0.432   5.965
 5916SOL    HW218648   3.794   0.325   6.081
 5917SOL     OW18649   2.959   3.835   3.222
 5917SOL    HW118650   3.051   3.872   3.215
 5917SOL    HW218651   2.957   3.741   3.187
 5918SOL     OW18652   2.195   3.256   4.239
 5918SOL    HW118653   2.186   3.312   4.321
 5918SOL    HW218654   2.291   3.254   4.209
 5919SOL     OW18655   1.629   2.921   6.452
 5919SOL    HW118656   1.665   2.832   6.482
 5919SOL    HW218657   1.647   2.989   6.522
 5920SOL     OW18658   3.714   6.885   6.859
 5920SOL    HW118659   3.686   6.795   6.827
 5920SOL    HW218660   3.685   6.954   6.792
 5921SOL     OW18661   4.065   4.870   4.981
 5921SOL    HW118662   4.158   4.849   4.950
 5921SOL    HW218663   4.046   4.820   5.065
 5922SOL     OW18664   6.361   4.270   2.693
 5922SOL    HW118665   6.269   4.310   2.698
 5922SOL    HW218666   6.356   4.173   2.718
 5923SOL     OW18667   0.194   6.766   3.879
 5923SOL    HW118668   0.151   6.711   3.807
 5923SOL    HW218669   0.153   6.857   3.878
 5924SOL     OW18670   5.186   2.388   4.786
 5924SOL    HW118671   5.239   2.356   4.707
 5924SOL    HW218672   5.191   2.320   4.859
 5925SOL     OW18673   5.736   5.773   1.131
 5925SOL    HW118674   5.744   5.831   1.050
 5925SOL    HW218675   5.699   5.827   1.207
 5926SOL     OW18676   3.468   5.081   1.404
 5926SOL    HW118677   3.456   5.159   1.466
 5926SOL    HW218678   3.381   5.057   1.363
 5927SOL     OW18679   2.988   5.745   2.697
 5927SOL    HW118680   2.995   5.717   2.793
 5927SOL    HW218681   3.080   5.751   2.658
 5928SOL     OW18682   1.563   0.065   2.425
 5928SOL    HW118683   1.645   0.117   2.448
 5928SOL    HW218684   1.557   7.009   2.484
 5929SOL     OW18685   1.341   6.813   6.615
 5929SOL    HW118686   1.271   6.882   6.596
 5929SOL    HW218687   1.326   6.734   6.555
 5930SOL     OW18688   6.786   1.392   4.514
 5930SOL    HW118689   6.705   1.447   4.492
 5930SOL    HW218690   6.867   1.433   4.472
 5931SOL     OW18691   6.571   5.541   1.187
 5931SOL    HW118692   6.666   5.512   1.180
 5931SOL    HW218693   6.523   5.484   1.254
 5932SOL     OW18694   3.053   6.982   0.834
 5932SOL    HW118695   3.090   6.937   0.915
 5932SOL    HW218696   3.047   6.916   0.759
 5933SOL     OW18697   6.583   3.954   3.294
 5933SOL    HW118698   6.661   3.984   3.238
 5933SOL    HW218699   6.593   3.992   3.387
 5934SOL     OW18700   3.767   3.542   2.979
 5934SOL    HW118701   3.857   3.582   2.966
 5934SOL    HW218702   3.723   3.582   3.059
 5935SOL     OW18703   4.076   3.515   3.901
 5935SOL    HW118704   4.164   3.484   3.938
 5935SOL    HW218705   4.010   3.440   3.906
 5936SOL     OW18706   5.267   5.588   6.216
 5936SOL    HW118707   5.287   5.528   6.139
 5936SOL    HW218708   5.221   5.671   6.183
 5937SOL     OW18709   1.920   3.517   1.112
 5937SOL    HW118710   1.875   3.434   1.080
 5937SOL    HW218711   1.984   3.549   1.041
 5938SOL     OW18712   1.511   4.392   2.632
 5938SOL    HW118713   1.557   4.437   2.555
 5938SOL    HW218714   1.429   4.346   2.599
 5939SOL     OW18715   3.795   6.984   2.896
 5939SOL    HW118716   3.839   0.003   2.974
 5939SOL    HW218717   3.865   6.945   2.835
 5940SOL     OW18718   4.017   6.216   3.003
 5940SOL    HW118719   3.946   6.204   3.072
 5940SOL    HW218720   4.046   6.312   3.001
 5941SOL     OW18721   6.127   4.809   2.600
 5941SOL    HW118722   6.137   4.882   2.532
 5941SOL    HW218723   6.051   4.749   2.573
 5942SOL     OW18724   4.312   2.947   6.058
 5942SOL    HW118725   4.352   2.899   6.136
 5942SOL    HW218726   4.379   2.954   5.985
 5943SOL     OW18727   1.334   5.918   0.413
 5943SOL    HW118728   1.316   5.946   0.507
 5943SOL    HW218729   1.254   5.871   0.376
 5944SOL     OW18730   5.234   1.728   2.580
 5944SOL    HW118731   5.236   1.820   2.541
 5944SOL    HW218732   5.326   1.704   2.612
 5945SOL     OW18733   6.297   4.957   5.901
 5945SOL    HW118734   6.233   4.953   5.823
 5945SOL    HW218735   6.389   4.973   5.867
 5946SOL     OW18736   4.650   2.981   5.615
 5946SOL    HW118737   4.746   2.988   5.588
 5946SOL    HW218738   4.597   2.945   5.538
 5947SOL     OW18739   4.383   3.383   1.629
 5947SOL    HW118740   4.432   3.469   1.616
 5947SOL    HW218741   4.286   3.402   1.648
 5948SOL     OW18742   3.653   4.842   2.449
 5948SOL    HW118743   3.618   4.843   2.543
 5948SOL    HW218744   3.591   4.789   2.391
 5949SOL     OW18745   4.537   4.800   1.314
 5949SOL    HW118746   4.497   4.892   1.313
 5949SOL    HW218747   4.484   4.741   1.374
 5950SOL     OW18748   6.570   2.592   4.115
 5950SOL    HW118749   6.610   2.500   4.118
 5950SOL    HW218750   6.642   2.660   4.106
 5951SOL     OW18751   2.002   5.762   3.725
 5951SOL    HW118752   1.973   5.731   3.816
 5951SOL    HW218753   2.074   5.701   3.691
 5952SOL     OW18754   6.936   6.474   4.376
 5952SOL    HW118755   6.881   6.546   4.418
 5952SOL    HW218756   6.910   6.385   4.416
 5953SOL     OW18757   7.020   3.074   6.395
 5953SOL    HW118758   6.988   3.112   6.308
 5953SOL    HW218759   0.090   3.042   6.385
 5954SOL     OW18760   0.308   4.913   6.903
 5954SOL    HW118761   0.229   4.860   6.933
 5954SOL    HW218762   0.378   4.852   6.866
 5955SOL     OW18763   4.830   5.328   1.619
 5955SOL    HW118764   4.744   5.363   1.582
 5955SOL    HW218765   4.906   5.360   1.563
 5956SOL     OW18766   5.654   2.133   0.146
 5956SOL    HW118767   5.563   2.171   0.163
 5956SOL    HW218768   5.723   2.195   0.184
 5957SOL     OW18769   5.852   6.320   6.168
 5957SOL    HW118770   5.933   6.376   6.150
 5957SOL    HW218771   5.842   6.308   6.267
 5958SOL     OW18772   6.725   5.486   2.128
 5958SOL    HW118773   6.626   5.501   2.133
 5958SOL    HW218774   6.767   5.514   2.215
 5959SOL     OW18775   1.990   1.523   5.900
 5959SOL    HW118776   2.073   1.470   5.882
 5959SOL    HW218777   1.947   1.547   5.813
 5960SOL     OW18778   3.355   0.259   3.687
 5960SOL    HW118779   3.433   0.242   3.628
 5960SOL    HW218780   3.276   0.208   3.653
 5961SOL     OW18781   2.854   1.124   5.196
 5961SOL    HW118782   2.837   1.195   5.127
 5961SOL    HW218783   2.815   1.037   5.166
 5962SOL     OW18784   5.126   5.250   2.310
 5962SOL    HW118785   5.029   5.235   2.331
 5962SOL    HW218786   5.159   5.330   2.360
 5963SOL     OW18787   3.999   3.820   2.511
 5963SOL    HW118788   4.001   3.727   2.548
 5963SOL    HW218789   4.023   3.819   2.414
 5964SOL     OW18790   0.443   4.992   5.596
 5964SOL    HW118791   0.516   5.056   5.571
 5964SOL    HW218792   0.443   4.980   5.695
 5965SOL     OW18793   2.584   2.441   5.521
 5965SOL    HW118794   2.657   2.498   5.559
 5965SOL    HW218795   2.499   2.457   5.572
 5966SOL     OW18796   3.001   5.887   4.282
 5966SOL    HW118797   3.036   5.838   4.202
 5966SOL    HW218798   3.017   5.985   4.272
 5967SOL     OW18799   4.632   6.604   2.551
 5967SOL    HW118800   4.636   6.701   2.577
 5967SOL    HW218801   4.700   6.586   2.480
 5968SOL     OW18802   6.645   2.419   3.483
 5968SOL    HW118803   6.592   2.457   3.559
 5968SOL    HW218804   6.628   2.321   3.477
 5969SOL     OW18805   6.073   3.697   3.226
 5969SOL    HW118806   6.084   3.648   3.139
 5969SOL    HW218807   6.005   3.770   3.214
 5970SOL     OW18808   1.474   3.362   3.164
 5970SOL    HW118809   1.449   3.399   3.254
 5970SOL    HW218810   1.411   3.398   3.095
 5971SOL     OW18811   2.256   6.909   2.705
 5971SOL    HW118812   2.165   6.885   2.739
 5971SOL    HW218813   2.247   6.964   2.622
 5972SOL     OW18814   5.027   6.543   0.402
 5972SOL    HW118815   5.092   6.615   0.380
 5972SOL    HW218816   4.935   6.582   0.412
 5973SOL     OW18817   1.238   4.777   3.255
 5973SOL    HW118818   1.294   4.702   3.289
 5973SOL    HW218819   1.162   4.741   3.202
 5974SOL     OW18820   0.247   3.994   0.168
 5974SOL    HW118821   0.241   3.895   0.182
 5974SOL    HW218822   0.340   4.019   0.142
 5975SOL     OW18823   2.578   2.937   0.956
 5975SOL    HW118824   2.478   2.930   0.958
 5975SOL    HW218825   2.606   3.024   0.998
 5976SOL     OW18826   2.956   3.233   4.863
 5976SOL    HW118827   3.007   3.288   4.930
 5976SOL    HW218828   2.873   3.197   4.906
 5977SOL     OW18829   1.196   3.807   2.356
 5977SOL    HW118830   1.197   3.907   2.351
 5977SOL    HW218831   1.166   3.778   2.446
 5978SOL     OW18832   5.552   4.769   1.887
 5978SOL    HW118833   5.599   4.756   1.799
 5978SOL    HW218834   5.459   4.800   1.869
 5979SOL     OW18835   6.799   0.890   3.342
 5979SOL    HW118836   6.845   0.850   3.421
 5979SOL    HW218837   6.863   0.899   3.267
 5980SOL     OW18838   5.943   4.436   0.064
 5980SOL    HW118839   5.926   4.412   0.160
 5980SOL    HW218840   5.927   4.356   0.007
 5981SOL     OW18841   5.153   1.039   2.380
 5981SOL    HW118842   5.109   1.119   2.420
 5981SOL    HW218843   5.092   0.996   2.314
 5982SOL     OW18844   6.871   1.889   6.737
 5982SOL    HW118845   6.945   1.900   6.670
 5982SOL    HW218846   6.901   1.925   6.825
 5983SOL     OW18847   1.959   0.930   4.393
 5983SOL    HW118848   1.912   1.018   4.386
 5983SOL    HW218849   1.982   0.912   4.488
 5984SOL     OW18850   0.286   6.219   5.015
 5984SOL    HW118851   0.264   6.141   5.073
 5984SOL    HW218852   0.207   6.279   5.008
 5985SOL     OW18853   4.367   1.877   4.179
 5985SOL    HW118854   4.317   1.878   4.266
 5985SOL    HW218855   4.405   1.786   4.164
 5986SOL     OW18856   3.392   3.103   2.505
 5986SOL    HW118857   3.292   3.102   2.504
 5986SOL    HW218858   3.426   3.010   2.491
 5987SOL     OW18859   3.991   6.594   4.785
 5987SOL    HW118860   3.906   6.542   4.777
 5987SOL    HW218861   3.989   6.650   4.868
 5988SOL     OW18862   4.157   6.516   4.248
 5988SOL    HW118863   4.098   6.590   4.279
 5988SOL    HW218864   4.242   6.516   4.301
 5989SOL     OW18865   2.865   0.754   5.905
 5989SOL    HW118866   2.896   0.721   5.994
 5989SOL    HW218867   2.796   0.692   5.869
 5990SOL     OW18868   3.177   5.141   1.410
 5990SOL    HW118869   3.138   5.049   1.400
 5990SOL    HW218870   3.104   5.206   1.432
 5991SOL     OW18871   3.019   5.172   4.774
 5991SOL    HW118872   3.070   5.257   4.762
 5991SOL    HW218873   3.056   5.102   4.712
 5992SOL     OW18874   4.525   0.457   3.997
 5992SOL    HW118875   4.474   0.378   4.033
 5992SOL    HW218876   4.500   0.472   3.902
 5993SOL     OW18877   2.718   6.234   5.432
 5993SOL    HW118878   2.718   6.148   5.483
 5993SOL    HW218879   2.629   6.279   5.442
 5994SOL     OW18880   6.471   2.459   2.664
 5994SOL    HW118881   6.456   2.413   2.752
 5994SOL    HW218882   6.393   2.519   2.645
 5995SOL     OW18883   0.056   4.890   1.215
 5995SOL    HW118884   0.034   4.868   1.120
 5995SOL    HW218885   0.119   4.967   1.218
 5996SOL     OW18886   6.991   5.084   5.754
 5996SOL    HW118887   0.021   5.036   5.685
 5996SOL    HW218888   6.899   5.099   5.719
 5997SOL     OW18889   0.849   6.863   2.276
 5997SOL    HW118890   0.820   6.768   2.262
 5997SOL    HW218891   0.802   6.901   2.356
 5998SOL     OW18892   5.604   2.410   2.570
 5998SOL    HW118893   5.573   2.498   2.607
 5998SOL    HW218894   5.639   2.353   2.645
 5999SOL     OW18895   1.603   1.746   2.364
 5999SOL    HW118896   1.532   1.775   2.428
 5999SOL    HW218897   1.672   1.692   2.412
 6000SOL     OW18898   4.405   5.728   2.088
 6000SOL    HW118899   4.422   5.782   2.170
 6000SOL    HW218900   4.451   5.770   2.010
 6001SOL     OW18901   6.825   2.238   6.793
 6001SOL    HW118902   6.829   2.337   6.808
 6001SOL    HW218903   6.750   2.218   6.729
 6002SOL     OW18904   2.090   0.342   1.755
 6002SOL    HW118905   2.066   0.262   1.700
 6002SOL    HW218906   2.010   0.372   1.807
 6003SOL     OW18907   4.729   4.134   4.949
 6003SOL    HW118908   4.704   4.071   5.022
 6003SOL    HW218909   4.739   4.084   4.863
 6004SOL     OW18910   0.267   3.272   2.410
 6004SOL    HW118911   0.177   3.315   2.400
 6004SOL    HW218912   0.297   3.280   2.505
 6005SOL     OW18913   2.981   5.704   2.960
 6005SOL    HW118914   2.979   5.609   2.991
 6005SOL    HW218915   2.891   5.745   2.972
 6006SOL     OW18916   2.645   0.012   6.379
 6006SOL    HW118917   2.712   0.086   6.382
 6006SOL    HW218918   2.677   6.965   6.316
 6007SOL     OW18919   6.069   2.316   4.151
 6007SOL    HW118920   6.071   2.295   4.249
 6007SOL    HW218921   6.126   2.396   4.133
 6008SOL     OW18922   2.895   4.470   6.315
 6008SOL    HW118923   2.926   4.469   6.219
 6008SOL    HW218924   2.968   4.433   6.373
 6009SOL     OW18925   2.498   1.869   4.550
 6009SOL    HW118926   2.490   1.773   4.575
 6009SOL    HW218927   2.575   1.910   4.598
 6010SOL     OW18928   1.579   4.036   3.242
 6010SOL    HW118929   1.642   4.043   3.319
 6010SOL    HW218930   1.502   3.977   3.268
 6011SOL     OW18931   5.002   3.302   2.592
 6011SOL    HW118932   4.944   3.378   2.622
 6011SOL    HW218933   4.961   3.216   2.620
 6012SOL     OW18934   6.641   3.113   0.925
 6012SOL    HW118935   6.726   3.068   0.898
 6012SOL    HW218936   6.618   3.088   1.019
 6013SOL     OW18937   5.569   0.939   3.010
 6013SOL    HW118938   5.515   0.884   2.947
 6013SOL    HW218939   5.613   1.014   2.960
 6014SOL     OW18940   6.234   0.362   0.316
 6014SOL    HW118941   6.145   0.379   0.275
 6014SOL    HW218942   6.222   0.311   0.402
 6015SOL     OW18943   5.926   1.615   4.059
 6015SOL    HW118944   5.891   1.703   4.092
 6015SOL    HW218945   5.887   1.595   3.969
 6016SOL     OW18946   1.894   0.677   5.086
 6016SOL    HW118947   1.954   0.632   5.152
 6016SOL    HW218948   1.801   0.643   5.099
 6017SOL     OW18949   6.527   5.541   2.812
 6017SOL    HW118950   6.503   5.509   2.903
 6017SOL    HW218951   6.486   5.631   2.796
 6018SOL     OW18952   2.565   3.801   0.889
 6018SOL    HW118953   2.628   3.781   0.964
 6018SOL    HW218954   2.560   3.722   0.827
 6019SOL     OW18955   3.649   0.489   4.279
 6019SOL    HW118956   3.551   0.505   4.265
 6019SOL    HW218957   3.667   0.472   4.376
 6020SOL     OW18958   3.908   0.692   2.973
 6020SOL    HW118959   3.887   0.790   2.970
 6020SOL    HW218960   3.855   0.645   2.903
 6021SOL     OW18961   4.414   1.372   2.212
 6021SOL    HW118962   4.388   1.431   2.136
 6021SOL    HW218963   4.513   1.378   2.227
 6022SOL     OW18964   4.438   1.408   3.530
 6022SOL    HW118965   4.491   1.324   3.521
 6022SOL    HW218966   4.493   1.486   3.500
 6023SOL     OW18967   0.350   1.264   2.728
 6023SOL    HW118968   0.367   1.362   2.734
 6023SOL    HW218969   0.255   1.248   2.702
 6024SOL     OW18970   0.513   5.001   1.976
 6024SOL    HW118971   0.574   4.999   1.896
 6024SOL    HW218972   0.568   4.991   2.059
 6025SOL     OW18973   4.606   1.364   1.040
 6025SOL    HW118974   4.561   1.276   1.025
 6025SOL    HW218975   4.552   1.436   0.997
 6026SOL     OW18976   6.915   4.950   5.499
 6026SOL    HW118977   6.900   4.984   5.406
 6026SOL    HW218978   6.991   4.884   5.499
 6027SOL     OW18979   2.783   3.790   6.804
 6027SOL    HW118980   2.709   3.723   6.798
 6027SOL    HW218981   2.846   3.779   6.727
 6028SOL     OW18982   1.307   3.285   0.180
 6028SOL    HW118983   1.377   3.250   0.242
 6028SOL    HW218984   1.311   3.235   0.093
 6029SOL     OW18985   2.184   6.260   1.577
 6029SOL    HW118986   2.203   6.350   1.617
 6029SOL    HW218987   2.220   6.188   1.637
 6030SOL     OW18988   1.839   0.675   1.674
 6030SOL    HW118989   1.879   0.765   1.656
 6030SOL    HW218990   1.866   0.643   1.764
 6031SOL     OW18991   4.855   6.562   5.367
 6031SOL    HW118992   4.810   6.541   5.280
 6031SOL    HW218993   4.943   6.607   5.349
 6032SOL     OW18994   0.821   2.880   2.576
 6032SOL    HW118995   0.859   2.901   2.486
 6032SOL    HW218996   0.727   2.914   2.581
 6033SOL     OW18997   0.896   1.072   4.111
 6033SOL    HW118998   0.796   1.079   4.111
 6033SOL    HW218999   0.935   1.156   4.074
 6034SOL     OW19000   1.864   4.021   4.811
 6034SOL    HW119001   1.829   3.937   4.853
 6034SOL    HW219002   1.964   4.018   4.810
 6035SOL     OW19003   6.277   0.475   3.824
 6035SOL    HW119004   6.289   0.421   3.741
 6035SOL    HW219005   6.343   0.551   3.823
 6036SOL     OW19006   0.852   6.048   5.387
 6036SOL    HW119007   0.949   6.058   5.367
 6036SOL    HW219008   0.800   6.108   5.326
 6037SOL     OW19009   6.168   6.107   4.742
 6037SOL    HW119010   6.097   6.119   4.673
 6037SOL    HW219011   6.209   6.196   4.764
 6038SOL     OW19012   5.919   3.726   5.938
 6038SOL    HW119013   5.864   3.689   6.013
 6038SOL    HW219014   5.924   3.825   5.946
 6039SOL     OW19015   3.254   3.405   2.403
 6039SOL    HW119016   3.168   3.431   2.359
 6039SOL    HW219017   3.235   3.367   2.494
 6040SOL     OW19018   0.279   1.954   0.110
 6040SOL    HW119019   0.308   2.032   0.166
 6040SOL    HW219020   0.217   1.897   0.163
 6041SOL     OW19021   1.207   2.421   0.065
 6041SOL    HW119022   1.246   2.389   0.151
 6041SOL    HW219023   1.195   2.520   0.069
 6042SOL     OW19024   4.573   5.239   3.188
 6042SOL    HW119025   4.513   5.319   3.193
 6042SOL    HW219026   4.638   5.251   3.113
 6043SOL     OW19027   0.995   4.676   4.495
 6043SOL    HW119028   0.903   4.638   4.483
 6043SOL    HW219029   1.063   4.606   4.475
 6044SOL     OW19030   0.590   0.754   1.270
 6044SOL    HW119031   0.496   0.788   1.280
 6044SOL    HW219032   0.649   0.828   1.239
 6045SOL     OW19033   6.937   4.046   1.883
 6045SOL    HW119034   6.973   4.126   1.834
 6045SOL    HW219035   7.005   4.015   1.950
 6046SOL     OW19036   3.139   2.375   0.600
 6046SOL    HW119037   3.222   2.398   0.651
 6046SOL    HW219038   3.103   2.458   0.557
 6047SOL     OW19039   6.371   0.185   4.298
 6047SOL    HW119040   6.358   0.272   4.345
 6047SOL    HW219041   6.370   0.110   4.364
 6048SOL     OW19042   4.285   6.766   4.992
 6048SOL    HW119043   4.353   6.838   4.976
 6048SOL    HW219044   4.327   6.677   4.975
 6049SOL     OW19045   5.876   4.645   6.907
 6049SOL    HW119046   5.891   4.550   6.931
 6049SOL    HW219047   5.963   4.694   6.907
 6050SOL     OW19048   4.402   4.783   5.490
 6050SOL    HW119049   4.436   4.808   5.400
 6050SOL    HW219050   4.335   4.851   5.521
 6051SOL     OW19051   1.708   1.899   3.049
 6051SOL    HW119052   1.785   1.843   3.018
 6051SOL    HW219053   1.734   1.996   3.045
 6052SOL     OW19054   6.872   1.356   0.941
 6052SOL    HW119055   6.970   1.338   0.935
 6052SOL    HW219056   6.851   1.441   0.891
 6053SOL     OW19057   1.699   6.521   6.757
 6053SOL    HW119058   1.740   6.523   6.848
 6053SOL    HW219059   1.769   6.541   6.689
 6054SOL     OW19060   2.074   4.235   0.474
 6054SOL    HW119061   2.036   4.218   0.383
 6054SOL    HW219062   2.099   4.331   0.483
 6055SOL     OW19063   5.086   0.926   5.261
 6055SOL    HW119064   5.006   0.930   5.322
 6055SOL    HW219065   5.064   0.972   5.175
 6056SOL     OW19066   4.682   2.182   6.671
 6056SOL    HW119067   4.710   2.131   6.752
 6056SOL    HW219068   4.639   2.268   6.699
 6057SOL     OW19069   3.092   1.242   4.945
 6057SOL    HW119070   3.103   1.248   4.846
 6057SOL    HW219071   3.000   1.274   4.970
 6058SOL     OW19072   5.656   2.098   4.049
 6058SOL    HW119073   5.685   2.057   3.962
 6058SOL    HW219074   5.562   2.071   4.070
 6059SOL     OW19075   5.631   4.467   6.921
 6059SOL    HW119076   5.562   4.474   6.993
 6059SOL    HW219077   5.651   4.559   6.886
 6060SOL     OW19078   4.035   5.596   5.779
 6060SOL    HW119079   4.060   5.539   5.701
 6060SOL    HW219080   4.018   5.538   5.859
 6061SOL     OW19081   3.071   1.895   6.512
 6061SOL    HW119082   3.028   1.879   6.601
 6061SOL    HW219083   3.088   1.807   6.467
 6062SOL     OW19084   1.925   0.404   4.726
 6062SOL    HW119085   1.954   0.406   4.630
 6062SOL    HW219086   1.864   0.482   4.744
 6063SOL     OW19087   4.378   0.529   6.620
 6063SOL    HW119088   4.297   0.579   6.649
 6063SOL    HW219089   4.413   0.568   6.535
 6064SOL     OW19090   0.986   5.585   3.578
 6064SOL    HW119091   1.034   5.658   3.530
 6064SOL    HW219092   1.048   5.508   3.594
 6065SOL     OW19093   0.041   0.241   0.580
 6065SOL    HW119094   0.037   0.287   0.669
 6065SOL    HW219095   6.976   0.248   0.535
 6066SOL     OW19096   4.275   2.500   0.511
 6066SOL    HW119097   4.206   2.560   0.553
 6066SOL    HW219098   4.240   2.406   0.511
 6067SOL     OW19099   6.214   1.446   6.396
 6067SOL    HW119100   6.280   1.514   6.364
 6067SOL    HW219101   6.250   1.354   6.378
 6068SOL     OW19102   4.429   2.528   4.668
 6068SOL    HW119103   4.518   2.563   4.637
 6068SOL    HW219104   4.371   2.605   4.695
 6069SOL     OW19105   6.990   4.364   5.008
 6069SOL    HW119106   6.979   4.344   5.105
 6069SOL    HW219107   6.901   4.383   4.967
 6070SOL     OW19108   3.898   2.526   5.915
 6070SOL    HW119109   3.918   2.459   5.986
 6070SOL    HW219110   3.959   2.605   5.926
 6071SOL     OW19111   3.857   6.138   5.417
 6071SOL    HW119112   3.870   6.237   5.416
 6071SOL    HW219113   3.946   6.093   5.425
 6072SOL     OW19114   0.167   2.179   1.596
 6072SOL    HW119115   0.096   2.120   1.637
 6072SOL    HW219116   0.138   2.207   1.505
 6073SOL     OW19117   6.372   2.672   0.702
 6073SOL    HW119118   6.304   2.649   0.771
 6073SOL    HW219119   6.327   2.687   0.614
 6074SOL     OW19120   0.531   0.024   5.064
 6074SOL    HW119121   0.520   0.093   4.992
 6074SOL    HW219122   0.453   0.028   5.126
 6075SOL     OW19123   5.619   3.931   0.246
 6075SOL    HW119124   5.551   3.912   0.175
 6075SOL    HW219125   5.657   3.845   0.280
 6076SOL     OW19126   2.188   5.915   4.064
 6076SOL    HW119127   2.278   5.908   4.107
 6076SOL    HW219128   2.118   5.929   4.135
 6077SOL     OW19129   5.914   6.262   2.155
 6077SOL    HW119130   5.966   6.292   2.075
 6077SOL    HW219131   5.938   6.320   2.234
 6078SOL     OW19132   2.683   4.654   4.049
 6078SOL    HW119133   2.751   4.676   3.979
 6078SOL    HW219134   2.627   4.578   4.018
 6079SOL     OW19135   2.576   1.758   6.212
 6079SOL    HW119136   2.664   1.712   6.195
 6079SOL    HW219137   2.591   1.857   6.218
 6080SOL     OW19138   5.720   2.567   1.698
 6080SOL    HW119139   5.753   2.529   1.785
 6080SOL    HW219140   5.627   2.601   1.709
 6081SOL     OW19141   6.616   3.459   3.909
 6081SOL    HW119142   6.650   3.466   3.815
 6081SOL    HW219143   6.522   3.493   3.914
 6082SOL     OW19144   4.198   1.189   3.213
 6082SOL    HW119145   4.266   1.203   3.141
 6082SOL    HW219146   4.206   1.263   3.281
 6083SOL     OW19147   1.526   6.310   6.658
 6083SOL    HW119148   1.480   6.363   6.586
 6083SOL    HW219149   1.600   6.364   6.697
 6084SOL     OW19150   0.068   5.350   5.750
 6084SOL    HW119151   0.009   5.273   5.725
 6084SOL    HW219152   0.079   5.411   5.672
 6085SOL     OW19153   5.422   3.508   0.360
 6085SOL    HW119154   5.429   3.474   0.266
 6085SOL    HW219155   5.513   3.520   0.399
 6086SOL     OW19156   3.298   2.062   4.320
 6086SOL    HW119157   3.386   2.052   4.368
 6086SOL    HW219158   3.226   2.076   4.387
 6087SOL     OW19159   5.621   6.514   6.490
 6087SOL    HW119160   5.594   6.610   6.495
 6087SOL    HW219161   5.539   6.457   6.485
 6088SOL     OW19162   1.051   0.145   5.108
 6088SOL    HW119163   1.070   0.056   5.068
 6088SOL    HW219164   0.986   0.194   5.049
 6089SOL     OW19165   6.815   3.422   1.022
 6089SOL    HW119166   6.797   3.504   0.968
 6089SOL    HW219167   6.730   3.390   1.063
 6090SOL     OW19168   0.968   5.195   4.946
 6090SOL    HW119169   1.046   5.132   4.944
 6090SOL    HW219170   0.891   5.150   4.991
 6091SOL     OW19171   6.547   1.817   1.954
 6091SOL    HW119172   6.644   1.802   1.936
 6091SOL    HW219173   6.493   1.761   1.892
 6092SOL     OW19174   1.991   1.848   2.298
 6092SOL    HW119175   2.020   1.941   2.275
 6092SOL    HW219176   2.040   1.783   2.239
 6093SOL     OW19177   1.196   2.482   1.078
 6093SOL    HW119178   1.269   2.433   1.030
 6093SOL    HW219179   1.192   2.452   1.173
 6094SOL     OW19180   0.855   1.117   1.715
 6094SOL    HW119181   0.947   1.103   1.678
 6094SOL    HW219182   0.809   1.029   1.724
 6095SOL     OW19183   6.180   3.232   6.306
 6095SOL    HW119184   6.211   3.169   6.234
 6095SOL    HW219185   6.160   3.321   6.266
 6096SOL     OW19186   3.977   2.090   3.722
 6096SOL    HW119187   4.030   2.025   3.668
 6096SOL    HW219188   3.880   2.079   3.703
 6097SOL     OW19189   2.599   1.531   2.487
 6097SOL    HW119190   2.558   1.622   2.477
 6097SOL    HW219191   2.698   1.538   2.485
 6098SOL     OW19192   2.011   2.369   5.737
 6098SOL    HW119193   2.067   2.375   5.820
 6098SOL    HW219194   1.914   2.369   5.762
 6099SOL     OW19195   6.204   6.245   5.301
 6099SOL    HW119196   6.186   6.339   5.329
 6099SOL    HW219197   6.174   6.233   5.206
 6100SOL     OW19198   6.496   2.590   0.009
 6100SOL    HW119199   6.523   2.494   7.019
 6100SOL    HW219200   6.519   2.617   0.103
 6101SOL     OW19201   6.734   1.191   5.590
 6101SOL    HW119202   6.686   1.160   5.508
 6101SOL    HW219203   6.681   1.166   5.671
 6102SOL     OW19204   2.961   0.555   4.662
 6102SOL    HW119205   3.043   0.502   4.645
 6102SOL    HW219206   2.919   0.581   4.575
 6103SOL     OW19207   6.149   6.896   5.636
 6103SOL    HW119208   6.122   6.808   5.675
 6103SOL    HW219209   6.089   6.916   5.558
 6104SOL     OW19210   6.478   1.856   6.663
 6104SOL    HW119211   6.466   1.770   6.614
 6104SOL    HW219212   6.545   1.844   6.736
 6105SOL     OW19213   3.380   5.947   5.046
 6105SOL    HW119214   3.316   5.884   5.002
 6105SOL    HW219215   3.463   5.954   4.991
 6106SOL     OW19216   3.433   5.063   6.038
 6106SOL    HW119217   3.430   4.973   5.994
 6106SOL    HW219218   3.453   5.133   5.969
 6107SOL     OW19219   2.033   4.842   5.201
 6107SOL    HW119220   1.948   4.873   5.243
 6107SOL    HW219221   2.027   4.853   5.102
 6108SOL     OW19222   0.673   1.937   4.473
 6108SOL    HW119223   0.694   1.894   4.385
 6108SOL    HW219224   0.755   1.985   4.507
 6109SOL     OW19225   5.647   3.916   0.996
 6109SOL    HW119226   5.739   3.895   0.961
 6109SOL    HW219227   5.582   3.849   0.962
 6110SOL     OW19228   3.236   1.569   4.699
 6110SOL    HW119229   3.283   1.482   4.688
 6110SOL    HW219230   3.262   1.609   4.787
 6111SOL     OW19231   1.353   5.002   3.339
 6111SOL    HW119232   1.306   4.914   3.326
 6111SOL    HW219233   1.451   4.987   3.334
 6112SOL     OW19234   0.695   1.855   3.047
 6112SOL    HW119235   0.613   1.893   3.089
 6112SOL    HW219236   0.765   1.927   3.038
 6113SOL     OW19237   1.591   6.763   5.674
 6113SOL    HW119238   1.663   6.824   5.642
 6113SOL    HW219239   1.582   6.686   5.610
 6114SOL     OW19240   4.601   5.730   0.719
 6114SOL    HW119241   4.671   5.662   0.739
 6114SOL    HW219242   4.609   5.807   0.783
 6115SOL     OW19243   5.222   5.370   2.544
 6115SOL    HW119244   5.227   5.270   2.543
 6115SOL    HW219245   5.241   5.403   2.637
 6116SOL     OW19246   3.715   1.221   2.061
 6116SOL    HW119247   3.635   1.162   2.070
 6116SOL    HW219248   3.798   1.167   2.069
 6117SOL     OW19249   5.609   6.888   4.542
 6117SOL    HW119250   5.568   6.930   4.461
 6117SOL    HW219251   5.689   6.942   4.570
 6118SOL     OW19252   6.114   0.646   3.498
 6118SOL    HW119253   6.188   0.649   3.430
 6118SOL    HW219254   6.126   0.721   3.563
 6119SOL     OW19255   6.897   5.157   5.031
 6119SOL    HW119256   6.954   5.130   5.109
 6119SOL    HW219257   6.853   5.076   4.992
 6120SOL     OW19258   2.716   0.374   2.931
 6120SOL    HW119259   2.738   0.423   3.016
 6120SOL    HW219260   2.752   0.281   2.936
 6121SOL     OW19261   0.305   2.467   4.043
 6121SOL    HW119262   0.240   2.392   4.038
 6121SOL    HW219263   0.373   2.448   4.114
 6122SOL     OW19264   4.075   5.650   3.083
 6122SOL    HW119265   4.001   5.627   3.147
 6122SOL    HW219266   4.080   5.750   3.074
 6123SOL     OW19267   5.924   1.135   2.443
 6123SOL    HW119268   6.004   1.111   2.498
 6123SOL    HW219269   5.850   1.071   2.464
 6124SOL     OW19270   3.482   0.318   5.877
 6124SOL    HW119271   3.475   0.415   5.854
 6124SOL    HW219272   3.490   0.265   5.793
 6125SOL     OW19273   2.529   6.062   1.909
 6125SOL    HW119274   2.557   5.967   1.924
 6125SOL    HW219275   2.573   6.121   1.977
 6126SOL     OW19276   5.047   5.079   3.007
 6126SOL    HW119277   4.987   5.105   3.082
 6126SOL    HW219278   4.998   5.089   2.920
 6127SOL     OW19279   1.980   5.649   1.498
 6127SOL    HW119280   1.923   5.582   1.451
 6127SOL    HW219281   2.076   5.625   1.486
 6128SOL     OW19282   5.326   1.934   0.346
 6128SOL    HW119283   5.323   1.906   0.250
 6128SOL    HW219284   5.348   2.031   0.352
 6129SOL     OW19285   6.139   4.485   3.523
 6129SOL    HW119286   6.201   4.473   3.446
 6129SOL    HW219287   6.061   4.539   3.494
 6130SOL     OW19288   5.224   3.491   2.670
 6130SOL    HW119289   5.189   3.400   2.647
 6130SOL    HW219290   5.270   3.489   2.758
 6131SOL     OW19291   6.103   1.077   5.468
 6131SOL    HW119292   6.088   0.984   5.504
 6131SOL    HW219293   6.160   1.071   5.386
 6132SOL     OW19294   4.503   2.834   0.915
 6132SOL    HW119295   4.404   2.830   0.924
 6132SOL    HW219296   4.529   2.814   0.821
 6133SOL     OW19297   0.689   4.233   1.480
 6133SOL    HW119298   0.770   4.194   1.437
 6133SOL    HW219299   0.710   4.325   1.514
 6134SOL     OW19300   4.679   3.543   6.569
 6134SOL    HW119301   4.721   3.455   6.546
 6134SOL    HW219302   4.588   3.548   6.529
 6135SOL     OW19303   5.881   0.252   1.404
 6135SOL    HW119304   5.965   0.204   1.377
 6135SOL    HW219305   5.813   0.242   1.332
 6136SOL     OW19306   0.798   2.048   1.734
 6136SOL    HW119307   0.897   2.049   1.726
 6136SOL    HW219308   0.771   2.103   1.814
 6137SOL     OW19309   2.868   6.356   5.762
 6137SOL    HW119310   2.954   6.399   5.789
 6137SOL    HW219311   2.804   6.425   5.729
 6138SOL     OW19312   3.778   5.852   2.815
 6138SOL    HW119313   3.707   5.920   2.799
 6138SOL    HW219314   3.767   5.776   2.750
 6139SOL     OW19315   1.956   4.578   4.485
 6139SOL    HW119316   1.871   4.571   4.537
 6139SOL    HW219317   2.001   4.666   4.506
 6140SOL     OW19318   1.724   6.483   1.227
 6140SOL    HW119319   1.705   6.409   1.292
 6140SOL    HW219320   1.798   6.541   1.263
 6141SOL     OW19321   6.383   5.624   6.122
 6141SOL    HW119322   6.413   5.531   6.102
 6141SOL    HW219323   6.283   5.628   6.120
 6142SOL     OW19324   0.172   4.717   1.431
 6142SOL    HW119325   0.131   4.761   1.350
 6142SOL    HW219326   0.177   4.784   1.505
 6143SOL     OW19327   5.573   5.244   6.394
 6143SOL    HW119328   5.548   5.285   6.482
 6143SOL    HW219329   5.505   5.174   6.369
 6144SOL     OW19330   0.401   4.540   3.980
 6144SOL    HW119331   0.309   4.506   4.003
 6144SOL    HW219332   0.468   4.468   3.998
 6145SOL     OW19333   5.127   5.743   2.751
 6145SOL    HW119334   5.097   5.648   2.762
 6145SOL    HW219335   5.095   5.778   2.663
 6146SOL     OW19336   5.870   1.468   3.830
 6146SOL    HW119337   5.867   1.535   3.756
 6146SOL    HW219338   5.945   1.403   3.814
 6147SOL     OW19339   1.636   3.549   2.702
 6147SOL    HW119340   1.695   3.482   2.747
 6147SOL    HW219341   1.608   3.514   2.613
 6148SOL     OW19342   6.215   6.355   4.366
 6148SOL    HW119343   6.271   6.282   4.405
 6148SOL    HW219344   6.157   6.318   4.294
 6149SOL     OW19345   2.708   5.875   2.924
 6149SOL    HW119346   2.667   5.944   2.865
 6149SOL    HW219347   2.667   5.880   3.015
 6150SOL     OW19348   4.738   5.778   5.901
 6150SOL    HW119349   4.753   5.841   5.825
 6150SOL    HW219350   4.666   5.814   5.960
 6151SOL     OW19351   4.902   2.489   5.597
 6151SOL    HW119352   4.992   2.529   5.580
 6151SOL    HW219353   4.850   2.550   5.657
 6152SOL     OW19354   6.566   4.416   6.566
 6152SOL    HW119355   6.529   4.384   6.653
 6152SOL    HW219356   6.662   4.441   6.578
 6153SOL     OW19357   4.124   3.447   1.649
 6153SOL    HW119358   4.050   3.478   1.590
 6153SOL    HW219359   4.088   3.379   1.714
 6154SOL     OW19360   5.463   3.295   2.718
 6154SOL    HW119361   5.418   3.362   2.777
 6154SOL    HW219362   5.561   3.296   2.736
 6155SOL     OW19363   0.277   3.868   5.163
 6155SOL    HW119364   0.363   3.917   5.175
 6155SOL    HW219365   0.293   3.786   5.108
 6156SOL     OW19366   6.584   0.128   3.815
 6156SOL    HW119367   6.625   0.037   3.804
 6156SOL    HW219368   6.515   0.125   3.887
 6157SOL     OW19369   2.455   1.174   3.664
 6157SOL    HW119370   2.467   1.128   3.752
 6157SOL    HW219371   2.534   1.232   3.646
 6158SOL     OW19372   4.673   1.394   5.654
 6158SOL    HW119373   4.708   1.463   5.590
 6158SOL    HW219374   4.749   1.340   5.689
 6159SOL     OW19375   5.290   2.637   6.720
 6159SOL    HW119376   5.215   2.648   6.785
 6159SOL    HW219377   5.369   2.691   6.750
 6160SOL     OW19378   5.627   6.053   2.075
 6160SOL    HW119379   5.585   6.131   2.121
 6160SOL    HW219380   5.722   6.044   2.104
 6161SOL     OW19381   5.617   0.589   5.746
 6161SOL    HW119382   5.698   0.543   5.709
 6161SOL    HW219383   5.640   0.684   5.768
 6162SOL     OW19384   6.699   4.689   4.961
 6162SOL    HW119385   6.706   4.789   4.956
 6162SOL    HW219386   6.603   4.664   4.974
 6163SOL     OW19387   6.806   4.141   2.348
 6163SOL    HW119388   6.806   4.181   2.256
 6163SOL    HW219389   6.897   4.146   2.387
 6164SOL     OW19390   3.841   2.018   0.885
 6164SOL    HW119391   3.768   1.995   0.821
 6164SOL    HW219392   3.846   1.948   0.956
 6165SOL     OW19393   3.467   5.975   0.119
 6165SOL    HW119394   3.551   5.930   0.090
 6165SOL    HW219395   3.403   5.978   0.043
 6166SOL     OW19396   2.837   1.598   5.672
 6166SOL    HW119397   2.770   1.528   5.695
 6166SOL    HW219398   2.800   1.688   5.694
 6167SOL     OW19399   0.391   4.261   3.359
 6167SOL    HW119400   0.468   4.238   3.418
 6167SOL    HW219401   0.323   4.188   3.363
 6168SOL     OW19402   0.306   3.490   2.871
 6168SOL    HW119403   0.232   3.523   2.812
 6168SOL    HW219404   0.296   3.391   2.885
 6169SOL     OW19405   1.780   3.950   2.474
 6169SOL    HW119406   1.841   3.979   2.401
 6169SOL    HW219407   1.720   4.026   2.499
 6170SOL     OW19408   0.599   3.072   5.264
 6170SOL    HW119409   0.502   3.054   5.275
 6170SOL    HW219410   0.625   3.150   5.321
 6171SOL     OW19411   0.141   0.404   6.364
 6171SOL    HW119412   0.077   0.410   6.288
 6171SOL    HW219413   0.107   0.336   6.430
 6172SOL     OW19414   0.178   3.551   3.252
 6172SOL    HW119415   0.116   3.581   3.324
 6172SOL    HW219416   0.186   3.622   3.182
 6173SOL     OW19417   7.004   6.759   3.243
 6173SOL    HW119418   0.017   6.791   3.156
 6173SOL    HW219419   6.906   6.779   3.246
 6174SOL     OW19420   5.356   3.785   2.755
 6174SOL    HW119421   5.409   3.864   2.725
 6174SOL    HW219422   5.418   3.716   2.793
 6175SOL     OW19423   2.412   2.255   5.700
 6175SOL    HW119424   2.450   2.328   5.758
 6175SOL    HW219425   2.329   2.288   5.655
 6176SOL     OW19426   4.292   3.990   5.601
 6176SOL    HW119427   4.390   3.974   5.613
 6176SOL    HW219428   4.257   4.046   5.676
 6177SOL     OW19429   6.141   0.878   1.854
 6177SOL    HW119430   6.049   0.844   1.833
 6177SOL    HW219431   6.158   0.868   1.952
 6178SOL     OW19432   3.716   4.326   1.409
 6178SOL    HW119433   3.691   4.375   1.493
 6178SOL    HW219434   3.718   4.391   1.333
 6179SOL     OW19435   5.520   5.067   2.992
 6179SOL    HW119436   5.606   5.098   2.953
 6179SOL    HW219437   5.528   4.970   3.016
 6180SOL     OW19438   2.727   4.041   0.038
 6180SOL    HW119439   2.641   3.999   0.066
 6180SOL    HW219440   2.802   3.977   0.053
 6181SOL     OW19441   5.036   5.392   6.052
 6181SOL    HW119442   5.049   5.491   6.059
 6181SOL    HW219443   5.017   5.368   5.957
 6182SOL     OW19444   3.480   2.511   0.207
 6182SOL    HW119445   3.383   2.512   0.233
 6182SOL    HW219446   3.489   2.472   0.115
 6183SOL     OW19447   0.929   1.448   1.130
 6183SOL    HW119448   1.017   1.496   1.129
 6183SOL    HW219449   0.898   1.440   1.225
 6184SOL     OW19450   2.558   0.463   5.633
 6184SOL    HW119451   2.534   0.496   5.541
 6184SOL    HW219452   2.575   0.541   5.693
 6185SOL     OW19453   3.179   3.012   5.536
 6185SOL    HW119454   3.090   3.031   5.578
 6185SOL    HW219455   3.238   2.965   5.601
 6186SOL     OW19456   6.522   1.717   2.213
 6186SOL    HW119457   6.513   1.621   2.189
 6186SOL    HW219458   6.545   1.770   2.132
 6187SOL     OW19459   5.488   1.936   5.443
 6187SOL    HW119460   5.400   1.962   5.402
 6187SOL    HW219461   5.478   1.929   5.542
 6188SOL     OW19462   1.144   1.751   5.242
 6188SOL    HW119463   1.224   1.707   5.199
 6188SOL    HW219464   1.141   1.847   5.216
 6189SOL     OW19465   6.496   6.265   1.532
 6189SOL    HW119466   6.572   6.293   1.474
 6189SOL    HW219467   6.530   6.219   1.614
 6190SOL     OW19468   0.464   2.549   5.648
 6190SOL    HW119469   0.554   2.530   5.608
 6190SOL    HW219470   0.406   2.594   5.580
 6191SOL     OW19471   4.087   3.477   6.601
 6191SOL    HW119472   4.110   3.476   6.504
 6191SOL    HW219473   4.136   3.552   6.646
 6192SOL     OW19474   2.491   1.620   0.385
 6192SOL    HW119475   2.443   1.567   0.455
 6192SOL    HW219476   2.443   1.610   0.298
 6193SOL     OW19477   4.645   5.323   6.516
 6193SOL    HW119478   4.682   5.348   6.426
 6193SOL    HW219479   4.562   5.376   6.533
 6194SOL     OW19480   5.991   0.229   5.867
 6194SOL    HW119481   6.032   0.149   5.909
 6194SOL    HW219482   6.062   0.283   5.821
 6195SOL     OW19483   6.684   6.695   6.044
 6195SOL    HW119484   6.613   6.626   6.059
 6195SOL    HW219485   6.714   6.693   5.948
 6196SOL     OW19486   5.832   3.837   3.232
 6196SOL    HW119487   5.791   3.818   3.143
 6196SOL    HW219488   5.770   3.807   3.305
 6197SOL     OW19489   3.643   5.851   1.738
 6197SOL    HW119490   3.659   5.758   1.705
 6197SOL    HW219491   3.714   5.912   1.703
 6198SOL     OW19492   6.241   6.752   6.604
 6198SOL    HW119493   6.339   6.747   6.626
 6198SOL    HW219494   6.193   6.676   6.648
 6199SOL     OW19495   1.406   0.444   0.606
 6199SOL    HW119496   1.412   0.543   0.614
 6199SOL    HW219497   1.336   0.409   0.668
 6200SOL     OW19498   2.037   1.996   2.647
 6200SOL    HW119499   2.027   1.909   2.600
 6200SOL    HW219500   1.996   1.990   2.738
 6201SOL     OW19501   0.009   4.233   3.916
 6201SOL    HW119502   6.964   4.209   3.983
 6201SOL    HW219503   0.028   4.153   3.858
 6202SOL     OW19504   6.488   1.691   2.680
 6202SOL    HW119505   6.493   1.737   2.592
 6202SOL    HW219506   6.474   1.759   2.752
 6203SOL     OW19507   6.862   6.453   1.781
 6203SOL    HW119508   6.812   6.386   1.836
 6203SOL    HW219509   6.944   6.409   1.743
 6204SOL     OW19510   2.370   0.275   5.255
 6204SOL    HW119511   2.451   0.221   5.280
 6204SOL    HW219512   2.378   0.304   5.159
 6205SOL     OW19513   5.070   4.422   3.149
 6205SOL    HW119514   5.027   4.511   3.135
 6205SOL    HW219515   5.170   4.433   3.150
 6206SOL     OW19516   5.474   1.988   3.553
 6206SOL    HW119517   5.460   1.892   3.529
 6206SOL    HW219518   5.559   2.021   3.512
 6207SOL     OW19519   2.383   4.973   4.642
 6207SOL    HW119520   2.472   4.996   4.603
 6207SOL    HW219521   2.316   5.043   4.617
 6208SOL     OW19522   3.865   3.468   5.123
 6208SOL    HW119523   3.827   3.551   5.082
 6208SOL    HW219524   3.903   3.490   5.213
 6209SOL     OW19525   3.745   2.586   1.081
 6209SOL    HW119526   3.696   2.566   0.996
 6209SOL    HW219527   3.817   2.653   1.063
 6210SOL     OW19528   4.844   1.705   4.134
 6210SOL    HW119529   4.914   1.650   4.089
 6210SOL    HW219530   4.868   1.802   4.128
 6211SOL     OW19531   5.356   4.586   5.192
 6211SOL    HW119532   5.384   4.514   5.256
 6211SOL    HW219533   5.270   4.560   5.148
 6212SOL     OW19534   4.462   4.852   5.216
 6212SOL    HW119535   4.530   4.802   5.163
 6212SOL    HW219536   4.474   4.950   5.203
 6213SOL     OW19537   4.090   6.092   0.477
 6213SOL    HW119538   4.138   6.099   0.390
 6213SOL    HW219539   4.109   6.173   0.532
 6214SOL     OW19540   6.096   5.635   6.170
 6214SOL    HW119541   6.141   5.630   6.260
 6214SOL    HW219542   6.033   5.558   6.160
 6215SOL     OW19543   5.644   2.537   5.867
 6215SOL    HW119544   5.707   2.526   5.944
 6215SOL    HW219545   5.550   2.529   5.900
 6216SOL     OW19546   4.719   2.295   2.862
 6216SOL    HW119547   4.671   2.282   2.775
 6216SOL    HW219548   4.741   2.207   2.902
 6217SOL     OW19549   0.262   4.731   2.128
 6217SOL    HW119550   0.165   4.712   2.113
 6217SOL    HW219551   0.272   4.813   2.184
 6218SOL     OW19552   4.647   6.696   6.952
 6218SOL    HW119553   4.713   6.739   7.014
 6218SOL    HW219554   4.664   6.727   6.858
 6219SOL     OW19555   1.255   0.524   6.156
 6219SOL    HW119556   1.249   0.522   6.256
 6219SOL    HW219557   1.351   0.525   6.129
 6220SOL     OW19558   4.257   0.676   1.125
 6220SOL    HW119559   4.306   0.642   1.045
 6220SOL    HW219560   4.220   0.767   1.106
 6221SOL     OW19561   5.948   5.537   6.849
 6221SOL    HW119562   5.904   5.614   6.802
 6221SOL    HW219563   6.045   5.556   6.861
 6222SOL     OW19564   6.231   1.593   2.070
 6222SOL    HW119565   6.269   1.537   2.143
 6222SOL    HW219566   6.252   1.552   1.981
 6223SOL     OW19567   0.136   5.061   3.447
 6223SOL    HW119568   0.128   5.133   3.378
 6223SOL    HW219569   0.113   4.973   3.406
 6224SOL     OW19570   4.105   1.227   6.794
 6224SOL    HW119571   4.128   1.136   6.759
 6224SOL    HW219572   4.064   1.282   6.721
 6225SOL     OW19573   4.429   6.191   6.719
 6225SOL    HW119574   4.420   6.102   6.764
 6225SOL    HW219575   4.500   6.244   6.764
 6226SOL     OW19576   1.564   1.427   4.651
 6226SOL    HW119577   1.608   1.345   4.614
 6226SOL    HW219578   1.631   1.479   4.705
 6227SOL     OW19579   2.855   4.454   5.397
 6227SOL    HW119580   2.906   4.501   5.325
 6227SOL    HW219581   2.787   4.517   5.435
 6228SOL     OW19582   1.483   3.358   4.019
 6228SOL    HW119583   1.543   3.294   3.970
 6228SOL    HW219584   1.448   3.426   3.954
 6229SOL     OW19585   0.820   4.110   4.125
 6229SOL    HW119586   0.913   4.127   4.091
 6229SOL    HW219587   0.766   4.066   4.052
 6230SOL     OW19588   0.095   0.822   2.386
 6230SOL    HW119589   0.097   0.920   2.367
 6230SOL    HW219590   0.175   0.778   2.346
 6231SOL     OW19591   1.556   5.162   6.987
 6231SOL    HW119592   1.633   5.155   6.923
 6231SOL    HW219593   1.558   5.084   0.025
 6232SOL     OW19594   4.269   1.091   6.426
 6232SOL    HW119595   4.239   0.996   6.416
 6232SOL    HW219596   4.210   1.151   6.372
 6233SOL     OW19597   6.933   3.944   1.544
 6233SOL    HW119598   6.961   3.925   1.450
 6233SOL    HW219599   7.010   3.925   1.606
 6234SOL     OW19600   4.427   5.965   4.765
 6234SOL    HW119601   4.388   6.054   4.743
 6234SOL    HW219602   4.395   5.897   4.698
 6235SOL     OW19603   6.658   0.903   2.950
 6235SOL    HW119604   6.674   0.805   2.950
 6235SOL    HW219605   6.630   0.933   3.041
 6236SOL     OW19606   0.931   5.651   1.246
 6236SOL    HW119607   1.014   5.598   1.266
 6236SOL    HW219608   0.952   5.749   1.249
 6237SOL     OW19609   3.715   1.498   0.434
 6237SOL    HW119610   3.710   1.597   0.452
 6237SOL    HW219611   3.632   1.469   0.388
 6238SOL     OW19612   2.594   0.051   4.241
 6238SOL    HW119613   2.588   6.976   4.238
 6238SOL    HW219614   2.602   0.082   4.336
 6239SOL     OW19615   4.611   1.181   3.477
 6239SOL    HW119616   4.540   1.124   3.435
 6239SOL    HW219617   4.663   1.227   3.405
 6240SOL     OW19618   3.913   3.262   3.919
 6240SOL    HW119619   3.933   3.178   3.869
 6240SOL    HW219620   3.814   3.274   3.927
 6241SOL     OW19621   3.741   0.394   2.751
 6241SOL    HW119622   3.645   0.369   2.742
 6241SOL    HW219623   3.763   0.412   2.847
 6242SOL     OW19624   2.819   2.006   3.550
 6242SOL    HW119625   2.896   1.995   3.487
 6242SOL    HW219626   2.737   2.030   3.497
 6243SOL     OW19627   4.983   1.079   6.002
 6243SOL    HW119628   4.997   0.998   5.946
 6243SOL    HW219629   5.071   1.110   6.039
 6244SOL     OW19630   4.502   4.488   2.563
 6244SOL    HW119631   4.574   4.441   2.512
 6244SOL    HW219632   4.413   4.455   2.532
 6245SOL     OW19633   0.310   4.601   2.535
 6245SOL    HW119634   0.289   4.695   2.507
 6245SOL    HW219635   0.229   4.544   2.522
 6246SOL     OW19636   6.572   6.431   4.319
 6246SOL    HW119637   6.486   6.446   4.271
 6246SOL    HW219638   6.592   6.333   4.322
 6247SOL     OW19639   6.545   6.622   3.212
 6247SOL    HW119640   6.451   6.602   3.185
 6247SOL    HW219641   6.602   6.541   3.196
 6248SOL     OW19642   3.504   3.058   5.871
 6248SOL    HW119643   3.537   2.965   5.855
 6248SOL    HW219644   3.467   3.096   5.786
 6249SOL     OW19645   5.858   3.099   1.627
 6249SOL    HW119646   5.831   3.012   1.667
 6249SOL    HW219647   5.782   3.163   1.630
 6250SOL     OW19648   6.605   0.073   0.475
 6250SOL    HW119649   6.569   0.100   0.385
 6250SOL    HW219650   6.535   0.023   0.525
 6251SOL     OW19651   2.664   6.803   4.287
 6251SOL    HW119652   2.637   6.720   4.336
 6251SOL    HW219653   2.756   6.829   4.314
 6252SOL     OW19654   3.032   5.800   6.794
 6252SOL    HW119655   3.069   5.803   6.702
 6252SOL    HW219656   2.932   5.801   6.790
 6253SOL     OW19657   3.763   5.022   4.867
 6253SOL    HW119658   3.809   4.975   4.792
 6253SOL    HW219659   3.786   4.978   4.953
 6254SOL     OW19660   0.748   6.816   1.115
 6254SOL    HW119661   0.731   6.871   1.033
 6254SOL    HW219662   0.799   6.734   1.090
 6255SOL     OW19663   0.395   1.445   2.036
 6255SOL    HW119664   0.407   1.468   1.940
 6255SOL    HW219665   0.329   1.370   2.045
 6256SOL     OW19666   4.876   5.948   2.130
 6256SOL    HW119667   4.938   5.984   2.060
 6256SOL    HW219668   4.923   5.878   2.184
 6257SOL     OW19669   3.315   4.074   1.391
 6257SOL    HW119670   3.232   4.112   1.430
 6257SOL    HW219671   3.358   4.012   1.457
 6258SOL     OW19672   3.938   5.205   4.983
 6258SOL    HW119673   3.937   5.282   4.919
 6258SOL    HW219674   3.907   5.122   4.936
 6259SOL     OW19675   3.342   0.429   4.321
 6259SOL    HW119676   3.248   0.464   4.318
 6259SOL    HW219677   3.371   0.419   4.417
 6260SOL     OW19678   1.205   1.672   0.411
 6260SOL    HW119679   1.207   1.751   0.472
 6260SOL    HW219680   1.273   1.605   0.440
 6261SOL     OW19681   3.400   0.466   1.000
 6261SOL    HW119682   3.413   0.465   0.900
 6261SOL    HW219683   3.334   0.537   1.024
 6262SOL     OW19684   5.793   0.112   2.357
 6262SOL    HW119685   5.778   0.130   2.454
 6262SOL    HW219686   5.813   0.198   2.310
 6263SOL     OW19687   6.230   5.836   5.972
 6263SOL    HW119688   6.211   5.747   5.932
 6263SOL    HW219689   6.307   5.829   6.036
 6264SOL     OW19690   1.809   0.423   0.360
 6264SOL    HW119691   1.865   0.410   0.442
 6264SOL    HW219692   1.747   0.345   0.349
 6265SOL     OW19693   4.959   0.571   6.929
 6265SOL    HW119694   4.892   0.508   6.969
 6265SOL    HW219695   4.991   0.534   6.842
 6266SOL     OW19696   2.541   5.133   2.934
 6266SOL    HW119697   2.487   5.183   2.867
 6266SOL    HW219698   2.482   5.068   2.983
 6267SOL     OW19699   2.033   6.407   4.901
 6267SOL    HW119700   2.051   6.452   4.814
 6267SOL    HW219701   2.029   6.308   4.888
 6268SOL     OW19702   3.364   1.425   1.061
 6268SOL    HW119703   3.446   1.406   1.115
 6268SOL    HW219704   3.284   1.386   1.106
 6269SOL     OW19705   6.415   5.383   0.279
 6269SOL    HW119706   6.450   5.331   0.201
 6269SOL    HW219707   6.445   5.339   0.364
 6270SOL     OW19708   2.163   6.246   0.579
 6270SOL    HW119709   2.088   6.296   0.536
 6270SOL    HW219710   2.247   6.259   0.526
 6271SOL     OW19711   5.860   3.145   6.227
 6271SOL    HW119712   5.892   3.080   6.296
 6271SOL    HW219713   5.931   3.157   6.157
 6272SOL     OW19714   0.541   6.882   0.688
 6272SOL    HW119715   0.493   6.955   0.736
 6272SOL    HW219716   0.478   6.837   0.625
 6273SOL     OW19717   0.799   6.547   1.541
 6273SOL    HW119718   0.840   6.637   1.526
 6273SOL    HW219719   0.867   6.476   1.526
 6274SOL     OW19720   3.159   5.812   4.052
 6274SOL    HW119721   3.226   5.797   4.125
 6274SOL    HW219722   3.174   5.745   3.979
 6275SOL     OW19723   2.197   5.359   6.883
 6275SOL    HW119724   2.177   5.448   6.925
 6275SOL    HW219725   2.271   5.314   6.933
 6276SOL     OW19726   1.566   5.620   2.971
 6276SOL    HW119727   1.552   5.650   3.065
 6276SOL    HW219728   1.652   5.570   2.963
 6277SOL     OW19729   5.177   3.484   1.031
 6277SOL    HW119730   5.085   3.467   1.066
 6277SOL    HW219731   5.176   3.479   0.931
 6278SOL     OW19732   2.599   1.367   6.538
 6278SOL    HW119733   2.607   1.439   6.607
 6278SOL    HW219734   2.513   1.377   6.489
 6279SOL     OW19735   2.501   7.003   1.695
 6279SOL    HW119736   2.443   6.921   1.691
 6279SOL    HW219737   2.493   0.029   1.609
 6280SOL     OW19738   6.267   2.492   0.259
 6280SOL    HW119739   6.233   2.411   0.306
 6280SOL    HW219740   6.210   2.512   0.179
 6281SOL     OW19741   5.612   3.693   6.039
 6281SOL    HW119742   5.667   3.635   6.099
 6281SOL    HW219743   5.648   3.786   6.041
 6282SOL     OW19744   0.119   3.404   6.351
 6282SOL    HW119745   0.063   3.395   6.269
 6282SOL    HW219746   0.062   3.388   6.432
 6283SOL     OW19747   1.023   6.251   4.627
 6283SOL    HW119748   1.051   6.195   4.549
 6283SOL    HW219749   1.079   6.226   4.707
 6284SOL     OW19750   1.596   4.304   6.045
 6284SOL    HW119751   1.655   4.321   5.966
 6284SOL    HW219752   1.522   4.371   6.047
 6285SOL     OW19753   0.989   3.936   3.029
 6285SOL    HW119754   1.022   3.877   3.103
 6285SOL    HW219755   1.038   3.914   2.945
 6286SOL     OW19756   0.732   2.708   0.383
 6286SOL    HW119757   0.715   2.797   0.425
 6286SOL    HW219758   0.662   2.690   0.314
 6287SOL     OW19759   5.124   4.670   4.836
 6287SOL    HW119760   5.201   4.675   4.773
 6287SOL    HW219761   5.154   4.696   4.928
 6288SOL     OW19762   3.455   3.366   6.282
 6288SOL    HW119763   3.412   3.344   6.370
 6288SOL    HW219764   3.496   3.458   6.287
 6289SOL     OW19765   2.487   4.329   5.636
 6289SOL    HW119766   2.561   4.340   5.570
 6289SOL    HW219767   2.456   4.235   5.636
 6290SOL     OW19768   5.182   5.797   4.054
 6290SOL    HW119769   5.104   5.799   4.117
 6290SOL    HW219770   5.258   5.847   4.096
 6291SOL     OW19771   4.090   3.587   2.741
 6291SOL    HW119772   4.140   3.638   2.811
 6291SOL    HW219773   4.020   3.531   2.785
 6292SOL     OW19774   1.250   3.029   4.466
 6292SOL    HW119775   1.249   3.060   4.371
 6292SOL    HW219776   1.308   3.089   4.520
 6293SOL     OW19777   3.631   0.972   6.535
 6293SOL    HW119778   3.731   0.972   6.531
 6293SOL    HW219779   3.594   0.951   6.444
 6294SOL     OW19780   1.637   1.513   2.923
 6294SOL    HW119781   1.544   1.551   2.929
 6294SOL    HW219782   1.686   1.534   3.008
 6295SOL     OW19783   5.477   3.637   5.832
 6295SOL    HW119784   5.514   3.563   5.775
 6295SOL    HW219785   5.516   3.631   5.924
 6296SOL     OW19786   0.728   3.062   0.157
 6296SOL    HW119787   0.715   3.101   0.248
 6296SOL    HW219788   0.750   3.135   0.092
 6297SOL     OW19789   6.009   0.813   4.130
 6297SOL    HW119790   6.021   0.835   4.227
 6297SOL    HW219791   6.003   0.897   4.077
 6298SOL     OW19792   6.718   5.844   0.651
 6298SOL    HW119793   6.704   5.939   0.678
 6298SOL    HW219794   6.644   5.788   0.688
 6299SOL     OW19795   4.124   1.430   2.554
 6299SOL    HW119796   4.144   1.345   2.603
 6299SOL    HW219797   4.060   1.412   2.480
 6300SOL     OW19798   2.462   1.187   5.987
 6300SOL    HW119799   2.447   1.277   5.947
 6300SOL    HW219800   2.490   1.123   5.916
 6301SOL     OW19801   3.650   6.416   0.124
 6301SOL    HW119802   3.566   6.382   0.081
 6301SOL    HW219803   3.666   6.511   0.096
 6302SOL     OW19804   3.113   2.432   6.674
 6302SOL    HW119805   3.116   2.367   6.750
 6302SOL    HW219806   3.207   2.462   6.653
 6303SOL     OW19807   1.114   6.272   4.926
 6303SOL    HW119808   1.122   6.270   5.026
 6303SOL    HW219809   1.069   6.189   4.894
 6304SOL     OW19810   4.139   1.089   3.607
 6304SOL    HW119811   4.064   1.155   3.604
 6304SOL    HW219812   4.216   1.128   3.657
 6305SOL     OW19813   0.713   5.802   6.177
 6305SOL    HW119814   0.693   5.716   6.223
 6305SOL    HW219815   0.809   5.804   6.148
 6306SOL     OW19816   0.030   5.109   4.182
 6306SOL    HW119817   6.982   5.065   4.234
 6306SOL    HW219818   0.002   5.121   4.087
 6307SOL     OW19819   3.916   3.007   2.330
 6307SOL    HW119820   3.988   3.043   2.271
 6307SOL    HW219821   3.829   3.009   2.282
 6308SOL     OW19822   0.331   2.676   0.747
 6308SOL    HW119823   0.412   2.693   0.804
 6308SOL    HW219824   0.326   2.578   0.727
 6309SOL     OW19825   2.410   6.243   4.686
 6309SOL    HW119826   2.312   6.250   4.669
 6309SOL    HW219827   2.454   6.329   4.661
 6310SOL     OW19828   1.577   6.715   2.907
 6310SOL    HW119829   1.487   6.681   2.881
 6310SOL    HW219830   1.573   6.751   3.001
 6311SOL     OW19831   5.658   1.254   6.052
 6311SOL    HW119832   5.635   1.332   5.994
 6311SOL    HW219833   5.624   1.270   6.144
 6312SOL     OW19834   3.751   6.141   6.544
 6312SOL    HW119835   3.815   6.072   6.579
 6312SOL    HW219836   3.731   6.207   6.617
 6313SOL     OW19837   5.312   5.312   4.596
 6313SOL    HW119838   5.403   5.298   4.559
 6313SOL    HW219839   5.244   5.273   4.533
 6314SOL     OW19840   2.034   6.862   2.472
 6314SOL    HW119841   2.082   6.946   2.447
 6314SOL    HW219842   2.073   6.785   2.420
 6315SOL     OW19843   2.002   2.697   4.665
 6315SOL    HW119844   1.946   2.683   4.747
 6315SOL    HW219845   2.081   2.754   4.689
 6316SOL     OW19846   5.044   1.180   4.626
 6316SOL    HW119847   5.127   1.151   4.673
 6316SOL    HW219848   5.011   1.107   4.567
 6317SOL     OW19849   5.326   4.874   1.758
 6317SOL    HW119850   5.309   4.909   1.666
 6317SOL    HW219851   5.249   4.897   1.817
 6318SOL     OW19852   6.791   6.301   7.023
 6318SOL    HW119853   6.693   6.297   0.021
 6318SOL    HW219854   6.844   6.298   0.083
 6319SOL     OW19855   4.910   0.975   4.232
 6319SOL    HW119856   4.917   0.888   4.184
 6319SOL    HW219857   4.814   1.002   4.240
 6320SOL     OW19858   6.344   0.924   5.772
 6320SOL    HW119859   6.286   0.929   5.690
 6320SOL    HW219860   6.285   0.919   5.853
 6321SOL     OW19861   6.240   2.389   6.679
 6321SOL    HW119862   6.318   2.434   6.724
 6321SOL    HW219863   6.218   2.437   6.594
 6322SOL     OW19864   1.246   1.330   2.124
 6322SOL    HW119865   1.312   1.362   2.192
 6322SOL    HW219866   1.165   1.389   2.126
 6323SOL     OW19867   2.462   4.511   1.289
 6323SOL    HW119868   2.492   4.543   1.200
 6323SOL    HW219869   2.405   4.430   1.278
 6324SOL     OW19870   4.507   1.731   1.454
 6324SOL    HW119871   4.589   1.674   1.452
 6324SOL    HW219872   4.519   1.809   1.393
 6325SOL     OW19873   1.891   2.845   4.160
 6325SOL    HW119874   1.813   2.907   4.168
 6325SOL    HW219875   1.912   2.805   4.249
 6326SOL     OW19876   5.287   4.665   6.161
 6326SOL    HW119877   5.381   4.644   6.136
 6326SOL    HW219878   5.276   4.764   6.172
 6327SOL     OW19879   0.198   0.415   3.949
 6327SOL    HW119880   0.219   0.318   3.952
 6327SOL    HW219881   0.109   0.428   3.905
 6328SOL     OW19882   4.438   3.575   5.272
 6328SOL    HW119883   4.531   3.573   5.237
 6328SOL    HW219884   4.375   3.596   5.197
 6329SOL     OW19885   0.936   2.481   6.155
 6329SOL    HW119886   0.873   2.527   6.219
 6329SOL    HW219887   0.883   2.431   6.086
 6330SOL     OW19888   5.196   1.691   2.954
 6330SOL    HW119889   5.142   1.609   2.933
 6330SOL    HW219890   5.277   1.665   3.006
 6331SOL     OW19891   1.279   3.489   3.850
 6331SOL    HW119892   1.252   3.562   3.787
 6331SOL    HW219893   1.202   3.426   3.862
 6332SOL     OW19894   3.350   1.671   0.136
 6332SOL    HW119895   3.429   1.719   0.096
 6332SOL    HW219896   3.276   1.666   0.069
 6333SOL     OW19897   5.224   1.608   0.609
 6333SOL    HW119898   5.179   1.519   0.597
 6333SOL    HW219899   5.266   1.635   0.522
 6334SOL     OW19900   1.564   1.090   1.990
 6334SOL    HW119901   1.646   1.144   1.970
 6334SOL    HW219902   1.551   1.086   2.089
 6335SOL     OW19903   6.425   1.623   7.006
 6335SOL    HW119904   6.419   1.653   0.076
 6335SOL    HW219905   6.335   1.632   6.963
 6336SOL     OW19906   0.855   3.425   5.458
 6336SOL    HW119907   0.863   3.489   5.535
 6336SOL    HW219908   0.768   3.376   5.465
 6337SOL     OW19909   4.819   5.437   5.443
 6337SOL    HW119910   4.902   5.386   5.419
 6337SOL    HW219911   4.789   5.410   5.535
 6338SOL     OW19912   2.379   1.347   3.191
 6338SOL    HW119913   2.467   1.330   3.235
 6338SOL    HW219914   2.305   1.320   3.252
 6339SOL     OW19915   0.495   4.875   3.256
 6339SOL    HW119916   0.499   4.962   3.305
 6339SOL    HW219917   0.424   4.817   3.295
 6340SOL     OW19918   2.328   4.151   0.726
 6340SOL    HW119919   2.409   4.169   0.782
 6340SOL    HW219920   2.329   4.056   0.696
 6341SOL     OW19921   0.249   5.281   3.104
 6341SOL    HW119922   0.187   5.250   3.031
 6341SOL    HW219923   0.338   5.301   3.065
 6342SOL     OW19924   2.403   1.235   1.087
 6342SOL    HW119925   2.346   1.285   1.021
 6342SOL    HW219926   2.449   1.160   1.040
 6343SOL     OW19927   1.354   5.705   0.800
 6343SOL    HW119928   1.417   5.632   0.827
 6343SOL    HW219929   1.295   5.728   0.878
 6344SOL     OW19930   7.001   0.902   4.004
 6344SOL    HW119931   6.933   0.920   4.074
 6344SOL    HW219932   0.068   0.904   4.044
 6345SOL     OW19933   5.817   3.228   1.962
 6345SOL    HW119934   5.728   3.192   1.936
 6345SOL    HW219935   5.808   3.323   1.991
 6346SOL     OW19936   6.901   4.439   5.755
 6346SOL    HW119937   6.877   4.381   5.677
 6346SOL    HW219938   6.822   4.495   5.781
 6347SOL     OW19939   1.747   2.172   3.108
 6347SOL    HW119940   1.776   2.267   3.097
 6347SOL    HW219941   1.818   2.121   3.156
 6348SOL     OW19942   0.663   1.918   6.251
 6348SOL    HW119943   0.689   1.853   6.322
 6348SOL    HW219944   0.687   1.882   6.161
 6349SOL     OW19945   6.927   1.087   0.072
 6349SOL    HW119946   6.952   1.173   0.026
 6349SOL    HW219947   6.971   1.084   0.162
 6350SOL     OW19948   1.000   5.482   1.856
 6350SOL    HW119949   1.095   5.504   1.879
 6350SOL    HW219950   0.939   5.538   1.912
 6351SOL     OW19951   5.564   2.929   2.117
 6351SOL    HW119952   5.629   2.856   2.140
 6351SOL    HW219953   5.572   3.003   2.184
 6352SOL     OW19954   2.854   0.672   4.406
 6352SOL    HW119955   2.866   0.664   4.307
 6352SOL    HW219956   2.788   0.744   4.426
 6353SOL     OW19957   3.307   6.451   5.402
 6353SOL    HW119958   3.372   6.376   5.411
 6353SOL    HW219959   3.223   6.417   5.360
 6354SOL     OW19960   4.693   5.480   1.413
 6354SOL    HW119961   4.781   5.526   1.430
 6354SOL    HW219962   4.618   5.540   1.439
 6355SOL     OW19963   2.597   4.578   1.049
 6355SOL    HW119964   2.632   4.523   0.973
 6355SOL    HW219965   2.637   4.670   1.044
 6356SOL     OW19966   6.571   4.821   6.375
 6356SOL    HW119967   6.653   4.807   6.430
 6356SOL    HW219968   6.595   4.865   6.289
 6357SOL     OW19969   5.889   1.294   2.036
 6357SOL    HW119970   5.931   1.310   1.947
 6357SOL    HW219971   5.887   1.380   2.088
 6358SOL     OW19972   1.136   2.073   5.869
 6358SOL    HW119973   1.192   2.152   5.845
 6358SOL    HW219974   1.193   2.005   5.916
 6359SOL     OW19975   5.575   6.553   0.585
 6359SOL    HW119976   5.551   6.509   0.672
 6359SOL    HW219977   5.670   6.532   0.562
 6360SOL     OW19978   0.676   2.125   2.267
 6360SOL    HW119979   0.581   2.140   2.240
 6360SOL    HW219980   0.718   2.059   2.206
 6361SOL     OW19981   0.058   0.582   6.576
 6361SOL    HW119982   0.035   0.663   6.523
 6361SOL    HW219983   0.102   0.514   6.516
 6362SOL     OW19984   1.494   5.682   0.419
 6362SOL    HW119985   1.492   5.637   0.508
 6362SOL    HW219986   1.434   5.762   0.421
 6363SOL     OW19987   2.362   4.317   3.182
 6363SOL    HW119988   2.349   4.262   3.265
 6363SOL    HW219989   2.460   4.325   3.163
 6364SOL     OW19990   2.310   2.722   4.505
 6364SOL    HW119991   2.366   2.664   4.564
 6364SOL    HW219992   2.260   2.788   4.562
 6365SOL     OW19993   5.460   6.644   2.792
 6365SOL    HW119994   5.402   6.581   2.843
 6365SOL    HW219995   5.509   6.595   2.720
 6366SOL     OW19996   6.045   0.331   5.009
 6366SOL    HW119997   6.138   0.297   5.027
 6366SOL    HW219998   6.045   0.385   4.925
 6367SOL     OW19999   2.025   2.090   1.939
 6367SOL    HW120000   2.030   1.990   1.942
 6367SOL    HW220001   2.112   2.129   1.968
 6368SOL     OW20002   4.957   3.210   4.691
 6368SOL    HW120003   4.903   3.137   4.648
 6368SOL    HW220004   4.989   3.178   4.781
 6369SOL     OW20005   4.229   5.353   6.986
 6369SOL    HW120006   4.196   5.323   0.051
 6369SOL    HW220007   4.218   5.279   6.920
 6370SOL     OW20008   5.315   3.396   4.518
 6370SOL    HW120009   5.393   3.401   4.455
 6370SOL    HW220010   5.284   3.489   4.540
 6371SOL     OW20011   5.063   4.381   0.952
 6371SOL    HW120012   4.965   4.363   0.951
 6371SOL    HW220013   5.110   4.305   0.997
 6372SOL     OW20014   6.864   1.467   2.281
 6372SOL    HW120015   6.788   1.505   2.228
 6372SOL    HW220016   6.872   1.369   2.261
 6373SOL     OW20017   4.677   4.617   1.173
 6373SOL    HW120018   4.638   4.603   1.082
 6373SOL    HW220019   4.633   4.696   1.216
 6374SOL     OW20020   4.743   3.924   6.687
 6374SOL    HW120021   4.733   3.842   6.744
 6374SOL    HW220022   4.669   3.928   6.620
 6375SOL     OW20023   5.202   2.192   1.996
 6375SOL    HW120024   5.102   2.192   1.997
 6375SOL    HW220025   5.235   2.097   1.991
 6376SOL     OW20026   3.321   1.018   6.953
 6376SOL    HW120027   3.286   0.929   6.926
 6376SOL    HW220028   3.341   1.018   0.026
 6377SOL     OW20029   0.309   0.758   0.231
 6377SOL    HW120030   0.327   0.678   0.173
 6377SOL    HW220031   0.342   0.740   0.324
 6378SOL     OW20032   5.219   5.286   1.717
 6378SOL    HW120033   5.317   5.299   1.732
 6378SOL    HW220034   5.187   5.209   1.772
 6379SOL     OW20035   2.034   5.606   6.488
 6379SOL    HW120036   2.016   5.671   6.414
 6379SOL    HW220037   2.127   5.571   6.480
 6380SOL     OW20038   1.226   3.869   4.890
 6380SOL    HW120039   1.234   3.965   4.863
 6380SOL    HW220040   1.266   3.810   4.819
 6381SOL     OW20041   4.281   2.437   0.180
 6381SOL    HW120042   4.320   2.365   0.237
 6381SOL    HW220043   4.214   2.397   0.118
 6382SOL     OW20044   1.654   1.940   0.626
 6382SOL    HW120045   1.687   2.013   0.566
 6382SOL    HW220046   1.669   1.852   0.581
 6383SOL     OW20047   2.510   2.262   2.206
 6383SOL    HW120048   2.532   2.330   2.136
 6383SOL    HW220049   2.417   2.277   2.239
 6384SOL     OW20050   6.591   2.606   2.133
 6384SOL    HW120051   6.648   2.688   2.140
 6384SOL    HW220052   6.642   2.533   2.088
 6385SOL     OW20053   6.858   2.771   1.147
 6385SOL    HW120054   6.761   2.747   1.152
 6385SOL    HW220055   6.871   2.862   1.188
 6386SOL     OW20056   2.627   3.849   0.425
 6386SOL    HW120057   2.642   3.784   0.500
 6386SOL    HW220058   2.701   3.916   0.424
 6387SOL     OW20059   6.849   6.905   6.635
 6387SOL    HW120060   6.878   6.957   6.555
 6387SOL    HW220061   6.929   6.883   6.692
 6388SOL     OW20062   6.458   5.525   2.209
 6388SOL    HW120063   6.371   5.478   2.226
 6388SOL    HW220064   6.505   5.540   2.296
 6389SOL     OW20065   0.465   0.712   0.451
 6389SOL    HW120066   0.460   0.728   0.550
 6389SOL    HW220067   0.557   0.680   0.427
 6390SOL     OW20068   5.427   0.287   6.678
 6390SOL    HW120069   5.482   0.342   6.741
 6390SOL    HW220070   5.414   0.337   6.592
 6391SOL     OW20071   0.931   1.217   5.170
 6391SOL    HW120072   0.947   1.310   5.202
 6391SOL    HW220073   0.832   1.200   5.164
 6392SOL     OW20074   3.956   6.749   3.237
 6392SOL    HW120075   3.913   6.672   3.285
 6392SOL    HW220076   4.044   6.770   3.280
 6393SOL     OW20077   0.833   5.236   7.008
 6393SOL    HW120078   0.807   5.314   0.040
 6393SOL    HW220079   0.795   5.152   0.023
 6394SOL     OW20080   1.577   5.664   1.425
 6394SOL    HW120081   1.544   5.621   1.510
 6394SOL    HW220082   1.626   5.748   1.448
 6395SOL     OW20083   2.188   4.088   3.030
 6395SOL    HW120084   2.127   4.044   2.965
 6395SOL    HW220085   2.217   4.021   3.098
 6396SOL     OW20086   1.134   3.653   6.378
 6396SOL    HW120087   1.054   3.693   6.422
 6396SOL    HW220088   1.215   3.708   6.400
 6397SOL     OW20089   5.958   3.084   4.339
 6397SOL    HW120090   5.943   3.173   4.383
 6397SOL    HW220091   5.924   3.087   4.245
 6398SOL     OW20092   2.223   0.489   1.008
 6398SOL    HW120093   2.279   0.432   1.069
 6398SOL    HW220094   2.151   0.534   1.061
 6399SOL     OW20095   3.198   1.121   5.915
 6399SOL    HW120096   3.267   1.062   5.957
 6399SOL    HW220097   3.207   1.213   5.951
 6400SOL     OW20098   1.738   6.387   3.377
 6400SOL    HW120099   1.684   6.434   3.447
 6400SOL    HW220100   1.834   6.415   3.385
 6401SOL     OW20101   3.897   5.616   3.268
 6401SOL    HW120102   3.889   5.517   3.266
 6401SOL    HW220103   3.868   5.651   3.357
 6402SOL     OW20104   2.078   4.564   4.978
 6402SOL    HW120105   2.143   4.507   5.029
 6402SOL    HW220106   1.996   4.579   5.033
 6403SOL     OW20107   4.641   5.468   5.247
 6403SOL    HW120108   4.692   5.472   5.333
 6403SOL    HW220109   4.543   5.466   5.266
 6404SOL     OW20110   4.461   6.981   1.883
 6404SOL    HW120111   4.376   6.964   1.934
 6404SOL    HW220112   4.535   6.998   1.948
 6405SOL     OW20113   5.410   2.062   2.912
 6405SOL    HW120114   5.405   2.160   2.933
 6405SOL    HW220115   5.318   2.026   2.899
 6406SOL     OW20116   6.760   2.954   3.429
 6406SOL    HW120117   6.672   2.905   3.433
 6406SOL    HW220118   6.833   2.888   3.414
 6407SOL     OW20119   0.856   6.078   2.379
 6407SOL    HW120120   0.759   6.054   2.383
 6407SOL    HW220121   0.903   6.042   2.459
 6408SOL     OW20122   6.727   0.456   2.212
 6408SOL    HW120123   6.738   0.498   2.302
 6408SOL    HW220124   6.816   0.450   2.166
 6409SOL     OW20125   5.382   5.384   3.474
 6409SOL    HW120126   5.469   5.397   3.520
 6409SOL    HW220127   5.378   5.442   3.392
 6410SOL     OW20128   1.800   1.613   6.413
 6410SOL    HW120129   1.737   1.568   6.477
 6410SOL    HW220130   1.840   1.545   6.352
 6411SOL     OW20131   0.576   2.428   2.088
 6411SOL    HW120132   0.666   2.432   2.131
 6411SOL    HW220133   0.587   2.401   1.992
 6412SOL     OW20134   3.366   1.010   0.197
 6412SOL    HW120135   3.419   0.956   0.263
 6412SOL    HW220136   3.341   1.097   0.238
 6413SOL     OW20137   4.668   6.434   3.126
 6413SOL    HW120138   4.620   6.346   3.136
 6413SOL    HW220139   4.684   6.452   3.029
 6414SOL     OW20140   1.546   0.229   6.965
 6414SOL    HW120141   1.466   0.214   7.023
 6414SOL    HW220142   1.625   0.252   7.022
 6415SOL     OW20143   0.206   2.197   3.514
 6415SOL    HW120144   0.237   2.287   3.545
 6415SOL    HW220145   0.106   2.194   3.514
 6416SOL     OW20146   2.421   6.669   0.073
 6416SOL    HW120147   2.518   6.649   0.064
 6416SOL    HW220148   2.393   6.658   0.168
 6417SOL     OW20149   3.922   2.118   0.323
 6417SOL    HW120150   3.987   2.096   0.251
 6417SOL    HW220151   3.856   2.185   0.290
 6418SOL     OW20152   4.532   4.543   0.244
 6418SOL    HW120153   4.512   4.448   0.268
 6418SOL    HW220154   4.487   4.566   0.158
 6419SOL     OW20155   0.942   6.543   6.345
 6419SOL    HW120156   0.868   6.531   6.279
 6419SOL    HW220157   0.987   6.455   6.362
 6420SOL     OW20158   2.195   3.883   4.536
 6420SOL    HW120159   2.228   3.954   4.473
 6420SOL    HW220160   2.200   3.917   4.629
 6421SOL     OW20161   4.024   6.901   2.295
 6421SOL    HW120162   4.002   6.988   2.339
 6421SOL    HW220163   3.969   6.892   2.212
 6422SOL     OW20164   5.738   2.119   4.607
 6422SOL    HW120165   5.655   2.140   4.659
 6422SOL    HW220166   5.719   2.125   4.509
 6423SOL     OW20167   1.938   4.286   4.416
 6423SOL    HW120168   1.918   4.384   4.415
 6423SOL    HW220169   1.861   4.236   4.455
 6424SOL     OW20170   6.417   4.619   5.346
 6424SOL    HW120171   6.443   4.528   5.376
 6424SOL    HW220172   6.492   4.683   5.364
 6425SOL     OW20173   6.451   5.600   4.171
 6425SOL    HW120174   6.383   5.542   4.217
 6425SOL    HW220175   6.536   5.549   4.162
 6426SOL     OW20176   4.745   3.996   5.214
 6426SOL    HW120177   4.787   4.071   5.266
 6426SOL    HW220178   4.801   3.976   5.133
 6427SOL     OW20179   3.733   3.138   3.081
 6427SOL    HW120180   3.667   3.213   3.083
 6427SOL    HW220181   3.740   3.101   2.988
 6428SOL     OW20182   5.550   3.146   0.481
 6428SOL    HW120183   5.622   3.078   0.485
 6428SOL    HW220184   5.479   3.125   0.549
 6429SOL     OW20185   2.058   1.157   5.182
 6429SOL    HW120186   2.019   1.066   5.172
 6429SOL    HW220187   2.153   1.149   5.213
 6430SOL     OW20188   6.520   0.298   5.208
 6430SOL    HW120189   6.490   0.331   5.297
 6430SOL    HW220190   6.441   0.260   5.158
 6431SOL     OW20191   3.717   4.649   1.598
 6431SOL    HW120192   3.669   4.655   1.685
 6431SOL    HW220193   3.814   4.668   1.612
 6432SOL     OW20194   4.862   4.496   5.982
 6432SOL    HW120195   4.851   4.413   5.927
 6432SOL    HW220196   4.863   4.472   6.079
 6433SOL     OW20197   2.996   5.051   6.597
 6433SOL    HW120198   3.091   5.068   6.573
 6433SOL    HW220199   2.960   4.976   6.541
 6434SOL     OW20200   4.091   5.245   6.566
 6434SOL    HW120201   4.164   5.299   6.524
 6434SOL    HW220202   4.044   5.192   6.496
 6435SOL     OW20203   5.239   1.727   1.159
 6435SOL    HW120204   5.278   1.815   1.187
 6435SOL    HW220205   5.264   1.708   1.064
 6436SOL     OW20206   6.567   4.491   4.168
 6436SOL    HW120207   6.530   4.581   4.143
 6436SOL    HW220208   6.494   4.434   4.206
 6437SOL     OW20209   0.873   2.155   5.518
 6437SOL    HW120210   0.897   2.236   5.571
 6437SOL    HW220211   0.916   2.075   5.559
 6438SOL     OW20212   0.612   5.083   1.023
 6438SOL    HW120213   0.616   5.105   1.121
 6438SOL    HW220214   0.517   5.077   0.994
 6439SOL     OW20215   5.002   7.017   3.044
 6439SOL    HW120216   4.945   0.023   3.120
 6439SOL    HW220217   5.061   6.942   3.074
 6440SOL     OW20218   3.324   2.135   6.509
 6440SOL    HW120219   3.238   2.115   6.463
 6440SOL    HW220220   3.397   2.142   6.441
 6441SOL     OW20221   0.662   1.572   2.571
 6441SOL    HW120222   0.562   1.574   2.568
 6441SOL    HW220223   0.697   1.665   2.555
 6442SOL     OW20224   2.646   2.536   5.135
 6442SOL    HW120225   2.579   2.604   5.167
 6442SOL    HW220226   2.728   2.541   5.192
 6443SOL     OW20227   4.534   2.888   0.128
 6443SOL    HW120228   4.559   2.880   0.224
 6443SOL    HW220229   4.451   2.944   0.119
 6444SOL     OW20230   6.517   3.401   4.735
 6444SOL    HW120231   6.580   3.471   4.769
 6444SOL    HW220232   6.519   3.322   4.796
 6445SOL     OW20233   2.971   3.258   3.308
 6445SOL    HW120234   2.905   3.215   3.247
 6445SOL    HW220235   3.000   3.192   3.378
 6446SOL     OW20236   1.960   1.142   6.459
 6446SOL    HW120237   2.012   1.197   6.394
 6446SOL    HW220238   1.938   1.197   6.540
 6447SOL     OW20239   5.933   3.376   1.503
 6447SOL    HW120240   5.919   3.389   1.601
 6447SOL    HW220241   5.998   3.302   1.488
 6448SOL     OW20242   3.468   5.744   1.394
 6448SOL    HW120243   3.419   5.775   1.312
 6448SOL    HW220244   3.404   5.738   1.470
 6449SOL     OW20245   2.393   5.881   1.019
 6449SOL    HW120246   2.423   5.845   0.931
 6449SOL    HW220247   2.362   5.807   1.078
 6450SOL     OW20248   0.780   4.488   1.068
 6450SOL    HW120249   0.776   4.459   1.164
 6450SOL    HW220250   0.863   4.541   1.052
 6451SOL     OW20251   4.768   2.189   1.319
 6451SOL    HW120252   4.679   2.235   1.320
 6451SOL    HW220253   4.776   2.133   1.402
 6452SOL     OW20254   4.835   1.828   3.515
 6452SOL    HW120255   4.824   1.870   3.425
 6452SOL    HW220256   4.751   1.778   3.539
 6453SOL     OW20257   2.568   0.871   1.390
 6453SOL    HW120258   2.610   0.870   1.481
 6453SOL    HW220259   2.637   0.850   1.321
 6454SOL     OW20260   5.260   2.584   3.456
 6454SOL    HW120261   5.168   2.578   3.494
 6454SOL    HW220262   5.258   2.565   3.358
 6455SOL     OW20263   6.333   3.838   3.665
 6455SOL    HW120264   6.335   3.832   3.565
 6455SOL    HW220265   6.246   3.802   3.699
 6456SOL     OW20266   5.923   1.312   2.916
 6456SOL    HW120267   5.856   1.258   2.864
 6456SOL    HW220268   6.008   1.320   2.863
 6457SOL     OW20269   3.486   0.112   1.822
 6457SOL    HW120270   3.460   0.114   1.725
 6457SOL    HW220271   3.551   0.038   1.838
 6458SOL     OW20272   0.076   5.567   3.594
 6458SOL    HW120273   0.037   5.538   3.682
 6458SOL    HW220274   0.130   5.493   3.555
 6459SOL     OW20275   6.866   3.266   2.854
 6459SOL    HW120276   6.854   3.172   2.824
 6459SOL    HW220277   6.856   3.271   2.954
 6460SOL     OW20278   0.633   5.575   6.291
 6460SOL    HW120279   0.723   5.532   6.302
 6460SOL    HW220280   0.573   5.544   6.365
 6461SOL     OW20281   1.756   5.198   0.968
 6461SOL    HW120282   1.736   5.205   1.065
 6461SOL    HW220283   1.670   5.183   0.918
 6462SOL     OW20284   1.476   3.552   5.478
 6462SOL    HW120285   1.442   3.576   5.387
 6462SOL    HW220286   1.550   3.486   5.470
 6463SOL     OW20287   4.996   1.656   1.285
 6463SOL    HW120288   5.005   1.559   1.262
 6463SOL    HW220289   5.050   1.710   1.221
 6464SOL     OW20290   0.829   4.530   3.878
 6464SOL    HW120291   0.886   4.534   3.797
 6464SOL    HW220292   0.870   4.583   3.952
 6465SOL     OW20293   3.531   1.015   3.563
 6465SOL    HW120294   3.439   0.991   3.594
 6465SOL    HW220295   3.532   1.111   3.535
 6466SOL     OW20296   0.073   3.758   0.631
 6466SOL    HW120297   0.062   3.816   0.550
 6466SOL    HW220298   0.088   3.815   0.712
 6467SOL     OW20299   2.776   2.981   0.768
 6467SOL    HW120300   2.732   3.035   0.697
 6467SOL    HW220301   2.710   2.959   0.840
 6468SOL     OW20302   2.312   1.615   0.847
 6468SOL    HW120303   2.292   1.521   0.874
 6468SOL    HW220304   2.371   1.614   0.766
 6469SOL     OW20305   3.188   1.235   2.560
 6469SOL    HW120306   3.184   1.177   2.478
 6469SOL    HW220307   3.205   1.329   2.532
 6470SOL     OW20308   6.712   1.950   0.071
 6470SOL    HW120309   6.802   1.984   0.040
 6470SOL    HW220310   6.673   1.892   0.000
 6471SOL     OW20311   0.794   6.706   5.960
 6471SOL    HW120312   0.796   6.736   6.056
 6471SOL    HW220313   0.715   6.648   5.945
 6472SOL     OW20314   6.525   6.459   2.653
 6472SOL    HW120315   6.607   6.418   2.694
 6472SOL    HW220316   6.466   6.495   2.725
 6473SOL     OW20317   2.632   1.393   3.579
 6473SOL    HW120318   2.656   1.389   3.677
 6473SOL    HW220319   2.580   1.476   3.561
 6474SOL     OW20320   3.567   5.450   4.788
 6474SOL    HW120321   3.595   5.356   4.770
 6474SOL    HW220322   3.506   5.481   4.716
 6475SOL     OW20323   5.895   5.152   2.556
 6475SOL    HW120324   5.944   5.086   2.500
 6475SOL    HW220325   5.936   5.243   2.543
 6476SOL     OW20326   3.959   1.899   6.418
 6476SOL    HW120327   3.984   1.899   6.321
 6476SOL    HW220328   3.928   1.990   6.444
 6477SOL     OW20329   6.544   5.811   1.154
 6477SOL    HW120330   6.609   5.850   1.220
 6477SOL    HW220331   6.536   5.713   1.170
 6478SOL     OW20332   3.345   5.888   1.187
 6478SOL    HW120333   3.277   5.870   1.116
 6478SOL    HW220334   3.396   5.971   1.165
 6479SOL     OW20335   3.441   6.278   3.551
 6479SOL    HW120336   3.390   6.208   3.502
 6479SOL    HW220337   3.379   6.332   3.607
 6480SOL     OW20338   3.897   2.159   6.469
 6480SOL    HW120339   3.897   2.255   6.439
 6480SOL    HW220340   3.880   2.156   6.568
 6481SOL     OW20341   3.570   2.896   1.495
 6481SOL    HW120342   3.569   2.820   1.430
 6481SOL    HW220343   3.502   2.880   1.567
 6482SOL     OW20344   5.655   4.061   5.781
 6482SOL    HW120345   5.655   4.031   5.876
 6482SOL    HW220346   5.722   4.135   5.769
 6483SOL     OW20347   1.646   6.544   4.875
 6483SOL    HW120348   1.678   6.451   4.886
 6483SOL    HW220349   1.550   6.543   4.846
 6484SOL     OW20350   2.628   0.707   3.551
 6484SOL    HW120351   2.588   0.796   3.527
 6484SOL    HW220352   2.727   0.715   3.558
 6485SOL     OW20353   2.330   6.587   5.042
 6485SOL    HW120354   2.392   6.622   4.972
 6485SOL    HW220355   2.305   6.493   5.020
 6486SOL     OW20356   1.637   5.341   3.240
 6486SOL    HW120357   1.720   5.397   3.239
 6486SOL    HW220358   1.559   5.398   3.266
 6487SOL     OW20359   5.358   4.582   3.756
 6487SOL    HW120360   5.434   4.603   3.695
 6487SOL    HW220361   5.280   4.642   3.734
 6488SOL     OW20362   4.237   5.263   4.774
 6488SOL    HW120363   4.229   5.301   4.866
 6488SOL    HW220364   4.321   5.297   4.731
 6489SOL     OW20365   4.768   2.703   5.732
 6489SOL    HW120366   4.680   2.693   5.687
 6489SOL    HW220367   4.756   2.746   5.821
 6490SOL     OW20368   2.113   2.463   6.759
 6490SOL    HW120369   2.074   2.528   6.825
 6490SOL    HW220370   2.060   2.466   6.674
 6491SOL     OW20371   2.767   6.936   1.768
 6491SOL    HW120372   2.681   6.976   1.736
 6491SOL    HW220373   2.780   6.847   1.724
 6492SOL     OW20374   3.631   3.220   4.640
 6492SOL    HW120375   3.690   3.294   4.672
 6492SOL    HW220376   3.632   3.145   4.706
 6493SOL     OW20377   1.007   4.052   5.352
 6493SOL    HW120378   0.939   3.981   5.371
 6493SOL    HW220379   1.032   4.097   5.438
 6494SOL     OW20380   6.547   0.586   1.579
 6494SOL    HW120381   6.595   0.513   1.627
 6494SOL    HW220382   6.481   0.628   1.641
 6495SOL     OW20383   5.983   0.131   3.621
 6495SOL    HW120384   6.052   0.064   3.593
 6495SOL    HW220385   6.018   0.223   3.605
 6496SOL     OW20386   3.602   1.405   1.244
 6496SOL    HW120387   3.656   1.477   1.200
 6496SOL    HW220388   3.562   1.440   1.328
 6497SOL     OW20389   0.286   1.411   0.640
 6497SOL    HW120390   0.297   1.499   0.687
 6497SOL    HW220391   0.218   1.421   0.567
 6498SOL     OW20392   0.956   5.034   4.055
 6498SOL    HW120393   0.883   5.081   4.105
 6498SOL    HW220394   0.916   4.969   3.991
 6499SOL     OW20395   4.869   3.573   3.244
 6499SOL    HW120396   4.861   3.523   3.157
 6499SOL    HW220397   4.823   3.661   3.236
 6500SOL     OW20398   1.354   4.265   3.020
 6500SOL    HW120399   1.335   4.361   3.002
 6500SOL    HW220400   1.274   4.221   3.060
 6501SOL     OW20401   6.103   1.862   1.710
 6501SOL    HW120402   6.027   1.864   1.645
 6501SOL    HW220403   6.178   1.917   1.675
 6502SOL     OW20404   6.910   3.300   2.078
 6502SOL    HW120405   6.943   3.293   1.984
 6502SOL    HW220406   6.848   3.378   2.086
 6503SOL     OW20407   6.844   3.352   5.414
 6503SOL    HW120408   6.898   3.428   5.378
 6503SOL    HW220409   6.867   3.268   5.366
 6504SOL     OW20410   4.929   5.974   6.326
 6504SOL    HW120411   4.974   6.061   6.341
 6504SOL    HW220412   4.844   5.970   6.380
 6505SOL     OW20413   0.113   5.774   0.204
 6505SOL    HW120414   0.049   5.700   0.187
 6505SOL    HW220415   0.108   5.841   0.129
 6506SOL     OW20416   0.009   3.823   2.321
 6506SOL    HW120417   6.953   3.788   2.367
 6506SOL    HW220418   0.087   3.764   2.341
 6507SOL     OW20419   3.243   4.762   6.872
 6507SOL    HW120420   3.267   4.825   6.799
 6507SOL    HW220421   3.324   4.710   6.900
 6508SOL     OW20422   0.885   0.225   2.703
 6508SOL    HW120423   0.979   0.220   2.670
 6508SOL    HW220424   0.838   0.138   2.684
 6509SOL     OW20425   2.841   1.787   6.256
 6509SOL    HW120426   2.881   1.839   6.331
 6509SOL    HW220427   2.887   1.699   6.248
 6510SOL     OW20428   3.732   5.820   5.527
 6510SOL    HW120429   3.785   5.898   5.559
 6510SOL    HW220430   3.636   5.831   5.553
 6511SOL     OW20431   3.017   1.570   1.016
 6511SOL    HW120432   3.072   1.533   1.091
 6511SOL    HW220433   3.060   1.545   0.929
 6512SOL     OW20434   3.796   1.786   0.066
 6512SOL    HW120435   3.761   1.695   0.089
 6512SOL    HW220436   3.724   1.854   0.083
 6513SOL     OW20437   2.436   4.884   3.037
 6513SOL    HW120438   2.410   4.850   3.127
 6513SOL    HW220439   2.430   4.810   2.970
 6514SOL     OW20440   5.148   6.674   5.683
 6514SOL    HW120441   5.083   6.625   5.740
 6514SOL    HW220442   5.237   6.627   5.684
 6515SOL     OW20443   1.380   4.758   2.705
 6515SOL    HW120444   1.456   4.823   2.714
 6515SOL    HW220445   1.358   4.748   2.608
 6516SOL     OW20446   6.698   3.815   1.565
 6516SOL    HW120447   6.628   3.863   1.618
 6516SOL    HW220448   6.786   3.860   1.577
 6517SOL     OW20449   0.040   3.368   0.951
 6517SOL    HW120450   6.968   3.368   0.977
 6517SOL    HW220451   0.048   3.381   0.852
 6518SOL     OW20452   1.180   1.794   2.686
 6518SOL    HW120453   1.101   1.734   2.702
 6518SOL    HW220454   1.174   1.873   2.747
 6519SOL     OW20455   1.461   1.163   3.283
 6519SOL    HW120456   1.532   1.137   3.349
 6519SOL    HW220457   1.474   1.112   3.198
 6520SOL     OW20458   0.294   5.094   6.709
 6520SOL    HW120459   0.314   5.011   6.761
 6520SOL    HW220460   0.312   5.175   6.766
 6521SOL     OW20461   1.137   4.169   3.844
 6521SOL    HW120462   1.159   4.263   3.818
 6521SOL    HW220463   1.182   4.147   3.930
 6522SOL     OW20464   2.474   3.232   5.323
 6522SOL    HW120465   2.520   3.146   5.301
 6522SOL    HW220466   2.384   3.213   5.362
 6523SOL     OW20467   5.947   0.396   0.334
 6523SOL    HW120468   5.908   0.309   0.304
 6523SOL    HW220469   5.942   0.403   0.433
 6524SOL     OW20470   2.294   2.837   0.991
 6524SOL    HW120471   2.327   2.788   1.072
 6524SOL    HW220472   2.308   2.779   0.911
 6525SOL     OW20473   0.765   5.084   3.039
 6525SOL    HW120474   0.740   5.104   2.944
 6525SOL    HW220475   0.763   5.169   3.092
 6526SOL     OW20476   0.744   5.937   6.759
 6526SOL    HW120477   0.662   5.949   6.703
 6526SOL    HW220478   0.791   6.025   6.767
 6527SOL     OW20479   0.068   1.844   0.270
 6527SOL    HW120480   6.999   1.810   0.266
 6527SOL    HW220481   0.128   1.770   0.300
 6528SOL     OW20482   4.468   0.362   0.160
 6528SOL    HW120483   4.407   0.426   0.113
 6528SOL    HW220484   4.461   0.272   0.118
 6529SOL     OW20485   6.117   1.003   2.590
 6529SOL    HW120486   6.049   0.983   2.661
 6529SOL    HW220487   6.146   0.918   2.548
 6530SOL     OW20488   0.836   3.129   2.933
 6530SOL    HW120489   0.920   3.105   2.883
 6530SOL    HW220490   0.855   3.129   3.031
 6531SOL     OW20491   3.784   4.192   5.037
 6531SOL    HW120492   3.815   4.157   4.949
 6531SOL    HW220493   3.700   4.145   5.065
 6532SOL     OW20494   1.377   0.703   0.617
 6532SOL    HW120495   1.427   0.736   0.537
 6532SOL    HW220496   1.376   0.775   0.688
 6533SOL     OW20497   4.817   3.501   0.867
 6533SOL    HW120498   4.725   3.536   0.886
 6533SOL    HW220499   4.857   3.465   0.952
 6534SOL     OW20500   6.729   4.862   2.995
 6534SOL    HW120501   6.806   4.920   3.018
 6534SOL    HW220502   6.653   4.881   3.058
 6535SOL     OW20503   5.451   3.021   5.496
 6535SOL    HW120504   5.404   3.090   5.552
 6535SOL    HW220505   5.469   2.940   5.551
 6536SOL     OW20506   0.628   4.353   5.200
 6536SOL    HW120507   0.727   4.354   5.184
 6536SOL    HW220508   0.608   4.299   5.281
 6537SOL     OW20509   6.285   5.426   4.287
 6537SOL    HW120510   6.333   5.339   4.277
 6537SOL    HW220511   6.251   5.435   4.380
 6538SOL     OW20512   1.925   3.093   5.772
 6538SOL    HW120513   2.000   3.029   5.760
 6538SOL    HW220514   1.960   3.181   5.805
 6539SOL     OW20515   5.310   1.157   5.727
 6539SOL    HW120516   5.396   1.117   5.694
 6539SOL    HW220517   5.322   1.188   5.821
 6540SOL     OW20518   6.138   2.677   5.504
 6540SOL    HW120519   6.209   2.681   5.434
 6540SOL    HW220520   6.115   2.770   5.533
 6541SOL     OW20521   6.219   0.848   4.964
 6541SOL    HW120522   6.148   0.825   5.031
 6541SOL    HW220523   6.308   0.820   4.999
 6542SOL     OW20524   1.600   4.172   3.022
 6542SOL    HW120525   1.595   4.110   3.101
 6542SOL    HW220526   1.509   4.210   3.004
 6543SOL     OW20527   3.845   2.170   5.194
 6543SOL    HW120528   3.939   2.149   5.170
 6543SOL    HW220529   3.783   2.129   5.128
 6544SOL     OW20530   1.238   6.474   1.669
 6544SOL    HW120531   1.239   6.471   1.769
 6544SOL    HW220532   1.292   6.552   1.637
 6545SOL     OW20533   4.423   6.850   0.586
 6545SOL    HW120534   4.517   6.827   0.561
 6545SOL    HW220535   4.422   6.898   0.674
 6546SOL     OW20536   4.645   3.548   6.211
 6546SOL    HW120537   4.696   3.613   6.267
 6546SOL    HW220538   4.584   3.597   6.149
 6547SOL     OW20539   0.225   5.146   6.249
 6547SOL    HW120540   0.239   5.150   6.150
 6547SOL    HW220541   0.130   5.167   6.271
 6548SOL     OW20542   0.368   1.198   5.024
 6548SOL    HW120543   0.293   1.181   5.088
 6548SOL    HW220544   0.340   1.266   4.957
 6549SOL     OW20545   4.954   0.924   2.253
 6549SOL    HW120546   4.956   0.851   2.322
 6549SOL    HW220547   4.988   0.888   2.166
 6550SOL     OW20548   5.974   6.674   3.760
 6550SOL    HW120549   6.067   6.648   3.787
 6550SOL    HW220550   5.911   6.652   3.834
 6551SOL     OW20551   3.220   3.896   0.634
 6551SOL    HW120552   3.290   3.850   0.688
 6551SOL    HW220553   3.224   3.863   0.539
 6552SOL     OW20554   1.973   6.056   0.282
 6552SOL    HW120555   2.004   5.971   0.240
 6552SOL    HW220556   1.924   6.036   0.367
 6553SOL     OW20557   0.532   1.286   3.803
 6553SOL    HW120558   0.439   1.321   3.814
 6553SOL    HW220559   0.598   1.358   3.823
 6554SOL     OW20560   2.010   1.252   4.256
 6554SOL    HW120561   2.055   1.312   4.323
 6554SOL    HW220562   1.988   1.305   4.174
 6555SOL     OW20563   6.600   4.015   3.560
 6555SOL    HW120564   6.681   4.034   3.615
 6555SOL    HW220565   6.533   3.963   3.614
 6556SOL     OW20566   4.733   2.818   2.821
 6556SOL    HW120567   4.821   2.858   2.849
 6556SOL    HW220568   4.714   2.844   2.726
 6557SOL     OW20569   2.228   0.612   2.096
 6557SOL    HW120570   2.141   0.569   2.073
 6557SOL    HW220571   2.223   0.655   2.186
 6558SOL     OW20572   5.513   5.419   6.586
 6558SOL    HW120573   5.439   5.461   6.533
 6558SOL    HW220574   5.518   5.463   6.676
 6559SOL     OW20575   0.173   2.054   5.986
 6559SOL    HW120576   0.086   2.090   5.953
 6559SOL    HW220577   0.215   1.997   5.915
 6560SOL     OW20578   5.321   4.787   0.588
 6560SOL    HW120579   5.274   4.748   0.509
 6560SOL    HW220580   5.302   4.885   0.594
 6561SOL     OW20581   3.456   4.613   6.922
 6561SOL    HW120582   3.488   4.521   6.946
 6561SOL    HW220583   3.529   4.662   6.873
 6562SOL     OW20584   5.428   3.024   0.946
 6562SOL    HW120585   5.398   3.106   0.994
 6562SOL    HW220586   5.417   2.944   1.005
 6563SOL     OW20587   5.331   5.657   4.985
 6563SOL    HW120588   5.389   5.575   4.985
 6563SOL    HW220589   5.238   5.632   5.009
 6564SOL     OW20590   6.297   3.670   2.868
 6564SOL    HW120591   6.343   3.667   2.779
 6564SOL    HW220592   6.364   3.652   2.941
 6565SOL     OW20593   5.612   0.709   3.156
 6565SOL    HW120594   5.587   0.793   3.108
 6565SOL    HW220595   5.707   0.685   3.134
 6566SOL     OW20596   4.908   6.182   2.768
 6566SOL    HW120597   4.961   6.136   2.838
 6566SOL    HW220598   4.968   6.215   2.695
 6567SOL     OW20599   4.356   1.152   1.102
 6567SOL    HW120600   4.447   1.115   1.082
 6567SOL    HW220601   4.334   1.223   1.035
 6568SOL     OW20602   4.338   1.558   1.276
 6568SOL    HW120603   4.325   1.587   1.181
 6568SOL    HW220604   4.377   1.633   1.329
 6569SOL     OW20605   0.304   4.007   5.718
 6569SOL    HW120606   0.324   4.101   5.746
 6569SOL    HW220607   0.370   3.979   5.649
 6570SOL     OW20608   3.965   6.855   2.012
 6570SOL    HW120609   3.873   6.878   1.979
 6570SOL    HW220610   3.975   6.755   2.013
 6571SOL     OW20611   3.206   5.489   2.695
 6571SOL    HW120612   3.114   5.490   2.655
 6571SOL    HW220613   3.261   5.560   2.652
 6572SOL     OW20614   1.102   5.617   3.957
 6572SOL    HW120615   1.152   5.680   3.897
 6572SOL    HW220616   1.053   5.670   4.027
 6573SOL     OW20617   1.774   1.489   3.558
 6573SOL    HW120618   1.755   1.398   3.594
 6573SOL    HW220619   1.706   1.554   3.593
 6574SOL     OW20620   1.744   5.637   2.005
 6574SOL    HW120621   1.819   5.631   2.069
 6574SOL    HW220622   1.773   5.688   1.924
 6575SOL     OW20623   6.812   1.279   2.937
 6575SOL    HW120624   6.716   1.272   2.911
 6575SOL    HW220625   6.832   1.213   3.010
 6576SOL     OW20626   4.271   6.065   0.946
 6576SOL    HW120627   4.228   6.155   0.939
 6576SOL    HW220628   4.224   6.010   1.015
 6577SOL     OW20629   2.908   0.781   3.557
 6577SOL    HW120630   2.945   0.874   3.561
 6577SOL    HW220631   2.943   0.728   3.635
 6578SOL     OW20632   1.186   4.888   1.910
 6578SOL    HW120633   1.178   4.963   1.844
 6578SOL    HW220634   1.270   4.838   1.893
 6579SOL     OW20635   6.396   0.918   4.020
 6579SOL    HW120636   6.466   0.977   4.060
 6579SOL    HW220637   6.360   0.856   4.090
 6580SOL     OW20638   2.182   1.407   6.777
 6580SOL    HW120639   2.206   1.504   6.775
 6580SOL    HW220640   2.084   1.397   6.758
 6581SOL     OW20641   0.440   2.337   0.579
 6581SOL    HW120642   0.438   2.346   0.679
 6581SOL    HW220643   0.424   2.426   0.537
 6582SOL     OW20644   6.533   1.440   3.634
 6582SOL    HW120645   6.544   1.540   3.632
 6582SOL    HW220646   6.578   1.400   3.555
 6583SOL     OW20647   3.692   5.718   6.588
 6583SOL    HW120648   3.641   5.750   6.667
 6583SOL    HW220649   3.788   5.705   6.614
 6584SOL     OW20650   3.509   2.696   0.679
 6584SOL    HW120651   3.585   2.733   0.732
 6584SOL    HW220652   3.492   2.755   0.600
 6585SOL     OW20653   6.028   6.609   0.903
 6585SOL    HW120654   6.095   6.535   0.909
 6585SOL    HW220655   5.971   6.609   0.986
 6586SOL     OW20656   6.489   2.123   6.618
 6586SOL    HW120657   6.470   2.026   6.628
 6586SOL    HW220658   6.517   2.143   6.524
 6587SOL     OW20659   1.701   4.739   5.511
 6587SOL    HW120660   1.640   4.715   5.586
 6587SOL    HW220661   1.766   4.665   5.495
 6588SOL     OW20662   6.592   3.241   0.518
 6588SOL    HW120663   6.519   3.225   0.584
 6588SOL    HW220664   6.668   3.288   0.562
 6589SOL     OW20665   0.146   0.498   2.259
 6589SOL    HW120666   0.145   0.494   2.159
 6589SOL    HW220667   0.060   0.538   2.292
 6590SOL     OW20668   1.640   0.072   3.847
 6590SOL    HW120669   1.580   0.090   3.768
 6590SOL    HW220670   1.729   0.039   3.814
 6591SOL     OW20671   5.504   4.315   4.398
 6591SOL    HW120672   5.601   4.299   4.416
 6591SOL    HW220673   5.465   4.372   4.470
 6592SOL     OW20674   6.209   6.884   3.069
 6592SOL    HW120675   6.139   6.954   3.058
 6592SOL    HW220676   6.214   6.828   2.986
 6593SOL     OW20677   2.788   2.296   2.253
 6593SOL    HW120678   2.825   2.299   2.161
 6593SOL    HW220679   2.689   2.281   2.249
 6594SOL     OW20680   4.784   0.814   6.367
 6594SOL    HW120681   4.828   0.828   6.278
 6594SOL    HW220682   4.851   0.827   6.440
 6595SOL     OW20683   1.373   2.444   5.584
 6595SOL    HW120684   1.359   2.368   5.647
 6595SOL    HW220685   1.293   2.504   5.585
 6596SOL     OW20686   5.864   6.861   2.259
 6596SOL    HW120687   5.867   6.935   2.327
 6596SOL    HW220688   5.955   6.850   2.218
 6597SOL     OW20689   1.063   4.792   2.176
 6597SOL    HW120690   1.152   4.764   2.141
 6597SOL    HW220691   1.027   4.867   2.120
 6598SOL     OW20692   1.658   4.653   4.290
 6598SOL    HW120693   1.671   4.616   4.382
 6598SOL    HW220694   1.735   4.628   4.232
 6599SOL     OW20695   6.145   5.329   6.480
 6599SOL    HW120696   6.234   5.323   6.525
 6599SOL    HW220697   6.088   5.252   6.508
 6600SOL     OW20698   4.652   6.668   4.949
 6600SOL    HW120699   4.733   6.724   4.935
 6600SOL    HW220700   4.571   6.727   4.952
 6601SOL     OW20701   1.435   2.277   1.697
 6601SOL    HW120702   1.425   2.351   1.631
 6601SOL    HW220703   1.403   2.308   1.786
 6602SOL     OW20704   1.660   6.272   1.433
 6602SOL    HW120705   1.757   6.250   1.426
 6602SOL    HW220706   1.646   6.341   1.504
 6603SOL     OW20707   0.405   3.723   2.857
 6603SOL    HW120708   0.368   3.631   2.872
 6603SOL    HW220709   0.455   3.724   2.770
 6604SOL     OW20710   2.514   5.789   2.475
 6604SOL    HW120711   2.577   5.781   2.552
 6604SOL    HW220712   2.493   5.886   2.459
 6605SOL     OW20713   6.585   5.104   1.139
 6605SOL    HW120714   6.629   5.044   1.206
 6605SOL    HW220715   6.649   5.175   1.111
 6606SOL     OW20716   1.821   3.798   3.102
 6606SOL    HW120717   1.750   3.805   3.033
 6606SOL    HW220718   1.875   3.715   3.086
 6607SOL     OW20719   6.015   3.983   3.429
 6607SOL    HW120720   5.961   3.972   3.513
 6607SOL    HW220721   6.112   3.975   3.451
 6608SOL     OW20722   1.380   6.070   6.006
 6608SOL    HW120723   1.399   5.981   6.046
 6608SOL    HW220724   1.458   6.099   5.950
 6609SOL     OW20725   4.664   1.557   5.874
 6609SOL    HW120726   4.758   1.565   5.908
 6609SOL    HW220727   4.663   1.498   5.794
 6610SOL     OW20728   2.953   5.123   0.788
 6610SOL    HW120729   2.889   5.068   0.841
 6610SOL    HW220730   3.020   5.062   0.745
 6611SOL     OW20731   4.383   1.590   4.171
 6611SOL    HW120732   4.310   1.583   4.102
 6611SOL    HW220733   4.466   1.548   4.136
 6612SOL     OW20734   0.313   0.710   6.300
 6612SOL    HW120735   0.225   0.753   6.315
 6612SOL    HW220736   0.314   0.665   6.211
 6613SOL     OW20737   4.731   6.652   0.310
 6613SOL    HW120738   4.763   6.718   0.242
 6613SOL    HW220739   4.637   6.624   0.288
 6614SOL     OW20740   4.381   5.651   0.913
 6614SOL    HW120741   4.430   5.567   0.938
 6614SOL    HW220742   4.415   5.684   0.825
 6615SOL     OW20743   3.173   4.638   6.596
 6615SOL    HW120744   3.135   4.547   6.578
 6615SOL    HW220745   3.172   4.655   6.695
 6616SOL     OW20746   4.130   0.928   5.686
 6616SOL    HW120747   4.039   0.947   5.722
 6616SOL    HW220748   4.150   0.990   5.611
 6617SOL     OW20749   3.882   0.607   4.174
 6617SOL    HW120750   3.910   0.689   4.224
 6617SOL    HW220751   3.804   0.565   4.221
 6618SOL     OW20752   0.095   2.404   3.288
 6618SOL    HW120753   0.165   2.456   3.238
 6618SOL    HW220754   0.092   2.437   3.383
 6619SOL     OW20755   4.668   5.936   3.993
 6619SOL    HW120756   4.654   6.020   4.047
 6619SOL    HW220757   4.597   5.870   4.016
 6620SOL     OW20758   0.514   3.554   3.509
 6620SOL    HW120759   0.526   3.581   3.413
 6620SOL    HW220760   0.550   3.626   3.568
 6621SOL     OW20761   4.043   3.224   4.552
 6621SOL    HW120762   4.104   3.257   4.624
 6621SOL    HW220763   4.038   3.291   4.478
 6622SOL     OW20764   0.942   5.465   0.744
 6622SOL    HW120765   0.969   5.432   0.834
 6622SOL    HW220766   0.907   5.558   0.750
 6623SOL     OW20767   3.599   3.484   5.392
 6623SOL    HW120768   3.511   3.487   5.440
 6623SOL    HW220769   3.672   3.516   5.452
 6624SOL     OW20770   1.895   2.020   3.690
 6624SOL    HW120771   1.979   1.975   3.722
 6624SOL    HW220772   1.843   2.052   3.769
 6625SOL     OW20773   6.323   3.463   5.869
 6625SOL    HW120774   6.392   3.415   5.923
 6625SOL    HW220775   6.274   3.527   5.927
 6626SOL     OW20776   2.484   6.222   4.972
 6626SOL    HW120777   2.457   6.206   4.877
 6626SOL    HW220778   2.547   6.300   4.975
 6627SOL     OW20779   1.926   5.620   4.311
 6627SOL    HW120780   1.930   5.564   4.228
 6627SOL    HW220781   1.831   5.628   4.341
 6628SOL     OW20782   4.022   6.287   4.422
 6628SOL    HW120783   4.020   6.387   4.419
 6628SOL    HW220784   4.071   6.252   4.342
 6629SOL     OW20785   5.059   5.661   5.961
 6629SOL    HW120786   5.083   5.731   6.028
 6629SOL    HW220787   4.980   5.692   5.908
 6630SOL     OW20788   1.814   1.026   1.206
 6630SOL    HW120789   1.764   0.952   1.162
 6630SOL    HW220790   1.912   1.006   1.203
 6631SOL     OW20791   1.916   3.919   6.160
 6631SOL    HW120792   1.879   3.964   6.079
 6631SOL    HW220793   1.993   3.860   6.134
 6632SOL     OW20794   1.055   1.286   1.433
 6632SOL    HW120795   0.964   1.321   1.411
 6632SOL    HW220796   1.124   1.347   1.395
 6633SOL     OW20797   3.406   5.617   6.064
 6633SOL    HW120798   3.424   5.622   5.966
 6633SOL    HW220799   3.462   5.686   6.111
 6634SOL     OW20800   4.321   2.054   3.988
 6634SOL    HW120801   4.324   2.018   3.895
 6634SOL    HW220802   4.327   1.979   4.054
 6635SOL     OW20803   5.115   5.055   3.463
 6635SOL    HW120804   5.130   5.128   3.397
 6635SOL    HW220805   5.109   4.967   3.415
 6636SOL     OW20806   4.457   0.712   0.047
 6636SOL    HW120807   4.519   0.713   0.126
 6636SOL    HW220808   4.468   0.625   7.022
 6637SOL     OW20809   1.222   1.554   1.678
 6637SOL    HW120810   1.311   1.598   1.684
 6637SOL    HW220811   1.234   1.455   1.671
 6638SOL     OW20812   3.311   3.480   3.786
 6638SOL    HW120813   3.318   3.393   3.737
 6638SOL    HW220814   3.348   3.553   3.729
 6639SOL     OW20815   4.885   2.650   1.629
 6639SOL    HW120816   4.896   2.740   1.671
 6639SOL    HW220817   4.958   2.589   1.660
 6640SOL     OW20818   0.972   2.826   4.976
 6640SOL    HW120819   0.904   2.890   4.939
 6640SOL    HW220820   1.011   2.865   5.060
 6641SOL     OW20821   5.073   2.003   0.974
 6641SOL    HW120822   5.168   1.977   0.991
 6641SOL    HW220823   5.041   2.065   1.046
 6642SOL     OW20824   0.852   5.837   0.316
 6642SOL    HW120825   0.945   5.813   0.346
 6642SOL    HW220826   0.851   5.851   0.217
 6643SOL     OW20827   3.910   6.346   6.868
 6643SOL    HW120828   3.951   6.256   6.874
 6643SOL    HW220829   3.980   6.416   6.886
 6644SOL     OW20830   2.014   6.628   3.785
 6644SOL    HW120831   2.079   6.552   3.793
 6644SOL    HW220832   2.003   6.652   3.688
 6645SOL     OW20833   5.565   2.521   0.388
 6645SOL    HW120834   5.542   2.581   0.465
 6645SOL    HW220835   5.482   2.477   0.355
 6646SOL     OW20836   4.533   0.044   6.319
 6646SOL    HW120837   4.600   0.113   6.289
 6646SOL    HW220838   4.476   0.018   6.241
 6647SOL     OW20839   4.501   5.130   1.233
 6647SOL    HW120840   4.506   5.089   1.141
 6647SOL    HW220841   4.593   5.156   1.262
 6648SOL     OW20842   2.905   6.189   5.988
 6648SOL    HW120843   2.848   6.206   6.068
 6648SOL    HW220844   2.866   6.235   5.909
 6649SOL     OW20845   5.191   3.002   6.942
 6649SOL    HW120846   5.189   2.903   6.957
 6649SOL    HW220847   5.220   3.021   6.848
 6650SOL     OW20848   2.157   1.693   5.266
 6650SOL    HW120849   2.210   1.730   5.342
 6650SOL    HW220850   2.150   1.761   5.193
 6651SOL     OW20851   6.837   1.667   6.517
 6651SOL    HW120852   6.869   1.757   6.548
 6651SOL    HW220853   6.814   1.611   6.596
 6652SOL     OW20854   0.196   4.611   0.686
 6652SOL    HW120855   0.213   4.580   0.592
 6652SOL    HW220856   0.144   4.696   0.684
 6653SOL     OW20857   5.831   4.538   0.470
 6653SOL    HW120858   5.877   4.626   0.476
 6653SOL    HW220859   5.780   4.521   0.555
 6654SOL     OW20860   6.834   4.619   3.059
 6654SOL    HW120861   6.896   4.605   2.981
 6654SOL    HW220862   6.779   4.701   3.042
 6655SOL     OW20863   6.448   5.082   2.225
 6655SOL    HW120864   6.403   5.003   2.267
 6655SOL    HW220865   6.482   5.143   2.296
 6656SOL     OW20866   4.054   1.530   2.819
 6656SOL    HW120867   4.066   1.500   2.724
 6656SOL    HW220868   3.968   1.492   2.854
 6657SOL     OW20869   5.542   2.664   3.505
 6657SOL    HW120870   5.604   2.626   3.437
 6657SOL    HW220871   5.447   2.654   3.474
 6658SOL     OW20872   6.559   5.604   5.672
 6658SOL    HW120873   6.596   5.531   5.615
 6658SOL    HW220874   6.472   5.635   5.635
 6659SOL     OW20875   0.752   5.216   2.237
 6659SOL    HW120876   0.700   5.279   2.179
 6659SOL    HW220877   0.822   5.171   2.182
 6660SOL     OW20878   6.864   6.330   3.632
 6660SOL    HW120879   6.885   6.293   3.722
 6660SOL    HW220880   6.944   6.376   3.595
 6661SOL     OW20881   3.628   5.942   4.112
 6661SOL    HW120882   3.672   5.874   4.172
 6661SOL    HW220883   3.601   6.021   4.166
 6662SOL     OW20884   3.498   6.725   2.464
 6662SOL    HW120885   3.438   6.773   2.527
 6662SOL    HW220886   3.592   6.756   2.477
 6663SOL     OW20887   1.225   4.053   6.145
 6663SOL    HW120888   1.153   4.109   6.104
 6663SOL    HW220889   1.280   4.012   6.073
 6664SOL     OW20890   2.542   0.469   1.341
 6664SOL    HW120891   2.450   0.431   1.326
 6664SOL    HW220892   2.605   0.432   1.272
 6665SOL     OW20893   2.283   0.734   5.904
 6665SOL    HW120894   2.266   0.636   5.894
 6665SOL    HW220895   2.304   0.773   5.814
 6666SOL     OW20896   4.153   6.192   5.658
 6666SOL    HW120897   4.107   6.116   5.612
 6666SOL    HW220898   4.246   6.200   5.623
 6667SOL     OW20899   6.875   6.267   6.768
 6667SOL    HW120900   6.854   6.284   6.865
 6667SOL    HW220901   6.900   6.171   6.755
 6668SOL     OW20902   0.538   5.471   0.376
 6668SOL    HW120903   0.590   5.538   0.429
 6668SOL    HW220904   0.451   5.513   0.346
 6669SOL     OW20905   1.813   1.029   3.107
 6669SOL    HW120906   1.723   1.005   3.072
 6669SOL    HW220907   1.812   1.124   3.140
 6670SOL     OW20908   4.191   2.608   1.082
 6670SOL    HW120909   4.163   2.675   1.151
 6670SOL    HW220910   4.287   2.583   1.096
 6671SOL     OW20911   4.669   6.028   0.645
 6671SOL    HW120912   4.595   6.036   0.577
 6671SOL    HW220913   4.633   6.046   0.736
 6672SOL     OW20914   1.413   2.361   0.967
 6672SOL    HW120915   1.426   2.299   0.890
 6672SOL    HW220916   1.483   2.433   0.964
 6673SOL     OW20917   5.750   3.684   3.819
 6673SOL    HW120918   5.669   3.664   3.765
 6673SOL    HW220919   5.780   3.778   3.800
 6674SOL     OW20920   0.036   2.536   0.110
 6674SOL    HW120921   6.990   2.572   0.170
 6674SOL    HW220922   0.117   2.596   0.114
 6675SOL     OW20923   5.291   1.602   6.889
 6675SOL    HW120924   5.388   1.625   6.879
 6675SOL    HW220925   5.235   1.674   6.849
 6676SOL     OW20926   1.443   3.711   3.531
 6676SOL    HW120927   1.361   3.733   3.478
 6676SOL    HW220928   1.524   3.725   3.475
 6677SOL     OW20929   0.269   1.669   0.355
 6677SOL    HW120930   0.214   1.621   0.424
 6677SOL    HW220931   0.315   1.602   0.297
 6678SOL     OW20932   2.035   4.278   6.957
 6678SOL    HW120933   1.997   4.358   6.909
 6678SOL    HW220934   2.083   4.220   6.891
 6679SOL     OW20935   1.885   0.932   3.871
 6679SOL    HW120936   1.862   0.882   3.955
 6679SOL    HW220937   1.806   0.984   3.841
 6680SOL     OW20938   5.891   7.011   1.139
 6680SOL    HW120939   5.854   6.918   1.137
 6680SOL    HW220940   5.817   0.051   1.123
 6681SOL     OW20941   3.350   6.480   1.746
 6681SOL    HW120942   3.294   6.408   1.786
 6681SOL    HW220943   3.422   6.505   1.810
 6682SOL     OW20944   2.944   4.820   6.479
 6682SOL    HW120945   2.970   4.839   6.385
 6682SOL    HW220946   3.015   4.766   6.524
 6683SOL     OW20947   6.701   3.711   6.393
 6683SOL    HW120948   6.657   3.703   6.304
 6683SOL    HW220949   6.792   3.669   6.389
 6684SOL     OW20950   2.884   6.730   0.787
 6684SOL    HW120951   2.959   6.665   0.781
 6684SOL    HW220952   2.845   6.745   0.697
 6685SOL     OW20953   5.067   3.557   6.782
 6685SOL    HW120954   5.045   3.481   6.722
 6685SOL    HW220955   5.078   3.525   6.876
 6686SOL     OW20956   4.854   5.029   3.617
 6686SOL    HW120957   4.805   5.099   3.564
 6686SOL    HW220958   4.948   5.022   3.584
 6687SOL     OW20959   6.525   2.272   1.769
 6687SOL    HW120960   6.561   2.365   1.759
 6687SOL    HW220961   6.599   2.211   1.795
 6688SOL     OW20962   4.233   5.666   0.271
 6688SOL    HW120963   4.247   5.757   0.233
 6688SOL    HW220964   4.141   5.659   0.309
 6689SOL     OW20965   1.894   4.280   5.924
 6689SOL    HW120966   1.867   4.308   5.832
 6689SOL    HW220967   1.896   4.180   5.929
 6690SOL     OW20968   0.807   0.152   6.022
 6690SOL    HW120969   0.904   0.131   6.034
 6690SOL    HW220970   0.757   0.068   6.002
 6691SOL     OW20971   2.446   2.566   3.214
 6691SOL    HW120972   2.518   2.507   3.177
 6691SOL    HW220973   2.465   2.585   3.311
 6692SOL     OW20974   4.753   5.183   1.357
 6692SOL    HW120975   4.743   5.279   1.381
 6692SOL    HW220976   4.850   5.160   1.351
 6693SOL     OW20977   4.391   1.939   4.515
 6693SOL    HW120978   4.482   1.977   4.497
 6693SOL    HW220979   4.399   1.866   4.584
 6694SOL     OW20980   3.079   4.383   1.246
 6694SOL    HW120981   3.017   4.326   1.301
 6694SOL    HW220982   3.169   4.339   1.240
 6695SOL     OW20983   2.733   2.241   6.120
 6695SOL    HW120984   2.755   2.173   6.050
 6695SOL    HW220985   2.814   2.259   6.176
 6696SOL     OW20986   4.142   3.449   4.389
 6696SOL    HW120987   4.112   3.406   4.304
 6696SOL    HW220988   4.222   3.507   4.372
 6697SOL     OW20989   4.362   2.323   2.299
 6697SOL    HW120990   4.392   2.364   2.386
 6697SOL    HW220991   4.267   2.350   2.281
 6698SOL     OW20992   3.169   4.004   1.126
 6698SOL    HW120993   3.218   4.034   1.208
 6698SOL    HW220994   3.227   3.941   1.074
 6699SOL     OW20995   1.569   4.471   5.604
 6699SOL    HW120996   1.591   4.375   5.621
 6699SOL    HW220997   1.597   4.494   5.510
 6700SOL     OW20998   5.684   6.922   0.091
 6700SOL    HW120999   5.605   6.861   0.089
 6700SOL    HW221000   5.762   6.874   0.131
 6701SOL     OW21001   6.060   0.703   1.318
 6701SOL    HW121002   5.985   0.640   1.340
 6701SOL    HW221003   6.121   0.660   1.251
 6702SOL     OW21004   2.802   2.817   1.084
 6702SOL    HW121005   2.797   2.822   1.184
 6702SOL    HW221006   2.717   2.853   1.045
 6703SOL     OW21007   0.413   1.210   6.985
 6703SOL    HW121008   0.494   1.168   6.945
 6703SOL    HW221009   0.357   1.140   0.004
 6704SOL     OW21010   3.032   0.584   5.121
 6704SOL    HW121011   3.095   0.628   5.185
 6704SOL    HW221012   3.053   0.486   5.115
 6705SOL     OW21013   6.721   3.488   2.103
 6705SOL    HW121014   6.717   3.587   2.091
 6705SOL    HW221015   6.662   3.444   2.035
 6706SOL     OW21016   0.426   6.874   2.068
 6706SOL    HW121017   0.488   6.941   2.027
 6706SOL    HW221018   0.353   6.853   2.002
 6707SOL     OW21019   5.693   0.724   2.165
 6707SOL    HW121020   5.695   0.800   2.101
 6707SOL    HW221021   5.654   0.644   2.121
 6708SOL     OW21022   0.854   4.196   1.875
 6708SOL    HW121023   0.796   4.246   1.810
 6708SOL    HW221024   0.903   4.123   1.826
 6709SOL     OW21025   2.074   5.145   2.807
 6709SOL    HW121026   2.099   5.125   2.902
 6709SOL    HW221027   2.154   5.179   2.758
 6710SOL     OW21028   4.047   1.466   0.905
 6710SOL    HW121029   4.095   1.549   0.931
 6710SOL    HW221030   4.065   1.394   0.973
 6711SOL     OW21031   3.895   6.229   6.317
 6711SOL    HW121032   3.836   6.249   6.395
 6711SOL    HW221033   3.858   6.152   6.266
 6712SOL     OW21034   5.702   3.968   1.409
 6712SOL    HW121035   5.644   4.011   1.339
 6712SOL    HW221036   5.688   3.869   1.408
 6713SOL     OW21037   1.396   6.332   4.389
 6713SOL    HW121038   1.433   6.268   4.457
 6713SOL    HW221039   1.302   6.355   4.414
 6714SOL     OW21040   5.118   1.301   0.820
 6714SOL    HW121041   5.126   1.399   0.841
 6714SOL    HW221042   5.085   1.253   0.901
 6715SOL     OW21043   1.242   1.242   0.580
 6715SOL    HW121044   1.149   1.206   0.569
 6715SOL    HW221045   1.238   1.327   0.633
 6716SOL     OW21046   6.733   5.778   3.077
 6716SOL    HW121047   6.717   5.700   3.137
 6716SOL    HW221048   6.779   5.747   2.993
 6717SOL     OW21049   4.414   1.714   5.727
 6717SOL    HW121050   4.420   1.808   5.760
 6717SOL    HW221051   4.503   1.670   5.738
 6718SOL     OW21052   3.516   0.459   1.519
 6718SOL    HW121053   3.561   0.449   1.608
 6718SOL    HW221054   3.579   0.502   1.454
 6719SOL     OW21055   1.732   0.877   0.168
 6719SOL    HW121056   1.693   0.866   0.077
 6719SOL    HW221057   1.786   0.961   0.172
 6720SOL     OW21058   1.495   0.677   6.150
 6720SOL    HW121059   1.561   0.640   6.214
 6720SOL    HW221060   1.520   0.651   6.057
 6721SOL     OW21061   0.356   1.850   0.536
 6721SOL    HW121062   0.335   1.793   0.457
 6721SOL    HW221063   0.372   1.944   0.506
 6722SOL     OW21064   6.425   3.224   0.770
 6722SOL    HW121065   6.358   3.151   0.778
 6722SOL    HW221066   6.511   3.195   0.812
 6723SOL     OW21067   1.720   2.171   6.678
 6723SOL    HW121068   1.625   2.157   6.653
 6723SOL    HW221069   1.725   2.241   6.750
 6724SOL     OW21070   1.802   3.641   5.975
 6724SOL    HW121071   1.721   3.698   5.961
 6724SOL    HW221072   1.825   3.594   5.889
 6725SOL     OW21073   5.271   2.855   3.591
 6725SOL    HW121074   5.350   2.835   3.532
 6725SOL    HW221075   5.250   2.774   3.646
 6726SOL     OW21076   0.108   0.973   5.269
 6726SOL    HW121077   0.131   1.025   5.352
 6726SOL    HW221078   0.170   0.895   5.261
 6727SOL     OW21079   1.093   4.851   6.037
 6727SOL    HW121080   1.092   4.862   5.938
 6727SOL    HW221081   1.012   4.894   6.076
 6728SOL     OW21082   3.964   2.131   4.002
 6728SOL    HW121083   3.879   2.100   4.043
 6728SOL    HW221084   3.961   2.115   3.903
 6729SOL     OW21085   4.849   1.452   1.857
 6729SOL    HW121086   4.868   1.409   1.768
 6729SOL    HW221087   4.784   1.395   1.908
 6730SOL     OW21088   0.808   1.351   1.880
 6730SOL    HW121089   0.804   1.439   1.832
 6730SOL    HW221090   0.803   1.277   1.813
 6731SOL     OW21091   2.964   6.729   6.893
 6731SOL    HW121092   2.904   6.798   6.851
 6731SOL    HW221093   3.005   6.673   6.822
 6732SOL     OW21094   6.729   5.479   4.639
 6732SOL    HW121095   6.749   5.434   4.552
 6732SOL    HW221096   6.635   5.512   4.639
 6733SOL     OW21097   4.280   5.030   6.278
 6733SOL    HW121098   4.341   4.984   6.212
 6733SOL    HW221099   4.186   5.025   6.244
 6734SOL     OW21100   6.046   1.133   4.488
 6734SOL    HW121101   5.956   1.176   4.486
 6734SOL    HW221102   6.094   1.160   4.572
 6735SOL     OW21103   6.131   3.259   3.536
 6735SOL    HW121104   6.213   3.285   3.483
 6735SOL    HW221105   6.054   3.249   3.474
 6736SOL     OW21106   3.328   4.164   0.721
 6736SOL    HW121107   3.269   4.091   0.684
 6736SOL    HW221108   3.316   4.246   0.665
 6737SOL     OW21109   0.551   3.998   1.118
 6737SOL    HW121110   0.541   4.048   1.032
 6737SOL    HW221111   0.527   4.057   1.195
 6738SOL     OW21112   2.088   6.205   3.452
 6738SOL    HW121113   2.178   6.165   3.468
 6738SOL    HW221114   2.018   6.148   3.496
 6739SOL     OW21115   6.506   6.771   4.601
 6739SOL    HW121116   6.552   6.682   4.600
 6739SOL    HW221117   6.575   6.844   4.603
 6740SOL     OW21118   0.851   6.573   3.805
 6740SOL    HW121119   0.929   6.569   3.743
 6740SOL    HW221120   0.801   6.659   3.789
 6741SOL     OW21121   4.660   2.080   6.018
 6741SOL    HW121122   4.623   2.139   6.088
 6741SOL    HW221123   4.639   1.984   6.039
 6742SOL     OW21124   5.561   4.661   3.502
 6742SOL    HW121125   5.480   4.648   3.446
 6742SOL    HW221126   5.620   4.581   3.495
 6743SOL     OW21127   4.252   4.073   1.115
 6743SOL    HW121128   4.286   3.996   1.169
 6743SOL    HW221129   4.204   4.038   1.034
 6744SOL     OW21130   0.238   5.722   5.782
 6744SOL    HW121131   0.283   5.640   5.819
 6744SOL    HW221132   0.157   5.743   5.837
 6745SOL     OW21133   6.822   5.997   4.445
 6745SOL    HW121134   6.918   6.005   4.474
 6745SOL    HW221135   6.819   5.957   4.354
 6746SOL     OW21136   2.038   1.475   2.610
 6746SOL    HW121137   2.075   1.505   2.697
 6746SOL    HW221138   2.107   1.423   2.560
 6747SOL     OW21139   0.861   6.573   6.638
 6747SOL    HW121140   0.863   6.569   6.538
 6747SOL    HW221141   0.955   6.567   6.673
 6748SOL     OW21142   2.259   1.621   4.638
 6748SOL    HW121143   2.180   1.679   4.621
 6748SOL    HW221144   2.230   1.536   4.682
 6749SOL     OW21145   3.472   4.732   0.977
 6749SOL    HW121146   3.521   4.816   0.999
 6749SOL    HW221147   3.535   4.654   0.983
 6750SOL     OW21148   3.297   1.302   4.695
 6750SOL    HW121149   3.345   1.220   4.726
 6750SOL    HW221150   3.251   1.283   4.608
 6751SOL     OW21151   4.028   0.056   3.904
 6751SOL    HW121152   4.059   6.985   3.910
 6751SOL    HW221153   3.963   0.065   3.830
 6752SOL     OW21154   2.356   6.126   2.144
 6752SOL    HW121155   2.305   6.206   2.177
 6752SOL    HW221156   2.453   6.149   2.136
 6753SOL     OW21157   3.965   2.948   5.201
 6753SOL    HW121158   3.927   3.032   5.164
 6753SOL    HW221159   3.986   2.960   5.298
 6754SOL     OW21160   6.425   1.675   1.725
 6754SOL    HW121161   6.370   1.599   1.759
 6754SOL    HW221162   6.457   1.654   1.632
 6755SOL     OW21163   2.206   5.476   6.276
 6755SOL    HW121164   2.156   5.504   6.193
 6755SOL    HW221165   2.177   5.384   6.302
 6756SOL     OW21166   2.499   2.357   5.280
 6756SOL    HW121167   2.563   2.406   5.220
 6756SOL    HW221168   2.510   2.388   5.374
 6757SOL     OW21169   3.644   0.764   0.647
 6757SOL    HW121170   3.711   0.805   0.585
 6757SOL    HW221171   3.609   0.679   0.607
 6758SOL     OW21172   5.988   2.415   2.213
 6758SOL    HW121173   6.071   2.380   2.257
 6758SOL    HW221174   5.926   2.339   2.195
 6759SOL     OW21175   0.709   3.338   3.185
 6759SOL    HW121176   0.647   3.263   3.159
 6759SOL    HW221177   0.703   3.411   3.116
 6760SOL     OW21178   5.224   2.580   2.871
 6760SOL    HW121179   5.134   2.554   2.907
 6760SOL    HW221180   5.272   2.498   2.839
 6761SOL     OW21181   4.808   1.861   4.603
 6761SOL    HW121182   4.875   1.787   4.592
 6761SOL    HW221183   4.759   1.875   4.516
 6762SOL     OW21184   6.850   5.887   4.188
 6762SOL    HW121185   6.789   5.832   4.132
 6762SOL    HW221186   6.921   5.828   4.227
 6763SOL     OW21187   4.809   5.531   5.033
 6763SOL    HW121188   4.747   5.493   5.102
 6763SOL    HW221189   4.832   5.460   4.966
 6764SOL     OW21190   1.673   5.579   1.187
 6764SOL    HW121191   1.627   5.607   1.272
 6764SOL    HW221192   1.738   5.649   1.160
 6765SOL     OW21193   6.349   5.360   2.693
 6765SOL    HW121194   6.414   5.431   2.721
 6765SOL    HW221195   6.260   5.378   2.735
 6766SOL     OW21196   5.004   0.442   0.387
 6766SOL    HW121197   5.037   0.403   0.473
 6766SOL    HW221198   4.991   0.370   0.319
 6767SOL     OW21199   2.836   1.130   0.615
 6767SOL    HW121200   2.749   1.175   0.596
 6767SOL    HW221201   2.822   1.058   0.684
 6768SOL     OW21202   1.946   0.930   0.847
 6768SOL    HW121203   1.939   0.852   0.909
 6768SOL    HW221204   1.854   0.962   0.823
 6769SOL     OW21205   4.182   2.474   1.602
 6769SOL    HW121206   4.175   2.574   1.606
 6769SOL    HW221207   4.137   2.441   1.519
 6770SOL     OW21208   6.606   0.020   2.099
 6770SOL    HW121209   6.574   0.114   2.091
 6770SOL    HW221210   6.673   0.013   2.172
 6771SOL     OW21211   3.860   2.141   3.071
 6771SOL    HW121212   3.816   2.208   3.131
 6771SOL    HW221213   3.956   2.166   3.059
 6772SOL     OW21214   2.910   1.963   2.596
 6772SOL    HW121215   2.969   2.026   2.545
 6772SOL    HW221216   2.837   2.015   2.640
 6773SOL     OW21217   6.884   4.250   2.121
 6773SOL    HW121218   6.956   4.273   2.186
 6773SOL    HW221219   6.899   4.300   2.036
 6774SOL     OW21220   0.699   2.667   6.596
 6774SOL    HW121221   0.616   2.610   6.594
 6774SOL    HW221222   0.672   2.763   6.590
 6775SOL     OW21223   2.791   4.270   0.969
 6775SOL    HW121224   2.787   4.341   0.900
 6775SOL    HW221225   2.887   4.256   0.996
 6776SOL     OW21226   5.854   5.324   0.196
 6776SOL    HW121227   5.951   5.301   0.198
 6776SOL    HW221228   5.800   5.246   0.229
 6777SOL     OW21229   4.571   4.679   6.091
 6777SOL    HW121230   4.598   4.661   6.186
 6777SOL    HW221231   4.607   4.608   6.032
 6778SOL     OW21232   0.738   4.827   3.131
 6778SOL    HW121233   0.660   4.843   3.192
 6778SOL    HW221234   0.773   4.914   3.097
 6779SOL     OW21235   0.435   4.974   0.587
 6779SOL    HW121236   0.443   5.053   0.527
 6779SOL    HW221237   0.494   4.900   0.554
 6780SOL     OW21238   0.513   2.636   2.709
 6780SOL    HW121239   0.520   2.736   2.714
 6780SOL    HW221240   0.533   2.606   2.616
 6781SOL     OW21241   5.032   6.238   5.661
 6781SOL    HW121242   5.059   6.281   5.747
 6781SOL    HW221243   4.954   6.287   5.622
 6782SOL     OW21244   6.650   1.465   2.666
 6782SOL    HW121245   6.609   1.553   2.688
 6782SOL    HW221246   6.657   1.410   2.749
 6783SOL     OW21247   6.767   6.229   6.486
 6783SOL    HW121248   6.832   6.161   6.453
 6783SOL    HW221249   6.775   6.237   6.585
 6784SOL     OW21250   3.997   4.231   6.920
 6784SOL    HW121251   3.992   4.146   6.972
 6784SOL    HW221252   4.077   4.229   6.859
 6785SOL     OW21253   5.976   5.974   1.893
 6785SOL    HW121254   5.948   5.977   1.988
 6785SOL    HW221255   5.897   5.986   1.834
 6786SOL     OW21256   1.750   2.398   6.460
 6786SOL    HW121257   1.659   2.361   6.477
 6786SOL    HW221258   1.815   2.322   6.450
 6787SOL     OW21259   1.703   3.989   1.876
 6787SOL    HW121260   1.664   3.898   1.886
 6787SOL    HW221261   1.803   3.983   1.875
 6788SOL     OW21262   2.940   3.789   1.769
 6788SOL    HW121263   3.033   3.824   1.758
 6788SOL    HW221264   2.943   3.690   1.785
 6789SOL     OW21265   1.054   6.672   2.249
 6789SOL    HW121266   1.136   6.729   2.247
 6789SOL    HW221267   0.972   6.730   2.251
 6790SOL     OW21268   1.883   3.131   0.108
 6790SOL    HW121269   1.865   3.045   0.155
 6790SOL    HW221270   1.981   3.150   0.110
 6791SOL     OW21271   4.208   2.945   6.877
 6791SOL    HW121272   4.264   2.867   6.902
 6791SOL    HW221273   4.167   2.985   6.959
 6792SOL     OW21274   6.224   6.193   0.209
 6792SOL    HW121275   6.298   6.139   0.249
 6792SOL    HW221276   6.243   6.210   0.112
 6793SOL     OW21277   1.643   2.677   0.762
 6793SOL    HW121278   1.671   2.649   0.670
 6793SOL    HW221279   1.708   2.640   0.829
 6794SOL     OW21280   4.761   0.959   4.653
 6794SOL    HW121281   4.798   1.006   4.734
 6794SOL    HW221282   4.837   0.921   4.600
 6795SOL     OW21283   2.794   5.957   0.819
 6795SOL    HW121284   2.767   5.891   0.889
 6795SOL    HW221285   2.846   6.031   0.861
 6796SOL     OW21286   5.347   1.236   2.778
 6796SOL    HW121287   5.402   1.263   2.857
 6796SOL    HW221288   5.330   1.315   2.720
 6797SOL     OW21289   5.649   3.707   2.038
 6797SOL    HW121290   5.648   3.733   1.941
 6797SOL    HW221291   5.569   3.745   2.083
 6798SOL     OW21292   5.403   5.616   2.353
 6798SOL    HW121293   5.350   5.697   2.382
 6798SOL    HW221294   5.340   5.545   2.323
 6799SOL     OW21295   4.931   5.748   0.156
 6799SOL    HW121296   4.876   5.696   0.221
 6799SOL    HW221297   4.907   5.845   0.161
 6800SOL     OW21298   1.819   4.700   0.160
 6800SOL    HW121299   1.736   4.647   0.142
 6800SOL    HW221300   1.882   4.646   0.215
 6801SOL     OW21301   1.788   2.300   2.227
 6801SOL    HW121302   1.711   2.283   2.287
 6801SOL    HW221303   1.816   2.396   2.236
 6802SOL     OW21304   1.903   6.437   0.844
 6802SOL    HW121305   1.846   6.418   0.925
 6802SOL    HW221306   1.986   6.382   0.850
 6803SOL     OW21307   5.035   2.020   6.112
 6803SOL    HW121308   5.132   2.024   6.088
 6803SOL    HW221309   4.980   2.025   6.028
 6804SOL     OW21310   1.816   5.736   3.464
 6804SOL    HW121311   1.768   5.681   3.531
 6804SOL    HW221312   1.912   5.708   3.460
 6805SOL     OW21313   5.999   0.103   4.769
 6805SOL    HW121314   5.977   0.172   4.838
 6805SOL    HW221315   6.093   0.114   4.740
 6806SOL     OW21316   4.367   1.230   4.378
 6806SOL    HW121317   4.460   1.207   4.407
 6806SOL    HW221318   4.350   1.327   4.394
 6807SOL     OW21319   2.811   3.010   6.946
 6807SOL    HW121320   2.783   2.936   7.007
 6807SOL    HW221321   2.874   3.071   6.994
 6808SOL     OW21322   6.963   2.426   4.773
 6808SOL    HW121323   6.873   2.469   4.778
 6808SOL    HW221324   0.008   2.490   4.806
 6809SOL     OW21325   2.425   4.181   6.559
 6809SOL    HW121326   2.492   4.180   6.632
 6809SOL    HW221327   2.400   4.276   6.537
 6810SOL     OW21328   7.015   0.813   2.648
 6810SOL    HW121329   7.018   0.733   2.708
 6810SOL    HW221330   0.034   0.791   2.560
 6811SOL     OW21331   6.134   4.812   1.105
 6811SOL    HW121332   6.220   4.798   1.057
 6811SOL    HW221333   6.113   4.731   1.160
 6812SOL     OW21334   4.161   3.473   3.029
 6812SOL    HW121335   4.104   3.394   3.006
 6812SOL    HW221336   4.235   3.482   2.963
 6813SOL     OW21337   4.637   2.122   1.013
 6813SOL    HW121338   4.724   2.129   1.061
 6813SOL    HW221339   4.562   2.138   1.077
 6814SOL     OW21340   2.638   3.493   1.054
 6814SOL    HW121341   2.631   3.460   1.148
 6814SOL    HW221342   2.652   3.415   0.992
 6815SOL     OW21343   2.661   0.067   2.212
 6815SOL    HW121344   2.627   0.159   2.233
 6815SOL    HW221345   2.605   7.023   2.258
 6816SOL     OW21346   6.569   5.058   6.954
 6816SOL    HW121347   6.517   5.106   6.883
 6816SOL    HW221348   6.509   4.995   7.002
 6817SOL     OW21349   6.681   1.788   5.741
 6817SOL    HW121350   6.691   1.692   5.714
 6817SOL    HW221351   6.764   1.838   5.716
 6818SOL     OW21352   3.306   6.548   2.336
 6818SOL    HW121353   3.383   6.580   2.391
 6818SOL    HW221354   3.232   6.616   2.339
 6819SOL     OW21355   3.027   0.583   3.721
 6819SOL    HW121356   3.084   0.553   3.645
 6819SOL    HW221357   2.970   0.508   3.753
 6820SOL     OW21358   1.092   4.285   3.344
 6820SOL    HW121359   1.024   4.271   3.417
 6820SOL    HW221360   1.089   4.381   3.314
 6821SOL     OW21361   2.269   2.526   4.897
 6821SOL    HW121362   2.196   2.480   4.846
 6821SOL    HW221363   2.273   2.488   4.989
 6822SOL     OW21364   5.569   1.862   5.985
 6822SOL    HW121365   5.556   1.940   5.924
 6822SOL    HW221366   5.641   1.803   5.949
 6823SOL     OW21367   3.516   3.417   3.136
 6823SOL    HW121368   3.437   3.463   3.095
 6823SOL    HW221369   3.567   3.483   3.191
 6824SOL     OW21370   0.608   3.904   6.474
 6824SOL    HW121371   0.606   3.988   6.530
 6824SOL    HW221372   0.576   3.827   6.529
 6825SOL     OW21373   5.503   0.228   2.214
 6825SOL    HW121374   5.531   0.136   2.187
 6825SOL    HW221375   5.509   0.237   2.313
 6826SOL     OW21376   2.061   3.449   2.755
 6826SOL    HW121377   2.125   3.404   2.817
 6826SOL    HW221378   1.968   3.416   2.774
 6827SOL     OW21379   5.310   5.590   6.504
 6827SOL    HW121380   5.277   5.585   6.410
 6827SOL    HW221381   5.352   5.679   6.520
 6828SOL     OW21382   1.180   2.312   1.291
 6828SOL    HW121383   1.159   2.326   1.387
 6828SOL    HW221384   1.114   2.249   1.250
 6829SOL     OW21385   5.184   6.523   3.699
 6829SOL    HW121386   5.267   6.489   3.743
 6829SOL    HW221387   5.176   6.483   3.607
 6830SOL     OW21388   5.147   1.872   3.231
 6830SOL    HW121389   5.197   1.851   3.147
 6830SOL    HW221390   5.157   1.797   3.296
 6831SOL     OW21391   0.773   0.813   5.973
 6831SOL    HW121392   0.834   0.746   6.014
 6831SOL    HW221393   0.748   0.784   5.880
 6832SOL     OW21394   2.963   4.790   2.397
 6832SOL    HW121395   2.902   4.735   2.340
 6832SOL    HW221396   3.047   4.809   2.346
 6833SOL     OW21397   3.872   4.786   6.962
 6833SOL    HW121398   3.936   4.818   6.892
 6833SOL    HW221399   3.902   4.696   6.995
 6834SOL     OW21400   4.434   6.726   2.136
 6834SOL    HW121401   4.373   6.753   2.211
 6834SOL    HW221402   4.381   6.675   2.068
 6835SOL     OW21403   4.044   0.127   4.744
 6835SOL    HW121404   4.142   0.146   4.732
 6835SOL    HW221405   4.026   0.031   4.722
 6836SOL     OW21406   3.272   6.517   0.480
 6836SOL    HW121407   3.330   6.502   0.560
 6836SOL    HW221408   3.297   6.604   0.437
 6837SOL     OW21409   1.920   3.366   1.658
 6837SOL    HW121410   1.976   3.426   1.715
 6837SOL    HW221411   1.865   3.421   1.595
 6838SOL     OW21412   2.241   1.335   0.015
 6838SOL    HW121413   2.181   1.403   0.057
 6838SOL    HW221414   2.230   1.339   6.940
 6839SOL     OW21415   4.045   0.960   0.729
 6839SOL    HW121416   3.956   0.958   0.683
 6839SOL    HW221417   4.034   0.987   0.824
 6840SOL     OW21418   2.400   1.452   5.996
 6840SOL    HW121419   2.386   1.503   6.082
 6840SOL    HW221420   2.369   1.508   5.919
 6841SOL     OW21421   6.499   2.904   6.115
 6841SOL    HW121422   6.445   2.828   6.077
 6841SOL    HW221423   6.473   2.917   6.211
 6842SOL     OW21424   1.760   5.337   2.058
 6842SOL    HW121425   1.745   5.436   2.054
 6842SOL    HW221426   1.807   5.307   1.975
 6843SOL     OW21427   5.369   6.485   6.879
 6843SOL    HW121428   5.355   6.550   6.804
 6843SOL    HW221429   5.424   6.408   6.847
 6844SOL     OW21430   4.906   0.605   4.500
 6844SOL    HW121431   4.953   0.693   4.501
 6844SOL    HW221432   4.971   0.532   4.519
 6845SOL     OW21433   4.775   2.667   3.065
 6845SOL    HW121434   4.735   2.737   3.006
 6845SOL    HW221435   4.714   2.649   3.141
 6846SOL     OW21436   2.880   4.004   0.417
 6846SOL    HW121437   2.967   3.964   0.388
 6846SOL    HW221438   2.893   4.053   0.503
 6847SOL     OW21439   5.969   3.792   4.582
 6847SOL    HW121440   5.972   3.832   4.674
 6847SOL    HW221441   5.884   3.819   4.537
 6848SOL     OW21442   5.357   4.225   3.337
 6848SOL    HW121443   5.262   4.196   3.345
 6848SOL    HW221444   5.361   4.314   3.290
 6849SOL     OW21445   3.707   3.619   6.301
 6849SOL    HW121446   3.759   3.633   6.385
 6849SOL    HW221447   3.633   3.686   6.296
 6850SOL     OW21448   4.128   1.595   3.261
 6850SOL    HW121449   4.083   1.664   3.319
 6850SOL    HW221450   4.143   1.512   3.314
 6851SOL     OW21451   1.861   3.127   3.306
 6851SOL    HW121452   1.858   3.033   3.339
 6851SOL    HW221453   1.927   3.179   3.360
 6852SOL     OW21454   2.839   5.509   0.500
 6852SOL    HW121455   2.890   5.424   0.516
 6852SOL    HW221456   2.742   5.488   0.490
 6853SOL     OW21457   5.117   2.982   6.275
 6853SOL    HW121458   5.040   3.041   6.249
 6853SOL    HW221459   5.203   3.031   6.262
 6854SOL     OW21460   5.554   6.014   5.924
 6854SOL    HW121461   5.468   6.030   5.973
 6854SOL    HW221462   5.535   5.999   5.827
 6855SOL     OW21463   3.617   4.900   3.291
 6855SOL    HW121464   3.699   4.886   3.347
 6855SOL    HW221465   3.544   4.840   3.323
 6856SOL     OW21466   1.064   2.195   6.983
 6856SOL    HW121467   0.994   2.211   0.028
 6856SOL    HW221468   1.144   2.252   7.002
 6857SOL     OW21469   0.977   3.934   6.216
 6857SOL    HW121470   0.965   3.854   6.157
 6857SOL    HW221471   1.064   3.978   6.196
 6858SOL     OW21472   3.024   4.213   1.765
 6858SOL    HW121473   2.963   4.292   1.754
 6858SOL    HW221474   3.031   4.190   1.862
 6859SOL     OW21475   0.835   1.058   2.699
 6859SOL    HW121476   0.789   1.017   2.620
 6859SOL    HW221477   0.784   1.138   2.729
 6860SOL     OW21478   0.599   6.533   1.776
 6860SOL    HW121479   0.519   6.589   1.754
 6860SOL    HW221480   0.644   6.504   1.692
 6861SOL     OW21481   4.879   2.742   5.159
 6861SOL    HW121482   4.840   2.774   5.245
 6861SOL    HW221483   4.957   2.683   5.177
 6862SOL     OW21484   0.749   5.020   5.811
 6862SOL    HW121485   0.777   5.115   5.821
 6862SOL    HW221486   0.652   5.011   5.832
 6863SOL     OW21487   6.812   6.947   5.156
 6863SOL    HW121488   6.824   0.012   5.198
 6863SOL    HW221489   6.894   6.891   5.172
 6864SOL     OW21490   1.713   3.643   5.301
 6864SOL    HW121491   1.628   3.610   5.260
 6864SOL    HW221492   1.716   3.743   5.293
 6865SOL     OW21493   1.807   0.178   4.667
 6865SOL    HW121494   1.868   0.255   4.682
 6865SOL    HW221495   1.736   0.176   4.738
 6866SOL     OW21496   0.279   4.450   2.082
 6866SOL    HW121497   0.291   4.528   2.143
 6866SOL    HW221498   0.232   4.480   1.999
 6867SOL     OW21499   2.168   3.288   0.431
 6867SOL    HW121500   2.078   3.284   0.389
 6867SOL    HW221501   2.235   3.245   0.370
 6868SOL     OW21502   2.676   5.078   4.986
 6868SOL    HW121503   2.668   4.981   4.964
 6868SOL    HW221504   2.701   5.129   4.903
 6869SOL     OW21505   3.713   0.462   6.244
 6869SOL    HW121506   3.629   0.495   6.287
 6869SOL    HW221507   3.777   0.538   6.234
 6870SOL     OW21508   0.226   2.786   0.373
 6870SOL    HW121509   0.139   2.820   0.408
 6870SOL    HW221510   0.224   2.788   0.273
 6871SOL     OW21511   0.301   3.961   2.496
 6871SOL    HW121512   0.397   3.940   2.518
 6871SOL    HW221513   0.247   3.877   2.501
 6872SOL     OW21514   2.076   2.891   1.579
 6872SOL    HW121515   2.165   2.922   1.614
 6872SOL    HW221516   2.005   2.954   1.609
 6873SOL     OW21517   1.230   4.044   4.578
 6873SOL    HW121518   1.150   4.105   4.577
 6873SOL    HW221519   1.199   3.949   4.581
 6874SOL     OW21520   5.816   6.047   2.861
 6874SOL    HW121521   5.789   5.993   2.781
 6874SOL    HW221522   5.880   5.994   2.917
 6875SOL     OW21523   1.338   2.697   1.236
 6875SOL    HW121524   1.299   2.644   1.161
 6875SOL    HW221525   1.431   2.724   1.214
 6876SOL     OW21526   4.522   5.510   3.092
 6876SOL    HW121527   4.426   5.480   3.088
 6876SOL    HW221528   4.532   5.595   3.041
 6877SOL     OW21529   1.641   3.414   2.195
 6877SOL    HW121530   1.681   3.330   2.160
 6877SOL    HW221531   1.543   3.415   2.175
 6878SOL     OW21532   2.078   0.454   3.905
 6878SOL    HW121533   1.991   0.434   3.950
 6878SOL    HW221534   2.090   0.393   3.826
 6879SOL     OW21535   2.052   2.046   0.710
 6879SOL    HW121536   1.993   2.078   0.784
 6879SOL    HW221537   2.078   2.124   0.653
 6880SOL     OW21538   1.707   5.480   6.961
 6880SOL    HW121539   1.737   5.391   6.925
 6880SOL    HW221540   1.673   5.468   0.029
 6881SOL     OW21541   1.084   3.278   0.550
 6881SOL    HW121542   1.182   3.299   0.550
 6881SOL    HW221543   1.052   3.272   0.456
 6882SOL     OW21544   2.692   6.614   0.024
 6882SOL    HW121545   2.756   6.565   0.083
 6882SOL    HW221546   2.711   6.712   0.028
 6883SOL     OW21547   5.059   0.036   6.683
 6883SOL    HW121548   5.105   0.072   6.764
 6883SOL    HW221549   4.975   0.087   6.666
 6884SOL     OW21550   2.043   4.034   2.797
 6884SOL    HW121551   1.946   4.055   2.785
 6884SOL    HW221552   2.063   3.944   2.757
 6885SOL     OW21553   5.455   5.886   3.859
 6885SOL    HW121554   5.479   5.928   3.771
 6885SOL    HW221555   5.423   5.793   3.844
 6886SOL     OW21556   5.036   1.161   6.305
 6886SOL    HW121557   4.975   1.154   6.226
 6886SOL    HW221558   5.049   1.257   6.328
 6887SOL     OW21559   5.308   6.093   5.987
 6887SOL    HW121560   5.303   6.192   5.976
 6887SOL    HW221561   5.248   6.048   5.922
 6888SOL     OW21562   6.052   5.058   6.518
 6888SOL    HW121563   6.001   4.997   6.578
 6888SOL    HW221564   6.103   5.003   6.451
 6889SOL     OW21565   0.918   2.908   6.840
 6889SOL    HW121566   0.980   2.954   6.904
 6889SOL    HW221567   0.930   2.945   6.748
 6890SOL     OW21568   4.000   5.411   2.415
 6890SOL    HW121569   3.968   5.492   2.365
 6890SOL    HW221570   4.024   5.437   2.509
 6891SOL     OW21571   2.186   1.834   1.140
 6891SOL    HW121572   2.215   1.798   1.229
 6891SOL    HW221573   2.106   1.782   1.108
 6892SOL     OW21574   3.360   0.830   4.285
 6892SOL    HW121575   3.397   0.759   4.226
 6892SOL    HW221576   3.409   0.831   4.372
 6893SOL     OW21577   6.471   2.792   6.819
 6893SOL    HW121578   6.513   2.882   6.832
 6893SOL    HW221579   6.514   2.725   6.880
 6894SOL     OW21580   5.590   5.130   0.552
 6894SOL    HW121581   5.521   5.132   0.624
 6894SOL    HW221582   5.616   5.035   0.534
 6895SOL     OW21583   1.369   6.209   1.466
 6895SOL    HW121584   1.468   6.216   1.477
 6895SOL    HW221585   1.330   6.164   1.547
 6896SOL     OW21586   4.634   2.090   4.477
 6896SOL    HW121587   4.595   2.180   4.457
 6896SOL    HW221588   4.732   2.091   4.458
 6897SOL     OW21589   5.066   4.076   5.146
 6897SOL    HW121590   5.077   4.015   5.225
 6897SOL    HW221591   5.071   4.022   5.062
 6898SOL     OW21592   2.196   1.505   1.344
 6898SOL    HW121593   2.191   1.599   1.377
 6898SOL    HW221594   2.154   1.500   1.254
 6899SOL     OW21595   6.131   6.050   2.975
 6899SOL    HW121596   6.225   6.016   2.965
 6899SOL    HW221597   6.121   6.136   2.925
 6900SOL     OW21598   6.170   4.406   5.680
 6900SOL    HW121599   6.194   4.501   5.659
 6900SOL    HW221600   6.244   4.364   5.732
 6901SOL     OW21601   4.697   4.592   6.968
 6901SOL    HW121602   4.680   4.499   7.000
 6901SOL    HW221603   4.614   4.647   6.982
 6902SOL     OW21604   0.450   5.827   6.298
 6902SOL    HW121605   0.487   5.918   6.313
 6902SOL    HW221606   0.524   5.760   6.301
 6903SOL     OW21607   2.662   4.983   4.574
 6903SOL    HW121608   2.692   4.901   4.623
 6903SOL    HW221609   2.661   4.964   4.476
 6904SOL     OW21610   0.069   6.350   4.780
 6904SOL    HW121611   0.030   6.276   4.835
 6904SOL    HW221612   0.051   6.438   4.825
 6905SOL     OW21613   5.294   5.628   5.825
 6905SOL    HW121614   5.262   5.632   5.730
 6905SOL    HW221615   5.219   5.600   5.884
 6906SOL     OW21616   3.738   1.383   3.654
 6906SOL    HW121617   3.660   1.339   3.610
 6906SOL    HW221618   3.725   1.386   3.753
 6907SOL     OW21619   6.128   1.371   0.974
 6907SOL    HW121620   6.055   1.403   0.913
 6907SOL    HW221621   6.180   1.449   1.008
 6908SOL     OW21622   2.734   4.518   0.045
 6908SOL    HW121623   2.791   4.600   0.045
 6908SOL    HW221624   2.782   4.444   0.092
 6909SOL     OW21625   5.756   5.288   2.126
 6909SOL    HW121626   5.854   5.304   2.135
 6909SOL    HW221627   5.737   5.190   2.129
 6910SOL     OW21628   1.446   2.718   3.714
 6910SOL    HW121629   1.468   2.808   3.750
 6910SOL    HW221630   1.525   2.681   3.665
 6911SOL     OW21631   2.845   0.382   5.786
 6911SOL    HW121632   2.814   0.419   5.874
 6911SOL    HW221633   2.778   0.405   5.715
 6912SOL     OW21634   2.014   3.554   6.287
 6912SOL    HW121635   2.059   3.623   6.231
 6912SOL    HW221636   1.923   3.535   6.249
 6913SOL     OW21637   4.540   6.028   5.975
 6913SOL    HW121638   4.627   6.075   5.991
 6913SOL    HW221639   4.514   6.038   5.879
 6914SOL     OW21640   6.765   3.557   1.684
 6914SOL    HW121641   6.844   3.616   1.704
 6914SOL    HW221642   6.693   3.611   1.641
 6915SOL     OW21643   1.063   3.085   2.791
 6915SOL    HW121644   1.130   3.159   2.782
 6915SOL    HW221645   1.088   3.009   2.731
 6916SOL     OW21646   4.488   6.264   0.003
 6916SOL    HW121647   4.543   6.331   6.978
 6916SOL    HW221648   4.530   6.174   7.021
 6917SOL     OW21649   5.940   5.472   1.618
 6917SOL    HW121650   5.922   5.464   1.716
 6917SOL    HW221651   5.855   5.496   1.571
 6918SOL     OW21652   2.117   3.120   1.941
 6918SOL    HW121653   2.057   3.146   2.017
 6918SOL    HW221654   2.113   3.190   1.870
 6919SOL     OW21655   6.713   6.397   2.856
 6919SOL    HW121656   6.620   6.378   2.886
 6919SOL    HW221657   6.778   6.367   2.926
 6920SOL     OW21658   5.101   0.595   5.769
 6920SOL    HW121659   5.048   0.521   5.727
 6920SOL    HW221660   5.045   0.678   5.772
 6921SOL     OW21661   3.518   0.151   4.237
 6921SOL    HW121662   3.561   0.238   4.261
 6921SOL    HW221663   3.489   0.153   4.142
 6922SOL     OW21664   1.289   5.944   5.740
 6922SOL    HW121665   1.283   6.024   5.680
 6922SOL    HW221666   1.317   5.973   5.832
 6923SOL     OW21667   6.414   6.905   2.303
 6923SOL    HW121668   6.458   6.818   2.328
 6923SOL    HW221669   6.476   6.958   2.245
 6924SOL     OW21670   3.563   6.754   0.400
 6924SOL    HW121671   3.632   6.820   0.429
 6924SOL    HW221672   3.608   6.672   0.364
 6925SOL     OW21673   5.917   6.000   6.358
 6925SOL    HW121674   5.890   5.935   6.286
 6925SOL    HW221675   5.864   6.084   6.347
 6926SOL     OW21676   2.766   2.196   0.470
 6926SOL    HW121677   2.782   2.196   0.569
 6926SOL    HW221678   2.719   2.112   0.443
 6927SOL     OW21679   4.331   0.885   0.359
 6927SOL    HW121680   4.415   0.839   0.330
 6927SOL    HW221681   4.312   0.962   0.298
 6928SOL     OW21682   4.396   5.193   0.630
 6928SOL    HW121683   4.439   5.281   0.654
 6928SOL    HW221684   4.437   5.159   0.545
 6929SOL     OW21685   5.923   5.544   0.982
 6929SOL    HW121686   5.894   5.535   0.886
 6929SOL    HW221687   5.953   5.637   1.000
 6930SOL     OW21688   0.240   0.623   0.693
 6930SOL    HW121689   0.296   0.551   0.652
 6930SOL    HW221690   0.299   0.682   0.749
 6931SOL     OW21691   2.477   2.805   1.447
 6931SOL    HW121692   2.475   2.708   1.469
 6931SOL    HW221693   2.479   2.858   1.532
 6932SOL     OW21694   4.471   5.622   0.121
 6932SOL    HW121695   4.530   5.542   0.128
 6932SOL    HW221696   4.397   5.614   0.188
 6933SOL     OW21697   2.819   5.817   6.543
 6933SOL    HW121698   2.818   5.762   6.459
 6933SOL    HW221699   2.764   5.772   6.613
 6934SOL     OW21700   5.100   4.004   6.358
 6934SOL    HW121701   5.044   3.981   6.437
 6934SOL    HW221702   5.183   4.050   6.389
 6935SOL     OW21703   5.587   5.090   1.499
 6935SOL    HW121704   5.500   5.102   1.452
 6935SOL    HW221705   5.630   5.004   1.468
 6936SOL     OW21706   0.787   1.783   5.017
 6936SOL    HW121707   0.690   1.780   4.991
 6936SOL    HW221708   0.836   1.710   4.971
 6937SOL     OW21709   5.492   5.809   0.359
 6937SOL    HW121710   5.396   5.833   0.348
 6937SOL    HW221711   5.500   5.713   0.388
 6938SOL     OW21712   0.676   0.477   4.705
 6938SOL    HW121713   0.664   0.541   4.630
 6938SOL    HW221714   0.642   0.387   4.678
 6939SOL     OW21715   5.948   4.753   3.913
 6939SOL    HW121716   5.954   4.774   4.011
 6939SOL    HW221717   5.893   4.671   3.900
 6940SOL     OW21718   3.985   6.586   0.655
 6940SOL    HW121719   4.035   6.673   0.659
 6940SOL    HW221720   3.887   6.604   0.659
 6941SOL     OW21721   3.512   3.284   2.368
 6941SOL    HW121722   3.443   3.349   2.334
 6941SOL    HW221723   3.466   3.210   2.417
 6942SOL     OW21724   5.952   6.970   1.635
 6942SOL    HW121725   5.970   6.886   1.687
 6942SOL    HW221726   5.856   6.973   1.609
 6943SOL     OW21727   4.029   4.975   6.161
 6943SOL    HW121728   3.975   5.059   6.164
 6943SOL    HW221729   3.968   4.896   6.149
 6944SOL     OW21730   1.171   3.885   5.504
 6944SOL    HW121731   1.215   3.970   5.476
 6944SOL    HW221732   1.132   3.839   5.424
 6945SOL     OW21733   5.406   2.810   1.142
 6945SOL    HW121734   5.408   2.810   1.242
 6945SOL    HW221735   5.476   2.749   1.107
 6946SOL     OW21736   4.509   5.838   2.313
 6946SOL    HW121737   4.469   5.853   2.403
 6946SOL    HW221738   4.608   5.824   2.323
 6947SOL     OW21739   5.075   5.312   5.422
 6947SOL    HW121740   5.132   5.286   5.500
 6947SOL    HW221741   5.027   5.232   5.387
 6948SOL     OW21742   0.679   5.005   0.055
 6948SOL    HW121743   0.691   4.905   0.055
 6948SOL    HW221744   0.582   5.027   0.063
 6949SOL     OW21745   2.712   2.107   4.002
 6949SOL    HW121746   2.699   2.055   4.086
 6949SOL    HW221747   2.766   2.052   3.937
 6950SOL     OW21748   0.768   6.920   5.073
 6950SOL    HW121749   0.679   6.965   5.086
 6950SOL    HW221750   0.828   6.980   5.020
 6951SOL     OW21751   0.067   4.948   6.404
 6951SOL    HW121752   0.067   4.951   6.305
 6951SOL    HW221753   0.159   4.963   6.439
 6952SOL     OW21754   3.514   5.243   2.984
 6952SOL    HW121755   3.465   5.162   2.951
 6952SOL    HW221756   3.612   5.229   2.970
 6953SOL     OW21757   4.874   1.041   1.221
 6953SOL    HW121758   4.951   1.051   1.284
 6953SOL    HW221759   4.852   0.945   1.209
 6954SOL     OW21760   6.295   3.736   0.376
 6954SOL    HW121761   6.354   3.716   0.297
 6954SOL    HW221762   6.242   3.655   0.399
 6955SOL     OW21763   5.344   6.570   2.413
 6955SOL    HW121764   5.359   6.475   2.439
 6955SOL    HW221765   5.272   6.610   2.471
 6956SOL     OW21766   5.195   5.524   2.210
 6956SOL    HW121767   5.166   5.440   2.165
 6956SOL    HW221768   5.119   5.590   2.210
 6957SOL     OW21769   5.321   5.080   6.377
 6957SOL    HW121770   5.232   5.125   6.387
 6957SOL    HW221771   5.320   5.024   6.294
 6958SOL     OW21772   3.098   3.095   3.475
 6958SOL    HW121773   3.050   3.146   3.547
 6958SOL    HW221774   3.169   3.038   3.517
 6959SOL     OW21775   1.099   4.176   3.076
 6959SOL    HW121776   1.071   4.203   3.168
 6959SOL    HW221777   1.054   4.091   3.051
 6960SOL     OW21778   2.948   4.900   0.468
 6960SOL    HW121779   2.951   4.809   0.425
 6960SOL    HW221780   3.002   4.899   0.552
 6961SOL     OW21781   4.111   2.345   5.785
 6961SOL    HW121782   4.073   2.434   5.759
 6961SOL    HW221783   4.108   2.283   5.707
 6962SOL     OW21784   2.730   6.736   5.930
 6962SOL    HW121785   2.820   6.707   5.896
 6962SOL    HW221786   2.665   6.661   5.920
 6963SOL     OW21787   5.268   6.835   0.942
 6963SOL    HW121788   5.342   6.803   0.883
 6963SOL    HW221789   5.190   6.774   0.934
 6964SOL     OW21790   1.600   0.196   6.233
 6964SOL    HW121791   1.589   0.242   6.145
 6964SOL    HW221792   1.656   0.254   6.293
 6965SOL     OW21793   0.473   2.042   6.768
 6965SOL    HW121794   0.557   2.095   6.754
 6965SOL    HW221795   0.396   2.090   6.726
 6966SOL     OW21796   1.075   0.349   1.799
 6966SOL    HW121797   1.165   0.368   1.837
 6966SOL    HW221798   1.005   0.389   1.859
 6967SOL     OW21799   4.385   1.269   5.768
 6967SOL    HW121800   4.456   1.254   5.836
 6967SOL    HW221801   4.307   1.210   5.787
 6968SOL     OW21802   3.864   6.402   2.563
 6968SOL    HW121803   3.770   6.367   2.559
 6968SOL    HW221804   3.884   6.431   2.656
 6969SOL     OW21805   2.128   1.731   1.707
 6969SOL    HW121806   2.170   1.820   1.722
 6969SOL    HW221807   2.092   1.726   1.615
 6970SOL     OW21808   3.557   4.571   6.081
 6970SOL    HW121809   3.500   4.490   6.064
 6970SOL    HW221810   3.653   4.549   6.062
 6971SOL     OW21811   0.269   4.479   0.451
 6971SOL    HW121812   0.238   4.384   0.450
 6971SOL    HW221813   0.238   4.525   0.368
 6972SOL     OW21814   4.917   3.632   2.443
 6972SOL    HW121815   4.949   3.625   2.537
 6972SOL    HW221816   4.823   3.600   2.436
 6973SOL     OW21817   0.829   3.399   3.416
 6973SOL    HW121818   0.928   3.387   3.417
 6973SOL    HW221819   0.794   3.379   3.325
 6974SOL     OW21820   3.767   3.666   2.650
 6974SOL    HW121821   3.767   3.736   2.722
 6974SOL    HW221822   3.821   3.587   2.681
 6975SOL     OW21823   3.200   5.781   4.903
 6975SOL    HW121824   3.156   5.764   4.815
 6975SOL    HW221825   3.180   5.704   4.965
 6976SOL     OW21826   5.024   4.167   5.887
 6976SOL    HW121827   5.100   4.109   5.858
 6976SOL    HW221828   5.039   4.196   5.982
 6977SOL     OW21829   4.128   4.661   1.274
 6977SOL    HW121830   4.159   4.748   1.313
 6977SOL    HW221831   4.206   4.598   1.269
 6978SOL     OW21832   5.343   3.578   1.650
 6978SOL    HW121833   5.343   3.597   1.552
 6978SOL    HW221834   5.343   3.664   1.701
 6979SOL     OW21835   1.281   4.060   1.631
 6979SOL    HW121836   1.210   4.002   1.672
 6979SOL    HW221837   1.296   4.033   1.536
 6980SOL     OW21838   1.376   6.373   3.011
 6980SOL    HW121839   1.345   6.400   3.103
 6980SOL    HW221840   1.352   6.445   2.946
 6981SOL     OW21841   3.627   3.228   6.618
 6981SOL    HW121842   3.661   3.306   6.671
 6981SOL    HW221843   3.535   3.247   6.584
 6982SOL     OW21844   1.665   1.047   4.049
 6982SOL    HW121845   1.642   1.003   4.136
 6982SOL    HW221846   1.637   0.987   3.974
 6983SOL     OW21847   4.906   0.749   4.112
 6983SOL    HW121848   4.988   0.741   4.056
 6983SOL    HW221849   4.863   0.659   4.121
 6984SOL     OW21850   0.685   2.606   3.128
 6984SOL    HW121851   0.686   2.563   3.219
 6984SOL    HW221852   0.736   2.692   3.132
 6985SOL     OW21853   6.353   3.285   0.282
 6985SOL    HW121854   6.374   3.326   0.193
 6985SOL    HW221855   6.433   3.292   0.342
 6986SOL     OW21856   3.934   4.958   5.537
 6986SOL    HW121857   3.971   4.888   5.598
 6986SOL    HW221858   3.846   4.990   5.573
 6987SOL     OW21859   0.555   1.508   6.079
 6987SOL    HW121860   0.606   1.422   6.087
 6987SOL    HW221861   0.509   1.527   6.166
 6988SOL     OW21862   3.133   1.312   6.252
 6988SOL    HW121863   3.167   1.350   6.166
 6988SOL    HW221864   3.195   1.338   6.327
 6989SOL     OW21865   6.825   5.334   2.960
 6989SOL    HW121866   6.806   5.352   2.864
 6989SOL    HW221867   6.860   5.417   3.004
 6990SOL     OW21868   3.633   2.681   1.319
 6990SOL    HW121869   3.657   2.624   1.398
 6990SOL    HW221870   3.674   2.643   1.236
 6991SOL     OW21871   5.739   3.835   2.389
 6991SOL    HW121872   5.659   3.784   2.420
 6991SOL    HW221873   5.762   3.807   2.296
 6992SOL     OW21874   0.704   6.665   0.190
 6992SOL    HW121875   0.740   6.656   0.282
 6992SOL    HW221876   0.612   6.703   0.193
 6993SOL     OW21877   4.843   1.187   1.731
 6993SOL    HW121878   4.864   1.160   1.825
 6993SOL    HW221879   4.781   1.119   1.691
 6994SOL     OW21880   2.199   0.137   4.206
 6994SOL    HW121881   2.207   0.038   4.198
 6994SOL    HW221882   2.133   0.171   4.138
 6995SOL     OW21883   0.108   3.603   1.149
 6995SOL    HW121884   0.116   3.547   1.231
 6995SOL    HW221885   0.036   3.566   1.090
 6996SOL     OW21886   0.887   1.749   6.957
 6996SOL    HW121887   0.814   1.787   7.014
 6996SOL    HW221888   0.884   1.791   6.866
 6997SOL     OW21889   6.274   5.353   5.308
 6997SOL    HW121890   6.351   5.396   5.356
 6997SOL    HW221891   6.188   5.382   5.351
 6998SOL     OW21892   6.849   1.391   0.207
 6998SOL    HW121893   6.833   1.359   0.113
 6998SOL    HW221894   6.920   1.461   0.206
 6999SOL     OW21895   0.662   3.589   0.563
 6999SOL    HW121896   0.664   3.603   0.662
 6999SOL    HW221897   0.746   3.627   0.523
 7000SOL     OW21898   6.766   6.959   2.800
 7000SOL    HW121899   6.835   7.000   2.740
 7000SOL    HW221900   6.787   6.983   2.895
 7001SOL     OW21901   0.990   1.445   4.482
 7001SOL    HW121902   0.968   1.536   4.448
 7001SOL    HW221903   0.965   1.438   4.578
 7002SOL     OW21904   6.880   5.713   2.844
 7002SOL    HW121905   6.967   5.713   2.796
 7002SOL    HW221906   6.823   5.788   2.810
 7003SOL     OW21907   6.331   4.848   1.404
 7003SOL    HW121908   6.348   4.764   1.351
 7003SOL    HW221909   6.347   4.927   1.345
 7004SOL     OW21910   2.070   5.831   0.189
 7004SOL    HW121911   2.020   5.785   0.116
 7004SOL    HW221912   2.116   5.763   0.247
 7005SOL     OW21913   1.236   6.930   0.090
 7005SOL    HW121914   1.207   6.885   0.005
 7005SOL    HW221915   1.158   6.935   0.153
 7006SOL     OW21916   0.967   0.275   4.639
 7006SOL    HW121917   0.883   0.247   4.592
 7006SOL    HW221918   0.970   0.375   4.645
 7007SOL     OW21919   3.795   0.211   5.607
 7007SOL    HW121920   3.808   0.294   5.660
 7007SOL    HW221921   3.719   0.224   5.542
 7008SOL     OW21922   6.077   4.061   3.785
 7008SOL    HW121923   6.122   4.115   3.714
 7008SOL    HW221924   6.145   4.021   3.846
 7009SOL     OW21925   4.717   5.798   1.332
 7009SOL    HW121926   4.788   5.808   1.402
 7009SOL    HW221927   4.672   5.709   1.344
 7010SOL     OW21928   5.359   3.827   1.796
 7010SOL    HW121929   5.306   3.903   1.832
 7010SOL    HW221930   5.453   3.857   1.779
 7011SOL     OW21931   3.032   6.115   0.108
 7011SOL    HW121932   3.017   6.142   0.013
 7011SOL    HW221933   3.101   6.174   0.149
 7012SOL     OW21934   6.993   2.115   0.289
 7012SOL    HW121935   7.002   2.018   0.269
 7012SOL    HW221936   6.998   2.129   0.388
 7013SOL     OW21937   2.607   1.600   6.670
 7013SOL    HW121938   2.566   1.662   6.603
 7013SOL    HW221939   2.554   1.603   6.755
 7014SOL     OW21940   6.406   3.344   1.557
 7014SOL    HW121941   6.326   3.293   1.589
 7014SOL    HW221942   6.433   3.412   1.625
 7015SOL     OW21943   5.007   5.910   0.867
 7015SOL    HW121944   5.070   5.833   0.861
 7015SOL    HW221945   4.925   5.882   0.918
 7016SOL     OW21946   3.237   5.328   0.431
 7016SOL    HW121947   3.231   5.416   0.384
 7016SOL    HW221948   3.165   5.268   0.398
 7017SOL     OW21949   4.670   5.191   4.095
 7017SOL    HW121950   4.748   5.250   4.076
 7017SOL    HW221951   4.641   5.145   4.010
 7018SOL     OW21952   4.894   3.262   4.035
 7018SOL    HW121953   4.914   3.165   4.050
 7018SOL    HW221954   4.854   3.274   3.944
 7019SOL     OW21955   4.966   5.026   1.957
 7019SOL    HW121956   4.947   4.928   1.944
 7019SOL    HW221957   4.911   5.079   1.893
 7020SOL     OW21958   0.551   2.895   6.316
 7020SOL    HW121959   0.468   2.842   6.298
 7020SOL    HW221960   0.565   2.902   6.415
 7021SOL     OW21961   0.787   2.059   5.157
 7021SOL    HW121962   0.857   2.130   5.159
 7021SOL    HW221963   0.807   1.994   5.084
 7022SOL     OW21964   3.772   1.458   0.876
 7022SOL    HW121965   3.871   1.467   0.869
 7022SOL    HW221966   3.749   1.393   0.949
 7023SOL     OW21967   0.477   2.064   1.299
 7023SOL    HW121968   0.552   2.060   1.233
 7023SOL    HW221969   0.509   2.030   1.388
 7024SOL     OW21970   3.639   3.523   3.673
 7024SOL    HW121971   3.586   3.440   3.652
 7024SOL    HW221972   3.583   3.604   3.655
 7025SOL     OW21973   3.739   6.922   0.514
 7025SOL    HW121974   3.740   7.020   0.492
 7025SOL    HW221975   3.833   6.889   0.521
 7026SOL     OW21976   3.633   2.256   0.882
 7026SOL    HW121977   3.729   2.257   0.911
 7026SOL    HW221978   3.607   2.163   0.858
 7027SOL     OW21979   1.943   5.193   1.844
 7027SOL    HW121980   2.001   5.267   1.811
 7027SOL    HW221981   1.993   5.138   1.910
 7028SOL     OW21982   3.410   6.953   3.217
 7028SOL    HW121983   3.485   6.887   3.218
 7028SOL    HW221984   3.411   7.003   3.131
 7029SOL     OW21985   3.506   3.508   5.142
 7029SOL    HW121986   3.567   3.506   5.220
 7029SOL    HW221987   3.541   3.447   5.070
 7030SOL     OW21988   6.372   1.615   5.155
 7030SOL    HW121989   6.425   1.564   5.087
 7030SOL    HW221990   6.430   1.638   5.232
 7031SOL     OW21991   4.549   6.574   0.663
 7031SOL    HW121992   4.649   6.579   0.671
 7031SOL    HW221993   4.513   6.665   0.642
 7032SOL     OW21994   3.758   6.958   4.870
 7032SOL    HW121995   3.790   0.001   4.936
 7032SOL    HW221996   3.828   6.945   4.799
 7033SOL     OW21997   1.386   2.025   5.285
 7033SOL    HW121998   1.377   1.987   5.378
 7033SOL    HW221999   1.295   2.038   5.246
 7034SOL     OW22000   6.223   1.553   3.047
 7034SOL    HW122001   6.250   1.598   3.132
 7034SOL    HW222002   6.185   1.463   3.067
 7035SOL     OW22003   2.037   0.667   1.136
 7035SOL    HW122004   2.103   0.737   1.161
 7035SOL    HW222005   1.944   0.702   1.151
 7036SOL     OW22006   0.263   1.131   2.141
 7036SOL    HW122007   0.287   1.184   2.222
 7036SOL    HW222008   0.344   1.084   2.107
 7037SOL     OW22009   0.923   0.504   6.359
 7037SOL    HW122010   0.856   0.577   6.354
 7037SOL    HW222011   0.920   0.450   6.275
 7038SOL     OW22012   1.704   2.657   6.512
 7038SOL    HW122013   1.713   2.578   6.450
 7038SOL    HW222014   1.777   2.655   6.580
 7039SOL     OW22015   0.485   6.204   2.997
 7039SOL    HW122016   0.558   6.239   3.055
 7039SOL    HW222017   0.433   6.280   2.958
 7040SOL     OW22018   4.445   2.584   5.380
 7040SOL    HW122019   4.364   2.642   5.367
 7040SOL    HW222020   4.471   2.542   5.293
 7041SOL     OW22021   1.529   0.588   3.633
 7041SOL    HW122022   1.569   0.504   3.669
 7041SOL    HW222023   1.446   0.610   3.683
 7042SOL     OW22024   4.399   6.175   5.245
 7042SOL    HW122025   4.425   6.188   5.341
 7042SOL    HW222026   4.303   6.148   5.240
 7043SOL     OW22027   2.144   4.571   2.569
 7043SOL    HW122028   2.055   4.568   2.523
 7043SOL    HW222029   2.150   4.496   2.635
 7044SOL     OW22030   5.118   6.577   3.972
 7044SOL    HW122031   5.053   6.515   4.017
 7044SOL    HW222032   5.119   6.558   3.874
 7045SOL     OW22033   6.127   5.760   2.617
 7045SOL    HW122034   6.047   5.699   2.617
 7045SOL    HW222035   6.097   5.854   2.596
 7046SOL     OW22036   3.129   2.084   4.553
 7046SOL    HW122037   3.088   1.995   4.531
 7046SOL    HW222038   3.074   2.130   4.623
 7047SOL     OW22039   0.893   6.909   0.536
 7047SOL    HW122040   0.847   6.841   0.479
 7047SOL    HW222041   0.858   7.000   0.515
 7048SOL     OW22042   6.503   5.531   5.142
 7048SOL    HW122043   6.421   5.570   5.100
 7048SOL    HW222044   6.523   5.442   5.102
 7049SOL     OW22045   3.703   0.957   2.455
 7049SOL    HW122046   3.636   1.025   2.424
 7049SOL    HW222047   3.665   0.865   2.443
 7050SOL     OW22048   4.092   3.649   0.975
 7050SOL    HW122049   4.089   3.701   1.060
 7050SOL    HW222050   4.036   3.567   0.985
 7051SOL     OW22051   0.648   0.309   1.269
 7051SOL    HW122052   0.710   0.309   1.191
 7051SOL    HW222053   0.700   0.316   1.354
 7052SOL     OW22054   5.853   0.360   2.217
 7052SOL    HW122055   5.931   0.316   2.173
 7052SOL    HW222056   5.779   0.371   2.151
 7053SOL     OW22057   1.855   2.719   3.756
 7053SOL    HW122058   1.921   2.767   3.813
 7053SOL    HW222059   1.904   2.656   3.695
 7054SOL     OW22060   6.819   0.316   0.450
 7054SOL    HW122061   6.823   0.300   0.352
 7054SOL    HW222062   6.725   0.338   0.477
 7055SOL     OW22063   2.593   0.682   6.882
 7055SOL    HW122064   2.619   0.601   6.935
 7055SOL    HW222065   2.630   0.764   6.927
 7056SOL     OW22066   6.806   5.159   1.631
 7056SOL    HW122067   6.896   5.184   1.668
 7056SOL    HW222068   6.736   5.216   1.674
 7057SOL     OW22069   3.130   4.915   5.064
 7057SOL    HW122070   3.205   4.855   5.037
 7057SOL    HW222071   3.166   4.995   5.111
 7058SOL     OW22072   5.227   2.764   5.819
 7058SOL    HW122073   5.223   2.856   5.780
 7058SOL    HW222074   5.191   2.766   5.912
 7059SOL     OW22075   1.869   0.828   4.842
 7059SOL    HW122076   1.880   0.788   4.933
 7059SOL    HW222077   1.788   0.789   4.798
 7060SOL     OW22078   3.578   0.355   2.178
 7060SOL    HW122079   3.480   0.373   2.193
 7060SOL    HW222080   3.604   0.272   2.227
 7061SOL     OW22081   1.129   2.483   3.000
 7061SOL    HW122082   1.187   2.458   2.923
 7061SOL    HW222083   1.171   2.452   3.085
 7062SOL     OW22084   3.855   1.650   3.098
 7062SOL    HW122085   3.944   1.661   3.054
 7062SOL    HW222086   3.825   1.738   3.136
 7063SOL     OW22087   1.005   0.893   2.134
 7063SOL    HW122088   1.081   0.958   2.134
 7063SOL    HW222089   0.918   0.942   2.131
 7064SOL     OW22090   4.566   1.931   5.373
 7064SOL    HW122091   4.581   1.851   5.315
 7064SOL    HW222092   4.485   1.980   5.342
 7065SOL     OW22093   3.711   4.190   5.484
 7065SOL    HW122094   3.652   4.116   5.453
 7065SOL    HW222095   3.754   4.235   5.405
 7066SOL     OW22096   3.937   0.207   0.087
 7066SOL    HW122097   4.005   0.237   0.019
 7066SOL    HW222098   3.977   0.138   0.146
 7067SOL     OW22099   1.914   3.455   6.958
 7067SOL    HW122100   1.979   3.381   6.978
 7067SOL    HW222101   1.823   3.427   6.988
 7068SOL     OW22102   4.917   4.028   4.381
 7068SOL    HW122103   4.972   4.103   4.344
 7068SOL    HW222104   4.973   3.946   4.390
 7069SOL     OW22105   5.680   6.819   6.449
 7069SOL    HW122106   5.718   6.847   6.361
 7069SOL    HW222107   5.631   6.895   6.491
 7070SOL     OW22108   0.485   6.346   4.883
 7070SOL    HW122109   0.417   6.296   4.936
 7070SOL    HW222110   0.568   6.357   4.936
 7071SOL     OW22111   5.142   5.860   6.139
 7071SOL    HW122112   5.092   5.907   6.211
 7071SOL    HW222113   5.208   5.922   6.097
 7072SOL     OW22114   0.166   3.669   6.837
 7072SOL    HW122115   0.136   3.582   6.797
 7072SOL    HW222116   0.102   3.741   6.814
 7073SOL     OW22117   5.507   1.316   3.000
 7073SOL    HW122118   5.592   1.294   3.047
 7073SOL    HW222119   5.431   1.269   3.045
 7074SOL     OW22120   5.580   4.296   2.877
 7074SOL    HW122121   5.651   4.289   2.806
 7074SOL    HW222122   5.550   4.204   2.904
 7075SOL     OW22123   3.385   5.477   3.900
 7075SOL    HW122124   3.439   5.560   3.885
 7075SOL    HW222125   3.445   5.397   3.897
 7076SOL     OW22126   5.823   2.623   2.483
 7076SOL    HW122127   5.820   2.714   2.441
 7076SOL    HW222128   5.836   2.554   2.411
 7077SOL     OW22129   3.251   5.587   1.113
 7077SOL    HW122130   3.300   5.662   1.158
 7077SOL    HW222131   3.306   5.504   1.116
 7078SOL     OW22132   4.935   0.216   0.219
 7078SOL    HW122133   4.947   0.180   0.127
 7078SOL    HW222134   4.863   0.165   0.266
 7079SOL     OW22135   1.140   0.123   4.341
 7079SOL    HW122136   1.045   0.146   4.364
 7079SOL    HW222137   1.164   0.036   4.384
 7080SOL     OW22138   4.078   1.589   5.137
 7080SOL    HW122139   4.068   1.579   5.236
 7080SOL    HW222140   4.009   1.653   5.103
 7081SOL     OW22141   1.400   1.377   0.074
 7081SOL    HW122142   1.359   1.325   0.149
 7081SOL    HW222143   1.425   1.314   0.000
 7082SOL     OW22144   6.367   4.448   3.046
 7082SOL    HW122145   6.418   4.494   2.973
 7082SOL    HW222146   6.371   4.349   3.033
 7083SOL     OW22147   6.897   3.478   2.598
 7083SOL    HW122148   6.862   3.420   2.672
 7083SOL    HW222149   6.832   3.478   2.522
 7084SOL     OW22150   0.889   5.582   7.024
 7084SOL    HW122151   0.841   5.614   6.942
 7084SOL    HW222152   0.824   5.533   0.058
 7085SOL     OW22153   1.121   3.179   1.998
 7085SOL    HW122154   1.074   3.254   2.043
 7085SOL    HW222155   1.117   3.191   1.899
 7086SOL     OW22156   5.817   1.277   4.460
 7086SOL    HW122157   5.768   1.338   4.397
 7086SOL    HW222158   5.762   1.262   4.542
 7087SOL     OW22159   5.403   3.113   3.231
 7087SOL    HW122160   5.416   3.015   3.244
 7087SOL    HW222161   5.362   3.130   3.141
 7088SOL     OW22162   6.085   1.923   4.931
 7088SOL    HW122163   6.025   1.991   4.974
 7088SOL    HW222164   6.079   1.837   4.982
 7089SOL     OW22165   3.249   5.579   1.865
 7089SOL    HW122166   3.211   5.646   1.929
 7089SOL    HW222167   3.174   5.530   1.820
 7090SOL     OW22168   4.544   1.975   1.324
 7090SOL    HW122169   4.531   2.032   1.405
 7090SOL    HW222170   4.625   2.006   1.273
 7091SOL     OW22171   0.044   6.611   6.249
 7091SOL    HW122172   0.130   6.562   6.241
 7091SOL    HW222173   6.996   6.548   6.276
 7092SOL     OW22174   4.591   1.853   6.750
 7092SOL    HW122175   4.613   1.788   6.678
 7092SOL    HW222176   4.498   1.836   6.783
 7093SOL     OW22177   3.306   3.693   1.304
 7093SOL    HW122178   3.304   3.632   1.383
 7093SOL    HW222179   3.276   3.784   1.332
 7094SOL     OW22180   3.126   0.315   5.097
 7094SOL    HW122181   3.096   0.322   5.002
 7094SOL    HW222182   3.222   0.287   5.100
 7095SOL     OW22183   2.597   4.577   5.217
 7095SOL    HW122184   2.582   4.670   5.249
 7095SOL    HW222185   2.666   4.577   5.144
 7096SOL     OW22186   6.861   0.946   1.253
 7096SOL    HW122187   6.802   0.977   1.328
 7096SOL    HW222188   6.893   0.854   1.272
 7097SOL     OW22189   4.737   0.823   1.828
 7097SOL    HW122190   4.703   0.768   1.905
 7097SOL    HW222191   4.693   0.913   1.830
 7098SOL     OW22192   1.028   6.639   4.044
 7098SOL    HW122193   0.975   6.663   3.962
 7098SOL    HW222194   0.992   6.555   4.084
 7099SOL     OW22195   3.115   2.089   4.127
 7099SOL    HW122196   3.194   2.092   4.188
 7099SOL    HW222197   3.034   2.061   4.179
 7100SOL     OW22198   6.027   4.156   1.402
 7100SOL    HW122199   6.005   4.058   1.409
 7100SOL    HW222200   6.122   4.167   1.375
 7101SOL     OW22201   2.205   6.537   5.396
 7101SOL    HW122202   2.110   6.526   5.366
 7101SOL    HW222203   2.240   6.450   5.428
 7102SOL     OW22204   5.720   0.701   1.700
 7102SOL    HW122205   5.810   0.701   1.656
 7102SOL    HW222206   5.689   0.795   1.713
 7103SOL     OW22207   4.697   4.252   3.001
 7103SOL    HW122208   4.627   4.306   2.956
 7103SOL    HW222209   4.664   4.223   3.091
 7104SOL     OW22210   5.033   3.402   3.591
 7104SOL    HW122211   5.049   3.378   3.496
 7104SOL    HW222212   5.024   3.501   3.600
 7105SOL     OW22213   3.344   4.170   4.219
 7105SOL    HW122214   3.268   4.118   4.179
 7105SOL    HW222215   3.309   4.255   4.259
 7106SOL     OW22216   3.046   2.958   1.151
 7106SOL    HW122217   2.980   2.899   1.105
 7106SOL    HW222218   3.101   3.006   1.082
 7107SOL     OW22219   3.307   0.726   6.473
 7107SOL    HW122220   3.213   0.711   6.442
 7107SOL    HW222221   3.364   0.648   6.446
 7108SOL     OW22222   3.988   0.366   2.205
 7108SOL    HW122223   4.035   0.453   2.193
 7108SOL    HW222224   3.910   0.361   2.143
 7109SOL     OW22225   1.651   6.628   5.905
 7109SOL    HW122226   1.637   6.697   5.834
 7109SOL    HW222227   1.652   6.537   5.864
 7110SOL     OW22228   3.590   6.581   4.518
 7110SOL    HW122229   3.527   6.648   4.479
 7110SOL    HW222230   3.665   6.564   4.454
 7111SOL     OW22231   6.880   0.322   4.594
 7111SOL    HW122232   6.886   0.395   4.663
 7111SOL    HW222233   6.972   0.299   4.562
 7112SOL     OW22234   2.043   5.060   4.674
 7112SOL    HW122235   2.064   5.002   4.752
 7112SOL    HW222236   2.032   5.155   4.705
 7113SOL     OW22237   3.684   5.008   5.624
 7113SOL    HW122238   3.632   5.041   5.545
 7113SOL    HW222239   3.699   5.083   5.688
 7114SOL     OW22240   5.076   5.583   0.730
 7114SOL    HW122241   5.118   5.528   0.657
 7114SOL    HW222242   5.148   5.628   0.782
 7115SOL     OW22243   6.229   3.978   0.069
 7115SOL    HW122244   6.264   4.024   7.012
 7115SOL    HW222245   6.292   3.993   0.145
 7116SOL     OW22246   6.342   4.299   4.252
 7116SOL    HW122247   6.283   4.335   4.324
 7116SOL    HW222248   6.379   4.211   4.280
 7117SOL     OW22249   5.994   0.020   3.086
 7117SOL    HW122250   5.913   6.988   3.103
 7117SOL    HW222251   5.975   0.114   3.115
 7118SOL     OW22252   4.234   4.375   5.385
 7118SOL    HW122253   4.169   4.299   5.380
 7118SOL    HW222254   4.260   4.403   5.293
 7119SOL     OW22255   3.728   6.291   5.163
 7119SOL    HW122256   3.813   6.240   5.148
 7119SOL    HW222257   3.744   6.362   5.232
 7120SOL     OW22258   4.830   0.701   0.749
 7120SOL    HW122259   4.826   0.630   0.820
 7120SOL    HW222260   4.887   0.777   0.781
 7121SOL     OW22261   1.775   6.285   2.628
 7121SOL    HW122262   1.683   6.287   2.667
 7121SOL    HW222263   1.842   6.309   2.699
 7122SOL     OW22264   2.503   0.885   6.041
 7122SOL    HW122265   2.421   0.850   5.995
 7122SOL    HW222266   2.482   0.975   6.080
 7123SOL     OW22267   5.020   5.132   6.094
 7123SOL    HW122268   4.963   5.113   6.015
 7123SOL    HW222269   5.040   5.231   6.098
 7124SOL     OW22270   1.688   2.323   1.312
 7124SOL    HW122271   1.596   2.292   1.289
 7124SOL    HW222272   1.685   2.419   1.339
 7125SOL     OW22273   1.333   6.412   1.030
 7125SOL    HW122274   1.345   6.453   0.939
 7125SOL    HW222275   1.421   6.378   1.063
 7126SOL     OW22276   3.683   5.675   1.241
 7126SOL    HW122277   3.607   5.712   1.295
 7126SOL    HW222278   3.701   5.734   1.163
 7127SOL     OW22279   2.631   0.143   5.260
 7127SOL    HW122280   2.580   0.081   5.201
 7127SOL    HW222281   2.713   0.174   5.212
 7128SOL     OW22282   4.237   3.976   6.242
 7128SOL    HW122283   4.249   3.981   6.143
 7128SOL    HW222284   4.150   4.018   6.267
 7129SOL     OW22285   0.816   0.160   0.574
 7129SOL    HW122286   0.830   0.184   0.670
 7129SOL    HW222287   0.723   0.186   0.547
 7130SOL     OW22288   3.594   6.912   4.355
 7130SOL    HW122289   3.563   7.004   4.334
 7130SOL    HW222290   3.532   6.870   4.421
 7131SOL     OW22291   3.863   0.970   2.957
 7131SOL    HW122292   3.816   0.992   2.872
 7131SOL    HW222293   3.905   1.053   2.994
 7132SOL     OW22294   5.755   4.509   0.725
 7132SOL    HW122295   5.666   4.553   0.737
 7132SOL    HW222296   5.800   4.499   0.815
 7133SOL     OW22297   3.918   5.445   3.009
 7133SOL    HW122298   3.984   5.370   3.005
 7133SOL    HW222299   3.965   5.530   3.032
 7134SOL     OW22300   5.589   5.261   0.990
 7134SOL    HW122301   5.549   5.182   1.037
 7134SOL    HW222302   5.674   5.233   0.946
 7135SOL     OW22303   2.124   3.115   1.289
 7135SOL    HW122304   2.118   3.099   1.190
 7135SOL    HW222305   2.218   3.100   1.320
 7136SOL     OW22306   1.973   1.775   1.919
 7136SOL    HW122307   2.033   1.724   1.980
 7136SOL    HW222308   2.008   1.773   1.826
 7137SOL     OW22309   2.574   2.456   1.444
 7137SOL    HW122310   2.672   2.434   1.438
 7137SOL    HW222311   2.535   2.459   1.352
 7138SOL     OW22312   0.933   2.288   0.899
 7138SOL    HW122313   0.900   2.232   0.823
 7138SOL    HW222314   1.007   2.240   0.946
 7139SOL     OW22315   6.444   6.089   1.143
 7139SOL    HW122316   6.479   5.999   1.116
 7139SOL    HW222317   6.398   6.081   1.232
 7140SOL     OW22318   6.706   3.200   0.248
 7140SOL    HW122319   6.645   3.216   0.325
 7140SOL    HW222320   6.775   3.273   0.244
 7141SOL     OW22321   3.619   0.567   1.163
 7141SOL    HW122322   3.548   0.526   1.107
 7141SOL    HW222323   3.707   0.523   1.144
 7142SOL     OW22324   3.309   0.135   4.970
 7142SOL    HW122325   3.333   0.226   4.937
 7142SOL    HW222326   3.390   0.092   5.010
 7143SOL     OW22327   2.990   4.411   6.719
 7143SOL    HW122328   2.894   4.389   6.705
 7143SOL    HW222329   3.042   4.382   6.638
 7144SOL     OW22330   6.757   0.501   5.381
 7144SOL    HW122331   6.724   0.441   5.454
 7144SOL    HW222332   6.747   0.456   5.293
 7145SOL     OW22333   4.981   2.196   6.335
 7145SOL    HW122334   5.010   2.127   6.269
 7145SOL    HW222335   5.053   2.266   6.343
 7146SOL     OW22336   1.742   1.802   5.471
 7146SOL    HW122337   1.693   1.791   5.385
 7146SOL    HW222338   1.825   1.746   5.471
 7147SOL     OW22339   6.067   6.370   1.949
 7147SOL    HW122340   6.134   6.313   1.997
 7147SOL    HW222341   6.102   6.464   1.945
 7148SOL     OW22342   6.632   6.871   1.035
 7148SOL    HW122343   6.538   6.844   1.012
 7148SOL    HW222344   6.693   6.849   0.959
 7149SOL     OW22345   6.184   4.749   5.292
 7149SOL    HW122346   6.267   4.699   5.319
 7149SOL    HW222347   6.104   4.693   5.310
 7150SOL     OW22348   3.711   3.322   6.899
 7150SOL    HW122349   3.652   3.396   6.869
 7150SOL    HW222350   3.802   3.333   6.860
 7151SOL     OW22351   3.722   1.005   1.187
 7151SOL    HW122352   3.736   0.925   1.129
 7151SOL    HW222353   3.786   1.002   1.264
 7152SOL     OW22354   6.211   1.468   6.075
 7152SOL    HW122355   6.112   1.465   6.060
 7152SOL    HW222356   6.236   1.554   6.118
 7153SOL     OW22357   3.674   6.271   1.271
 7153SOL    HW122358   3.711   6.362   1.290
 7153SOL    HW222359   3.674   6.218   1.356
 7154SOL     OW22360   4.107   1.950   2.050
 7154SOL    HW122361   4.008   1.958   2.061
 7154SOL    HW222362   4.147   2.042   2.045
 7155SOL     OW22363   2.956   1.345   1.925
 7155SOL    HW122364   3.040   1.364   1.975
 7155SOL    HW222365   2.892   1.421   1.938
 7156SOL     OW22366   5.954   3.706   6.632
 7156SOL    HW122367   5.974   3.792   6.585
 7156SOL    HW222368   5.915   3.725   6.722
 7157SOL     OW22369   6.356   4.820   6.642
 7157SOL    HW122370   6.429   4.754   6.658
 7157SOL    HW222371   6.347   4.837   6.544
 7158SOL     OW22372   4.352   6.624   4.018
 7158SOL    HW122373   4.392   6.599   3.930
 7158SOL    HW222374   4.254   6.637   4.008
 7159SOL     OW22375   1.074   6.198   3.084
 7159SOL    HW122376   1.036   6.253   3.009
 7159SOL    HW222377   1.128   6.123   3.047
 7160SOL     OW22378   6.885   0.024   3.432
 7160SOL    HW122379   6.819   0.058   3.500
 7160SOL    HW222380   6.915   6.957   3.458
 7161SOL     OW22381   4.141   3.617   3.358
 7161SOL    HW122382   4.219   3.609   3.420
 7161SOL    HW222383   4.056   3.616   3.411
 7162SOL     OW22384   0.405   6.058   1.323
 7162SOL    HW122385   0.447   5.968   1.315
 7162SOL    HW222386   0.305   6.048   1.329
 7163SOL     OW22387   0.399   1.554   2.662
 7163SOL    HW122388   0.463   1.597   2.726
 7163SOL    HW222389   0.331   1.621   2.633
 7164SOL     OW22390   2.063   0.911   6.490
 7164SOL    HW122391   2.154   0.929   6.451
 7164SOL    HW222392   2.004   0.990   6.475
 7165SOL     OW22393   5.814   1.244   0.289
 7165SOL    HW122394   5.846   1.226   0.382
 7165SOL    HW222395   5.715   1.256   0.289
 7166SOL     OW22396   6.085   6.429   5.992
 7166SOL    HW122397   6.169   6.380   6.014
 7166SOL    HW222398   6.032   6.377   5.925
 7167SOL     OW22399   5.882   2.248   4.848
 7167SOL    HW122400   5.829   2.204   4.775
 7167SOL    HW222401   5.933   2.325   4.809
 7168SOL     OW22402   2.612   1.396   1.938
 7168SOL    HW122403   2.611   1.474   1.876
 7168SOL    HW222404   2.593   1.312   1.887
 7169SOL     OW22405   1.514   3.805   6.658
 7169SOL    HW122406   1.562   3.781   6.574
 7169SOL    HW222407   1.574   3.861   6.716
 7170SOL     OW22408   3.727   1.329   0.638
 7170SOL    HW122409   3.734   1.388   0.719
 7170SOL    HW222410   3.705   1.385   0.558
 7171SOL     OW22411   6.873   4.420   0.919
 7171SOL    HW122412   6.835   4.506   0.884
 7171SOL    HW222413   6.812   4.381   0.987
 7172SOL     OW22414   1.615   1.582   4.129
 7172SOL    HW122415   1.540   1.532   4.087
 7172SOL    HW222416   1.696   1.524   4.133
 7173SOL     OW22417   4.834   5.764   6.168
 7173SOL    HW122418   4.802   5.763   6.073
 7173SOL    HW222419   4.863   5.856   6.193
 7174SOL     OW22420   6.538   4.265   2.066
 7174SOL    HW122421   6.588   4.339   2.021
 7174SOL    HW222422   6.549   4.273   2.165
 7175SOL     OW22423   5.734   3.492   6.765
 7175SOL    HW122424   5.812   3.512   6.824
 7175SOL    HW222425   5.676   3.422   6.808
 7176SOL     OW22426   0.764   0.669   5.687
 7176SOL    HW122427   0.671   0.634   5.677
 7176SOL    HW222428   0.826   0.592   5.705
 7177SOL     OW22429   1.700   5.298   3.715
 7177SOL    HW122430   1.763   5.353   3.661
 7177SOL    HW222431   1.710   5.201   3.690
 7178SOL     OW22432   1.603   0.619   5.063
 7178SOL    HW122433   1.524   0.588   5.115
 7178SOL    HW222434   1.573   0.681   4.991
 7179SOL     OW22435   3.479   5.863   6.278
 7179SOL    HW122436   3.514   5.870   6.371
 7179SOL    HW222437   3.508   5.942   6.225
 7180SOL     OW22438   1.581   4.171   1.495
 7180SOL    HW122439   1.676   4.197   1.483
 7180SOL    HW222440   1.561   4.163   1.593
 7181SOL     OW22441   2.643   1.778   5.742
 7181SOL    HW122442   2.642   1.873   5.772
 7181SOL    HW222443   2.559   1.759   5.690
 7182SOL     OW22444   1.393   1.859   4.794
 7182SOL    HW122445   1.437   1.783   4.841
 7182SOL    HW222446   1.393   1.841   4.695
 7183SOL     OW22447   0.913   6.795   1.785
 7183SOL    HW122448   1.002   6.834   1.808
 7183SOL    HW222449   0.897   6.805   1.686
 7184SOL     OW22450   6.203   6.928   3.915
 7184SOL    HW122451   6.211   6.828   3.915
 7184SOL    HW222452   6.107   6.953   3.902
 7185SOL     OW22453   4.166   1.218   4.193
 7185SOL    HW122454   4.207   1.253   4.109
 7185SOL    HW222455   4.236   1.209   4.264
 7186SOL     OW22456   0.504   0.078   6.762
 7186SOL    HW122457   0.601   0.103   6.763
 7186SOL    HW222458   0.464   0.102   6.673
 7187SOL     OW22459   3.096   3.072   3.896
 7187SOL    HW122460   3.065   3.168   3.894
 7187SOL    HW222461   3.108   3.039   3.803
 7188SOL     OW22462   3.574   4.116   6.855
 7188SOL    HW122463   3.621   4.043   6.807
 7188SOL    HW222464   3.526   4.078   6.935
 7189SOL     OW22465   6.170   2.532   5.750
 7189SOL    HW122466   6.210   2.586   5.825
 7189SOL    HW222467   6.161   2.590   5.669
 7190SOL     OW22468   6.153   5.600   1.494
 7190SOL    HW122469   6.167   5.689   1.536
 7190SOL    HW222470   6.075   5.554   1.537
 7191SOL     OW22471   0.264   4.777   4.017
 7191SOL    HW122472   0.326   4.698   4.012
 7191SOL    HW222473   0.239   4.806   3.925
 7192SOL     OW22474   1.957   4.465   6.752
 7192SOL    HW122475   1.951   4.439   6.655
 7192SOL    HW222476   1.938   4.563   6.762
 7193SOL     OW22477   2.547   2.222   2.502
 7193SOL    HW122478   2.494   2.147   2.543
 7193SOL    HW222479   2.557   2.206   2.404
 7194SOL     OW22480   2.942   2.871   6.390
 7194SOL    HW122481   2.930   2.948   6.326
 7194SOL    HW222482   3.039   2.863   6.415
 7195SOL     OW22483   0.084   4.057   5.505
 7195SOL    HW122484   0.127   3.981   5.457
 7195SOL    HW222485   0.120   4.062   5.599
 7196SOL     OW22486   3.366   4.088   1.758
 7196SOL    HW122487   3.414   4.109   1.844
 7196SOL    HW222488   3.433   4.080   1.684
 7197SOL     OW22489   2.469   3.768   5.630
 7197SOL    HW122490   2.472   3.698   5.559
 7197SOL    HW222491   2.377   3.807   5.635
 7198SOL     OW22492   0.377   0.130   1.854
 7198SOL    HW122493   0.396   0.159   1.760
 7198SOL    HW222494   0.280   0.108   1.863
 7199SOL     OW22495   0.270   1.043   2.469
 7199SOL    HW122496   0.181   1.057   2.512
 7199SOL    HW222497   0.306   1.130   2.437
 7200SOL     OW22498   0.865   2.423   1.142
 7200SOL    HW122499   0.787   2.392   1.087
 7200SOL    HW222500   0.939   2.452   1.081
 7201SOL     OW22501   5.476   5.286   3.890
 7201SOL    HW122502   5.496   5.204   3.837
 7201SOL    HW222503   5.378   5.293   3.906
 7202SOL     OW22504   4.887   0.434   5.619
 7202SOL    HW122505   4.804   0.491   5.622
 7202SOL    HW222506   4.863   0.338   5.631
 7203SOL     OW22507   0.555   1.822   1.201
 7203SOL    HW122508   0.547   1.793   1.296
 7203SOL    HW222509   0.646   1.859   1.185
 7204SOL     OW22510   6.523   0.253   1.330
 7204SOL    HW122511   6.554   0.346   1.348
 7204SOL    HW222512   6.573   0.189   1.389
 7205SOL     OW22513   2.966   1.842   4.513
 7205SOL    HW122514   2.879   1.815   4.471
 7205SOL    HW222515   2.988   1.779   4.587
 7206SOL     OW22516   1.769   3.312   0.644
 7206SOL    HW122517   1.860   3.340   0.674
 7206SOL    HW222518   1.771   3.293   0.546
 7207SOL     OW22519   1.776   1.439   4.324
 7207SOL    HW122520   1.779   1.530   4.367
 7207SOL    HW222521   1.831   1.441   4.241
 7208SOL     OW22522   2.945   0.352   4.007
 7208SOL    HW122523   2.884   0.384   3.934
 7208SOL    HW222524   2.890   0.313   4.081
 7209SOL     OW22525   2.737   1.893   2.373
 7209SOL    HW122526   2.789   1.913   2.455
 7209SOL    HW222527   2.650   1.850   2.398
 7210SOL     OW22528   2.970   1.212   3.318
 7210SOL    HW122529   3.039   1.189   3.250
 7210SOL    HW222530   2.952   1.133   3.376
 7211SOL     OW22531   3.223   5.507   5.023
 7211SOL    HW122532   3.289   5.531   5.094
 7211SOL    HW222533   3.143   5.464   5.065
 7212SOL     OW22534   6.571   4.150   6.231
 7212SOL    HW122535   6.666   4.142   6.259
 7212SOL    HW222536   6.520   4.070   6.262
 7213SOL     OW22537   4.051   1.617   0.446
 7213SOL    HW122538   3.971   1.638   0.503
 7213SOL    HW222539   4.128   1.673   0.475
 7214SOL     OW22540   0.073   0.809   6.410
 7214SOL    HW122541   0.124   0.877   6.463
 7214SOL    HW222542   0.015   0.856   6.343
 7215SOL     OW22543   0.046   2.999   2.579
 7215SOL    HW122544   0.053   2.998   2.479
 7215SOL    HW222545   0.105   2.928   2.617
 7216SOL     OW22546   3.386   6.079   2.623
 7216SOL    HW122547   3.348   6.028   2.701
 7216SOL    HW222548   3.311   6.124   2.573
 7217SOL     OW22549   1.209   3.736   3.731
 7217SOL    HW122550   1.188   3.830   3.702
 7217SOL    HW222551   1.306   3.729   3.752
 7218SOL     OW22552   6.477   4.549   4.657
 7218SOL    HW122553   6.386   4.583   4.631
 7218SOL    HW222554   6.468   4.482   4.731
 7219SOL     OW22555   3.501   5.972   2.255
 7219SOL    HW122556   3.550   6.059   2.256
 7219SOL    HW222557   3.509   5.931   2.164
 7220SOL     OW22558   5.624   4.575   4.732
 7220SOL    HW122559   5.710   4.582   4.681
 7220SOL    HW222560   5.548   4.607   4.674
 7221SOL     OW22561   3.682   5.774   4.327
 7221SOL    HW122562   3.649   5.783   4.421
 7221SOL    HW222563   3.674   5.678   4.299
 7222SOL     OW22564   0.236   6.443   4.319
 7222SOL    HW122565   0.225   6.542   4.330
 7222SOL    HW222566   0.221   6.399   4.407
 7223SOL     OW22567   0.452   2.713   1.535
 7223SOL    HW122568   0.404   2.669   1.459
 7223SOL    HW222569   0.550   2.717   1.515
 7224SOL     OW22570   3.761   2.160   3.387
 7224SOL    HW122571   3.744   2.157   3.485
 7224SOL    HW222572   3.685   2.117   3.338
 7225SOL     OW22573   1.275   0.334   0.844
 7225SOL    HW122574   1.365   0.344   0.887
 7225SOL    HW222575   1.244   0.240   0.855
 7226SOL     OW22576   6.435   6.481   0.862
 7226SOL    HW122577   6.468   6.527   0.780
 7226SOL    HW222578   6.505   6.418   0.895
 7227SOL     OW22579   2.546   1.128   1.908
 7227SOL    HW122580   2.557   1.117   2.006
 7227SOL    HW222581   2.451   1.152   1.888
 7228SOL     OW22582   0.256   3.792   1.959
 7228SOL    HW122583   0.218   3.848   2.032
 7228SOL    HW222584   0.204   3.708   1.950
 7229SOL     OW22585   0.260   0.177   4.711
 7229SOL    HW122586   0.206   0.229   4.777
 7229SOL    HW222587   0.220   0.087   4.698
 7230SOL     OW22588   2.177   5.081   4.401
 7230SOL    HW122589   2.217   4.990   4.398
 7230SOL    HW222590   2.131   5.095   4.489
 7231SOL     OW22591   4.647   1.138   6.195
 7231SOL    HW122592   4.674   1.205   6.264
 7231SOL    HW222593   4.647   1.046   6.236
 7232SOL     OW22594   5.986   6.825   2.835
 7232SOL    HW122595   5.981   6.906   2.894
 7232SOL    HW222596   5.897   6.808   2.794
 7233SOL     OW22597   6.431   1.176   5.133
 7233SOL    HW122598   6.480   1.262   5.121
 7233SOL    HW222599   6.457   1.112   5.060
 7234SOL     OW22600   5.107   3.864   2.614
 7234SOL    HW122601   5.122   3.941   2.553
 7234SOL    HW222602   5.193   3.838   2.658
 7235SOL     OW22603   0.520   6.251   1.129
 7235SOL    HW122604   0.425   6.275   1.111
 7235SOL    HW222605   0.525   6.155   1.155
 7236SOL     OW22606   2.441   2.717   3.581
 7236SOL    HW122607   2.497   2.638   3.606
 7236SOL    HW222608   2.405   2.760   3.663
 7237SOL     OW22609   5.370   0.805   0.266
 7237SOL    HW122610   5.288   0.852   0.298
 7237SOL    HW222611   5.345   0.715   0.229
 7238SOL     OW22612   4.425   3.118   0.583
 7238SOL    HW122613   4.447   3.158   0.672
 7238SOL    HW222614   4.408   3.191   0.516
 7239SOL     OW22615   0.649   3.064   2.373
 7239SOL    HW122616   0.608   3.109   2.294
 7239SOL    HW222617   0.695   2.980   2.343
 7240SOL     OW22618   6.955   1.870   5.863
 7240SOL    HW122619   6.979   1.967   5.854
 7240SOL    HW222620   6.982   1.820   5.781
 7241SOL     OW22621   2.654   2.002   2.122
 7241SOL    HW122622   2.718   1.971   2.192
 7241SOL    HW222623   2.584   2.060   2.164
 7242SOL     OW22624   6.642   5.328   4.994
 7242SOL    HW122625   6.723   5.271   5.007
 7242SOL    HW222626   6.668   5.413   4.948
 7243SOL     OW22627   6.294   3.772   6.559
 7243SOL    HW122628   6.289   3.674   6.539
 7243SOL    HW222629   6.332   3.785   6.651
 7244SOL     OW22630   6.966   6.504   6.635
 7244SOL    HW122631   6.960   6.596   6.673
 7244SOL    HW222632   6.968   6.437   6.709
 7245SOL     OW22633   1.493   2.784   6.664
 7245SOL    HW122634   1.401   2.746   6.660
 7245SOL    HW222635   1.555   2.726   6.610
 7246SOL     OW22636   3.126   0.162   3.960
 7246SOL    HW122637   3.211   0.193   4.002
 7246SOL    HW222638   3.054   0.229   3.976
 7247SOL     OW22639   2.096   2.614   5.328
 7247SOL    HW122640   2.034   2.692   5.319
 7247SOL    HW222641   2.053   2.544   5.385
 7248SOL     OW22642   3.484   0.819   4.522
 7248SOL    HW122643   3.440   0.739   4.564
 7248SOL    HW222644   3.446   0.902   4.562
 7249SOL     OW22645   3.858   5.190   1.585
 7249SOL    HW122646   3.869   5.154   1.678
 7249SOL    HW222647   3.782   5.143   1.540
 7250SOL     OW22648   5.163   5.821   5.334
 7250SOL    HW122649   5.085   5.807   5.395
 7250SOL    HW222650   5.131   5.854   5.245
 7251SOL     OW22651   0.500   6.173   5.704
 7251SOL    HW122652   0.442   6.097   5.734
 7251SOL    HW222653   0.589   6.138   5.676
 7252SOL     OW22654   3.013   3.743   2.062
 7252SOL    HW122655   3.108   3.774   2.058
 7252SOL    HW222656   2.973   3.743   1.970
 7253SOL     OW22657   1.390   5.528   5.358
 7253SOL    HW122658   1.476   5.485   5.331
 7253SOL    HW222659   1.319   5.506   5.291
 7254SOL     OW22660   4.996   4.120   3.968
 7254SOL    HW122661   4.937   4.086   4.041
 7254SOL    HW222662   5.011   4.047   3.901
 7255SOL     OW22663   5.253   3.083   6.649
 7255SOL    HW122664   5.235   3.174   6.613
 7255SOL    HW222665   5.237   3.014   6.578
 7256SOL     OW22666   3.203   6.463   6.476
 7256SOL    HW122667   3.282   6.519   6.501
 7256SOL    HW222668   3.174   6.485   6.383
 7257SOL     OW22669   0.578   0.963   4.442
 7257SOL    HW122670   0.494   1.006   4.475
 7257SOL    HW222671   0.624   1.025   4.379
 7258SOL     OW22672   5.734   2.102   2.948
 7258SOL    HW122673   5.638   2.096   2.975
 7258SOL    HW222674   5.763   2.014   2.910
 7259SOL     OW22675   0.706   4.005   3.063
 7259SOL    HW122676   0.805   4.006   3.054
 7259SOL    HW222677   0.666   3.956   2.985
 7260SOL     OW22678   5.344   2.844   0.461
 7260SOL    HW122679   5.319   2.874   0.369
 7260SOL    HW222680   5.313   2.750   0.475
 7261SOL     OW22681   0.235   4.199   0.410
 7261SOL    HW122682   0.280   4.138   0.344
 7261SOL    HW222683   0.149   4.233   0.371
 7262SOL     OW22684   5.760   2.164   6.013
 7262SOL    HW122685   5.806   2.253   6.004
 7262SOL    HW222686   5.714   2.141   5.927
 7263SOL     OW22687   0.727   5.431   0.156
 7263SOL    HW122688   0.777   5.435   0.242
 7263SOL    HW222689   0.641   5.481   0.166
 7264SOL     OW22690   5.545   1.108   0.259
 7264SOL    HW122691   5.578   1.016   0.240
 7264SOL    HW222692   5.490   1.108   0.343
 7265SOL     OW22693   4.144   5.761   5.417
 7265SOL    HW122694   4.148   5.662   5.411
 7265SOL    HW222695   4.176   5.801   5.332
 7266SOL     OW22696   6.955   0.170   3.856
 7266SOL    HW122697   6.876   0.226   3.831
 7266SOL    HW222698   6.972   0.177   3.954
 7267SOL     OW22699   6.143   5.400   5.061
 7267SOL    HW122700   6.205   5.392   5.140
 7267SOL    HW222701   6.194   5.379   4.977
 7268SOL     OW22702   6.278   6.081   4.350
 7268SOL    HW122703   6.346   6.048   4.416
 7268SOL    HW222704   6.204   6.015   4.342
 7269SOL     OW22705   2.572   5.064   5.552
 7269SOL    HW122706   2.546   5.139   5.492
 7269SOL    HW222707   2.529   5.076   5.641
 7270SOL     OW22708   0.800   1.631   4.098
 7270SOL    HW122709   0.775   1.549   4.150
 7270SOL    HW222710   0.718   1.687   4.083
 7271SOL     OW22711   0.722   4.428   3.492
 7271SOL    HW122712   0.736   4.432   3.393
 7271SOL    HW222713   0.675   4.510   3.522
 7272SOL     OW22714   6.041   5.811   2.267
 7272SOL    HW122715   6.039   5.866   2.351
 7272SOL    HW222716   6.030   5.714   2.290
 7273SOL     OW22717   6.976   2.691   5.538
 7273SOL    HW122718   6.931   2.717   5.452
 7273SOL    HW222719   6.949   2.753   5.611
 7274SOL     OW22720   0.591   4.453   0.414
 7274SOL    HW122721   0.503   4.479   0.453
 7274SOL    HW222722   0.606   4.355   0.429
 7275SOL     OW22723   6.469   0.465   2.822
 7275SOL    HW122724   6.565   0.484   2.802
 7275SOL    HW222725   6.426   0.421   2.743
 7276SOL     OW22726   4.507   6.610   3.753
 7276SOL    HW122727   4.584   6.550   3.774
 7276SOL    HW222728   4.539   6.688   3.700
 7277SOL     OW22729   4.438   0.306   5.670
 7277SOL    HW122730   4.356   0.249   5.667
 7277SOL    HW222731   4.489   0.295   5.585
 7278SOL     OW22732   3.373   4.038   2.260
 7278SOL    HW122733   3.442   4.076   2.321
 7278SOL    HW222734   3.286   4.031   2.308
 7279SOL     OW22735   3.912   5.910   0.364
 7279SOL    HW122736   3.828   5.897   0.416
 7279SOL    HW222737   3.968   5.980   0.409
 7280SOL     OW22738   4.273   6.868   5.719
 7280SOL    HW122739   4.289   6.967   5.717
 7280SOL    HW222740   4.185   6.848   5.676
 7281SOL     OW22741   3.984   1.967   6.155
 7281SOL    HW122742   3.938   2.044   6.109
 7281SOL    HW222743   4.072   1.950   6.111
 7282SOL     OW22744   5.824   5.489   1.955
 7282SOL    HW122745   5.744   5.539   1.921
 7282SOL    HW222746   5.794   5.416   2.016
 7283SOL     OW22747   2.792   0.899   2.881
 7283SOL    HW122748   2.702   0.876   2.917
 7283SOL    HW222749   2.846   0.944   2.952
 7284SOL     OW22750   0.004   3.749   5.093
 7284SOL    HW122751   0.032   3.653   5.099
 7284SOL    HW222752   0.084   3.807   5.105
 7285SOL     OW22753   4.426   5.490   1.637
 7285SOL    HW122754   4.438   5.454   1.730
 7285SOL    HW222755   4.355   5.560   1.637
 7286SOL     OW22756   2.383   2.718   1.226
 7286SOL    HW122757   2.423   2.627   1.226
 7286SOL    HW222758   2.432   2.777   1.290
 7287SOL     OW22759   6.257   1.140   6.619
 7287SOL    HW122760   6.264   1.098   6.709
 7287SOL    HW222761   6.206   1.080   6.558
 7288SOL     OW22762   4.147   0.213   6.528
 7288SOL    HW122763   4.060   0.257   6.506
 7288SOL    HW222764   4.129   0.129   6.579
 7289SOL     OW22765   5.668   1.871   3.181
 7289SOL    HW122766   5.583   1.865   3.129
 7289SOL    HW222767   5.700   1.779   3.204
 7290SOL     OW22768   2.503   5.288   5.379
 7290SOL    HW122769   2.596   5.291   5.342
 7290SOL    HW222770   2.446   5.232   5.320
 7291SOL     OW22771   2.308   6.792   1.321
 7291SOL    HW122772   2.367   6.818   1.245
 7291SOL    HW222773   2.291   6.693   1.318
 7292SOL     OW22774   2.988   6.740   3.109
 7292SOL    HW122775   3.041   6.805   3.055
 7292SOL    HW222776   3.029   6.729   3.199
 7293SOL     OW22777   1.475   1.661   4.959
 7293SOL    HW122778   1.401   1.595   4.965
 7293SOL    HW222779   1.553   1.620   4.910
 7294SOL     OW22780   2.671   5.178   0.137
 7294SOL    HW122781   2.631   5.208   0.224
 7294SOL    HW222782   2.665   5.079   0.129
 7295SOL     OW22783   0.599   2.236   0.370
 7295SOL    HW122784   0.607   2.136   0.376
 7295SOL    HW222785   0.547   2.270   0.448
 7296SOL     OW22786   3.072   4.888   0.694
 7296SOL    HW122787   3.170   4.910   0.697
 7296SOL    HW222788   3.051   4.825   0.769
 7297SOL     OW22789   3.997   6.306   0.677
 7297SOL    HW122790   4.050   6.280   0.757
 7297SOL    HW222791   4.008   6.404   0.659
 7298SOL     OW22792   5.548   3.849   4.525
 7298SOL    HW122793   5.581   3.874   4.434
 7298SOL    HW222794   5.543   3.931   4.582
 7299SOL     OW22795   6.559   2.440   0.598
 7299SOL    HW122796   6.539   2.447   0.500
 7299SOL    HW222797   6.527   2.523   0.645
 7300SOL     OW22798   4.879   6.224   0.862
 7300SOL    HW122799   4.907   6.144   0.809
 7300SOL    HW222800   4.820   6.283   0.806
 7301SOL     OW22801   0.037   0.136   5.976
 7301SOL    HW122802   0.038   0.235   5.996
 7301SOL    HW222803   6.967   0.105   5.969
 7302SOL     OW22804   0.175   1.437   0.057
 7302SOL    HW122805   0.105   1.508   0.065
 7302SOL    HW222806   0.220   1.443   6.993
 7303SOL     OW22807   3.843   0.120   6.870
 7303SOL    HW122808   3.815   0.024   6.874
 7303SOL    HW222809   3.849   0.157   6.963
 7304SOL     OW22810   4.373   3.701   6.168
 7304SOL    HW122811   4.365   3.751   6.081
 7304SOL    HW222812   4.332   3.755   6.241
 7305SOL     OW22813   5.047   2.040   0.113
 7305SOL    HW122814   5.010   2.044   0.206
 7305SOL    HW222815   5.053   1.945   0.083
 7306SOL     OW22816   4.873   4.167   1.407
 7306SOL    HW122817   4.851   4.195   1.500
 7306SOL    HW222818   4.828   4.228   1.342
 7307SOL     OW22819   3.039   6.679   1.581
 7307SOL    HW122820   3.123   6.716   1.620
 7307SOL    HW222821   3.041   6.580   1.583
 7308SOL     OW22822   6.583   3.671   4.301
 7308SOL    HW122823   6.579   3.672   4.201
 7308SOL    HW222824   6.670   3.631   4.330
 7309SOL     OW22825   5.193   6.271   0.575
 7309SOL    HW122826   5.137   6.211   0.518
 7309SOL    HW222827   5.287   6.273   0.541
 7310SOL     OW22828   2.219   5.505   1.387
 7310SOL    HW122829   2.253   5.559   1.309
 7310SOL    HW222830   2.184   5.418   1.354
 7311SOL     OW22831   2.720   2.160   1.922
 7311SOL    HW122832   2.693   2.087   1.985
 7311SOL    HW222833   2.795   2.212   1.962
 7312SOL     OW22834   0.079   1.953   5.516
 7312SOL    HW122835   0.074   1.942   5.416
 7312SOL    HW222836   0.173   1.978   5.541
 7313SOL     OW22837   4.345   2.482   6.357
 7313SOL    HW122838   4.399   2.466   6.440
 7313SOL    HW222839   4.371   2.570   6.317
 7314SOL     OW22840   6.522   3.770   5.060
 7314SOL    HW122841   6.501   3.859   5.017
 7314SOL    HW222842   6.440   3.736   5.106
 7315SOL     OW22843   5.743   6.959   3.962
 7315SOL    HW122844   5.663   6.981   3.906
 7315SOL    HW222845   5.812   0.007   3.952
 7316SOL     OW22846   3.628   3.000   5.535
 7316SOL    HW122847   3.625   3.075   5.468
 7316SOL    HW222848   3.700   3.020   5.602
 7317SOL     OW22849   4.130   0.880   2.332
 7317SOL    HW122850   4.035   0.903   2.352
 7317SOL    HW222851   4.177   0.961   2.297
 7318SOL     OW22852   0.833   1.539   1.659
 7318SOL    HW122853   0.933   1.547   1.660
 7318SOL    HW222854   0.793   1.625   1.691
 7319SOL     OW22855   6.239   4.380   6.981
 7319SOL    HW122856   6.150   4.410   7.013
 7319SOL    HW222857   6.235   4.283   6.956
 7320SOL     OW22858   0.240   3.587   2.241
 7320SOL    HW122859   0.223   3.610   2.337
 7320SOL    HW222860   0.163   3.535   2.205
 7321SOL     OW22861   2.317   1.241   4.893
 7321SOL    HW122862   2.366   1.313   4.845
 7321SOL    HW222863   2.221   1.239   4.864
 7322SOL     OW22864   1.291   3.846   3.332
 7322SOL    HW122865   1.305   3.937   3.370
 7322SOL    HW222866   1.200   3.841   3.289
 7323SOL     OW22867   1.743   2.289   3.453
 7323SOL    HW122868   1.704   2.213   3.401
 7323SOL    HW222869   1.835   2.307   3.421
 7324SOL     OW22870   5.518   0.637   3.419
 7324SOL    HW122871   5.548   0.542   3.411
 7324SOL    HW222872   5.561   0.692   3.348
 7325SOL     OW22873   4.319   6.456   6.235
 7325SOL    HW122874   4.381   6.379   6.223
 7325SOL    HW222875   4.241   6.428   6.291
 7326SOL     OW22876   2.426   6.287   5.494
 7326SOL    HW122877   2.361   6.213   5.474
 7326SOL    HW222878   2.419   6.312   5.590
 7327SOL     OW22879   0.726   2.969   5.736
 7327SOL    HW122880   0.778   2.902   5.684
 7327SOL    HW222881   0.675   3.028   5.674
 7328SOL     OW22882   3.053   0.450   0.173
 7328SOL    HW122883   3.116   0.418   0.102
 7328SOL    HW222884   3.095   0.438   0.263
 7329SOL     OW22885   4.342   3.483   0.986
 7329SOL    HW122886   4.307   3.576   0.976
 7329SOL    HW222887   4.383   3.472   1.077
 7330SOL     OW22888   3.272   1.920   6.888
 7330SOL    HW122889   3.260   1.823   6.909
 7330SOL    HW222890   3.251   1.974   6.970
 7331SOL     OW22891   5.367   1.136   1.993
 7331SOL    HW122892   5.450   1.162   2.042
 7331SOL    HW222893   5.329   1.052   2.034
 7332SOL     OW22894   2.461   6.316   6.966
 7332SOL    HW122895   2.553   6.354   6.955
 7332SOL    HW222896   2.466   6.235   0.000
 7333SOL     OW22897   0.844   4.822   3.410
 7333SOL    HW122898   0.916   4.885   3.438
 7333SOL    HW222899   0.851   4.805   3.312
 7334SOL     OW22900   3.700   5.594   5.380
 7334SOL    HW122901   3.725   5.679   5.426
 7334SOL    HW222902   3.704   5.607   5.281
 7335SOL     OW22903   1.495   2.604   2.645
 7335SOL    HW122904   1.563   2.636   2.711
 7335SOL    HW222905   1.489   2.669   2.570
 7336SOL     OW22906   1.804   5.961   3.996
 7336SOL    HW122907   1.849   6.048   4.014
 7336SOL    HW222908   1.872   5.890   3.979
 7337SOL     OW22909   1.502   2.940   2.109
 7337SOL    HW122910   1.464   2.900   2.026
 7337SOL    HW222911   1.599   2.917   2.116
 7338SOL     OW22912   6.680   2.557   1.771
 7338SOL    HW122913   6.605   2.622   1.779
 7338SOL    HW222914   6.741   2.586   1.697
 7339SOL     OW22915   6.317   6.068   4.074
 7339SOL    HW122916   6.302   6.097   4.169
 7339SOL    HW222917   6.303   5.970   4.066
 7340SOL     OW22918   2.409   0.311   7.012
 7340SOL    HW122919   2.415   0.333   6.915
 7340SOL    HW222920   2.363   0.386   0.036
 7341SOL     OW22921   6.301   2.222   0.387
 7341SOL    HW122922   6.359   2.184   0.459
 7341SOL    HW222923   6.326   2.181   0.299
 7342SOL     OW22924   6.409   6.666   2.845
 7342SOL    HW122925   6.451   6.629   2.928
 7342SOL    HW222926   6.421   6.765   2.844
 7343SOL     OW22927   4.908   2.322   0.331
 7343SOL    HW122928   4.861   2.239   0.360
 7343SOL    HW222929   4.990   2.335   0.386
 7344SOL     OW22930   1.108   6.134   6.025
 7344SOL    HW122931   1.207   6.135   6.016
 7344SOL    HW222932   1.071   6.226   6.007
 7345SOL     OW22933   3.781   3.069   5.744
 7345SOL    HW122934   3.754   3.135   5.815
 7345SOL    HW222935   3.787   2.978   5.784
 7346SOL     OW22936   3.588   5.956   2.509
 7346SOL    HW122937   3.545   5.936   2.421
 7346SOL    HW222938   3.524   6.007   2.567
 7347SOL     OW22939   6.659   2.055   0.599
 7347SOL    HW122940   6.579   2.041   0.540
 7347SOL    HW222941   6.630   2.100   0.684
 7348SOL     OW22942   2.009   4.299   3.099
 7348SOL    HW122943   2.085   4.238   3.076
 7348SOL    HW222944   2.013   4.322   3.196
 7349SOL     OW22945   4.273   0.488   1.343
 7349SOL    HW122946   4.315   0.536   1.420
 7349SOL    HW222947   4.261   0.551   1.266
 7350SOL     OW22948   2.734   0.642   5.163
 7350SOL    HW122949   2.719   0.547   5.135
 7350SOL    HW222950   2.825   0.651   5.202
 7351SOL     OW22951   4.584   4.699   3.846
 7351SOL    HW122952   4.568   4.675   3.942
 7351SOL    HW222953   4.681   4.720   3.833
 7352SOL     OW22954   0.561   2.376   3.403
 7352SOL    HW122955   0.467   2.410   3.409
 7352SOL    HW222956   0.576   2.333   3.314
 7353SOL     OW22957   5.972   0.109   6.699
 7353SOL    HW122958   5.896   0.066   6.748
 7353SOL    HW222959   5.951   0.205   6.682
 7354SOL     OW22960   1.460   1.456   3.259
 7354SOL    HW122961   1.472   1.363   3.291
 7354SOL    HW222962   1.400   1.456   3.178
 7355SOL     OW22963   7.016   1.960   6.492
 7355SOL    HW122964   0.005   2.039   6.551
 7355SOL    HW222965   0.009   1.986   6.397
 7356SOL     OW22966   3.796   3.556   5.638
 7356SOL    HW122967   3.872   3.530   5.698
 7356SOL    HW222968   3.709   3.527   5.680
 7357SOL     OW22969   5.170   5.724   1.571
 7357SOL    HW122970   5.209   5.806   1.614
 7357SOL    HW222971   5.209   5.712   1.480
 7358SOL     OW22972   6.113   2.304   2.485
 7358SOL    HW122973   6.186   2.321   2.419
 7358SOL    HW222974   6.107   2.381   2.548
 7359SOL     OW22975   4.356   0.502   5.869
 7359SOL    HW122976   4.403   0.455   5.794
 7359SOL    HW222977   4.340   0.598   5.844
 7360SOL     OW22978   2.656   3.410   5.345
 7360SOL    HW122979   2.736   3.356   5.372
 7360SOL    HW222980   2.578   3.349   5.330
 7361SOL     OW22981   4.822   0.157   2.454
 7361SOL    HW122982   4.860   0.186   2.541
 7361SOL    HW222983   4.895   0.133   2.391
 7362SOL     OW22984   4.010   5.690   6.219
 7362SOL    HW122985   4.068   5.649   6.289
 7362SOL    HW222986   4.035   5.786   6.207
 7363SOL     OW22987   3.981   1.095   0.979
 7363SOL    HW122988   3.893   1.102   0.931
 7363SOL    HW222989   3.994   1.176   1.035
 7364SOL     OW22990   4.349   0.154   1.518
 7364SOL    HW122991   4.264   0.111   1.548
 7364SOL    HW222992   4.348   0.250   1.542
 7365SOL     OW22993   6.387   4.768   2.672
 7365SOL    HW122994   6.450   4.709   2.622
 7365SOL    HW222995   6.297   4.765   2.628
 7366SOL     OW22996   2.545   1.189   3.945
 7366SOL    HW122997   2.613   1.119   3.965
 7366SOL    HW222998   2.579   1.278   3.978
 7367SOL     OW22999   4.877   1.437   6.479
 7367SOL    HW123000   4.883   1.349   6.525
 7367SOL    HW223001   4.884   1.510   6.546
 7368SOL     OW23002   4.075   3.238   2.530
 7368SOL    HW123003   4.032   3.148   2.538
 7368SOL    HW223004   4.071   3.267   2.434
 7369SOL     OW23005   4.427   2.632   0.340
 7369SOL    HW123006   4.369   2.589   0.409
 7369SOL    HW223007   4.407   2.592   0.250
 7370SOL     OW23008   2.057   1.646   4.945
 7370SOL    HW123009   2.076   1.708   4.869
 7370SOL    HW223010   2.027   1.698   5.025
 7371SOL     OW23011   4.161   6.788   3.469
 7371SOL    HW123012   4.161   6.881   3.505
 7371SOL    HW223013   4.093   6.733   3.518
 7372SOL     OW23014   4.002   0.410   4.958
 7372SOL    HW123015   4.074   0.479   4.970
 7372SOL    HW223016   3.985   0.397   4.861
 7373SOL     OW23017   4.949   2.296   4.677
 7373SOL    HW123018   4.877   2.361   4.700
 7373SOL    HW223019   5.037   2.330   4.710
 7374SOL     OW23020   0.723   1.120   4.741
 7374SOL    HW123021   0.728   1.158   4.833
 7374SOL    HW223022   0.667   1.180   4.683
 7375SOL     OW23023   2.162   3.170   2.488
 7375SOL    HW123024   2.220   3.251   2.498
 7375SOL    HW223025   2.119   3.149   2.576
 7376SOL     OW23026   0.430   3.718   1.034
 7376SOL    HW123027   0.453   3.813   1.056
 7376SOL    HW223028   0.333   3.710   1.016
 7377SOL     OW23029   3.221   5.861   0.480
 7377SOL    HW123030   3.183   5.880   0.390
 7377SOL    HW223031   3.165   5.792   0.526
 7378SOL     OW23032   1.771   6.307   4.381
 7378SOL    HW123033   1.747   6.331   4.287
 7378SOL    HW223034   1.824   6.381   4.422
 7379SOL     OW23035   4.445   0.683   1.452
 7379SOL    HW123036   4.521   0.707   1.514
 7379SOL    HW223037   4.450   0.740   1.370
 7380SOL     OW23038   5.978   4.266   3.525
 7380SOL    HW123039   6.026   4.193   3.477
 7380SOL    HW223040   6.043   4.336   3.553
 7381SOL     OW23041   3.836   1.157   0.135
 7381SOL    HW123042   3.831   1.154   0.235
 7381SOL    HW223043   3.883   1.241   0.107
 7382SOL     OW23044   0.181   1.783   6.057
 7382SOL    HW123045   0.275   1.813   6.044
 7382SOL    HW223046   0.121   1.862   6.069
 7383SOL     OW23047   1.882   0.114   1.833
 7383SOL    HW123048   1.945   0.071   1.898
 7383SOL    HW223049   1.790   0.116   1.872
 7384SOL     OW23050   0.749   6.899   0.856
 7384SOL    HW123051   0.820   6.845   0.811
 7384SOL    HW223052   0.663   6.891   0.805
 7385SOL     OW23053   4.285   5.213   2.681
 7385SOL    HW123054   4.268   5.311   2.695
 7385SOL    HW223055   4.198   5.166   2.666
 7386SOL     OW23056   6.231   3.051   0.769
 7386SOL    HW123057   6.227   3.001   0.855
 7386SOL    HW223058   6.176   3.004   0.700
 7387SOL     OW23059   6.494   4.361   5.483
 7387SOL    HW123060   6.554   4.413   5.544
 7387SOL    HW223061   6.428   4.308   5.537
 7388SOL     OW23062   1.828   6.553   2.129
 7388SOL    HW123063   1.763   6.494   2.176
 7388SOL    HW223064   1.782   6.603   2.055
 7389SOL     OW23065   6.667   2.944   0.553
 7389SOL    HW123066   6.669   3.035   0.510
 7389SOL    HW223067   6.664   2.954   0.653
 7390SOL     OW23068   2.451   1.877   2.805
 7390SOL    HW123069   2.398   1.923   2.733
 7390SOL    HW223070   2.488   1.791   2.769
 7391SOL     OW23071   3.543   3.059   2.769
 7391SOL    HW123072   3.493   2.999   2.830
 7391SOL    HW223073   3.502   3.056   2.678
 7392SOL     OW23074   4.259   5.107   6.851
 7392SOL    HW123075   4.245   5.010   6.865
 7392SOL    HW223076   4.225   5.133   6.760
 7393SOL     OW23077   6.091   4.884   4.560
 7393SOL    HW123078   6.097   4.915   4.654
 7393SOL    HW223079   6.138   4.949   4.500
 7394SOL     OW23080   2.281   2.113   5.933
 7394SOL    HW123081   2.189   2.144   5.959
 7394SOL    HW223082   2.326   2.184   5.879
 7395SOL     OW23083   2.568   4.107   0.867
 7395SOL    HW123084   2.592   4.010   0.862
 7395SOL    HW223085   2.651   4.161   0.882
 7396SOL     OW23086   2.738   5.108   1.572
 7396SOL    HW123087   2.821   5.072   1.615
 7396SOL    HW223088   2.700   5.040   1.510
 7397SOL     OW23089   5.690   3.626   4.536
 7397SOL    HW123090   5.673   3.593   4.443
 7397SOL    HW223091   5.636   3.709   4.552
 7398SOL     OW23092   2.023   4.384   2.737
 7398SOL    HW123093   1.945   4.332   2.772
 7398SOL    HW223094   2.100   4.375   2.799
 7399SOL     OW23095   5.175   2.048   4.512
 7399SOL    HW123096   5.132   2.012   4.595
 7399SOL    HW223097   5.227   2.130   4.535
 7400SOL     OW23098   5.294   2.219   5.605
 7400SOL    HW123099   5.263   2.239   5.698
 7400SOL    HW223100   5.383   2.262   5.589
 7401SOL     OW23101   1.436   3.017   3.882
 7401SOL    HW123102   1.336   3.025   3.883
 7401SOL    HW223103   1.473   3.077   3.811
 7402SOL     OW23104   2.774   5.904   5.183
 7402SOL    HW123105   2.859   5.955   5.166
 7402SOL    HW223106   2.728   5.942   5.263
 7403SOL     OW23107   1.167   2.593   4.199
 7403SOL    HW123108   1.262   2.564   4.189
 7403SOL    HW223109   1.159   2.690   4.176
 7404SOL     OW23110   2.946   3.646   1.337
 7404SOL    HW123111   2.850   3.621   1.350
 7404SOL    HW223112   2.961   3.738   1.371
 7405SOL     OW23113   3.124   5.916   5.439
 7405SOL    HW123114   3.180   5.924   5.522
 7405SOL    HW223115   3.028   5.927   5.463
 7406SOL     OW23116   0.574   0.648   4.879
 7406SOL    HW123117   0.563   0.734   4.831
 7406SOL    HW223118   0.602   0.577   4.815
 7407SOL     OW23119   0.598   6.095   6.349
 7407SOL    HW123120   0.584   6.109   6.447
 7407SOL    HW223121   0.696   6.097   6.328
 7408SOL     OW23122   3.584   3.945   5.426
 7408SOL    HW123123   3.651   3.881   5.389
 7408SOL    HW223124   3.523   3.897   5.489
 7409SOL     OW23125   6.302   4.277   0.668
 7409SOL    HW123126   6.364   4.351   0.696
 7409SOL    HW223127   6.210   4.296   0.702
 7410SOL     OW23128   6.998   0.206   1.300
 7410SOL    HW123129   6.925   0.154   1.257
 7410SOL    HW223130   6.965   0.297   1.324
 7411SOL     OW23131   0.792   2.164   6.063
 7411SOL    HW123132   0.810   2.111   5.980
 7411SOL    HW223133   0.744   2.107   6.129
 7412SOL     OW23134   4.098   0.053   0.245
 7412SOL    HW123135   4.044   6.994   0.250
 7412SOL    HW223136   4.189   0.032   0.210
 7413SOL     OW23137   4.180   6.081   3.322
 7413SOL    HW123138   4.101   6.021   3.311
 7413SOL    HW223139   4.256   6.047   3.267
 7414SOL     OW23140   2.255   2.058   4.515
 7414SOL    HW123141   2.249   2.145   4.563
 7414SOL    HW223142   2.347   2.046   4.479
 7415SOL     OW23143   4.024   6.098   6.814
 7415SOL    HW123144   3.983   6.049   6.737
 7415SOL    HW223145   4.104   6.149   6.783
 7416SOL     OW23146   0.781   1.763   2.454
 7416SOL    HW123147   0.791   1.835   2.523
 7416SOL    HW223148   0.854   1.773   2.386
 7417SOL     OW23149   1.084   2.141   3.816
 7417SOL    HW123150   1.154   2.144   3.887
 7417SOL    HW223151   1.014   2.074   3.841
 7418SOL     OW23152   1.457   3.690   6.163
 7418SOL    HW123153   1.411   3.603   6.181
 7418SOL    HW223154   1.390   3.759   6.138
 7419SOL     OW23155   6.388   4.192   3.929
 7419SOL    HW123156   6.391   4.240   4.017
 7419SOL    HW223157   6.341   4.105   3.940
 7420SOL     OW23158   6.910   0.154   2.031
 7420SOL    HW123159   6.859   0.079   1.989
 7420SOL    HW223160   6.981   0.117   2.091
 7421SOL     OW23161   4.776   4.070   1.856
 7421SOL    HW123162   4.681   4.046   1.835
 7421SOL    HW223163   4.818   3.997   1.910
 7422SOL     OW23164   5.967   2.813   1.878
 7422SOL    HW123165   5.906   2.830   1.800
 7422SOL    HW223166   5.955   2.886   1.946
 7423SOL     OW23167   5.427   1.908   5.700
 7423SOL    HW123168   5.360   1.964   5.749
 7423SOL    HW223169   5.414   1.812   5.724
 7424SOL     OW23170   0.102   0.832   4.654
 7424SOL    HW123171   0.147   0.841   4.743
 7424SOL    HW223172   0.148   0.760   4.601
 7425SOL     OW23173   5.686   6.844   0.680
 7425SOL    HW123174   5.767   6.785   0.674
 7425SOL    HW223175   5.715   6.938   0.702
 7426SOL     OW23176   3.516   2.743   5.878
 7426SOL    HW123177   3.502   2.773   5.972
 7426SOL    HW223178   3.495   2.645   5.870
 7427SOL     OW23179   3.896   1.630   3.969
 7427SOL    HW123180   3.969   1.679   4.017
 7427SOL    HW223181   3.933   1.589   3.886
 7428SOL     OW23182   4.427   6.244   5.552
 7428SOL    HW123183   4.518   6.210   5.530
 7428SOL    HW223184   4.423   6.342   5.537
 7429SOL     OW23185   1.799   0.177   2.474
 7429SOL    HW123186   1.791   0.271   2.440
 7429SOL    HW223187   1.845   0.121   2.405
 7430SOL     OW23188   6.410   5.182   2.953
 7430SOL    HW123189   6.321   5.213   2.987
 7430SOL    HW223190   6.398   5.131   2.868
 7431SOL     OW23191   1.822   2.223   5.024
 7431SOL    HW123192   1.740   2.218   5.081
 7431SOL    HW223193   1.859   2.315   5.027
 7432SOL     OW23194   1.632   0.078   3.337
 7432SOL    HW123195   1.702   0.146   3.314
 7432SOL    HW223196   1.668   7.011   3.321
 7433SOL     OW23197   2.443   0.082   6.571
 7433SOL    HW123198   2.507   0.041   6.506
 7433SOL    HW223199   2.414   0.171   6.537
 7434SOL     OW23200   4.023   5.958   5.568
 7434SOL    HW123201   3.989   5.908   5.648
 7434SOL    HW223202   4.080   5.897   5.513
 7435SOL     OW23203   4.992   6.464   3.153
 7435SOL    HW123204   4.947   6.552   3.139
 7435SOL    HW223205   4.926   6.390   3.139
 7436SOL     OW23206   5.338   3.161   6.214
 7436SOL    HW123207   5.397   3.080   6.202
 7436SOL    HW223208   5.375   3.237   6.160
 7437SOL     OW23209   4.249   6.304   1.133
 7437SOL    HW123210   4.281   6.226   1.187
 7437SOL    HW223211   4.327   6.356   1.101
 7438SOL     OW23212   2.522   1.012   7.011
 7438SOL    HW123213   2.602   0.964   0.022
 7438SOL    HW223214   2.509   0.987   6.915
 7439SOL     OW23215   1.175   4.335   6.237
 7439SOL    HW123216   1.175   4.347   6.138
 7439SOL    HW223217   1.269   4.325   6.270
 7440SOL     OW23218   5.101   2.957   3.828
 7440SOL    HW123219   5.167   2.953   3.753
 7440SOL    HW223220   5.095   2.867   3.871
 7441SOL     OW23221   6.331   6.453   1.662
 7441SOL    HW123222   6.379   6.374   1.625
 7441SOL    HW223223   6.276   6.496   1.590
 7442SOL     OW23224   5.013   0.478   5.358
 7442SOL    HW123225   4.994   0.429   5.444
 7442SOL    HW223226   4.993   0.418   5.281
 7443SOL     OW23227   0.082   0.123   1.821
 7443SOL    HW123228   0.001   0.118   1.880
 7443SOL    HW223229   0.053   0.138   1.726
 7444SOL     OW23230   0.402   6.843   6.298
 7444SOL    HW123231   0.448   6.829   6.386
 7444SOL    HW223232   0.371   6.937   6.292
 7445SOL     OW23233   4.284   6.028   1.617
 7445SOL    HW123234   4.353   5.971   1.662
 7445SOL    HW223235   4.279   6.117   1.663
 7446SOL     OW23236   5.187   3.660   0.271
 7446SOL    HW123237   5.130   3.662   0.353
 7446SOL    HW223238   5.279   3.629   0.295
 7447SOL     OW23239   0.847   4.887   1.335
 7447SOL    HW123240   0.788   4.923   1.408
 7447SOL    HW223241   0.793   4.829   1.274
 7448SOL     OW23242   4.618   5.180   6.154
 7448SOL    HW123243   4.561   5.192   6.072
 7448SOL    HW223244   4.664   5.266   6.176
 7449SOL     OW23245   0.403   4.386   0.012
 7449SOL    HW123246   0.404   4.441   0.095
 7449SOL    HW223247   0.443   4.438   6.961
 7450SOL     OW23248   5.441   1.624   5.734
 7450SOL    HW123249   5.345   1.604   5.715
 7450SOL    HW223250   5.497   1.600   5.655
 7451SOL     OW23251   5.528   4.902   2.363
 7451SOL    HW123252   5.607   4.876   2.417
 7451SOL    HW223253   5.444   4.879   2.412
 7452SOL     OW23254   5.552   5.721   4.814
 7452SOL    HW123255   5.610   5.697   4.892
 7452SOL    HW223256   5.456   5.705   4.838
 7453SOL     OW23257   4.165   5.562   6.446
 7453SOL    HW123258   4.210   5.501   6.380
 7453SOL    HW223259   4.234   5.602   6.506
 7454SOL     OW23260   3.772   2.343   0.552
 7454SOL    HW123261   3.831   2.329   0.472
 7454SOL    HW223262   3.695   2.402   0.526
 7455SOL     OW23263   6.934   2.718   2.743
 7455SOL    HW123264   6.907   2.626   2.714
 7455SOL    HW223265   6.917   2.782   2.668
 7456SOL     OW23266   3.163   2.350   5.518
 7456SOL    HW123267   3.189   2.262   5.557
 7456SOL    HW223268   3.173   2.346   5.419
 7457SOL     OW23269   3.063   0.042   3.115
 7457SOL    HW123270   3.119   7.006   3.059
 7457SOL    HW223271   3.045   7.024   3.203
 7458SOL     OW23272   1.228   6.108   5.532
 7458SOL    HW123273   1.298   6.153   5.478
 7458SOL    HW223274   1.182   6.037   5.477
 7459SOL     OW23275   6.257   0.952   3.021
 7459SOL    HW123276   6.347   0.970   3.059
 7459SOL    HW223277   6.187   0.971   3.090
 7460SOL     OW23278   1.271   0.196   1.393
 7460SOL    HW123279   1.231   0.271   1.446
 7460SOL    HW223280   1.201   0.129   1.370
 7461SOL     OW23281   1.021   5.375   5.904
 7461SOL    HW123282   1.024   5.355   6.002
 7461SOL    HW223283   1.114   5.395   5.871
 7462SOL     OW23284   1.372   5.105   1.133
 7462SOL    HW123285   1.457   5.148   1.163
 7462SOL    HW223286   1.300   5.121   1.201
 7463SOL     OW23287   3.881   4.477   6.974
 7463SOL    HW123288   3.793   4.456   7.017
 7463SOL    HW223289   3.924   4.392   6.943
 7464SOL     OW23290   6.444   6.190   5.343
 7464SOL    HW123291   6.344   6.193   5.346
 7464SOL    HW223292   6.475   6.190   5.248
 7465SOL     OW23293   2.359   5.185   0.243
 7465SOL    HW123294   2.450   5.186   0.283
 7465SOL    HW223295   2.359   5.235   0.157
 7466SOL     OW23296   0.605   6.567   4.520
 7466SOL    HW123297   0.530   6.514   4.559
 7466SOL    HW223298   0.591   6.577   4.421
 7467SOL     OW23299   0.249   3.405   6.020
 7467SOL    HW123300   0.330   3.347   6.034
 7467SOL    HW223301   0.278   3.500   6.008
 7468SOL     OW23302   6.271   3.202   5.840
 7468SOL    HW123303   6.285   3.301   5.832
 7468SOL    HW223304   6.285   3.160   5.751
 7469SOL     OW23305   6.847   2.343   0.912
 7469SOL    HW123306   6.830   2.420   0.850
 7469SOL    HW223307   6.943   2.342   0.938
 7470SOL     OW23308   5.663   3.607   4.265
 7470SOL    HW123309   5.684   3.586   4.169
 7470SOL    HW223310   5.669   3.706   4.280
 7471SOL     OW23311   5.551   5.527   6.292
 7471SOL    HW123312   5.456   5.530   6.259
 7471SOL    HW223313   5.565   5.442   6.343
 7472SOL     OW23314   6.142   6.100   5.535
 7472SOL    HW123315   6.098   6.015   5.508
 7472SOL    HW223316   6.159   6.156   5.455
 7473SOL     OW23317   3.992   6.288   3.737
 7473SOL    HW123318   4.090   6.268   3.738
 7473SOL    HW223319   3.958   6.287   3.831
 7474SOL     OW23320   6.498   1.959   5.520
 7474SOL    HW123321   6.499   2.057   5.506
 7474SOL    HW223322   6.539   1.937   5.610
 7475SOL     OW23323   4.713   2.696   0.734
 7475SOL    HW123324   4.761   2.784   0.733
 7475SOL    HW223325   4.698   2.667   0.829
 7476SOL     OW23326   2.411   1.189   2.995
 7476SOL    HW123327   2.382   1.257   3.063
 7476SOL    HW223328   2.341   1.181   2.924
 7477SOL     OW23329   1.068   4.171   5.594
 7477SOL    HW123330   1.147   4.222   5.559
 7477SOL    HW223331   1.002   4.235   5.634
 7478SOL     OW23332   0.504   1.659   5.192
 7478SOL    HW123333   0.556   1.583   5.230
 7478SOL    HW223334   0.497   1.649   5.093
 7479SOL     OW23335   6.271   3.140   6.752
 7479SOL    HW123336   6.271   3.046   6.788
 7479SOL    HW223337   6.188   3.187   6.782
 7480SOL     OW23338   3.568   5.089   2.363
 7480SOL    HW123339   3.616   5.009   2.400
 7480SOL    HW223340   3.494   5.059   2.303
 7481SOL     OW23341   0.138   4.074   6.777
 7481SOL    HW123342   0.226   4.026   6.775
 7481SOL    HW223343   0.141   4.152   6.714
 7482SOL     OW23344   4.052   2.096   2.537
 7482SOL    HW123345   3.964   2.049   2.524
 7482SOL    HW223346   4.075   2.146   2.454
 7483SOL     OW23347   4.344   2.343   5.933
 7483SOL    HW123348   4.301   2.308   6.016
 7483SOL    HW223349   4.274   2.366   5.866
 7484SOL     OW23350   3.124   6.694   4.413
 7484SOL    HW123351   3.136   6.617   4.351
 7484SOL    HW223352   3.214   6.733   4.436
 7485SOL     OW23353   2.891   6.929   4.355
 7485SOL    HW123354   2.924   6.958   4.265
 7485SOL    HW223355   2.849   7.007   4.402
 7486SOL     OW23356   1.983   6.478   0.225
 7486SOL    HW123357   1.923   6.403   0.198
 7486SOL    HW223358   2.029   6.516   0.144
 7487SOL     OW23359   3.956   6.404   3.499
 7487SOL    HW123360   3.968   6.346   3.579
 7487SOL    HW223361   4.044   6.445   3.474
 7488SOL     OW23362   0.825   5.732   4.003
 7488SOL    HW123363   0.891   5.730   4.078
 7488SOL    HW223364   0.871   5.758   3.918
 7489SOL     OW23365   6.420   3.731   6.821
 7489SOL    HW123366   6.515   3.757   6.837
 7489SOL    HW223367   6.417   3.644   6.770
 7490SOL     OW23368   1.253   2.013   2.355
 7490SOL    HW123369   1.323   1.954   2.396
 7490SOL    HW223370   1.292   2.104   2.340
 7491SOL     OW23371   4.376   3.111   0.147
 7491SOL    HW123372   4.293   3.081   0.194
 7491SOL    HW223373   4.409   3.196   0.188
 7492SOL     OW23374   1.518   0.362   4.434
 7492SOL    HW123375   1.535   0.289   4.368
 7492SOL    HW223376   1.446   0.334   4.498
 7493SOL     OW23377   6.393   4.060   5.331
 7493SOL    HW123378   6.468   4.075   5.266
 7493SOL    HW223379   6.306   4.082   5.288
 7494SOL     OW23380   5.886   1.577   2.960
 7494SOL    HW123381   5.919   1.483   2.945
 7494SOL    HW223382   5.863   1.589   3.056
 7495SOL     OW23383   2.076   3.545   4.857
 7495SOL    HW123384   2.094   3.505   4.947
 7495SOL    HW223385   1.980   3.531   4.832
 7496SOL     OW23386   5.632   4.092   2.470
 7496SOL    HW123387   5.657   4.000   2.439
 7496SOL    HW223388   5.693   4.120   2.544
 7497SOL     OW23389   0.455   6.666   0.539
 7497SOL    HW123390   0.363   6.642   0.568
 7497SOL    HW223391   0.512   6.584   0.539
 7498SOL     OW23392   3.446   0.074   3.003
 7498SOL    HW123393   3.495   0.066   2.916
 7498SOL    HW223394   3.363   0.129   2.989
 7499SOL     OW23395   3.692   2.079   3.671
 7499SOL    HW123396   3.720   1.990   3.706
 7499SOL    HW223397   3.613   2.112   3.723
 7500SOL     OW23398   4.106   6.477   2.943
 7500SOL    HW123399   4.111   6.549   3.012
 7500SOL    HW223400   4.196   6.433   2.935
 7501SOL     OW23401   6.067   2.419   5.013
 7501SOL    HW123402   6.007   2.346   4.982
 7501SOL    HW223403   6.040   2.505   4.969
 7502SOL     OW23404   4.055   0.320   4.335
 7502SOL    HW123405   4.116   0.400   4.337
 7502SOL    HW223406   4.010   0.316   4.247
 7503SOL     OW23407   1.789   5.953   1.295
 7503SOL    HW123408   1.872   6.007   1.310
 7503SOL    HW223409   1.752   5.924   1.384
 7504SOL     OW23410   6.457   6.574   3.586
 7504SOL    HW123411   6.362   6.570   3.556
 7504SOL    HW223412   6.479   6.667   3.615
 7505SOL     OW23413   0.902   6.871   5.322
 7505SOL    HW123414   0.871   6.895   5.230
 7505SOL    HW223415   0.825   6.879   5.386
 7506SOL     OW23416   2.336   1.888   3.558
 7506SOL    HW123417   2.305   1.860   3.467
 7506SOL    HW223418   2.336   1.988   3.564
 7507SOL     OW23419   6.387   4.045   4.719
 7507SOL    HW123420   6.351   4.012   4.806
 7507SOL    HW223421   6.334   4.006   4.643
 7508SOL     OW23422   1.996   5.914   6.921
 7508SOL    HW123423   2.086   5.888   6.886
 7508SOL    HW223424   1.946   5.832   6.948
 7509SOL     OW23425   4.854   4.281   0.628
 7509SOL    HW123426   4.933   4.224   0.651
 7509SOL    HW223427   4.797   4.234   0.560
 7510SOL     OW23428   4.056   3.934   4.034
 7510SOL    HW123429   4.119   4.000   4.075
 7510SOL    HW223430   4.079   3.842   4.064
 7511SOL     OW23431   3.479   5.511   2.901
 7511SOL    HW123432   3.457   5.423   2.941
 7511SOL    HW223433   3.419   5.582   2.939
 7512SOL     OW23434   3.197   6.437   6.203
 7512SOL    HW123435   3.263   6.491   6.151
 7512SOL    HW223436   3.209   6.340   6.182
 7513SOL     OW23437   1.524   2.198   3.242
 7513SOL    HW123438   1.508   2.292   3.271
 7513SOL    HW223439   1.609   2.193   3.190
 7514SOL     OW23440   2.284   4.307   2.863
 7514SOL    HW123441   2.373   4.292   2.820
 7514SOL    HW223442   2.272   4.242   2.938
 7515SOL     OW23443   0.349   4.466   4.779
 7515SOL    HW123444   0.344   4.377   4.734
 7515SOL    HW223445   0.373   4.536   4.711
 7516SOL     OW23446   0.812   5.478   5.231
 7516SOL    HW123447   0.775   5.565   5.262
 7516SOL    HW223448   0.901   5.494   5.187
 7517SOL     OW23449   0.489   1.840   6.959
 7517SOL    HW123450   0.485   1.911   6.889
 7517SOL    HW223451   0.438   1.869   0.015
 7518SOL     OW23452   4.729   2.801   3.801
 7518SOL    HW123453   4.800   2.784   3.868
 7518SOL    HW223454   4.664   2.725   3.801
 7519SOL     OW23455   3.778   6.549   5.278
 7519SOL    HW123456   3.766   6.578   5.183
 7519SOL    HW223457   3.732   6.613   5.339
 7520SOL     OW23458   2.149   2.177   1.523
 7520SOL    HW123459   2.198   2.159   1.438
 7520SOL    HW223460   2.097   2.262   1.514
 7521SOL     OW23461   4.207   1.085   5.480
 7521SOL    HW123462   4.129   1.055   5.426
 7521SOL    HW223463   4.230   1.179   5.457
 7522SOL     OW23464   1.844   6.671   2.829
 7522SOL    HW123465   1.752   6.678   2.865
 7522SOL    HW223466   1.878   6.577   2.840
 7523SOL     OW23467   5.577   1.760   6.471
 7523SOL    HW123468   5.606   1.674   6.430
 7523SOL    HW223469   5.641   1.785   6.545
 7524SOL     OW23470   0.251   3.045   4.823
 7524SOL    HW123471   0.240   3.024   4.920
 7524SOL    HW223472   0.336   3.096   4.809
 7525SOL     OW23473   4.263   6.015   6.454
 7525SOL    HW123474   4.334   6.085   6.445
 7525SOL    HW223475   4.173   6.056   6.443
 7526SOL     OW23476   2.252   3.286   1.679
 7526SOL    HW123477   2.291   3.359   1.736
 7526SOL    HW223478   2.222   3.324   1.592
 7527SOL     OW23479   3.653   5.456   3.650
 7527SOL    HW123480   3.704   5.384   3.696
 7527SOL    HW223481   3.613   5.517   3.719
 7528SOL     OW23482   6.693   2.881   6.426
 7528SOL    HW123483   6.758   2.813   6.459
 7528SOL    HW223484   6.704   2.965   6.479
 7529SOL     OW23485   6.404   2.663   3.907
 7529SOL    HW123486   6.455   2.637   3.989
 7529SOL    HW223487   6.373   2.758   3.915
 7530SOL     OW23488   6.234   1.896   2.155
 7530SOL    HW123489   6.319   1.935   2.120
 7530SOL    HW223490   6.241   1.796   2.156
 7531SOL     OW23491   4.366   1.880   3.588
 7531SOL    HW123492   4.423   1.884   3.670
 7531SOL    HW223493   4.271   1.899   3.612
 7532SOL     OW23494   4.434   5.493   6.584
 7532SOL    HW123495   4.491   5.560   6.536
 7532SOL    HW223496   4.372   5.449   6.519
 7533SOL     OW23497   4.696   3.465   1.723
 7533SOL    HW123498   4.631   3.520   1.670
 7533SOL    HW223499   4.680   3.368   1.706
 7534SOL     OW23500   4.422   0.019   4.226
 7534SOL    HW123501   4.441   6.972   4.294
 7534SOL    HW223502   4.448   7.011   4.135
 7535SOL     OW23503   0.716   5.464   4.015
 7535SOL    HW123504   0.759   5.464   4.106
 7535SOL    HW223505   0.786   5.481   3.946
 7536SOL     OW23506   4.855   5.541   4.093
 7536SOL    HW123507   4.771   5.525   4.145
 7536SOL    HW223508   4.863   5.471   4.021
 7537SOL     OW23509   3.006   6.006   2.815
 7537SOL    HW123510   2.945   6.084   2.800
 7537SOL    HW223511   2.956   5.922   2.796
 7538SOL     OW23512   0.865   4.076   1.331
 7538SOL    HW123513   0.934   4.027   1.278
 7538SOL    HW223514   0.808   4.130   1.269
 7539SOL     OW23515   0.463   6.028   3.689
 7539SOL    HW123516   0.475   6.122   3.718
 7539SOL    HW223517   0.365   6.007   3.684
 7540SOL     OW23518   5.634   4.869   4.038
 7540SOL    HW123519   5.648   4.771   4.025
 7540SOL    HW223520   5.663   4.918   3.955
 7541SOL     OW23521   1.039   4.273   6.952
 7541SOL    HW123522   0.972   4.226   6.895
 7541SOL    HW223523   1.008   4.272   0.023
 7542SOL     OW23524   5.801   5.298   6.273
 7542SOL    HW123525   5.862   5.222   6.253
 7542SOL    HW223526   5.718   5.264   6.319
 7543SOL     OW23527   3.183   1.144   5.632
 7543SOL    HW123528   3.161   1.132   5.729
 7543SOL    HW223529   3.207   1.240   5.615
 7544SOL     OW23530   0.038   2.850   3.678
 7544SOL    HW123531   0.075   2.939   3.650
 7544SOL    HW223532   0.038   2.788   3.599
 7545SOL     OW23533   1.010   4.954   0.138
 7545SOL    HW123534   1.033   5.035   0.192
 7545SOL    HW223535   0.975   4.882   0.198
 7546SOL     OW23536   3.210   3.023   1.816
 7546SOL    HW123537   3.131   2.967   1.844
 7546SOL    HW223538   3.294   2.976   1.842
 7547SOL     OW23539   4.475   0.174   2.198
 7547SOL    HW123540   4.520   0.261   2.219
 7547SOL    HW223541   4.376   0.188   2.193
 7548SOL     OW23542   4.485   2.399   6.604
 7548SOL    HW123543   4.573   2.428   6.567
 7548SOL    HW223544   4.484   2.415   6.702
 7549SOL     OW23545   4.223   2.742   5.396
 7549SOL    HW123546   4.164   2.805   5.446
 7549SOL    HW223547   4.166   2.681   5.340
 7550SOL     OW23548   1.977   4.103   4.187
 7550SOL    HW123549   2.059   4.045   4.183
 7550SOL    HW223550   1.986   4.167   4.263
 7551SOL     OW23551   5.844   2.330   5.631
 7551SOL    HW123552   5.880   2.343   5.724
 7551SOL    HW223553   5.908   2.275   5.578
 7552SOL     OW23554   2.666   5.938   4.916
 7552SOL    HW123555   2.570   5.912   4.924
 7552SOL    HW223556   2.708   5.938   5.007
 7553SOL     OW23557   5.788   5.883   5.901
 7553SOL    HW123558   5.751   5.840   5.819
 7553SOL    HW223559   5.714   5.932   5.948
 7554SOL     OW23560   5.359   0.869   1.126
 7554SOL    HW123561   5.271   0.838   1.161
 7554SOL    HW223562   5.432   0.825   1.177
 7555SOL     OW23563   3.694   5.252   6.112
 7555SOL    HW123564   3.683   5.342   6.071
 7555SOL    HW223565   3.609   5.200   6.102
 7556SOL     OW23566   0.487   0.079   0.863
 7556SOL    HW123567   0.420   0.152   0.847
 7556SOL    HW223568   0.506   0.072   0.961
 7557SOL     OW23569   4.814   0.690   0.468
 7557SOL    HW123570   4.902   0.682   0.420
 7557SOL    HW223571   4.828   0.677   0.566
 7558SOL     OW23572   1.802   1.997   4.252
 7558SOL    HW123573   1.762   1.934   4.185
 7558SOL    HW223574   1.734   2.063   4.281
 7559SOL     OW23575   4.286   2.319   4.814
 7559SOL    HW123576   4.380   2.334   4.781
 7559SOL    HW223577   4.269   2.378   4.892
 7560SOL     OW23578   0.331   0.378   6.161
 7560SOL    HW123579   0.419   0.426   6.157
 7560SOL    HW223580   0.279   0.410   6.240
 7561SOL     OW23581   5.442   2.236   4.972
 7561SOL    HW123582   5.484   2.156   5.015
 7561SOL    HW223583   5.343   2.234   4.987
 7562SOL     OW23584   1.600   4.763   3.605
 7562SOL    HW123585   1.592   4.860   3.584
 7562SOL    HW223586   1.634   4.752   3.699
 7563SOL     OW23587   3.338   5.521   2.334
 7563SOL    HW123588   3.294   5.433   2.317
 7563SOL    HW223589   3.411   5.510   2.402
 7564SOL     OW23590   4.738   1.370   4.420
 7564SOL    HW123591   4.715   1.461   4.453
 7564SOL    HW223592   4.682   1.302   4.468
 7565SOL     OW23593   5.352   3.486   6.676
 7565SOL    HW123594   5.265   3.465   6.721
 7565SOL    HW223595   5.334   3.541   6.594
 7566SOL     OW23596   3.830   4.066   1.472
 7566SOL    HW123597   3.788   4.157   1.475
 7566SOL    HW223598   3.927   4.073   1.492
 7567SOL     OW23599   0.935   0.544   4.716
 7567SOL    HW123600   0.976   0.570   4.804
 7567SOL    HW223601   0.836   0.536   4.728
 7568SOL     OW23602   5.894   5.370   1.223
 7568SOL    HW123603   5.896   5.434   1.146
 7568SOL    HW223604   5.830   5.404   1.292
 7569SOL     OW23605   4.434   3.831   6.636
 7569SOL    HW123606   4.442   3.910   6.575
 7569SOL    HW223607   4.449   3.747   6.584
 7570SOL     OW23608   6.488   3.052   2.990
 7570SOL    HW123609   6.544   2.999   2.927
 7570SOL    HW223610   6.457   2.994   3.065
 7571SOL     OW23611   4.427   2.426   2.537
 7571SOL    HW123612   4.439   2.520   2.568
 7571SOL    HW223613   4.438   2.363   2.614
 7572SOL     OW23614   5.054   6.113   2.351
 7572SOL    HW123615   5.123   6.165   2.301
 7572SOL    HW223616   4.964   6.152   2.334
 7573SOL     OW23617   5.036   6.425   5.876
 7573SOL    HW123618   4.983   6.507   5.855
 7573SOL    HW223619   5.017   6.397   5.970
 7574SOL     OW23620   7.004   1.521   4.410
 7574SOL    HW123621   0.050   1.531   4.340
 7574SOL    HW223622   6.937   1.595   4.402
 7575SOL     OW23623   6.995   6.612   2.025
 7575SOL    HW123624   6.916   6.566   2.066
 7575SOL    HW223625   0.041   6.545   2.003
 7576SOL     OW23626   5.511   2.769   0.749
 7576SOL    HW123627   5.599   2.771   0.702
 7576SOL    HW223628   5.454   2.844   0.717
 7577SOL     OW23629   0.825   0.295   0.824
 7577SOL    HW123630   0.910   0.348   0.817
 7577SOL    HW223631   0.846   0.205   0.864
 7578SOL     OW23632   6.876   6.096   3.312
 7578SOL    HW123633   6.885   6.191   3.344
 7578SOL    HW223634   6.950   6.076   3.247
 7579SOL     OW23635   6.617   1.120   6.900
 7579SOL    HW123636   6.568   1.203   6.927
 7579SOL    HW223637   6.698   1.109   6.957
 7580SOL     OW23638   2.327   4.889   3.677
 7580SOL    HW123639   2.395   4.910   3.606
 7580SOL    HW223640   2.335   4.955   3.751
 7581SOL     OW23641   6.702   1.011   2.284
 7581SOL    HW123642   6.650   0.936   2.326
 7581SOL    HW223643   6.692   1.008   2.185
 7582SOL     OW23644   3.522   1.520   4.390
 7582SOL    HW123645   3.594   1.522   4.459
 7582SOL    HW223646   3.560   1.540   4.300
 7583SOL     OW23647   4.865   3.660   3.530
 7583SOL    HW123648   4.840   3.752   3.499
 7583SOL    HW223649   4.854   3.595   3.455
 7584SOL     OW23650   6.958   0.337   2.842
 7584SOL    HW123651   6.962   0.296   2.750
 7584SOL    HW223652   6.996   0.429   2.838
 7585SOL     OW23653   0.842   2.350   6.491
 7585SOL    HW123654   0.907   2.425   6.506
 7585SOL    HW223655   0.772   2.380   6.427
 7586SOL     OW23656   1.365   1.640   2.924
 7586SOL    HW123657   1.327   1.600   2.840
 7586SOL    HW223658   1.291   1.686   2.974
 7587SOL     OW23659   3.023   1.508   0.469
 7587SOL    HW123660   2.925   1.511   0.450
 7587SOL    HW223661   3.039   1.457   0.554
 7588SOL     OW23662   1.605   2.709   4.546
 7588SOL    HW123663   1.601   2.788   4.607
 7588SOL    HW223664   1.696   2.701   4.507
 7589SOL     OW23665   0.129   0.962   3.131
 7589SOL    HW123666   0.190   1.022   3.079
 7589SOL    HW223667   0.154   0.965   3.228
 7590SOL     OW23668   7.007   1.611   0.047
 7590SOL    HW123669   6.948   1.645   0.120
 7590SOL    HW223670   0.015   1.689   7.017
 7591SOL     OW23671   4.204   3.355   5.493
 7591SOL    HW123672   4.123   3.406   5.464
 7591SOL    HW223673   4.276   3.419   5.519
 7592SOL     OW23674   0.089   6.419   5.108
 7592SOL    HW123675   0.113   6.450   5.200
 7592SOL    HW223676   0.080   6.498   5.047
 7593SOL     OW23677   0.635   1.256   6.115
 7593SOL    HW123678   0.699   1.184   6.089
 7593SOL    HW223679   0.579   1.225   6.192
 7594SOL     OW23680   0.620   4.594   0.878
 7594SOL    HW123681   0.693   4.532   0.906
 7594SOL    HW223682   0.533   4.545   0.881
 7595SOL     OW23683   6.432   2.516   5.604
 7595SOL    HW123684   6.380   2.491   5.686
 7595SOL    HW223685   6.511   2.571   5.630
 7596SOL     OW23686   2.725   0.930   5.073
 7596SOL    HW123687   2.703   0.950   4.978
 7596SOL    HW223688   2.730   0.831   5.086
 7597SOL     OW23689   1.639   4.732   2.206
 7597SOL    HW123690   1.692   4.765   2.285
 7597SOL    HW223691   1.668   4.782   2.124
 7598SOL     OW23692   6.357   1.262   3.309
 7598SOL    HW123693   6.358   1.164   3.330
 7598SOL    HW223694   6.450   1.297   3.306
 7599SOL     OW23695   4.051   3.262   1.134
 7599SOL    HW123696   4.119   3.273   1.206
 7599SOL    HW223697   3.967   3.223   1.172
 7600SOL     OW23698   1.373   1.064   4.266
 7600SOL    HW123699   1.296   1.106   4.314
 7600SOL    HW223700   1.453   1.124   4.274
 7601SOL     OW23701   3.878   5.951   1.934
 7601SOL    HW123702   3.949   5.880   1.936
 7601SOL    HW223703   3.797   5.918   1.982
 7602SOL     OW23704   6.835   1.610   0.821
 7602SOL    HW123705   6.786   1.684   0.867
 7602SOL    HW223706   6.800   1.600   0.728
 7603SOL     OW23707   2.463   0.499   5.383
 7603SOL    HW123708   2.461   0.580   5.324
 7603SOL    HW223709   2.427   0.421   5.332
 7604SOL     OW23710   0.719   2.450   4.958
 7604SOL    HW123711   0.810   2.447   4.916
 7604SOL    HW223712   0.726   2.483   5.052
 7605SOL     OW23713   2.554   6.994   0.293
 7605SOL    HW123714   2.643   0.010   0.315
 7605SOL    HW223715   2.491   0.041   0.262
 7606SOL     OW23716   6.519   1.714   3.624
 7606SOL    HW123717   6.524   1.763   3.536
 7606SOL    HW223718   6.598   1.739   3.680
 7607SOL     OW23719   2.818   5.671   5.679
 7607SOL    HW123720   2.831   5.577   5.708
 7607SOL    HW223721   2.730   5.680   5.633
 7608SOL     OW23722   6.298   2.716   5.964
 7608SOL    HW123723   6.213   2.753   6.002
 7608SOL    HW223724   6.332   2.643   6.022
 7609SOL     OW23725   0.684   1.367   4.975
 7609SOL    HW123726   0.607   1.421   4.941
 7609SOL    HW223727   0.748   1.428   5.024
 7610SOL     OW23728   3.376   4.720   5.603
 7610SOL    HW123729   3.374   4.750   5.508
 7610SOL    HW223730   3.286   4.735   5.644
 7611SOL     OW23731   4.505   3.400   1.203
 7611SOL    HW123732   4.505   3.301   1.186
 7611SOL    HW223733   4.545   3.419   1.293
 7612SOL     OW23734   2.709   1.663   2.895
 7612SOL    HW123735   2.777   1.627   2.959
 7612SOL    HW223736   2.624   1.682   2.944
 7613SOL     OW23737   0.603   1.093   2.512
 7613SOL    HW123738   0.504   1.096   2.529
 7613SOL    HW223739   0.634   1.182   2.478
 7614SOL     OW23740   5.123   3.470   0.724
 7614SOL    HW123741   5.181   3.439   0.649
 7614SOL    HW223742   5.034   3.498   0.688
 7615SOL     OW23743   5.398   3.276   4.909
 7615SOL    HW123744   5.335   3.245   4.980
 7615SOL    HW223745   5.358   3.354   4.860
 7616SOL     OW23746   6.500   6.852   3.662
 7616SOL    HW123747   6.404   6.852   3.635
 7616SOL    HW223748   6.510   6.804   3.750
 7617SOL     OW23749   5.360   5.529   3.236
 7617SOL    HW123750   5.334   5.553   3.143
 7617SOL    HW223751   5.418   5.447   3.235
 7618SOL     OW23752   2.918   3.289   0.569
 7618SOL    HW123753   2.825   3.273   0.535
 7618SOL    HW223754   2.983   3.241   0.510
 7619SOL     OW23755   0.730   2.446   4.205
 7619SOL    HW123756   0.796   2.408   4.270
 7619SOL    HW223757   0.777   2.504   4.139
 7620SOL     OW23758   3.822   3.763   1.343
 7620SOL    HW123759   3.810   3.863   1.341
 7620SOL    HW223760   3.742   3.720   1.385
 7621SOL     OW23761   0.363   5.335   0.706
 7621SOL    HW123762   0.344   5.426   0.669
 7621SOL    HW223763   0.397   5.276   0.632
 7622SOL     OW23764   3.056   3.602   1.102
 7622SOL    HW123765   2.993   3.602   1.179
 7622SOL    HW223766   3.135   3.659   1.122
 7623SOL     OW23767   4.865   4.739   1.325
 7623SOL    HW123768   4.791   4.703   1.267
 7623SOL    HW223769   4.825   4.783   1.405
 7624SOL     OW23770   0.818   2.852   2.285
 7624SOL    HW123771   0.782   2.821   2.197
 7624SOL    HW223772   0.917   2.859   2.280
 7625SOL     OW23773   4.990   1.794   0.590
 7625SOL    HW123774   5.065   1.736   0.625
 7625SOL    HW223775   4.949   1.750   0.510
 7626SOL     OW23776   5.589   0.696   5.046
 7626SOL    HW123777   5.629   0.788   5.050
 7626SOL    HW223778   5.517   0.694   4.977
 7627SOL     OW23779   3.614   1.987   6.242
 7627SOL    HW123780   3.577   1.915   6.301
 7627SOL    HW223781   3.616   2.073   6.294
 7628SOL     OW23782   3.452   2.804   0.131
 7628SOL    HW123783   3.392   2.786   0.209
 7628SOL    HW223784   3.398   2.804   0.047
 7629SOL     OW23785   6.204   3.113   3.767
 7629SOL    HW123786   6.280   3.175   3.787
 7629SOL    HW223787   6.151   3.149   3.691
 7630SOL     OW23788   1.166   6.860   5.700
 7630SOL    HW123789   1.187   6.889   5.607
 7630SOL    HW223790   1.248   6.864   5.756
 7631SOL     OW23791   1.789   6.805   5.440
 7631SOL    HW123792   1.858   6.816   5.369
 7631SOL    HW223793   1.707   6.763   5.401
 7632SOL     OW23794   4.658   5.831   0.309
 7632SOL    HW123795   4.729   5.773   0.349
 7632SOL    HW223796   4.625   5.791   0.224
 7633SOL     OW23797   6.196   1.126   1.114
 7633SOL    HW123798   6.165   1.213   1.075
 7633SOL    HW223799   6.251   1.078   1.045
 7634SOL     OW23800   0.325   2.118   0.474
 7634SOL    HW123801   0.243   2.164   0.440
 7634SOL    HW223802   0.370   2.177   0.541
 7635SOL     OW23803   2.561   4.685   6.372
 7635SOL    HW123804   2.495   4.687   6.297
 7635SOL    HW223805   2.618   4.603   6.363
 7636SOL     OW23806   0.602   3.528   4.897
 7636SOL    HW123807   0.576   3.615   4.856
 7636SOL    HW223808   0.641   3.468   4.827
 7637SOL     OW23809   1.139   6.383   4.178
 7637SOL    HW123810   1.089   6.296   4.173
 7637SOL    HW223811   1.219   6.378   4.119
 7638SOL     OW23812   0.763   5.417   1.419
 7638SOL    HW123813   0.805   5.499   1.380
 7638SOL    HW223814   0.819   5.383   1.494
 7639SOL     OW23815   1.365   1.212   0.307
 7639SOL    HW123816   1.463   1.193   0.313
 7639SOL    HW223817   1.314   1.128   0.324
 7640SOL     OW23818   3.323   0.921   6.666
 7640SOL    HW123819   3.338   0.844   6.605
 7640SOL    HW223820   3.233   0.960   6.651
 7641SOL     OW23821   0.433   3.986   2.885
 7641SOL    HW123822   0.435   3.886   2.888
 7641SOL    HW223823   0.338   4.017   2.878
 7642SOL     OW23824   6.162   0.835   3.686
 7642SOL    HW123825   6.144   0.921   3.735
 7642SOL    HW223826   6.251   0.799   3.713
 7643SOL     OW23827   4.947   2.947   2.935
 7643SOL    HW123828   4.904   3.007   3.002
 7643SOL    HW223829   5.016   2.890   2.980
 7644SOL     OW23830   5.048   3.953   1.254
 7644SOL    HW123831   5.021   3.966   1.349
 7644SOL    HW223832   5.130   3.896   1.250
 7645SOL     OW23833   3.301   3.716   6.080
 7645SOL    HW123834   3.309   3.620   6.107
 7645SOL    HW223835   3.210   3.732   6.041
 7646SOL     OW23836   0.689   2.479   2.875
 7646SOL    HW123837   0.611   2.530   2.838
 7646SOL    HW223838   0.715   2.517   2.964
 7647SOL     OW23839   6.970   3.096   5.319
 7647SOL    HW123840   6.873   3.078   5.301
 7647SOL    HW223841   7.022   3.083   5.234
 7648SOL     OW23842   2.627   1.437   1.510
 7648SOL    HW123843   2.582   1.415   1.424
 7648SOL    HW223844   2.638   1.354   1.565
 7649SOL     OW23845   5.485   0.887   5.345
 7649SOL    HW123846   5.400   0.856   5.302
 7649SOL    HW223847   5.551   0.910   5.274
 7650SOL     OW23848   4.079   2.144   0.798
 7650SOL    HW123849   4.062   2.229   0.847
 7650SOL    HW223850   4.002   2.081   0.811
 7651SOL     OW23851   2.282   4.552   5.678
 7651SOL    HW123852   2.322   4.581   5.765
 7651SOL    HW223853   2.355   4.518   5.618
 7652SOL     OW23854   6.038   1.095   4.046
 7652SOL    HW123855   5.984   1.179   4.047
 7652SOL    HW223856   6.100   1.096   3.967
 7653SOL     OW23857   0.598   1.525   6.532
 7653SOL    HW123858   0.675   1.463   6.538
 7653SOL    HW223859   0.558   1.539   6.623
 7654SOL     OW23860   5.785   2.515   6.505
 7654SOL    HW123861   5.827   2.486   6.591
 7654SOL    HW223862   5.786   2.615   6.499
 7655SOL     OW23863   3.060   0.454   3.326
 7655SOL    HW123864   3.116   0.497   3.255
 7655SOL    HW223865   3.107   0.463   3.414
 7656SOL     OW23866   6.638   3.331   6.742
 7656SOL    HW123867   6.575   3.286   6.805
 7656SOL    HW223868   6.611   3.427   6.731
 7657SOL     OW23869   1.462   3.896   4.676
 7657SOL    HW123870   1.391   3.955   4.638
 7657SOL    HW223871   1.472   3.814   4.619
 7658SOL     OW23872   2.532   1.496   0.634
 7658SOL    HW123873   2.561   1.452   0.719
 7658SOL    HW223874   2.605   1.556   0.600
 7659SOL     OW23875   4.326   3.597   5.519
 7659SOL    HW123876   4.372   3.582   5.432
 7659SOL    HW223877   4.257   3.669   5.509
 7660SOL     OW23878   0.100   5.343   4.627
 7660SOL    HW123879   0.060   5.253   4.612
 7660SOL    HW223880   0.148   5.372   4.544
 7661SOL     OW23881   4.504   2.937   5.843
 7661SOL    HW123882   4.504   2.837   5.847
 7661SOL    HW223883   4.546   2.967   5.758
 7662SOL     OW23884   0.769   1.954   2.022
 7662SOL    HW123885   0.869   1.953   2.011
 7662SOL    HW223886   0.731   1.871   1.982
 7663SOL     OW23887   6.589   5.394   5.494
 7663SOL    HW123888   6.531   5.313   5.490
 7663SOL    HW223889   6.653   5.393   5.417
 7664SOL     OW23890   3.733   2.081   2.519
 7664SOL    HW123891   3.691   2.127   2.597
 7664SOL    HW223892   3.674   2.089   2.439
 7665SOL     OW23893   4.188   1.252   4.570
 7665SOL    HW123894   4.260   1.219   4.509
 7665SOL    HW223895   4.115   1.184   4.575
 7666SOL     OW23896   5.651   5.034   4.282
 7666SOL    HW123897   5.621   5.033   4.187
 7666SOL    HW223898   5.741   4.991   4.290
 7667SOL     OW23899   4.854   6.285   1.626
 7667SOL    HW123900   4.769   6.250   1.586
 7667SOL    HW223901   4.840   6.379   1.658
 7668SOL     OW23902   2.367   4.909   1.096
 7668SOL    HW123903   2.460   4.882   1.072
 7668SOL    HW223904   2.319   4.832   1.138
 7669SOL     OW23905   2.644   6.824   5.660
 7669SOL    HW123906   2.561   6.862   5.619
 7669SOL    HW223907   2.687   6.892   5.718
 7670SOL     OW23908   0.089   6.491   0.361
 7670SOL    HW123909   0.078   6.513   0.458
 7670SOL    HW223910   0.172   6.437   0.348
 7671SOL     OW23911   4.829   0.551   1.189
 7671SOL    HW123912   4.838   0.643   1.151
 7671SOL    HW223913   4.738   0.540   1.229
 7672SOL     OW23914   5.488   4.806   3.044
 7672SOL    HW123915   5.425   4.757   2.984
 7672SOL    HW223916   5.442   4.823   3.132
 7673SOL     OW23917   0.600   5.772   3.862
 7673SOL    HW123918   0.628   5.820   3.778
 7673SOL    HW223919   0.682   5.748   3.915
 7674SOL     OW23920   3.755   6.512   4.302
 7674SOL    HW123921   3.840   6.460   4.291
 7674SOL    HW223922   3.704   6.511   4.216
 7675SOL     OW23923   4.012   6.907   2.717
 7675SOL    HW123924   4.070   6.982   2.684
 7675SOL    HW223925   4.060   6.820   2.703
 7676SOL     OW23926   3.090   2.876   5.316
 7676SOL    HW123927   3.134   2.914   5.398
 7676SOL    HW223928   3.108   2.936   5.238
 7677SOL     OW23929   5.733   4.887   1.391
 7677SOL    HW123930   5.795   4.963   1.372
 7677SOL    HW223931   5.779   4.801   1.372
 7678SOL     OW23932   1.322   1.091   5.521
 7678SOL    HW123933   1.266   1.021   5.476
 7678SOL    HW223934   1.271   1.177   5.524
 7679SOL     OW23935   1.918   5.431   5.328
 7679SOL    HW123936   1.937   5.333   5.335
 7679SOL    HW223937   1.960   5.467   5.246
 7680SOL     OW23938   2.112   0.152   5.088
 7680SOL    HW123939   2.133   0.194   5.000
 7680SOL    HW223940   2.014   0.156   5.105
 7681SOL     OW23941   2.807   3.492   6.499
 7681SOL    HW123942   2.726   3.492   6.558
 7681SOL    HW223943   2.856   3.579   6.509
 7682SOL     OW23944   3.011   1.558   2.210
 7682SOL    HW123945   2.942   1.585   2.143
 7682SOL    HW223946   3.011   1.623   2.286
 7683SOL     OW23947   0.853   0.780   4.428
 7683SOL    HW123948   0.922   0.755   4.360
 7683SOL    HW223949   0.818   0.871   4.409
 7684SOL     OW23950   4.295   2.084   1.688
 7684SOL    HW123951   4.234   2.009   1.662
 7684SOL    HW223952   4.361   2.100   1.615
 7685SOL     OW23953   2.743   0.874   0.109
 7685SOL    HW123954   2.782   0.784   0.128
 7685SOL    HW223955   2.726   0.922   0.195
 7686SOL     OW23956   5.578   0.220   4.156
 7686SOL    HW123957   5.489   0.258   4.177
 7686SOL    HW223958   5.608   0.253   4.066
 7687SOL     OW23959   5.139   5.309   5.022
 7687SOL    HW123960   5.212   5.260   4.975
 7687SOL    HW223961   5.101   5.251   5.094
 7688SOL     OW23962   0.486   4.753   6.805
 7688SOL    HW123963   0.545   4.805   6.743
 7688SOL    HW223964   0.510   4.656   6.800
 7689SOL     OW23965   4.620   0.248   1.730
 7689SOL    HW123966   4.633   0.313   1.806
 7689SOL    HW223967   4.526   0.255   1.697
 7690SOL     OW23968   6.086   5.996   1.248
 7690SOL    HW123969   6.142   6.040   1.320
 7690SOL    HW223970   6.112   5.900   1.240
 7691SOL     OW23971   4.524   4.749   2.609
 7691SOL    HW123972   4.508   4.651   2.594
 7691SOL    HW223973   4.527   4.796   2.521
 7692SOL     OW23974   2.373   6.608   2.283
 7692SOL    HW123975   2.281   6.588   2.248
 7692SOL    HW223976   2.378   6.585   2.380
 7693SOL     OW23977   2.749   1.963   0.902
 7693SOL    HW123978   2.728   1.939   0.807
 7693SOL    HW223979   2.841   1.929   0.925
 7694SOL     OW23980   5.616   2.174   5.388
 7694SOL    HW123981   5.581   2.240   5.454
 7694SOL    HW223982   5.556   2.094   5.386
 7695SOL     OW23983   5.513   0.485   2.824
 7695SOL    HW123984   5.462   0.461   2.742
 7695SOL    HW223985   5.481   0.431   2.901
 7696SOL     OW23986   0.320   2.754   6.408
 7696SOL    HW123987   0.253   2.692   6.449
 7696SOL    HW223988   0.378   2.702   6.345
 7697SOL     OW23989   4.660   6.843   2.771
 7697SOL    HW123990   4.664   6.865   2.868
 7697SOL    HW223991   4.568   6.814   2.747
 7698SOL     OW23992   6.290   1.966   6.825
 7698SOL    HW123993   6.378   1.963   6.778
 7698SOL    HW223994   6.238   1.884   6.802
 7699SOL     OW23995   3.550   5.113   5.389
 7699SOL    HW123996   3.630   5.167   5.362
 7699SOL    HW223997   3.521   5.055   5.312
 7700SOL     OW23998   4.953   5.440   2.624
 7700SOL    HW123999   5.041   5.439   2.577
 7700SOL    HW224000   4.913   5.348   2.623
 7701SOL     OW24001   0.023   2.488   5.911
 7701SOL    HW124002   0.053   2.555   5.844
 7701SOL    HW224003   0.022   2.397   5.868
 7702SOL     OW24004   4.604   0.218   4.991
 7702SOL    HW124005   4.621   0.261   5.079
 7702SOL    HW224006   4.589   0.288   4.921
 7703SOL     OW24007   6.369   6.784   4.844
 7703SOL    HW124008   6.441   6.778   4.775
 7703SOL    HW224009   6.383   6.712   4.912
 7704SOL     OW24010   6.548   1.502   4.485
 7704SOL    HW124011   6.536   1.600   4.497
 7704SOL    HW224012   6.500   1.471   4.403
 7705SOL     OW24013   2.199   5.212   0.663
 7705SOL    HW124014   2.259   5.264   0.723
 7705SOL    HW224015   2.107   5.252   0.663
 7706SOL     OW24016   3.445   2.848   2.167
 7706SOL    HW124017   3.454   2.756   2.204
 7706SOL    HW224018   3.383   2.901   2.225
 7707SOL     OW24019   6.931   5.204   6.935
 7707SOL    HW124020   6.910   5.171   0.003
 7707SOL    HW224021   6.882   5.148   6.869
 7708SOL     OW24022   2.438   6.940   4.749
 7708SOL    HW124023   2.376   6.862   4.743
 7708SOL    HW224024   2.402   7.015   4.695
 7709SOL     OW24025   0.279   5.103   1.857
 7709SOL    HW124026   0.346   5.050   1.909
 7709SOL    HW224027   0.314   5.196   1.841
 7710SOL     OW24028   0.711   3.926   1.506
 7710SOL    HW124029   0.772   3.969   1.440
 7710SOL    HW224030   0.683   3.993   1.574
 7711SOL     OW24031   0.050   5.109   5.241
 7711SOL    HW124032   0.085   5.157   5.322
 7711SOL    HW224033   0.122   5.048   5.205
 7712SOL     OW24034   6.474   4.430   6.287
 7712SOL    HW124035   6.476   4.442   6.386
 7712SOL    HW224036   6.490   4.334   6.264
 7713SOL     OW24037   2.137   4.800   0.194
 7713SOL    HW124038   2.094   4.717   0.230
 7713SOL    HW224039   2.183   4.779   0.108
 7714SOL     OW24040   6.509   1.001   4.935
 7714SOL    HW124041   6.491   0.921   4.992
 7714SOL    HW224042   6.601   0.995   4.896
 7715SOL     OW24043   2.906   2.814   5.702
 7715SOL    HW124044   2.894   2.846   5.608
 7715SOL    HW224045   2.940   2.890   5.759
 7716SOL     OW24046   1.206   5.498   5.571
 7716SOL    HW124047   1.261   5.484   5.488
 7716SOL    HW224048   1.184   5.594   5.581
 7717SOL     OW24049   0.963   1.862   6.707
 7717SOL    HW124050   0.926   1.937   6.652
 7717SOL    HW224051   1.049   1.891   6.749
 7718SOL     OW24052   1.112   3.888   2.805
 7718SOL    HW124053   1.172   3.967   2.791
 7718SOL    HW224054   1.107   3.835   2.721
 7719SOL     OW24055   1.394   4.153   4.822
 7719SOL    HW124056   1.447   4.122   4.743
 7719SOL    HW224057   1.343   4.235   4.798
 7720SOL     OW24058   5.728   1.842   6.688
 7720SOL    HW124059   5.733   1.847   6.788
 7720SOL    HW224060   5.820   1.826   6.651
 7721SOL     OW24061   0.670   0.517   2.369
 7721SOL    HW124062   0.618   0.445   2.415
 7721SOL    HW224063   0.735   0.557   2.433
 7722SOL     OW24064   2.362   5.584   3.233
 7722SOL    HW124065   2.313   5.636   3.163
 7722SOL    HW224066   2.406   5.647   3.297
 7723SOL     OW24067   5.269   4.489   0.780
 7723SOL    HW124068   5.200   4.484   0.707
 7723SOL    HW224069   5.227   4.467   0.867
 7724SOL     OW24070   2.193   4.003   2.180
 7724SOL    HW124071   2.247   3.971   2.258
 7724SOL    HW224072   2.095   3.997   2.203
 7725SOL     OW24073   5.518   3.280   3.416
 7725SOL    HW124074   5.470   3.264   3.503
 7725SOL    HW224075   5.461   3.249   3.340
 7726SOL     OW24076   0.243   3.011   6.357
 7726SOL    HW124077   0.293   2.929   6.385
 7726SOL    HW224078   0.303   3.090   6.362
 7727SOL     OW24079   5.516   1.991   2.401
 7727SOL    HW124080   5.605   1.959   2.433
 7727SOL    HW224081   5.501   1.960   2.307
 7728SOL     OW24082   2.141   3.388   4.474
 7728SOL    HW124083   2.043   3.376   4.456
 7728SOL    HW224084   2.154   3.458   4.543
 7729SOL     OW24085   6.591   2.126   4.348
 7729SOL    HW124086   6.670   2.181   4.374
 7729SOL    HW224087   6.619   2.058   4.281
 7730SOL     OW24088   6.612   4.232   4.957
 7730SOL    HW124089   6.602   4.202   5.052
 7730SOL    HW224090   6.666   4.165   4.906
 7731SOL     OW24091   6.181   0.023   6.847
 7731SOL    HW124092   6.087   0.036   6.815
 7731SOL    HW224093   6.193   0.073   6.933
 7732SOL     OW24094   4.410   0.121   6.579
 7732SOL    HW124095   4.323   0.169   6.564
 7732SOL    HW224096   4.456   0.108   6.491
 7733SOL     OW24097   6.359   5.871   2.238
 7733SOL    HW124098   6.309   5.813   2.174
 7733SOL    HW224099   6.415   5.814   2.298
 7734SOL     OW24100   3.376   3.877   5.248
 7734SOL    HW124101   3.415   3.936   5.177
 7734SOL    HW224102   3.423   3.894   5.335
 7735SOL     OW24103   6.898   6.078   0.924
 7735SOL    HW124104   6.980   6.075   0.868
 7735SOL    HW224105   6.879   5.987   0.961
 7736SOL     OW24106   3.129   3.305   0.738
 7736SOL    HW124107   3.057   3.332   0.674
 7736SOL    HW224108   3.090   3.248   0.810
 7737SOL     OW24109   3.883   4.521   1.246
 7737SOL    HW124110   3.978   4.552   1.247
 7737SOL    HW224111   3.826   4.587   1.294
 7738SOL     OW24112   2.579   6.334   6.694
 7738SOL    HW124113   2.568   6.286   6.607
 7738SOL    HW224114   2.529   6.286   6.766
 7739SOL     OW24115   1.060   2.159   0.353
 7739SOL    HW124116   0.977   2.174   0.406
 7739SOL    HW224117   1.067   2.062   0.329
 7740SOL     OW24118   1.549   0.742   4.468
 7740SOL    HW124119   1.479   0.690   4.518
 7740SOL    HW224120   1.578   0.819   4.524
 7741SOL     OW24121   1.667   4.003   6.288
 7741SOL    HW124122   1.758   3.976   6.255
 7741SOL    HW224123   1.673   4.094   6.328
 7742SOL     OW24124   4.248   1.804   3.885
 7742SOL    HW124125   4.265   1.709   3.914
 7742SOL    HW224126   4.165   1.837   3.929
 7743SOL     OW24127   5.046   1.839   5.843
 7743SOL    HW124128   5.134   1.886   5.835
 7743SOL    HW224129   4.975   1.905   5.870
 7744SOL     OW24130   0.558   6.570   4.249
 7744SOL    HW124131   0.613   6.497   4.209
 7744SOL    HW224132   0.474   6.582   4.196
 7745SOL     OW24133   2.271   0.116   0.901
 7745SOL    HW124134   2.311   0.182   0.966
 7745SOL    HW224135   2.339   0.095   0.831
 7746SOL     OW24136   1.424   6.048   0.887
 7746SOL    HW124137   1.404   6.128   0.944
 7746SOL    HW224138   1.508   6.005   0.919
 7747SOL     OW24139   0.970   6.185   0.687
 7747SOL    HW124140   1.051   6.233   0.655
 7747SOL    HW224141   0.937   6.123   0.615
 7748SOL     OW24142   4.043   2.623   5.612
 7748SOL    HW124143   4.027   2.568   5.530
 7748SOL    HW224144   4.020   2.718   5.593
 7749SOL     OW24145   3.595   3.498   4.060
 7749SOL    HW124146   3.506   3.460   4.085
 7749SOL    HW224147   3.583   3.574   3.996
 7750SOL     OW24148   5.480   4.373   5.347
 7750SOL    HW124149   5.575   4.344   5.335
 7750SOL    HW224150   5.419   4.295   5.333
 7751SOL     OW24151   6.694   0.715   5.021
 7751SOL    HW124152   6.754   0.777   5.072
 7751SOL    HW224153   6.747   0.639   4.985
 7752SOL     OW24154   6.268   5.645   5.072
 7752SOL    HW124155   6.227   5.735   5.057
 7752SOL    HW224156   6.196   5.575   5.063
 7753SOL     OW24157   2.327   0.800   4.419
 7753SOL    HW124158   2.268   0.739   4.472
 7753SOL    HW224159   2.344   0.758   4.330
 7754SOL     OW24160   5.864   0.502   1.333
 7754SOL    HW124161   5.775   0.535   1.366
 7754SOL    HW224162   5.886   0.416   1.378
 7755SOL     OW24163   0.877   5.785   5.501
 7755SOL    HW124164   0.959   5.750   5.545
 7755SOL    HW224165   0.895   5.875   5.462
 7756SOL     OW24166   3.630   5.397   1.982
 7756SOL    HW124167   3.662   5.333   2.052
 7756SOL    HW224168   3.709   5.439   1.938
 7757SOL     OW24169   4.730   6.299   5.894
 7757SOL    HW124170   4.789   6.345   5.827
 7757SOL    HW224171   4.780   6.224   5.937
 7758SOL     OW24172   2.626   2.039   5.795
 7758SOL    HW124173   2.688   2.117   5.781
 7758SOL    HW224174   2.532   2.070   5.787
 7759SOL     OW24175   2.169   0.934   4.035
 7759SOL    HW124176   2.082   0.892   4.062
 7759SOL    HW224177   2.210   0.980   4.114
 7760SOL     OW24178   5.310   3.090   2.460
 7760SOL    HW124179   5.232   3.114   2.404
 7760SOL    HW224180   5.312   3.147   2.542
 7761SOL     OW24181   3.211   6.986   0.012
 7761SOL    HW124182   3.221   0.011   6.951
 7761SOL    HW224183   3.243   6.892   0.000
 7762SOL     OW24184   4.058   1.575   6.909
 7762SOL    HW124185   4.113   1.518   6.848
 7762SOL    HW224186   4.038   1.523   6.993
 7763SOL     OW24187   1.683   2.187   0.496
 7763SOL    HW124188   1.588   2.186   0.526
 7763SOL    HW224189   1.695   2.255   0.424
 7764SOL     OW24190   3.580   2.908   2.451
 7764SOL    HW124191   3.592   2.929   2.354
 7764SOL    HW224192   3.662   2.935   2.501
 7765SOL     OW24193   6.511   2.524   2.991
 7765SOL    HW124194   6.441   2.458   2.966
 7765SOL    HW224195   6.510   2.601   2.926
 7766SOL     OW24196   6.305   2.172   7.014
 7766SOL    HW124197   6.209   2.194   0.004
 7766SOL    HW224198   6.313   2.105   6.940
 7767SOL     OW24199   4.249   5.911   4.068
 7767SOL    HW124200   4.304   5.865   4.137
 7767SOL    HW224201   4.238   6.008   4.093
 7768SOL     OW24202   4.043   4.958   1.861
 7768SOL    HW124203   3.982   4.917   1.929
 7768SOL    HW224204   4.012   5.052   1.841
 7769SOL     OW24205   5.557   2.105   0.882
 7769SOL    HW124206   5.639   2.062   0.920
 7769SOL    HW224207   5.558   2.203   0.901
 7770SOL     OW24208   3.084   4.873   1.425
 7770SOL    HW124209   3.006   4.828   1.380
 7770SOL    HW224210   3.157   4.807   1.441
 7771SOL     OW24211   2.826   2.524   6.045
 7771SOL    HW124212   2.821   2.472   6.130
 7771SOL    HW224213   2.836   2.622   6.066
 7772SOL     OW24214   4.685   0.535   4.350
 7772SOL    HW124215   4.744   0.595   4.405
 7772SOL    HW224216   4.693   0.561   4.254
 7773SOL     OW24217   4.301   3.866   5.961
 7773SOL    HW124218   4.208   3.829   5.954
 7773SOL    HW224219   4.303   3.958   5.921
 7774SOL     OW24220   4.948   1.616   6.252
 7774SOL    HW124221   5.039   1.586   6.221
 7774SOL    HW224222   4.929   1.578   6.342
 7775SOL     OW24223   3.533   6.624   1.921
 7775SOL    HW124224   3.575   6.702   1.876
 7775SOL    HW224225   3.459   6.655   1.981
 7776SOL     OW24226   3.837   3.581   6.594
 7776SOL    HW124227   3.824   3.666   6.645
 7776SOL    HW224228   3.932   3.552   6.602
 7777SOL     OW24229   2.241   0.538   6.418
 7777SOL    HW124230   2.275   0.582   6.502
 7777SOL    HW224231   2.206   0.608   6.356
 7778SOL     OW24232   5.195   0.360   0.023
 7778SOL    HW124233   5.251   0.441   0.039
 7778SOL    HW224234   5.106   0.371   0.067
 7779SOL     OW24235   4.052   2.647   0.574
 7779SOL    HW124236   3.980   2.610   0.517
 7779SOL    HW224237   4.035   2.744   0.592
 7780SOL     OW24238   2.121   5.916   5.067
 7780SOL    HW124239   2.066   5.973   5.128
 7780SOL    HW224240   2.150   5.834   5.117
 7781SOL     OW24241   1.501   4.212   5.058
 7781SOL    HW124242   1.474   4.148   4.985
 7781SOL    HW224243   1.537   4.296   5.016
 7782SOL     OW24244   2.112   4.127   6.100
 7782SOL    HW124245   2.043   4.112   6.170
 7782SOL    HW224246   2.179   4.193   6.132
 7783SOL     OW24247   2.721   5.725   6.791
 7783SOL    HW124248   2.637   5.686   6.755
 7783SOL    HW224249   2.715   5.731   6.891
 7784SOL     OW24250   0.289   3.283   0.024
 7784SOL    HW124251   0.362   3.284   6.980
 7784SOL    HW224252   0.330   3.287   0.115
 7785SOL     OW24253   2.360   6.337   4.254
 7785SOL    HW124254   2.439   6.385   4.292
 7785SOL    HW224255   2.341   6.256   4.309
 7786SOL     OW24256   3.168   4.646   5.282
 7786SOL    HW124257   3.205   4.578   5.347
 7786SOL    HW224258   3.084   4.611   5.241
 7787SOL     OW24259   2.169   3.012   5.220
 7787SOL    HW124260   2.146   2.918   5.194
 7787SOL    HW224261   2.262   3.033   5.190
 7788SOL     OW24262   0.055   1.728   0.939
 7788SOL    HW124263   6.988   1.694   0.915
 7788SOL    HW224264   0.116   1.718   0.861
 7789SOL     OW24265   2.715   0.826   1.171
 7789SOL    HW124266   2.802   0.870   1.194
 7789SOL    HW224267   2.715   0.799   1.075
 7790SOL     OW24268   5.251   3.118   2.992
 7790SOL    HW124269   5.269   3.052   2.919
 7790SOL    HW224270   5.233   3.208   2.953
 7791SOL     OW24271   1.869   4.855   4.607
 7791SOL    HW124272   1.852   4.841   4.509
 7791SOL    HW224273   1.914   4.943   4.620
 7792SOL     OW24274   2.740   5.772   6.067
 7792SOL    HW124275   2.677   5.811   6.135
 7792SOL    HW224276   2.815   5.836   6.051
 7793SOL     OW24277   1.147   1.020   6.127
 7793SOL    HW124278   1.183   1.026   6.033
 7793SOL    HW224279   1.163   0.928   6.162
 7794SOL     OW24280   5.315   5.288   4.213
 7794SOL    HW124281   5.393   5.320   4.267
 7794SOL    HW224282   5.334   5.300   4.116
 7795SOL     OW24283   1.946   4.573   5.253
 7795SOL    HW124284   1.985   4.663   5.233
 7795SOL    HW224285   2.015   4.515   5.296
 7796SOL     OW24286   3.529   4.146   3.162
 7796SOL    HW124287   3.435   4.179   3.152
 7796SOL    HW224288   3.570   4.185   3.244
 7797SOL     OW24289   0.061   6.910   3.008
 7797SOL    HW124290   0.133   6.973   3.035
 7797SOL    HW224291   6.998   6.958   3.003
 7798SOL     OW24292   3.401   5.882   0.858
 7798SOL    HW124293   3.461   5.956   0.886
 7798SOL    HW224294   3.310   5.895   0.899
 7799SOL     OW24295   6.980   4.992   1.451
 7799SOL    HW124296   6.897   5.043   1.472
 7799SOL    HW224297   6.973   4.953   1.359
 7800SOL     OW24298   0.104   5.423   2.203
 7800SOL    HW124299   0.188   5.368   2.203
 7800SOL    HW224300   0.043   5.389   2.275
 7801SOL     OW24301   2.707   2.096   0.038
 7801SOL    HW124302   2.785   2.059   7.011
 7801SOL    HW224303   2.684   2.186   0.002
 7802SOL     OW24304   5.162   2.574   1.619
 7802SOL    HW124305   5.218   2.596   1.699
 7802SOL    HW224306   5.151   2.656   1.563
 7803SOL     OW24307   4.323   4.317   5.634
 7803SOL    HW124308   4.273   4.345   5.553
 7803SOL    HW224309   4.422   4.322   5.617
 7804SOL     OW24310   4.959   1.788   5.584
 7804SOL    HW124311   4.945   1.824   5.676
 7804SOL    HW224312   5.053   1.755   5.575
 7805SOL     OW24313   5.401   3.336   2.145
 7805SOL    HW124314   5.338   3.400   2.187
 7805SOL    HW224315   5.445   3.280   2.215
 7806SOL     OW24316   6.051   2.833   6.031
 7806SOL    HW124317   5.988   2.900   5.994
 7806SOL    HW224318   6.003   2.746   6.044
 7807SOL     OW24319   6.995   3.797   5.912
 7807SOL    HW124320   0.027   3.779   5.832
 7807SOL    HW224321   6.968   3.893   5.912
 7808SOL     OW24322   0.956   0.971   4.606
 7808SOL    HW124323   0.933   0.881   4.568
 7808SOL    HW224324   0.874   1.013   4.644
 7809SOL     OW24325   2.802   5.472   5.023
 7809SOL    HW124326   2.855   5.387   5.016
 7809SOL    HW224327   2.832   5.535   4.951
 7810SOL     OW24328   2.910   0.594   5.455
 7810SOL    HW124329   2.869   0.505   5.472
 7810SOL    HW224330   2.862   0.664   5.508
 7811SOL     OW24331   5.415   4.523   4.030
 7811SOL    HW124332   5.400   4.534   3.932
 7811SOL    HW224333   5.344   4.571   4.081
 7812SOL     OW24334   1.821   1.247   3.906
 7812SOL    HW124335   1.776   1.185   3.971
 7812SOL    HW224336   1.784   1.232   3.815
 7813SOL     OW24337   6.223   2.868   6.798
 7813SOL    HW124338   6.172   2.823   6.725
 7813SOL    HW224339   6.316   2.833   6.801
 7814SOL     OW24340   0.011   3.443   3.782
 7814SOL    HW124341   0.110   3.450   3.778
 7814SOL    HW224342   7.004   3.457   3.876
 7815SOL     OW24343   6.348   1.665   6.224
 7815SOL    HW124344   6.433   1.714   6.204
 7815SOL    HW224345   6.276   1.731   6.245
 7816SOL     OW24346   0.982   3.717   5.641
 7816SOL    HW124347   1.077   3.716   5.611
 7816SOL    HW224348   0.970   3.787   5.711
 7817SOL     OW24349   5.495   4.077   4.680
 7817SOL    HW124350   5.536   4.153   4.732
 7817SOL    HW224351   5.409   4.106   4.640
 7818SOL     OW24352   5.766   6.432   1.886
 7818SOL    HW124353   5.858   6.418   1.921
 7818SOL    HW224354   5.760   6.397   1.792
 7819SOL     OW24355   6.814   2.633   1.541
 7819SOL    HW124356   6.868   2.709   1.577
 7819SOL    HW224357   6.834   2.621   1.444
 7820SOL     OW24358   1.646   1.472   6.596
 7820SOL    HW124359   1.569   1.498   6.654
 7820SOL    HW224360   1.627   1.385   6.551
 7821SOL     OW24361   3.287   5.432   1.412
 7821SOL    HW124362   3.326   5.381   1.489
 7821SOL    HW224363   3.340   5.414   1.330
 7822SOL     OW24364   1.084   5.570   5.134
 7822SOL    HW124365   1.038   5.652   5.169
 7822SOL    HW224366   1.115   5.587   5.040
 7823SOL     OW24367   1.751   4.298   5.209
 7823SOL    HW124368   1.795   4.354   5.139
 7823SOL    HW224369   1.662   4.267   5.175
 7824SOL     OW24370   0.493   2.794   5.206
 7824SOL    HW124371   0.444   2.711   5.233
 7824SOL    HW224372   0.548   2.827   5.283
 7825SOL     OW24373   2.498   1.770   6.487
 7825SOL    HW124374   2.536   1.746   6.397
 7825SOL    HW224375   2.400   1.784   6.479
 7826SOL     OW24376   6.819   2.473   6.980
 7826SOL    HW124377   6.761   2.430   0.024
 7826SOL    HW224378   6.915   2.466   7.007
 7827SOL     OW24379   6.921   6.137   4.130
 7827SOL    HW124380   6.893   6.041   4.129
 7827SOL    HW224381   6.844   6.194   4.157
 7828SOL     OW24382   0.621   4.062   6.745
 7828SOL    HW124383   0.683   3.988   6.770
 7828SOL    HW224384   0.557   4.079   6.819
 7829SOL     OW24385   3.368   2.596   1.023
 7829SOL    HW124386   3.373   2.551   1.112
 7829SOL    HW224387   3.453   2.580   0.973
 7830SOL     OW24388   2.866   4.756   4.231
 7830SOL    HW124389   2.926   4.813   4.175
 7830SOL    HW224390   2.799   4.711   4.172
 7831SOL     OW24391   1.759   1.817   0.385
 7831SOL    HW124392   1.774   1.719   0.397
 7831SOL    HW224393   1.670   1.832   0.341
 7832SOL     OW24394   5.620   0.623   4.514
 7832SOL    HW124395   5.556   0.586   4.581
 7832SOL    HW224396   5.709   0.578   4.525
 7833SOL     OW24397   2.373   0.659   4.128
 7833SOL    HW124398   2.472   0.642   4.131
 7833SOL    HW224399   2.338   0.639   4.037
 7834SOL     OW24400   6.303   3.104   4.472
 7834SOL    HW124401   6.297   3.177   4.403
 7834SOL    HW224402   6.211   3.067   4.489
 7835SOL     OW24403   4.333   2.041   4.966
 7835SOL    HW124404   4.391   2.091   4.902
 7835SOL    HW224405   4.282   1.970   4.918
 7836SOL     OW24406   3.840   4.366   5.316
 7836SOL    HW124407   3.909   4.432   5.346
 7836SOL    HW224408   3.843   4.358   5.216
 7837SOL     OW24409   5.769   6.293   6.449
 7837SOL    HW124410   5.731   6.384   6.460
 7837SOL    HW224411   5.848   6.281   6.509
 7838SOL     OW24412   5.439   5.447   1.089
 7838SOL    HW124413   5.485   5.382   1.028
 7838SOL    HW224414   5.498   5.466   1.167
 7839SOL     OW24415   6.069   3.972   4.228
 7839SOL    HW124416   6.111   3.964   4.138
 7839SOL    HW224417   6.133   3.940   4.298
 7840SOL     OW24418   1.993   3.117   3.699
 7840SOL    HW124419   2.078   3.102   3.750
 7840SOL    HW224420   1.982   3.214   3.680
 7841SOL     OW24421   4.707   2.469   5.982
 7841SOL    HW124422   4.765   2.400   6.025
 7841SOL    HW224423   4.665   2.431   5.900
 7842SOL     OW24424   2.079   1.633   2.161
 7842SOL    HW124425   2.148   1.570   2.195
 7842SOL    HW224426   1.999   1.582   2.130
 7843SOL     OW24427   0.406   6.477   3.218
 7843SOL    HW124428   0.359   6.549   3.168
 7843SOL    HW224429   0.388   6.389   3.174
 7844SOL     OW24430   3.739   1.004   2.715
 7844SOL    HW124431   3.719   0.957   2.629
 7844SOL    HW224432   3.667   1.071   2.733
 7845SOL     OW24433   6.172   2.150   1.346
 7845SOL    HW124434   6.099   2.210   1.314
 7845SOL    HW224435   6.235   2.203   1.404
 7846SOL     OW24436   0.672   3.020   0.448
 7846SOL    HW124437   0.772   3.023   0.440
 7846SOL    HW224438   0.647   2.946   0.510
 7847SOL     OW24439   5.775   2.696   4.622
 7847SOL    HW124440   5.676   2.699   4.634
 7847SOL    HW224441   5.798   2.726   4.529
 7848SOL     OW24442   2.967   4.702   0.856
 7848SOL    HW124443   2.978   4.612   0.815
 7848SOL    HW224444   2.979   4.695   0.956
 7849SOL     OW24445   4.653   3.987   6.095
 7849SOL    HW124446   4.601   4.017   6.175
 7849SOL    HW224447   4.666   4.065   6.033
 7850SOL     OW24448   6.798   1.415   3.475
 7850SOL    HW124449   6.800   1.514   3.459
 7850SOL    HW224450   6.886   1.376   3.446
 7851SOL     OW24451   0.647   4.526   2.084
 7851SOL    HW124452   0.574   4.470   2.045
 7851SOL    HW224453   0.691   4.476   2.158
 7852SOL     OW24454   1.755   2.288   6.946
 7852SOL    HW124455   1.677   2.228   6.960
 7852SOL    HW224456   1.726   2.384   6.953
 7853SOL     OW24457   4.181   2.745   1.672
 7853SOL    HW124458   4.096   2.767   1.720
 7853SOL    HW224459   4.251   2.812   1.695
 7854SOL     OW24460   5.186   2.387   6.274
 7854SOL    HW124461   5.129   2.389   6.191
 7854SOL    HW224462   5.248   2.465   6.274
 7855SOL     OW24463   5.236   6.825   4.451
 7855SOL    HW124464   5.260   6.848   4.546
 7855SOL    HW224465   5.192   6.903   4.408
 7856SOL     OW24466   2.007   6.124   4.863
 7856SOL    HW124467   2.031   6.031   4.889
 7856SOL    HW224468   1.981   6.126   4.766
 7857SOL     OW24469   5.007   4.064   0.686
 7857SOL    HW124470   5.091   4.031   0.642
 7857SOL    HW224471   4.935   3.996   0.676
 7858SOL     OW24472   0.561   5.330   5.708
 7858SOL    HW124473   0.644   5.332   5.763
 7858SOL    HW224474   0.582   5.294   5.617
 7859SOL     OW24475   4.989   2.575   0.125
 7859SOL    HW124476   4.896   2.546   0.102
 7859SOL    HW224477   5.045   2.494   0.143
 7860SOL     OW24478   2.666   0.838   4.477
 7860SOL    HW124479   2.601   0.860   4.404
 7860SOL    HW224480   2.671   0.915   4.541
 7861SOL     OW24481   2.573   6.633   1.172
 7861SOL    HW124482   2.605   6.591   1.087
 7861SOL    HW224483   2.550   6.729   1.156
 7862SOL     OW24484   2.728   6.286   0.784
 7862SOL    HW124485   2.806   6.225   0.794
 7862SOL    HW224486   2.643   6.233   0.786
 7863SOL     OW24487   6.879   4.482   3.856
 7863SOL    HW124488   6.916   4.427   3.932
 7863SOL    HW224489   6.801   4.434   3.816
 7864SOL     OW24490   2.638   6.820   5.196
 7864SOL    HW124491   2.541   6.802   5.213
 7864SOL    HW224492   2.650   6.846   5.100
 7865SOL     OW24493   6.089   5.892   3.875
 7865SOL    HW124494   5.996   5.895   3.911
 7865SOL    HW224495   6.154   5.895   3.952
 7866SOL     OW24496   1.011   0.091   6.368
 7866SOL    HW124497   1.087   0.149   6.341
 7866SOL    HW224498   0.952   0.073   6.289
 7867SOL     OW24499   5.413   6.365   3.763
 7867SOL    HW124500   5.387   6.274   3.795
 7867SOL    HW224501   5.459   6.357   3.675
 7868SOL     OW24502   3.522   6.951   1.063
 7868SOL    HW124503   3.444   6.966   1.123
 7868SOL    HW224504   3.535   6.852   1.049
 7869SOL     OW24505   5.448   4.240   5.954
 7869SOL    HW124506   5.418   4.260   5.861
 7869SOL    HW224507   5.443   4.142   5.970
 7870SOL     OW24508   4.911   5.800   4.998
 7870SOL    HW124509   5.000   5.796   5.044
 7870SOL    HW224510   4.860   5.716   5.018
 7871SOL     OW24511   5.105   1.499   1.874
 7871SOL    HW124512   5.125   1.487   1.971
 7871SOL    HW224513   5.006   1.508   1.861
 7872SOL     OW24514   1.922   6.302   2.386
 7872SOL    HW124515   1.828   6.317   2.419
 7872SOL    HW224516   1.920   6.235   2.312
 7873SOL     OW24517   6.452   1.211   0.158
 7873SOL    HW124518   6.352   1.209   0.167
 7873SOL    HW224519   6.493   1.228   0.247
 7874SOL     OW24520   5.521   2.348   0.968
 7874SOL    HW124521   5.430   2.357   0.926
 7874SOL    HW224522   5.569   2.435   0.962
 7875SOL     OW24523   4.838   4.246   6.462
 7875SOL    HW124524   4.761   4.242   6.526
 7875SOL    HW224525   4.908   4.307   6.498
 7876SOL     OW24526   0.812   0.254   2.123
 7876SOL    HW124527   0.718   0.281   2.142
 7876SOL    HW224528   0.814   0.157   2.097
 7877SOL     OW24529   6.892   2.004   3.168
 7877SOL    HW124530   6.890   2.088   3.222
 7877SOL    HW224531   6.981   1.993   3.125
 7878SOL     OW24532   4.493   4.894   3.576
 7878SOL    HW124533   4.442   4.901   3.491
 7878SOL    HW224534   4.497   4.984   3.620
 7879SOL     OW24535   2.559   4.803   3.496
 7879SOL    HW124536   2.559   4.903   3.501
 7879SOL    HW224537   2.508   4.774   3.416
 7880SOL     OW24538   1.266   4.098   1.984
 7880SOL    HW124539   1.338   4.154   1.943
 7880SOL    HW224540   1.280   4.093   2.083
 7881SOL     OW24541   5.126   3.846   4.060
 7881SOL    HW124542   5.043   3.799   4.029
 7881SOL    HW224543   5.204   3.815   4.005
 7882SOL     OW24544   1.686   3.088   0.885
 7882SOL    HW124545   1.748   3.062   0.958
 7882SOL    HW224546   1.734   3.144   0.818
 7883SOL     OW24547   1.126   1.354   5.399
 7883SOL    HW124548   1.146   1.435   5.344
 7883SOL    HW224549   1.114   1.275   5.339
 7884SOL     OW24550   0.467   3.154   4.505
 7884SOL    HW124551   0.455   3.183   4.599
 7884SOL    HW224552   0.443   3.228   4.443
 7885SOL     OW24553   6.022   5.989   0.272
 7885SOL    HW124554   6.047   6.079   0.235
 7885SOL    HW224555   5.995   5.929   0.197
 7886SOL     OW24556   4.730   5.404   6.991
 7886SOL    HW124557   4.663   5.361   6.931
 7886SOL    HW224558   4.807   5.341   7.005
 7887SOL     OW24559   5.010   1.802   6.985
 7887SOL    HW124560   4.911   1.814   6.985
 7887SOL    HW224561   5.043   1.795   6.890
 7888SOL     OW24562   4.618   0.788   3.976
 7888SOL    HW124563   4.702   0.735   3.985
 7888SOL    HW224564   4.598   0.835   4.063
 7889SOL     OW24565   0.576   6.629   2.051
 7889SOL    HW124566   0.587   6.585   1.962
 7889SOL    HW224567   0.526   6.715   2.041
 7890SOL     OW24568   1.350   3.547   2.695
 7890SOL    HW124569   1.446   3.531   2.717
 7890SOL    HW224570   1.303   3.459   2.685
 7891SOL     OW24571   2.016   4.641   2.193
 7891SOL    HW124572   2.096   4.594   2.231
 7891SOL    HW224573   2.043   4.693   2.113
 7892SOL     OW24574   2.019   2.104   6.019
 7892SOL    HW124575   1.981   2.069   6.105
 7892SOL    HW224576   1.961   2.077   5.943
 7893SOL     OW24577   6.254   6.374   1.283
 7893SOL    HW124578   6.180   6.382   1.350
 7893SOL    HW224579   6.216   6.379   1.191
 7894SOL     OW24580   2.777   6.747   1.566
 7894SOL    HW124581   2.735   6.678   1.507
 7894SOL    HW224582   2.876   6.733   1.569
 7895SOL     OW24583   6.778   1.119   4.531
 7895SOL    HW124584   6.877   1.105   4.539
 7895SOL    HW224585   6.760   1.215   4.508
 7896SOL     OW24586   4.872   3.396   5.576
 7896SOL    HW124587   4.852   3.456   5.654
 7896SOL    HW224588   4.788   3.378   5.525
 7897SOL     OW24589   3.120   3.251   6.473
 7897SOL    HW124590   3.078   3.218   6.558
 7897SOL    HW224591   3.056   3.310   6.424
 7898SOL     OW24592   4.160   2.292   3.583
 7898SOL    HW124593   4.103   2.273   3.663
 7898SOL    HW224594   4.126   2.240   3.505
 7899SOL     OW24595   5.553   2.335   2.843
 7899SOL    HW124596   5.459   2.325   2.811
 7899SOL    HW224597   5.553   2.348   2.943
 7900SOL     OW24598   1.892   5.642   0.759
 7900SOL    HW124599   1.820   5.583   0.725
 7900SOL    HW224600   1.919   5.707   0.688
 7901SOL     OW24601   6.280   6.502   6.275
 7901SOL    HW124602   6.212   6.572   6.252
 7901SOL    HW224603   6.372   6.541   6.266
 7902SOL     OW24604   4.422   3.579   0.136
 7902SOL    HW124605   4.365   3.532   0.069
 7902SOL    HW224606   4.508   3.529   0.147
 7903SOL     OW24607   6.643   1.755   6.913
 7903SOL    HW124608   6.692   1.703   6.844
 7903SOL    HW224609   6.568   1.699   6.950
 7904SOL     OW24610   6.882   1.199   2.267
 7904SOL    HW124611   6.959   1.192   2.331
 7904SOL    HW224612   6.818   1.124   2.284
 7905SOL     OW24613   4.159   0.925   1.104
 7905SOL    HW124614   4.221   0.987   1.153
 7905SOL    HW224615   4.075   0.974   1.080
 7906SOL     OW24616   5.984   5.898   6.595
 7906SOL    HW124617   5.965   5.948   6.511
 7906SOL    HW224618   5.943   5.807   6.590
 7907SOL     OW24619   0.144   2.560   2.550
 7907SOL    HW124620   0.228   2.543   2.498
 7907SOL    HW224621   0.159   2.636   2.613
 7908SOL     OW24622   6.646   2.341   4.175
 7908SOL    HW124623   6.671   2.296   4.089
 7908SOL    HW224624   6.576   2.287   4.222
 7909SOL     OW24625   4.812   4.383   4.870
 7909SOL    HW124626   4.903   4.353   4.841
 7909SOL    HW224627   4.770   4.312   4.927
 7910SOL     OW24628   5.775   3.146   5.652
 7910SOL    HW124629   5.765   3.166   5.555
 7910SOL    HW224630   5.685   3.145   5.696
 7911SOL     OW24631   5.845   4.313   0.312
 7911SOL    HW124632   5.879   4.239   0.369
 7911SOL    HW224633   5.831   4.395   0.367
 7912SOL     OW24634   6.315   4.865   6.363
 7912SOL    HW124635   6.414   4.861   6.353
 7912SOL    HW224636   6.276   4.917   6.287
 7913SOL     OW24637   0.130   5.389   6.019
 7913SOL    HW124638   0.099   5.375   5.925
 7913SOL    HW224639   0.213   5.336   6.035
 7914SOL     OW24640   6.306   4.183   1.250
 7914SOL    HW124641   6.318   4.213   1.344
 7914SOL    HW224642   6.291   4.084   1.248
 7915SOL     OW24643   3.610   1.437   3.234
 7915SOL    HW124644   3.597   1.536   3.247
 7915SOL    HW224645   3.704   1.420   3.205
 7916SOL     OW24646   5.163   3.888   5.334
 7916SOL    HW124647   5.209   3.816   5.282
 7916SOL    HW224648   5.171   3.869   5.432
 7917SOL     OW24649   3.682   3.844   4.104
 7917SOL    HW124650   3.780   3.860   4.111
 7917SOL    HW224651   3.656   3.838   4.007
 7918SOL     OW24652   5.886   1.898   2.807
 7918SOL    HW124653   5.953   1.922   2.736
 7918SOL    HW224654   5.794   1.899   2.768
 7919SOL     OW24655   5.410   5.055   2.180
 7919SOL    HW124656   5.455   4.999   2.251
 7919SOL    HW224657   5.313   5.031   2.175
 7920SOL     OW24658   0.673   4.981   1.527
 7920SOL    HW124659   0.695   5.006   1.622
 7920SOL    HW224660   0.574   4.984   1.514
 7921SOL     OW24661   2.182   7.021   1.158
 7921SOL    HW124662   2.212   6.985   1.070
 7921SOL    HW224663   2.228   6.971   1.232
 7922SOL     OW24664   0.999   5.394   6.494
 7922SOL    HW124665   0.988   5.447   6.579
 7922SOL    HW224666   0.961   5.302   6.507
 7923SOL     OW24667   1.251   1.992   3.312
 7923SOL    HW124668   1.221   1.966   3.404
 7923SOL    HW224669   1.346   2.021   3.315
 7924SOL     OW24670   2.954   6.992   4.100
 7924SOL    HW124671   3.042   0.000   4.066
 7924SOL    HW224672   2.881   0.028   4.069
 7925SOL     OW24673   6.344   1.176   6.065
 7925SOL    HW124674   6.357   1.206   6.160
 7925SOL    HW224675   6.292   1.246   6.016
 7926SOL     OW24676   3.981   0.287   1.842
 7926SOL    HW124677   3.945   0.368   1.889
 7926SOL    HW224678   4.065   0.257   1.887
 7927SOL     OW24679   4.712   5.158   4.446
 7927SOL    HW124680   4.759   5.090   4.503
 7927SOL    HW224681   4.621   5.125   4.424
 7928SOL     OW24682   1.638   5.409   1.774
 7928SOL    HW124683   1.704   5.482   1.757
 7928SOL    HW224684   1.664   5.328   1.723
 7929SOL     OW24685   3.812   3.514   4.220
 7929SOL    HW124686   3.796   3.422   4.255
 7929SOL    HW224687   3.732   3.544   4.168
 7930SOL     OW24688   5.007   5.705   3.662
 7930SOL    HW124689   4.934   5.772   3.659
 7930SOL    HW224690   5.063   5.713   3.579
 7931SOL     OW24691   2.393   1.853   0.437
 7931SOL    HW124692   2.414   1.757   0.419
 7931SOL    HW224693   2.373   1.865   0.534
 7932SOL     OW24694   2.293   0.328   0.612
 7932SOL    HW124695   2.212   0.365   0.657
 7932SOL    HW224696   2.265   0.259   0.546
 7933SOL     OW24697   1.576   1.039   6.722
 7933SOL    HW124698   1.645   0.978   6.760
 7933SOL    HW224699   1.595   1.055   6.625
 7934SOL     OW24700   2.623   3.497   6.280
 7934SOL    HW124701   2.685   3.528   6.352
 7934SOL    HW224702   2.629   3.560   6.202
 7935SOL     OW24703   4.291   6.601   1.887
 7935SOL    HW124704   4.309   6.678   1.825
 7935SOL    HW224705   4.362   6.532   1.876
 7936SOL     OW24706   4.320   5.927   3.106
 7936SOL    HW124707   4.311   5.831   3.077
 7936SOL    HW224708   4.411   5.942   3.145
 7937SOL     OW24709   6.406   6.691   5.835
 7937SOL    HW124710   6.369   6.676   5.743
 7937SOL    HW224711   6.432   6.603   5.875
 7938SOL     OW24712   5.333   4.990   4.702
 7938SOL    HW124713   5.234   4.976   4.708
 7938SOL    HW224714   5.358   5.012   4.608
 7939SOL     OW24715   1.120   0.933   5.416
 7939SOL    HW124716   1.102   0.980   5.330
 7939SOL    HW224717   1.138   0.836   5.398
 7940SOL     OW24718   1.889   6.112   0.818
 7940SOL    HW124719   1.980   6.077   0.796
 7940SOL    HW224720   1.849   6.154   0.737
 7941SOL     OW24721   0.437   0.404   1.116
 7941SOL    HW124722   0.372   0.467   1.158
 7941SOL    HW224723   0.476   0.344   1.185
 7942SOL     OW24724   0.208   0.578   1.666
 7942SOL    HW124725   0.274   0.561   1.594
 7942SOL    HW224726   0.168   0.669   1.654
 7943SOL     OW24727   5.225   1.320   1.504
 7943SOL    HW124728   5.272   1.402   1.473
 7943SOL    HW224729   5.247   1.304   1.600
 7944SOL     OW24730   0.888   4.550   1.588
 7944SOL    HW124731   0.896   4.650   1.585
 7944SOL    HW224732   0.964   4.511   1.639
 7945SOL     OW24733   5.167   6.780   2.486
 7945SOL    HW124734   5.235   6.847   2.456
 7945SOL    HW224735   5.077   6.804   2.449
 7946SOL     OW24736   1.625   2.209   6.014
 7946SOL    HW124737   1.687   2.275   6.055
 7946SOL    HW224738   1.552   2.186   6.079
 7947SOL     OW24739   4.297   3.286   6.424
 7947SOL    HW124740   4.372   3.289   6.359
 7947SOL    HW224741   4.218   3.335   6.387
 7948SOL     OW24742   7.009   6.129   0.453
 7948SOL    HW124743   7.012   6.030   0.464
 7948SOL    HW224744   6.920   6.163   0.482
 7949SOL     OW24745   5.630   4.316   3.861
 7949SOL    HW124746   5.642   4.226   3.904
 7949SOL    HW224747   5.577   4.305   3.777
 7950SOL     OW24748   3.752   5.237   4.214
 7950SOL    HW124749   3.782   5.144   4.233
 7950SOL    HW224750   3.717   5.279   4.298
 7951SOL     OW24751   3.364   3.326   0.877
 7951SOL    HW124752   3.387   3.240   0.922
 7951SOL    HW224753   3.277   3.317   0.829
 7952SOL     OW24754   5.731   3.318   1.050
 7952SOL    HW124755   5.674   3.384   1.098
 7952SOL    HW224756   5.697   3.306   0.956
 7953SOL     OW24757   2.057   2.892   3.132
 7953SOL    HW124758   2.151   2.892   3.166
 7953SOL    HW224759   1.994   2.872   3.207
 7954SOL     OW24760   4.030   5.244   5.245
 7954SOL    HW124761   4.036   5.256   5.145
 7954SOL    HW224762   4.065   5.154   5.270
 7955SOL     OW24763   0.767   6.372   6.158
 7955SOL    HW124764   0.687   6.411   6.112
 7955SOL    HW224765   0.746   6.280   6.190
 7956SOL     OW24766   5.926   6.572   4.155
 7956SOL    HW124767   5.866   6.608   4.083
 7956SOL    HW224768   5.984   6.645   4.190
 7957SOL     OW24769   0.764   2.027   1.406
 7957SOL    HW124770   0.823   1.949   1.386
 7957SOL    HW224771   0.753   2.035   1.506
 7958SOL     OW24772   2.735   4.966   2.831
 7958SOL    HW124773   2.703   4.905   2.758
 7958SOL    HW224774   2.657   4.993   2.887
 7959SOL     OW24775   5.981   5.074   0.669
 7959SOL    HW124776   5.978   5.129   0.585
 7959SOL    HW224777   5.976   5.134   0.748
 7960SOL     OW24778   2.676   2.145   1.094
 7960SOL    HW124779   2.723   2.083   1.032
 7960SOL    HW224780   2.677   2.106   1.187
 7961SOL     OW24781   1.969   5.601   6.758
 7961SOL    HW124782   1.872   5.602   6.736
 7961SOL    HW224783   2.023   5.599   6.674
 7962SOL     OW24784   0.935   1.064   2.398
 7962SOL    HW124785   0.871   1.040   2.325
 7962SOL    HW224786   1.022   1.016   2.384
 7963SOL     OW24787   0.600   0.389   5.050
 7963SOL    HW124788   0.664   0.396   4.973
 7963SOL    HW224789   0.646   0.346   5.128
 7964SOL     OW24790   5.791   5.584   4.093
 7964SOL    HW124791   5.884   5.616   4.106
 7964SOL    HW224792   5.792   5.494   4.048
 7965SOL     OW24793   5.485   1.984   6.993
 7965SOL    HW124794   5.527   1.927   6.923
 7965SOL    HW224795   5.556   2.035   0.018
 7966SOL     OW24796   6.878   4.934   3.878
 7966SOL    HW124797   6.864   4.867   3.952
 7966SOL    HW224798   6.919   4.888   3.799
 7967SOL     OW24799   3.171   6.231   2.433
 7967SOL    HW124800   3.221   6.317   2.430
 7967SOL    HW224801   3.073   6.250   2.435
 7968SOL     OW24802   1.898   2.067   2.876
 7968SOL    HW124803   1.827   2.110   2.819
 7968SOL    HW224804   1.952   2.137   2.920
 7969SOL     OW24805   3.027   1.997   3.368
 7969SOL    HW124806   3.051   2.061   3.295
 7969SOL    HW224807   3.092   1.921   3.368
 7970SOL     OW24808   0.771   4.467   3.236
 7970SOL    HW124809   0.729   4.388   3.191
 7970SOL    HW224810   0.788   4.538   3.168
 7971SOL     OW24811   3.061   1.421   1.658
 7971SOL    HW124812   3.041   1.354   1.729
 7971SOL    HW224813   3.014   1.395   1.574
 7972SOL     OW24814   0.455   4.692   1.493
 7972SOL    HW124815   0.463   4.785   1.530
 7972SOL    HW224816   0.362   4.678   1.457
 7973SOL     OW24817   4.932   3.094   3.402
 7973SOL    HW124818   4.996   3.030   3.360
 7973SOL    HW224819   4.930   3.079   3.501
 7974SOL     OW24820   5.100   0.393   4.391
 7974SOL    HW124821   5.087   0.469   4.327
 7974SOL    HW224822   5.058   0.310   4.354
 7975SOL     OW24823   3.239   1.311   4.175
 7975SOL    HW124824   3.279   1.223   4.201
 7975SOL    HW224825   3.209   1.360   4.257
 7976SOL     OW24826   1.077   5.658   5.950
 7976SOL    HW124827   1.029   5.574   5.925
 7976SOL    HW224828   1.160   5.635   6.001
 7977SOL     OW24829   5.446   6.260   1.746
 7977SOL    HW124830   5.381   6.334   1.757
 7977SOL    HW224831   5.439   6.197   1.824
 7978SOL     OW24832   4.804   3.571   5.790
 7978SOL    HW124833   4.843   3.647   5.842
 7978SOL    HW224834   4.718   3.600   5.747
 7979SOL     OW24835   3.147   0.358   4.609
 7979SOL    HW124836   3.125   0.281   4.550
 7979SOL    HW224837   3.244   0.381   4.601
 7980SOL     OW24838   3.339   6.226   0.744
 7980SOL    HW124839   3.369   6.321   0.733
 7980SOL    HW224840   3.388   6.169   0.678
 7981SOL     OW24841   1.226   5.142   2.542
 7981SOL    HW124842   1.173   5.074   2.492
 7981SOL    HW224843   1.168   5.186   2.611
 7982SOL     OW24844   6.359   2.304   1.009
 7982SOL    HW124845   6.416   2.237   0.962
 7982SOL    HW224846   6.264   2.291   0.982
 7983SOL     OW24847   5.402   2.239   2.515
 7983SOL    HW124848   5.471   2.311   2.525
 7983SOL    HW224849   5.446   2.154   2.488
 7984SOL     OW24850   0.390   2.139   2.164
 7984SOL    HW124851   0.344   2.199   2.098
 7984SOL    HW224852   0.322   2.086   2.214
 7985SOL     OW24853   0.349   1.275   2.344
 7985SOL    HW124854   0.436   1.323   2.340
 7985SOL    HW224855   0.275   1.341   2.355
 7986SOL     OW24856   4.188   0.704   6.730
 7986SOL    HW124857   4.219   0.787   6.777
 7986SOL    HW224858   4.093   0.715   6.702
 7987SOL     OW24859   0.929   3.150   5.052
 7987SOL    HW124860   0.871   3.104   4.985
 7987SOL    HW224861   0.970   3.083   5.113
 7988SOL     OW24862   2.823   1.538   4.878
 7988SOL    HW124863   2.760   1.611   4.904
 7988SOL    HW224864   2.904   1.577   4.834
 7989SOL     OW24865   2.817   2.699   5.379
 7989SOL    HW124866   2.849   2.627   5.440
 7989SOL    HW224867   2.893   2.758   5.354
 7990SOL     OW24868   1.166   2.373   4.981
 7990SOL    HW124869   1.188   2.418   4.894
 7990SOL    HW224870   1.204   2.426   5.056
 7991SOL     OW24871   0.410   2.767   5.942
 7991SOL    HW124872   0.504   2.796   5.960
 7991SOL    HW224873   0.349   2.809   6.008
 7992SOL     OW24874   2.655   0.500   0.828
 7992SOL    HW124875   2.563   0.473   0.799
 7992SOL    HW224876   2.721   0.471   0.758
 7993SOL     OW24877   1.767   6.603   0.006
 7993SOL    HW124878   1.717   6.556   0.078
 7993SOL    HW224879   1.755   6.702   0.016
 7994SOL     OW24880   5.686   1.158   3.650
 7994SOL    HW124881   5.749   1.081   3.665
 7994SOL    HW224882   5.612   1.153   3.717
 7995SOL     OW24883   2.955   5.267   3.460
 7995SOL    HW124884   2.994   5.197   3.400
 7995SOL    HW224885   2.895   5.224   3.527
 7996SOL     OW24886   4.131   6.684   5.403
 7996SOL    HW124887   4.128   6.738   5.319
 7996SOL    HW224888   4.224   6.648   5.415
 7997SOL     OW24889   5.835   2.858   1.325
 7997SOL    HW124890   5.797   2.769   1.299
 7997SOL    HW224891   5.934   2.852   1.332
 7998SOL     OW24892   6.114   5.305   0.193
 7998SOL    HW124893   6.197   5.327   0.243
 7998SOL    HW224894   6.137   5.264   0.106
 7999SOL     OW24895   1.441   0.126   5.784
 7999SOL    HW124896   1.409   0.036   5.813
 7999SOL    HW224897   1.537   0.120   5.756
 8000SOL     OW24898   5.959   6.942   5.424
 8000SOL    HW124899   5.897   6.890   5.366
 8000SOL    HW224900   5.907   7.002   5.483
 8001SOL     OW24901   1.971   6.626   1.778
 8001SOL    HW124902   2.051   6.665   1.824
 8001SOL    HW224903   1.888   6.670   1.811
 8002SOL     OW24904   5.933   2.882   4.999
 8002SOL    HW124905   5.974   2.970   4.975
 8002SOL    HW224906   5.964   2.812   4.935
 8003SOL     OW24907   3.077   4.878   3.007
 8003SOL    HW124908   3.072   4.922   2.917
 8003SOL    HW224909   3.014   4.800   3.009
 8004SOL     OW24910   2.117   3.800   2.713
 8004SOL    HW124911   2.048   3.741   2.671
 8004SOL    HW224912   2.191   3.816   2.649
 8005SOL     OW24913   2.985   0.907   1.189
 8005SOL    HW124914   2.951   0.986   1.240
 8005SOL    HW224915   3.038   0.937   1.110
 8006SOL     OW24916   3.144   5.875   1.002
 8006SOL    HW124917   3.077   5.803   0.986
 8006SOL    HW224918   3.097   5.963   1.015
 8007SOL     OW24919   0.339   0.504   4.362
 8007SOL    HW124920   0.265   0.542   4.418
 8007SOL    HW224921   0.357   0.410   4.391
 8008SOL     OW24922   6.248   6.783   0.753
 8008SOL    HW124923   6.207   6.862   0.707
 8008SOL    HW224924   6.178   6.735   0.807
 8009SOL     OW24925   7.016   6.566   4.135
 8009SOL    HW124926   0.060   6.510   4.088
 8009SOL    HW224927   6.995   6.526   4.224
 8010SOL     OW24928   2.359   2.584   6.640
 8010SOL    HW124929   2.339   2.682   6.632
 8010SOL    HW224930   2.295   2.542   6.705
 8011SOL     OW24931   3.340   2.328   0.841
 8011SOL    HW124932   3.279   2.407   0.846
 8011SOL    HW224933   3.435   2.358   0.850
 8012SOL     OW24934   2.847   6.433   1.818
 8012SOL    HW124935   2.889   6.437   1.728
 8012SOL    HW224936   2.819   6.525   1.845
 8013SOL     OW24937   5.842   4.290   4.982
 8013SOL    HW124938   5.918   4.319   5.042
 8013SOL    HW224939   5.818   4.196   5.002
 8014SOL     OW24940   2.303   6.909   7.003
 8014SOL    HW124941   2.256   6.910   6.915
 8014SOL    HW224942   2.342   6.818   7.019
 8015SOL     OW24943   2.570   2.854   0.253
 8015SOL    HW124944   2.653   2.800   0.235
 8015SOL    HW224945   2.529   2.822   0.339
 8016SOL     OW24946   4.301   6.460   0.052
 8016SOL    HW124947   4.269   6.454   0.147
 8016SOL    HW224948   4.367   6.387   0.034
 8017SOL     OW24949   5.893   4.568   4.607
 8017SOL    HW124950   5.859   4.603   4.520
 8017SOL    HW224951   5.981   4.611   4.627
 8018SOL     OW24952   5.020   1.821   5.135
 8018SOL    HW124953   4.926   1.788   5.136
 8018SOL    HW224954   5.082   1.747   5.162
 8019SOL     OW24955   2.503   6.102   0.793
 8019SOL    HW124956   2.505   6.055   0.705
 8019SOL    HW224957   2.454   6.046   0.860
 8020SOL     OW24958   4.909   5.083   0.094
 8020SOL    HW124959   4.995   5.039   0.121
 8020SOL    HW224960   4.924   5.134   0.009
 8021SOL     OW24961   0.962   0.741   0.906
 8021SOL    HW124962   0.882   0.801   0.907
 8021SOL    HW224963   0.932   0.646   0.904
 8022SOL     OW24964   4.544   6.189   3.084
 8022SOL    HW124965   4.502   6.171   2.995
 8022SOL    HW224966   4.540   6.107   3.140
 8023SOL     OW24967   5.697   6.185   3.095
 8023SOL    HW124968   5.728   6.113   3.033
 8023SOL    HW224969   5.607   6.218   3.065
 8024SOL     OW24970   4.781   4.955   5.247
 8024SOL    HW124971   4.863   4.963   5.190
 8024SOL    HW224972   4.807   4.919   5.337
 8025SOL     OW24973   3.946   5.604   6.647
 8025SOL    HW124974   3.992   5.574   6.730
 8025SOL    HW224975   4.007   5.592   6.569
 8026SOL     OW24976   1.513   3.228   0.405
 8026SOL    HW124977   1.544   3.324   0.407
 8026SOL    HW224978   1.458   3.210   0.486
 8027SOL     OW24979   4.774   1.719   5.065
 8027SOL    HW124980   4.766   1.661   4.983
 8027SOL    HW224981   4.693   1.707   5.122
 8028SOL     OW24982   5.162   4.899   6.725
 8028SOL    HW124983   5.213   4.813   6.720
 8028SOL    HW224984   5.090   4.890   6.794
 8029SOL     OW24985   3.924   3.939   0.176
 8029SOL    HW124986   3.973   3.852   0.178
 8029SOL    HW224987   3.885   3.958   0.266
 8030SOL     OW24988   5.826   4.207   6.276
 8030SOL    HW124989   5.878   4.122   6.280
 8030SOL    HW224990   5.732   4.190   6.307
 8031SOL     OW24991   3.955   5.409   1.286
 8031SOL    HW124992   4.007   5.426   1.202
 8031SOL    HW224993   3.886   5.481   1.298
 8032SOL     OW24994   5.428   4.191   5.648
 8032SOL    HW124995   5.428   4.166   5.551
 8032SOL    HW224996   5.503   4.144   5.695
 8033SOL     OW24997   5.789   2.349   0.262
 8033SOL    HW124998   5.721   2.394   0.320
 8033SOL    HW224999   5.876   2.399   0.268
 8034SOL     OW25000   5.397   6.878   4.854
 8034SOL    HW125001   5.457   6.911   4.927
 8034SOL    HW225002   5.449   6.821   4.791
 8035SOL     OW25003   5.671   6.641   6.735
 8035SOL    HW125004   5.595   6.637   6.800
 8035SOL    HW225005   5.664   6.565   6.670
 8036SOL     OW25006   1.834   4.487   1.795
 8036SOL    HW125007   1.751   4.430   1.795
 8036SOL    HW225008   1.906   4.441   1.743
 8037SOL     OW25009   1.624   2.847   1.235
 8037SOL    HW125010   1.687   2.855   1.158
 8037SOL    HW225011   1.554   2.918   1.228
 8038SOL     OW25012   0.136   2.254   4.106
 8038SOL    HW125013   0.131   2.155   4.113
 8038SOL    HW225014   0.061   2.295   4.157
 8039SOL     OW25015   2.267   6.872   3.292
 8039SOL    HW125016   2.305   6.940   3.230
 8039SOL    HW225017   2.202   6.916   3.354
 8040SOL     OW25018   0.127   5.439   1.461
 8040SOL    HW125019   0.098   5.466   1.552
 8040SOL    HW225020   0.165   5.346   1.464
 8041SOL     OW25021   4.458   1.214   0.518
 8041SOL    HW125022   4.389   1.279   0.485
 8041SOL    HW225023   4.415   1.148   0.579
 8042SOL     OW25024   3.089   2.794   1.876
 8042SOL    HW125025   3.079   2.743   1.791
 8042SOL    HW225026   3.076   2.733   1.954
 8043SOL     OW25027   2.226   6.715   1.867
 8043SOL    HW125028   2.245   6.727   1.769
 8043SOL    HW225029   2.246   6.621   1.894
 8044SOL     OW25030   2.759   3.885   1.585
 8044SOL    HW125031   2.839   3.870   1.643
 8044SOL    HW225032   2.711   3.968   1.616
 8045SOL     OW25033   5.263   2.588   3.173
 8045SOL    HW125034   5.326   2.577   3.096
 8045SOL    HW225035   5.179   2.632   3.142
 8046SOL     OW25036   6.471   4.687   5.906
 8046SOL    HW125037   6.473   4.737   5.993
 8046SOL    HW225038   6.379   4.692   5.868
 8047SOL     OW25039   3.816   6.269   4.608
 8047SOL    HW125040   3.798   6.182   4.654
 8047SOL    HW225041   3.888   6.255   4.539
 8048SOL     OW25042   6.282   0.165   5.513
 8048SOL    HW125043   6.332   0.087   5.550
 8048SOL    HW225044   6.342   0.245   5.510
 8049SOL     OW25045   1.277   6.425   0.602
 8049SOL    HW125046   1.307   6.459   0.513
 8049SOL    HW225047   1.357   6.399   0.656
 8050SOL     OW25048   2.026   3.474   1.342
 8050SOL    HW125049   1.972   3.488   1.259
 8050SOL    HW225050   1.987   3.400   1.395
 8051SOL     OW25051   4.710   0.863   3.598
 8051SOL    HW125052   4.625   0.858   3.651
 8051SOL    HW225053   4.743   0.957   3.597
 8052SOL     OW25054   2.966   1.520   2.873
 8052SOL    HW125055   2.955   1.435   2.925
 8052SOL    HW225056   2.898   1.523   2.800
 8053SOL     OW25057   3.797   3.615   2.365
 8053SOL    HW125058   3.777   3.652   2.455
 8053SOL    HW225059   3.780   3.517   2.364
 8054SOL     OW25060   4.243   6.460   4.684
 8054SOL    HW125061   4.285   6.489   4.598
 8054SOL    HW225062   4.162   6.516   4.702
 8055SOL     OW25063   1.629   6.855   6.104
 8055SOL    HW125064   1.634   6.766   6.058
 8055SOL    HW225065   1.595   6.924   6.040
 8056SOL     OW25066   4.039   1.813   2.985
 8056SOL    HW125067   4.091   1.836   3.067
 8056SOL    HW225068   4.086   1.848   2.904
 8057SOL     OW25069   3.296   6.555   3.005
 8057SOL    HW125070   3.245   6.552   3.091
 8057SOL    HW225071   3.363   6.629   3.009
 8058SOL     OW25072   3.117   1.139   1.816
 8058SOL    HW125073   3.040   1.196   1.845
 8058SOL    HW225074   3.106   1.114   1.720
 8059SOL     OW25075   3.233   1.674   4.151
 8059SOL    HW125076   3.317   1.720   4.178
 8059SOL    HW225077   3.193   1.629   4.231
 8060SOL     OW25078   0.132   0.650   4.438
 8060SOL    HW125079   0.076   0.607   4.367
 8060SOL    HW225080   0.185   0.724   4.398
 8061SOL     OW25081   6.803   5.962   2.738
 8061SOL    HW125082   6.756   5.988   2.822
 8061SOL    HW225083   6.879   6.026   2.722
 8062SOL     OW25084   1.752   4.019   3.439
 8062SOL    HW125085   1.823   3.998   3.372
 8062SOL    HW225086   1.779   4.098   3.493
 8063SOL     OW25087   3.809   2.921   6.803
 8063SOL    HW125088   3.895   2.966   6.783
 8063SOL    HW225089   3.819   2.863   6.884
 8064SOL     OW25090   6.776   3.858   0.464
 8064SOL    HW125091   6.755   3.768   0.501
 8064SOL    HW225092   6.696   3.894   0.418
 8065SOL     OW25093   4.855   0.099   4.942
 8065SOL    HW125094   4.926   0.135   4.881
 8065SOL    HW225095   4.769   0.148   4.927
 8066SOL     OW25096   1.879   0.948   1.675
 8066SOL    HW125097   1.955   0.936   1.611
 8066SOL    HW225098   1.840   1.040   1.664
 8067SOL     OW25099   5.024   2.517   1.992
 8067SOL    HW125100   4.959   2.442   2.003
 8067SOL    HW225101   5.096   2.508   2.061
 8068SOL     OW25102   1.042   4.145   5.108
 8068SOL    HW125103   1.013   4.068   5.051
 8068SOL    HW225104   1.048   4.116   5.203
 8069SOL     OW25105   1.199   6.793   1.973
 8069SOL    HW125106   1.186   6.832   2.065
 8069SOL    HW225107   1.276   6.839   1.929
 8070SOL     OW25108   4.040   6.703   0.963
 8070SOL    HW125109   4.130   6.694   0.921
 8070SOL    HW225110   3.985   6.621   0.945
 8071SOL     OW25111   3.285   6.533   6.802
 8071SOL    HW125112   3.346   6.557   6.726
 8071SOL    HW225113   3.192   6.522   6.767
 8072SOL     OW25114   5.138   1.310   0.523
 8072SOL    HW125115   5.168   1.227   0.571
 8072SOL    HW225116   5.211   1.342   0.463
 8073SOL     OW25117   4.074   6.186   5.936
 8073SOL    HW125118   4.092   6.185   5.838
 8073SOL    HW225119   4.086   6.279   5.971
 8074SOL     OW25120   3.618   3.723   0.083
 8074SOL    HW125121   3.683   3.780   0.134
 8074SOL    HW225122   3.566   3.667   0.148
 8075SOL     OW25123   6.854   1.612   2.996
 8075SOL    HW125124   6.802   1.528   3.009
 8075SOL    HW225125   6.929   1.595   2.932
 8076SOL     OW25126   5.856   2.637   5.565
 8076SOL    HW125127   5.954   2.641   5.542
 8076SOL    HW225128   5.827   2.542   5.573
 8077SOL     OW25129   1.564   0.816   1.275
 8077SOL    HW125130   1.624   0.766   1.338
 8077SOL    HW225131   1.542   0.905   1.313
 8078SOL     OW25132   6.085   2.860   0.586
 8078SOL    HW125133   6.142   2.855   0.504
 8078SOL    HW225134   6.013   2.928   0.571
 8079SOL     OW25135   0.000   2.623   2.286
 8079SOL    HW125136   6.980   2.542   2.323
 8079SOL    HW225137   0.048   2.672   2.360
 8080SOL     OW25138   3.644   4.402   0.201
 8080SOL    HW125139   3.564   4.462   0.206
 8080SOL    HW225140   3.724   4.451   0.236
 8081SOL     OW25141   6.000   0.720   5.330
 8081SOL    HW125142   5.965   0.760   5.245
 8081SOL    HW225143   5.925   0.676   5.379
 8082SOL     OW25144   0.099   2.909   3.377
 8082SOL    HW125145   0.164   2.837   3.353
 8082SOL    HW225146   0.037   2.925   3.300
 8083SOL     OW25147   4.577   2.553   3.880
 8083SOL    HW125148   4.667   2.515   3.904
 8083SOL    HW225149   4.506   2.484   3.895
 8084SOL     OW25150   6.722   0.072   1.419
 8084SOL    HW125151   6.740   0.080   1.321
 8084SOL    HW225152   6.806   0.090   1.470
 8085SOL     OW25153   5.519   1.084   0.898
 8085SOL    HW125154   5.571   1.150   0.952
 8085SOL    HW225155   5.488   1.010   0.957
 8086SOL     OW25156   3.711   0.293   5.226
 8086SOL    HW125157   3.720   0.359   5.301
 8086SOL    HW225158   3.624   0.308   5.179
 8087SOL     OW25159   2.846   2.342   1.378
 8087SOL    HW125160   2.919   2.339   1.447
 8087SOL    HW225161   2.825   2.249   1.348
 8088SOL     OW25162   4.146   1.215   2.725
 8088SOL    HW125163   4.214   1.235   2.795
 8088SOL    HW225164   4.126   1.117   2.724
 8089SOL     OW25165   6.075   2.465   0.047
 8089SOL    HW125166   6.061   2.366   0.048
 8089SOL    HW225167   6.158   2.486   7.019
 8090SOL     OW25168   4.239   1.942   5.461
 8090SOL    HW125169   4.267   1.846   5.457
 8090SOL    HW225170   4.285   1.994   5.390
 8091SOL     OW25171   2.728   4.818   5.953
 8091SOL    HW125172   2.684   4.833   6.041
 8091SOL    HW225173   2.822   4.787   5.966
 8092SOL     OW25174   1.163   1.652   4.609
 8092SOL    HW125175   1.120   1.637   4.520
 8092SOL    HW225176   1.260   1.672   4.595
 8093SOL     OW25177   5.623   5.941   1.291
 8093SOL    HW125178   5.547   6.003   1.269
 8093SOL    HW225179   5.710   5.989   1.280
 8094SOL     OW25180   0.982   3.979   5.786
 8094SOL    HW125181   0.991   4.033   5.869
 8094SOL    HW225182   1.023   4.028   5.709
 8095SOL     OW25183   5.525   3.386   4.300
 8095SOL    HW125184   5.478   3.345   4.222
 8095SOL    HW225185   5.589   3.455   4.268
 8096SOL     OW25186   3.637   6.113   1.485
 8096SOL    HW125187   3.552   6.165   1.496
 8096SOL    HW225188   3.698   6.131   1.562
 8097SOL     OW25189   5.042   0.987   3.808
 8097SOL    HW125190   4.950   1.010   3.775
 8097SOL    HW225191   5.091   1.072   3.829
 8098SOL     OW25192   3.049   6.534   3.902
 8098SOL    HW125193   2.960   6.514   3.861
 8098SOL    HW225194   3.062   6.633   3.908
 8099SOL     OW25195   4.366   6.529   4.922
 8099SOL    HW125196   4.333   6.516   4.829
 8099SOL    HW225197   4.417   6.449   4.951
 8100SOL     OW25198   0.455   6.647   0.873
 8100SOL    HW125199   0.491   6.719   0.814
 8100SOL    HW225200   0.506   6.645   0.959
 8101SOL     OW25201   1.840   6.278   3.750
 8101SOL    HW125202   1.860   6.193   3.702
 8101SOL    HW225203   1.877   6.274   3.843
 8102SOL     OW25204   6.802   5.964   5.926
 8102SOL    HW125205   6.793   5.993   5.831
 8102SOL    HW225206   6.841   5.871   5.929
 8103SOL     OW25207   3.172   1.367   2.112
 8103SOL    HW125208   3.120   1.433   2.167
 8103SOL    HW225209   3.230   1.312   2.172
 8104SOL     OW25210   2.685   6.868   6.179
 8104SOL    HW125211   2.615   6.822   6.235
 8104SOL    HW225212   2.692   6.821   6.091
 8105SOL     OW25213   2.530   1.905   3.807
 8105SOL    HW125214   2.472   1.825   3.796
 8105SOL    HW225215   2.498   1.978   3.746
 8106SOL     OW25216   1.512   4.016   4.221
 8106SOL    HW125217   1.497   3.928   4.177
 8106SOL    HW225218   1.594   4.011   4.278
 8107SOL     OW25219   1.845   6.582   6.142
 8107SOL    HW125220   1.771   6.572   6.209
 8107SOL    HW225221   1.810   6.563   6.050
 8108SOL     OW25222   1.006   3.529   4.181
 8108SOL    HW125223   0.930   3.586   4.212
 8108SOL    HW225224   0.973   3.435   4.168
 8109SOL     OW25225   1.816   5.428   4.885
 8109SOL    HW125226   1.874   5.494   4.838
 8109SOL    HW225227   1.751   5.389   4.820
 8110SOL     OW25228   2.351   5.562   0.582
 8110SOL    HW125229   2.282   5.610   0.636
 8110SOL    HW225230   2.306   5.511   0.509
 8111SOL     OW25231   2.566   5.365   4.674
 8111SOL    HW125232   2.602   5.433   4.611
 8111SOL    HW225233   2.635   5.294   4.690
 8112SOL     OW25234   2.385   0.960   4.645
 8112SOL    HW125235   2.318   1.034   4.642
 8112SOL    HW225236   2.385   0.911   4.558
 8113SOL     OW25237   3.643   2.376   6.191
 8113SOL    HW125238   3.715   2.318   6.228
 8113SOL    HW225239   3.571   2.387   6.259
 8114SOL     OW25240   2.533   2.971   1.658
 8114SOL    HW125241   2.461   2.991   1.725
 8114SOL    HW225242   2.579   2.886   1.684
 8115SOL     OW25243   3.705   1.228   1.070
 8115SOL    HW125244   3.726   1.142   1.117
 8115SOL    HW225245   3.673   1.295   1.137
 8116SOL     OW25246   5.805   0.538   5.120
 8116SOL    HW125247   5.725   0.588   5.087
 8116SOL    HW225248   5.777   0.474   5.192
 8117SOL     OW25249   1.636   2.062   5.516
 8117SOL    HW125250   1.690   1.978   5.525
 8117SOL    HW225251   1.547   2.049   5.560
 8118SOL     OW25252   0.692   3.351   4.724
 8118SOL    HW125253   0.789   3.367   4.743
 8118SOL    HW225254   0.658   3.280   4.784
 8119SOL     OW25255   1.075   6.402   2.598
 8119SOL    HW125256   1.104   6.312   2.630
 8119SOL    HW225257   0.993   6.392   2.542
 8120SOL     OW25258   4.388   3.871   1.732
 8120SOL    HW125259   4.308   3.811   1.731
 8120SOL    HW225260   4.377   3.942   1.801
 8121SOL     OW25261   5.957   0.576   2.624
 8121SOL    HW125262   5.901   0.555   2.544
 8121SOL    HW225263   5.905   0.559   2.707
 8122SOL     OW25264   6.827   6.415   2.133
 8122SOL    HW125265   6.886   6.360   2.193
 8122SOL    HW225266   6.771   6.476   2.188
 8123SOL     OW25267   1.434   6.359   6.941
 8123SOL    HW125268   1.438   6.458   6.922
 8123SOL    HW225269   1.451   6.308   6.857
 8124SOL     OW25270   1.106   5.942   2.172
 8124SOL    HW125271   1.100   6.042   2.166
 8124SOL    HW225272   1.193   5.917   2.215
 8125SOL     OW25273   5.784   5.262   3.241
 8125SOL    HW125274   5.776   5.247   3.142
 8125SOL    HW225275   5.788   5.360   3.259
 8126SOL     OW25276   5.508   4.716   2.737
 8126SOL    HW125277   5.448   4.728   2.657
 8126SOL    HW225278   5.567   4.796   2.746
 8127SOL     OW25279   2.224   4.782   6.962
 8127SOL    HW125280   2.214   4.710   6.893
 8127SOL    HW225281   2.299   4.843   6.935
 8128SOL     OW25282   3.901   2.428   5.361
 8128SOL    HW125283   3.977   2.480   5.322
 8128SOL    HW225284   3.884   2.347   5.305
 8129SOL     OW25285   5.138   0.291   6.515
 8129SOL    HW125286   5.215   0.339   6.472
 8129SOL    HW225287   5.170   0.245   6.598
 8130SOL     OW25288   2.161   6.131   0.094
 8130SOL    HW125289   2.090   6.087   0.149
 8130SOL    HW225290   2.120   6.182   0.019
 8131SOL     OW25291   2.179   1.496   0.406
 8131SOL    HW125292   2.162   1.588   0.442
 8131SOL    HW225293   2.123   1.482   0.324
 8132SOL     OW25294   6.200   4.977   4.044
 8132SOL    HW125295   6.276   4.956   4.105
 8132SOL    HW225296   6.218   4.939   3.953
 8133SOL     OW25297   1.530   5.178   2.064
 8133SOL    HW125298   1.551   5.107   1.996
 8133SOL    HW225299   1.601   5.248   2.061
 8134SOL     OW25300   2.211   2.520   3.422
 8134SOL    HW125301   2.282   2.449   3.428
 8134SOL    HW225302   2.223   2.585   3.498
 8135SOL     OW25303   4.190   5.833   1.909
 8135SOL    HW125304   4.119   5.813   1.841
 8135SOL    HW225305   4.190   5.762   1.980
 8136SOL     OW25306   4.511   5.883   1.702
 8136SOL    HW125307   4.524   5.901   1.799
 8136SOL    HW225308   4.548   5.793   1.679
 8137SOL     OW25309   2.072   4.143   5.070
 8137SOL    HW125310   2.094   4.238   5.090
 8137SOL    HW225311   2.156   4.094   5.046
 8138SOL     OW25312   4.796   0.804   3.335
 8138SOL    HW125313   4.762   0.790   3.428
 8138SOL    HW225314   4.733   0.761   3.270
 8139SOL     OW25315   1.650   2.078   3.888
 8139SOL    HW125316   1.561   2.119   3.867
 8139SOL    HW225317   1.644   2.026   3.973
 8140SOL     OW25318   4.572   0.860   0.675
 8140SOL    HW125319   4.487   0.910   0.663
 8140SOL    HW225320   4.554   0.762   0.668
 8141SOL     OW25321   4.853   1.328   4.926
 8141SOL    HW125322   4.893   1.373   4.847
 8141SOL    HW225323   4.852   1.229   4.911
 8142SOL     OW25324   1.723   6.226   0.615
 8142SOL    HW125325   1.688   6.157   0.552
 8142SOL    HW225326   1.796   6.278   0.570
 8143SOL     OW25327   6.462   4.724   0.292
 8143SOL    HW125328   6.417   4.775   0.365
 8143SOL    HW225329   6.556   4.704   0.318
 8144SOL     OW25330   6.968   4.657   6.144
 8144SOL    HW125331   6.992   4.648   6.047
 8144SOL    HW225332   6.876   4.620   6.158
 8145SOL     OW25333   5.062   5.718   6.948
 8145SOL    HW125334   5.009   5.730   0.007
 8145SOL    HW225335   5.002   5.724   6.868
 8146SOL     OW25336   5.861   0.469   4.491
 8146SOL    HW125337   5.825   0.382   4.458
 8146SOL    HW225338   5.944   0.493   4.442
 8147SOL     OW25339   1.645   0.902   6.039
 8147SOL    HW125340   1.574   0.839   6.072
 8147SOL    HW225341   1.610   0.952   5.960
 8148SOL     OW25342   4.255   4.677   0.226
 8148SOL    HW125343   4.199   4.749   0.268
 8148SOL    HW225344   4.200   4.595   0.215
 8149SOL     OW25345   1.018   6.025   4.850
 8149SOL    HW125346   1.110   5.989   4.834
 8149SOL    HW225347   0.953   5.949   4.855
 8150SOL     OW25348   0.538   2.989   1.222
 8150SOL    HW125349   0.603   2.964   1.150
 8150SOL    HW225350   0.495   3.076   1.200
 8151SOL     OW25351   5.995   5.237   3.412
 8151SOL    HW125352   5.925   5.268   3.347
 8151SOL    HW225353   6.046   5.317   3.445
 8152SOL     OW25354   4.727   1.656   3.234
 8152SOL    HW125355   4.786   1.587   3.277
 8152SOL    HW225356   4.773   1.744   3.233
 8153SOL     OW25357   0.598   1.746   3.650
 8153SOL    HW125358   0.603   1.779   3.744
 8153SOL    HW225359   0.676   1.686   3.631
 8154SOL     OW25360   1.932   0.700   3.527
 8154SOL    HW125361   1.983   0.751   3.596
 8154SOL    HW225362   1.963   0.729   3.436
 8155SOL     OW25363   1.456   5.327   2.500
 8155SOL    HW125364   1.544   5.280   2.491
 8155SOL    HW225365   1.382   5.260   2.500
 8156SOL     OW25366   6.477   5.406   1.630
 8156SOL    HW125367   6.396   5.385   1.575
 8156SOL    HW225368   6.465   5.495   1.674
 8157SOL     OW25369   6.887   2.760   5.820
 8157SOL    HW125370   6.849   2.767   5.912
 8157SOL    HW225371   6.971   2.814   5.814
 8158SOL     OW25372   5.454   5.033   6.617
 8158SOL    HW125373   5.396   5.059   6.539
 8158SOL    HW225374   5.441   5.097   6.692
 8159SOL     OW25375   3.241   6.646   5.639
 8159SOL    HW125376   3.182   6.697   5.577
 8159SOL    HW225377   3.246   6.550   5.609
 8160SOL     OW25378   5.249   1.014   3.347
 8160SOL    HW125379   5.341   1.032   3.381
 8160SOL    HW225380   5.226   0.917   3.361
 8161SOL     OW25381   5.892   3.121   1.245
 8161SOL    HW125382   5.863   3.041   1.297
 8161SOL    HW225383   5.812   3.173   1.215
 8162SOL     OW25384   0.557   5.009   6.134
 8162SOL    HW125385   0.546   5.097   6.180
 8162SOL    HW225386   0.517   4.937   6.191
 8163SOL     OW25387   4.658   4.705   5.110
 8163SOL    HW125388   4.674   4.781   5.174
 8163SOL    HW225389   4.737   4.696   5.049
 8164SOL     OW25390   4.957   1.425   0.268
 8164SOL    HW125391   4.921   1.514   0.297
 8164SOL    HW225392   5.051   1.415   0.302
 8165SOL     OW25393   6.921   1.358   6.643
 8165SOL    HW125394   6.992   1.422   6.673
 8165SOL    HW225395   6.957   1.297   6.573
 8166SOL     OW25396   1.443   2.111   4.898
 8166SOL    HW125397   1.447   2.040   4.827
 8166SOL    HW225398   1.464   2.071   4.987
 8167SOL     OW25399   0.444   2.648   4.325
 8167SOL    HW125400   0.444   2.700   4.411
 8167SOL    HW225401   0.383   2.692   4.259
 8168SOL     OW25402   2.618   0.806   2.190
 8168SOL    HW125403   2.700   0.859   2.167
 8168SOL    HW225404   2.551   0.815   2.115
 8169SOL     OW25405   5.024   2.609   0.946
 8169SOL    HW125406   5.037   2.550   1.025
 8169SOL    HW225407   5.101   2.599   0.883
 8170SOL     OW25408   5.904   4.972   2.296
 8170SOL    HW125409   5.863   5.000   2.209
 8170SOL    HW225410   6.002   4.993   2.295
 8171SOL     OW25411   1.652   1.152   0.727
 8171SOL    HW125412   1.579   1.108   0.674
 8171SOL    HW225413   1.623   1.162   0.822
 8172SOL     OW25414   0.765   2.941   1.633
 8172SOL    HW125415   0.695   2.985   1.690
 8172SOL    HW225416   0.721   2.879   1.569
 8173SOL     OW25417   5.610   1.052   2.285
 8173SOL    HW125418   5.527   1.015   2.327
 8173SOL    HW225419   5.685   0.986   2.296
 8174SOL     OW25420   2.375   5.260   2.719
 8174SOL    HW125421   2.344   5.179   2.669
 8174SOL    HW225422   2.431   5.317   2.659
 8175SOL     OW25423   0.849   1.413   4.729
 8175SOL    HW125424   0.759   1.394   4.690
 8175SOL    HW225425   0.840   1.438   4.825
 8176SOL     OW25426   2.317   3.878   0.822
 8176SOL    HW125427   2.268   3.922   0.897
 8176SOL    HW225428   2.404   3.842   0.855
 8177SOL     OW25429   3.943   1.206   3.048
 8177SOL    HW125430   4.031   1.246   3.075
 8177SOL    HW225431   3.885   1.277   3.008
 8178SOL     OW25432   2.059   6.584   1.070
 8178SOL    HW125433   2.002   6.564   0.990
 8178SOL    HW225434   2.000   6.613   1.146
 8179SOL     OW25435   5.856   1.318   3.481
 8179SOL    HW125436   5.851   1.255   3.404
 8179SOL    HW225437   5.814   1.276   3.562
 8180SOL     OW25438   4.981   6.191   6.939
 8180SOL    HW125439   5.081   6.195   6.938
 8180SOL    HW225440   4.945   6.271   6.989
 8181SOL     OW25441   0.483   0.980   0.974
 8181SOL    HW125442   0.401   0.998   1.029
 8181SOL    HW225443   0.514   1.065   0.932
 8182SOL     OW25444   2.880   3.596   4.893
 8182SOL    HW125445   2.792   3.563   4.859
 8182SOL    HW225446   2.884   3.583   4.992
 8183SOL     OW25447   0.092   0.179   4.933
 8183SOL    HW125448   0.037   0.137   4.861
 8183SOL    HW225449   0.059   0.148   5.022
 8184SOL     OW25450   0.070   6.092   6.445
 8184SOL    HW125451   0.060   6.163   6.375
 8184SOL    HW225452   0.125   6.017   6.408
 8185SOL     OW25453   0.957   6.683   6.926
 8185SOL    HW125454   0.963   6.614   6.998
 8185SOL    HW225455   0.873   6.736   6.938
 8186SOL     OW25456   1.344   5.414   6.737
 8186SOL    HW125457   1.405   5.378   6.666
 8186SOL    HW225458   1.347   5.514   6.735
 8187SOL     OW25459   0.663   0.647   6.353
 8187SOL    HW125460   0.609   0.591   6.416
 8187SOL    HW225461   0.639   0.625   6.259
 8188SOL     OW25462   2.481   2.130   3.637
 8188SOL    HW125463   2.529   2.178   3.710
 8188SOL    HW225464   2.540   2.128   3.555
 8189SOL     OW25465   5.102   4.306   3.638
 8189SOL    HW125466   5.075   4.340   3.727
 8189SOL    HW225467   5.152   4.220   3.649
 8190SOL     OW25468   6.067   3.500   3.685
 8190SOL    HW125469   6.135   3.436   3.649
 8190SOL    HW225470   6.014   3.538   3.609
 8191SOL     OW25471   3.637   5.232   1.166
 8191SOL    HW125472   3.571   5.223   1.240
 8191SOL    HW225473   3.710   5.295   1.195
 8192SOL     OW25474   1.370   5.045   3.874
 8192SOL    HW125475   1.283   5.086   3.847
 8192SOL    HW225476   1.431   5.117   3.908
 8193SOL     OW25477   0.753   3.972   4.985
 8193SOL    HW125478   0.823   3.915   5.028
 8193SOL    HW225479   0.675   3.915   4.958
 8194SOL     OW25480   4.758   6.536   1.677
 8194SOL    HW125481   4.744   6.625   1.634
 8194SOL    HW225482   4.671   6.489   1.688
 8195SOL     OW25483   5.581   6.362   3.424
 8195SOL    HW125484   5.563   6.400   3.333
 8195SOL    HW225485   5.615   6.433   3.485
 8196SOL     OW25486   4.605   0.377   0.409
 8196SOL    HW125487   4.568   0.400   0.319
 8196SOL    HW225488   4.689   0.428   0.425
 8197SOL     OW25489   4.736   1.883   2.422
 8197SOL    HW125490   4.800   1.827   2.475
 8197SOL    HW225491   4.670   1.823   2.377
 8198SOL     OW25492   2.010   0.545   2.463
 8198SOL    HW125493   2.025   0.486   2.543
 8198SOL    HW225494   1.983   0.636   2.494
 8199SOL     OW25495   5.508   3.179   5.773
 8199SOL    HW125496   5.485   3.125   5.854
 8199SOL    HW225497   5.464   3.268   5.778
 8200SOL     OW25498   4.443   2.531   1.144
 8200SOL    HW125499   4.471   2.568   1.056
 8200SOL    HW225500   4.513   2.552   1.213
 8201SOL     OW25501   6.589   6.976   5.446
 8201SOL    HW125502   6.546   6.906   5.390
 8201SOL    HW225503   6.530   6.998   5.524
 8202SOL     OW25504   0.870   6.538   1.864
 8202SOL    HW125505   0.888   6.630   1.830
 8202SOL    HW225506   0.775   6.513   1.844
 8203SOL     OW25507   1.043   3.452   1.175
 8203SOL    HW125508   0.990   3.470   1.092
 8203SOL    HW225509   1.140   3.445   1.152
 8204SOL     OW25510   4.015   3.180   1.587
 8204SOL    HW125511   4.115   3.170   1.584
 8204SOL    HW225512   3.986   3.193   1.682
 8205SOL     OW25513   1.369   3.662   0.938
 8205SOL    HW125514   1.454   3.693   0.896
 8205SOL    HW225515   1.303   3.736   0.940
 8206SOL     OW25516   3.964   0.828   6.768
 8206SOL    HW125517   4.001   0.852   6.858
 8206SOL    HW225518   3.866   0.812   6.775
 8207SOL     OW25519   3.776   2.948   4.401
 8207SOL    HW125520   3.827   2.954   4.487
 8207SOL    HW225521   3.681   2.925   4.421
 8208SOL     OW25522   1.812   1.048   0.533
 8208SOL    HW125523   1.718   1.019   0.554
 8208SOL    HW225524   1.836   1.127   0.589
 8209SOL     OW25525   6.600   1.025   5.782
 8209SOL    HW125526   6.658   0.948   5.809
 8209SOL    HW225527   6.505   0.994   5.776
 8210SOL     OW25528   1.481   2.628   0.169
 8210SOL    HW125529   1.483   2.606   0.267
 8210SOL    HW225530   1.386   2.627   0.137
 8211SOL     OW25531   2.669   4.472   0.804
 8211SOL    HW125532   2.620   4.420   0.734
 8211SOL    HW225533   2.704   4.557   0.765
 8212SOL     OW25534   1.564   2.477   3.397
 8212SOL    HW125535   1.639   2.427   3.439
 8212SOL    HW225536   1.496   2.501   3.467
 8213SOL     OW25537   0.073   5.097   2.065
 8213SOL    HW125538   7.023   5.159   2.040
 8213SOL    HW225539   0.149   5.110   2.003
 8214SOL     OW25540   5.036   4.176   3.043
 8214SOL    HW125541   5.015   4.264   3.085
 8214SOL    HW225542   4.951   4.127   3.024
 8215SOL     OW25543   3.400   4.898   4.617
 8215SOL    HW125544   3.467   4.948   4.561
 8215SOL    HW225545   3.446   4.859   4.697
 8216SOL     OW25546   4.471   4.496   3.478
 8216SOL    HW125547   4.531   4.574   3.493
 8216SOL    HW225548   4.470   4.438   3.560
 8217SOL     OW25549   2.355   6.557   0.374
 8217SOL    HW125550   2.376   6.477   0.430
 8217SOL    HW225551   2.408   6.635   0.406
 8218SOL     OW25552   0.338   1.423   6.848
 8218SOL    HW125553   0.422   1.475   6.828
 8218SOL    HW225554   0.362   1.333   6.884
 8219SOL     OW25555   5.811   2.126   6.401
 8219SOL    HW125556   5.755   2.065   6.345
 8219SOL    HW225557   5.892   2.078   6.433
 8220SOL     OW25558   3.419   3.754   2.891
 8220SOL    HW125559   3.485   3.819   2.930
 8220SOL    HW225560   3.468   3.679   2.847
 8221SOL     OW25561   5.511   5.980   3.610
 8221SOL    HW125562   5.446   5.996   3.535
 8221SOL    HW225563   5.571   6.060   3.620
 8222SOL     OW25564   5.965   1.572   2.128
 8222SOL    HW125565   5.950   1.600   2.223
 8222SOL    HW225566   6.061   1.583   2.104
 8223SOL     OW25567   0.229   4.467   5.937
 8223SOL    HW125568   0.290   4.403   5.891
 8223SOL    HW225569   0.282   4.541   5.977
 8224SOL     OW25570   1.048   3.019   3.385
 8224SOL    HW125571   1.127   2.968   3.418
 8224SOL    HW225572   0.972   2.956   3.371
 8225SOL     OW25573   4.961   1.262   6.679
 8225SOL    HW125574   4.997   1.340   6.731
 8225SOL    HW225575   5.036   1.200   6.656
 8226SOL     OW25576   5.169   0.767   1.274
 8226SOL    HW125577   5.107   0.741   1.200
 8226SOL    HW225578   5.118   0.773   1.360
 8227SOL     OW25579   6.554   2.768   3.439
 8227SOL    HW125580   6.578   2.758   3.342
 8227SOL    HW225581   6.508   2.685   3.471
 8228SOL     OW25582   6.480   2.848   4.913
 8228SOL    HW125583   6.386   2.821   4.933
 8228SOL    HW225584   6.490   2.866   4.815
 8229SOL     OW25585   3.603   5.531   6.935
 8229SOL    HW125586   3.642   5.466   6.870
 8229SOL    HW225587   3.540   5.592   6.887
 8230SOL     OW25588   5.316   0.160   4.777
 8230SOL    HW125589   5.289   0.112   4.860
 8230SOL    HW225590   5.415   0.149   4.763
 8231SOL     OW25591   5.364   5.443   0.791
 8231SOL    HW125592   5.461   5.453   0.765
 8231SOL    HW225593   5.343   5.509   0.863
 8232SOL     OW25594   3.681   2.072   0.014
 8232SOL    HW125595   3.770   2.099   7.002
 8232SOL    HW225596   3.608   2.117   6.987
 8233SOL     OW25597   1.032   5.042   6.336
 8233SOL    HW125598   0.953   4.981   6.341
 8233SOL    HW225599   1.037   5.097   6.420
 8234SOL     OW25600   2.910   2.590   6.777
 8234SOL    HW125601   2.823   2.540   6.766
 8234SOL    HW225602   2.983   2.537   6.734
 8235SOL     OW25603   4.070   3.785   1.212
 8235SOL    HW125604   4.153   3.827   1.246
 8235SOL    HW225605   4.000   3.785   1.283
 8236SOL     OW25606   6.060   2.873   0.044
 8236SOL    HW125607   6.128   2.834   7.006
 8236SOL    HW225608   5.993   2.804   0.068
 8237SOL     OW25609   3.794   5.674   5.146
 8237SOL    HW125610   3.871   5.667   5.083
 8237SOL    HW225611   3.796   5.763   5.192
 8238SOL     OW25612   2.199   3.530   6.556
 8238SOL    HW125613   2.118   3.587   6.545
 8238SOL    HW225614   2.232   3.499   6.467
 8239SOL     OW25615   7.022   1.706   5.617
 8239SOL    HW125616   0.053   1.781   5.581
 8239SOL    HW225617   6.963   1.671   5.544
 8240SOL     OW25618   3.335   4.053   2.889
 8240SOL    HW125619   3.427   4.016   2.902
 8240SOL    HW225620   3.332   4.107   2.804
 8241SOL     OW25621   3.196   6.991   0.274
 8241SOL    HW125622   3.245   0.046   0.310
 8241SOL    HW225623   3.206   6.988   0.175
 8242SOL     OW25624   1.069   4.602   5.195
 8242SOL    HW125625   1.061   4.696   5.162
 8242SOL    HW225626   0.990   4.549   5.163
 8243SOL     OW25627   0.357   2.936   5.417
 8243SOL    HW125628   0.298   2.875   5.364
 8243SOL    HW225629   0.350   2.914   5.514
 8244SOL     OW25630   0.803   6.319   3.898
 8244SOL    HW125631   0.881   6.268   3.861
 8244SOL    HW225632   0.811   6.415   3.871
 8245SOL     OW25633   4.323   1.937   1.140
 8245SOL    HW125634   4.332   2.003   1.065
 8245SOL    HW225635   4.388   1.961   1.212
 8246SOL     OW25636   6.109   3.533   6.287
 8246SOL    HW125637   6.116   3.545   6.386
 8246SOL    HW225638   6.017   3.499   6.264
 8247SOL     OW25639   0.767   0.118   1.713
 8247SOL    HW125640   0.857   0.091   1.749
 8247SOL    HW225641   0.731   0.193   1.769
 8248SOL     OW25642   5.584   4.040   3.814
 8248SOL    HW125643   5.497   4.062   3.770
 8248SOL    HW225644   5.566   3.994   3.901
 8249SOL     OW25645   1.895   4.525   3.883
 8249SOL    HW125646   1.922   4.431   3.862
 8249SOL    HW225647   1.903   4.542   3.981
 8250SOL     OW25648   3.825   3.845   2.870
 8250SOL    HW125649   3.888   3.771   2.893
 8250SOL    HW225650   3.831   3.917   2.938
 8251SOL     OW25651   5.529   1.547   4.950
 8251SOL    HW125652   5.620   1.516   4.922
 8251SOL    HW225653   5.537   1.618   5.019
 8252SOL     OW25654   2.147   2.978   5.956
 8252SOL    HW125655   2.202   3.033   6.020
 8252SOL    HW225656   2.069   2.938   6.004
 8253SOL     OW25657   3.376   2.822   5.034
 8253SOL    HW125658   3.425   2.776   5.108
 8253SOL    HW225659   3.316   2.757   4.987
 8254SOL     OW25660   4.162   4.791   3.600
 8254SOL    HW125661   4.227   4.739   3.545
 8254SOL    HW225662   4.202   4.812   3.689
 8255SOL     OW25663   4.391   5.755   3.886
 8255SOL    HW125664   4.340   5.829   3.930
 8255SOL    HW225665   4.332   5.674   3.877
 8256SOL     OW25666   5.641   1.407   4.283
 8256SOL    HW125667   5.558   1.369   4.243
 8256SOL    HW225668   5.626   1.504   4.304
 8257SOL     OW25669   5.814   4.871   3.226
 8257SOL    HW125670   5.911   4.883   3.249
 8257SOL    HW225671   5.805   4.854   3.128
 8258SOL     OW25672   3.928   1.411   0.107
 8258SOL    HW125673   3.844   1.461   0.084
 8258SOL    HW225674   3.983   1.467   0.170
 8259SOL     OW25675   3.362   1.951   3.535
 8259SOL    HW125676   3.386   2.037   3.579
 8259SOL    HW225677   3.401   1.875   3.587
 8260SOL     OW25678   2.881   0.015   1.180
 8260SOL    HW125679   2.889   0.114   1.170
 8260SOL    HW225680   2.970   6.996   1.168
 8261SOL     OW25681   5.502   1.295   1.486
 8261SOL    HW125682   5.402   1.300   1.491
 8261SOL    HW225683   5.531   1.318   1.393
 8262SOL     OW25684   1.112   2.604   1.718
 8262SOL    HW125685   1.114   2.689   1.769
 8262SOL    HW225686   1.112   2.527   1.781
 8263SOL     OW25687   6.429   1.355   1.374
 8263SOL    HW125688   6.522   1.335   1.405
 8263SOL    HW225689   6.387   1.271   1.340
 8264SOL     OW25690   1.541   5.774   2.538
 8264SOL    HW125691   1.513   5.681   2.562
 8264SOL    HW225692   1.532   5.833   2.617
 8265SOL     OW25693   1.728   0.847   1.892
 8265SOL    HW125694   1.795   0.871   1.821
 8265SOL    HW225695   1.736   0.912   1.967
 8266SOL     OW25696   2.789   6.573   2.457
 8266SOL    HW125697   2.804   6.576   2.358
 8266SOL    HW225698   2.730   6.649   2.484
 8267SOL     OW25699   1.483   3.344   1.406
 8267SOL    HW125700   1.432   3.400   1.341
 8267SOL    HW225701   1.450   3.362   1.498
 8268SOL     OW25702   2.277   6.962   5.881
 8268SOL    HW125703   2.204   6.972   5.814
 8268SOL    HW225704   2.364   6.993   5.841
 8269SOL     OW25705   5.492   1.529   0.990
 8269SOL    HW125706   5.559   1.599   1.014
 8269SOL    HW225707   5.407   1.573   0.960
 8270SOL     OW25708   3.466   6.526   3.876
 8270SOL    HW125709   3.522   6.576   3.943
 8270SOL    HW225710   3.372   6.560   3.880
 8271SOL     OW25711   6.831   1.878   2.745
 8271SOL    HW125712   6.841   1.965   2.695
 8271SOL    HW225713   6.786   1.895   2.832
 8272SOL     OW25714   4.309   0.663   2.325
 8272SOL    HW125715   4.390   0.657   2.383
 8272SOL    HW225716   4.261   0.749   2.344
 8273SOL     OW25717   2.107   0.222   1.287
 8273SOL    HW125718   2.014   0.221   1.251
 8273SOL    HW225719   2.159   0.145   1.249
 8274SOL     OW25720   4.704   5.264   2.932
 8274SOL    HW125721   4.653   5.228   2.854
 8274SOL    HW225722   4.711   5.363   2.924
 8275SOL     OW25723   4.781   1.823   6.271
 8275SOL    HW125724   4.834   1.743   6.245
 8275SOL    HW225725   4.841   1.890   6.315
 8276SOL     OW25726   1.297   2.210   4.719
 8276SOL    HW125727   1.304   2.309   4.728
 8276SOL    HW225728   1.358   2.166   4.785
 8277SOL     OW25729   0.046   0.219   6.566
 8277SOL    HW125730   6.972   0.216   6.579
 8277SOL    HW225731   0.091   0.159   6.631
 8278SOL     OW25732   2.408   1.745   0.088
 8278SOL    HW125733   2.403   1.783   7.020
 8278SOL    HW225734   2.316   1.742   0.127
 8279SOL     OW25735   0.626   6.356   4.114
 8279SOL    HW125736   0.544   6.302   4.099
 8279SOL    HW225737   0.670   6.376   4.027
 8280SOL     OW25738   3.377   2.542   6.605
 8280SOL    HW125739   3.401   2.537   6.508
 8280SOL    HW225740   3.451   2.586   6.656
 8281SOL     OW25741   0.575   5.834   1.726
 8281SOL    HW125742   0.659   5.849   1.673
 8281SOL    HW225743   0.530   5.922   1.741
 8282SOL     OW25744   5.073   3.170   5.995
 8282SOL    HW125745   5.017   3.163   6.077
 8282SOL    HW225746   5.151   3.230   6.012
 8283SOL     OW25747   1.420   4.064   6.383
 8283SOL    HW125748   1.509   4.054   6.339
 8283SOL    HW225749   1.348   4.062   6.313
 8284SOL     OW25750   6.699   4.679   2.128
 8284SOL    HW125751   6.699   4.611   2.202
 8284SOL    HW225752   6.770   4.746   2.145
 8285SOL     OW25753   4.117   3.371   4.786
 8285SOL    HW125754   4.128   3.356   4.884
 8285SOL    HW225755   4.133   3.468   4.765
 8286SOL     OW25756   6.564   2.168   5.773
 8286SOL    HW125757   6.603   2.234   5.837
 8286SOL    HW225758   6.585   2.195   5.679
 8287SOL     OW25759   1.005   5.757   4.191
 8287SOL    HW125760   0.923   5.795   4.234
 8287SOL    HW225761   1.082   5.820   4.204
 8288SOL     OW25762   2.383   2.687   2.787
 8288SOL    HW125763   2.407   2.624   2.713
 8288SOL    HW225764   2.300   2.655   2.832
 8289SOL     OW25765   1.111   0.654   0.572
 8289SOL    HW125766   1.089   0.615   0.483
 8289SOL    HW225767   1.207   0.682   0.574
 8290SOL     OW25768   6.154   1.783   0.900
 8290SOL    HW125769   6.091   1.707   0.886
 8290SOL    HW225770   6.180   1.788   0.996
 8291SOL     OW25771   4.227   6.854   6.186
 8291SOL    HW125772   4.263   6.841   6.278
 8291SOL    HW225773   4.271   6.933   6.143
 8292SOL     OW25774   2.799   6.357   0.249
 8292SOL    HW125775   2.747   6.390   0.328
 8292SOL    HW225776   2.897   6.365   0.268
 8293SOL     OW25777   4.320   6.480   5.805
 8293SOL    HW125778   4.347   6.397   5.853
 8293SOL    HW225779   4.227   6.505   5.832
 8294SOL     OW25780   6.138   2.725   6.290
 8294SOL    HW125781   6.094   2.787   6.224
 8294SOL    HW225782   6.212   2.774   6.337
 8295SOL     OW25783   5.639   4.124   2.024
 8295SOL    HW125784   5.584   4.187   1.969
 8295SOL    HW225785   5.647   4.036   1.977
 8296SOL     OW25786   1.341   5.693   7.011
 8296SOL    HW125787   1.421   5.722   0.039
 8296SOL    HW225788   1.325   5.758   6.937
 8297SOL     OW25789   5.947   2.447   3.374
 8297SOL    HW125790   5.978   2.352   3.369
 8297SOL    HW225791   6.013   2.506   3.328
 8298SOL     OW25792   4.860   1.126   1.988
 8298SOL    HW125793   4.801   1.127   2.069
 8298SOL    HW225794   4.949   1.167   2.011
 8299SOL     OW25795   6.922   3.029   2.091
 8299SOL    HW125796   6.976   3.016   2.007
 8299SOL    HW225797   6.910   3.127   2.108
 8300SOL     OW25798   0.923   4.395   5.047
 8300SOL    HW125799   0.961   4.308   5.077
 8300SOL    HW225800   0.878   4.383   4.959
 8301SOL     OW25801   4.606   2.549   1.398
 8301SOL    HW125802   4.545   2.490   1.450
 8301SOL    HW225803   4.595   2.644   1.429
 8302SOL     OW25804   5.937   6.711   6.467
 8302SOL    HW125805   5.968   6.803   6.492
 8302SOL    HW225806   5.846   6.695   6.505
 8303SOL     OW25807   0.648   0.008   4.767
 8303SOL    HW125808   0.565   7.022   4.713
 8303SOL    HW225809   0.682   6.942   4.794
 8304SOL     OW25810   0.528   3.701   6.699
 8304SOL    HW125811   0.483   3.643   6.767
 8304SOL    HW225812   0.536   3.650   6.613
 8305SOL     OW25813   3.161   5.147   3.974
 8305SOL    HW125814   3.253   5.161   4.010
 8305SOL    HW225815   3.123   5.235   3.947
 8306SOL     OW25816   0.696   2.497   5.508
 8306SOL    HW125817   0.785   2.486   5.554
 8306SOL    HW225818   0.678   2.416   5.451
 8307SOL     OW25819   3.247   5.447   0.859
 8307SOL    HW125820   3.228   5.503   0.779
 8307SOL    HW225821   3.252   5.505   0.941
 8308SOL     OW25822   3.937   0.131   1.607
 8308SOL    HW125823   3.943   0.145   1.705
 8308SOL    HW225824   3.879   0.051   1.589
 8309SOL     OW25825   5.862   6.203   2.653
 8309SOL    HW125826   5.796   6.188   2.578
 8309SOL    HW225827   5.826   6.162   2.737
 8310SOL     OW25828   0.753   4.831   0.822
 8310SOL    HW125829   0.709   4.908   0.869
 8310SOL    HW225830   0.716   4.745   0.858
 8311SOL     OW25831   6.713   0.650   6.196
 8311SOL    HW125832   6.641   0.597   6.151
 8311SOL    HW225833   6.694   0.657   6.293
 8312SOL     OW25834   4.918   6.871   1.459
 8312SOL    HW125835   4.972   6.928   1.520
 8312SOL    HW225836   4.978   6.811   1.407
 8313SOL     OW25837   3.569   1.760   2.984
 8313SOL    HW125838   3.627   1.825   3.033
 8313SOL    HW225839   3.616   1.728   2.902
 8314SOL     OW25840   5.696   0.278   1.645
 8314SOL    HW125841   5.748   0.248   1.565
 8314SOL    HW225842   5.759   0.306   1.717
 8315SOL     OW25843   4.932   3.177   0.668
 8315SOL    HW125844   4.919   3.274   0.647
 8315SOL    HW225845   5.019   3.146   0.630
 8316SOL     OW25846   1.266   4.518   0.623
 8316SOL    HW125847   1.301   4.576   0.697
 8316SOL    HW225848   1.283   4.562   0.535
 8317SOL     OW25849   1.699   4.198   2.579
 8317SOL    HW125850   1.732   4.186   2.672
 8317SOL    HW225851   1.614   4.250   2.580
 8318SOL     OW25852   3.812   1.602   4.859
 8318SOL    HW125853   3.856   1.678   4.906
 8318SOL    HW225854   3.735   1.570   4.914
 8319SOL     OW25855   3.700   1.012   5.230
 8319SOL    HW125856   3.613   1.058   5.213
 8319SOL    HW225857   3.768   1.079   5.260
 8320SOL     OW25858   3.040   4.639   1.124
 8320SOL    HW125859   3.065   4.554   1.170
 8320SOL    HW225860   2.966   4.683   1.174
 8321SOL     OW25861   0.316   1.124   0.575
 8321SOL    HW125862   0.251   1.078   0.636
 8321SOL    HW225863   0.334   1.216   0.610
 8322SOL     OW25864   0.195   7.024   0.270
 8322SOL    HW125865   0.206   0.084   0.219
 8322SOL    HW225866   0.255   6.954   0.232
 8323SOL     OW25867   1.114   1.038   2.643
 8323SOL    HW125868   1.015   1.048   2.646
 8323SOL    HW225869   1.151   1.043   2.735
 8324SOL     OW25870   5.988   0.783   2.342
 8324SOL    HW125871   6.031   0.724   2.410
 8324SOL    HW225872   5.905   0.824   2.380
 8325SOL     OW25873   3.940   3.032   3.800
 8325SOL    HW125874   3.871   2.963   3.823
 8325SOL    HW225875   3.965   3.024   3.704
 8326SOL     OW25876   4.287   3.533   5.784
 8326SOL    HW125877   4.339   3.460   5.828
 8326SOL    HW225878   4.318   3.544   5.689
 8327SOL     OW25879   5.394   2.567   6.246
 8327SOL    HW125880   5.440   2.499   6.303
 8327SOL    HW225881   5.400   2.540   6.150
 8328SOL     OW25882   2.357   3.522   6.306
 8328SOL    HW125883   2.304   3.444   6.273
 8328SOL    HW225884   2.455   3.503   6.292
 8329SOL     OW25885   0.175   3.058   5.089
 8329SOL    HW125886   0.225   3.140   5.117
 8329SOL    HW225887   0.215   2.978   5.134
 8330SOL     OW25888   1.635   6.633   0.448
 8330SOL    HW125889   1.696   6.646   0.527
 8330SOL    HW225890   1.541   6.623   0.480
 8331SOL     OW25891   3.251   0.661   1.089
 8331SOL    HW125892   3.160   0.628   1.116
 8331SOL    HW225893   3.288   0.720   1.161
 8332SOL     OW25894   4.804   5.187   1.826
 8332SOL    HW125895   4.821   5.244   1.746
 8332SOL    HW225896   4.707   5.162   1.829
 8333SOL     OW25897   0.413   6.098   0.326
 8333SOL    HW125898   0.330   6.050   0.296
 8333SOL    HW225899   0.492   6.064   0.275
 8334SOL     OW25900   6.156   1.691   3.920
 8334SOL    HW125901   6.129   1.676   3.825
 8334SOL    HW225902   6.088   1.651   3.981
 8335SOL     OW25903   6.049   5.286   5.893
 8335SOL    HW125904   6.056   5.265   5.990
 8335SOL    HW225905   6.057   5.385   5.880
 8336SOL     OW25906   0.268   1.622   2.231
 8336SOL    HW125907   0.221   1.565   2.298
 8336SOL    HW225908   0.300   1.566   2.155
 8337SOL     OW25909   1.228   6.181   2.684
 8337SOL    HW125910   1.276   6.140   2.606
 8337SOL    HW225911   1.236   6.121   2.763
 8338SOL     OW25912   2.111   5.261   1.310
 8338SOL    HW125913   2.096   5.198   1.386
 8338SOL    HW225914   2.189   5.230   1.256
 8339SOL     OW25915   5.905   0.893   2.785
 8339SOL    HW125916   5.872   0.827   2.717
 8339SOL    HW225917   5.967   0.847   2.848
 8340SOL     OW25918   4.828   3.846   0.720
 8340SOL    HW125919   4.804   3.758   0.761
 8340SOL    HW225920   4.836   3.915   0.792
 8341SOL     OW25921   1.628   0.275   0.937
 8341SOL    HW125922   1.632   0.350   0.872
 8341SOL    HW225923   1.672   0.194   0.898
 8342SOL     OW25924   3.814   0.810   1.023
 8342SOL    HW125925   3.858   0.724   1.049
 8342SOL    HW225926   3.779   0.803   0.930
 8343SOL     OW25927   1.498   5.567   6.438
 8343SOL    HW125928   1.537   5.507   6.507
 8343SOL    HW225929   1.409   5.531   6.409
 8344SOL     OW25930   4.457   6.308   5.970
 8344SOL    HW125931   4.552   6.338   5.960
 8344SOL    HW225932   4.454   6.208   5.978
 8345SOL     OW25933   5.916   1.934   3.243
 8345SOL    HW125934   5.957   1.901   3.158
 8345SOL    HW225935   5.816   1.927   3.237
 8346SOL     OW25936   2.405   4.872   0.730
 8346SOL    HW125937   2.487   4.869   0.788
 8346SOL    HW225938   2.324   4.859   0.786
 8347SOL     OW25939   2.672   6.425   5.001
 8347SOL    HW125940   2.766   6.438   4.969
 8347SOL    HW225941   2.664   6.456   5.095
 8348SOL     OW25942   1.224   0.628   1.527
 8348SOL    HW125943   1.313   0.591   1.504
 8348SOL    HW225944   1.235   0.715   1.575
 8349SOL     OW25945   5.894   3.900   0.678
 8349SOL    HW125946   5.802   3.862   0.689
 8349SOL    HW225947   5.934   3.915   0.768
 8350SOL     OW25948   6.322   1.026   5.315
 8350SOL    HW125949   6.350   0.934   5.289
 8350SOL    HW225950   6.373   1.093   5.262
 8351SOL     OW25951   3.314   6.223   4.305
 8351SOL    HW125952   3.257   6.302   4.329
 8351SOL    HW225953   3.287   6.188   4.215
 8352SOL     OW25954   6.683   6.662   2.218
 8352SOL    HW125955   6.604   6.662   2.279
 8352SOL    HW225956   6.655   6.693   2.127
 8353SOL     OW25957   6.248   3.698   2.314
 8353SOL    HW125958   6.159   3.674   2.353
 8353SOL    HW225959   6.254   3.797   2.302
 8354SOL     OW25960   2.868   1.502   6.715
 8354SOL    HW125961   2.847   1.409   6.747
 8354SOL    HW225962   2.783   1.550   6.693
 8355SOL     OW25963   3.132   0.385   0.431
 8355SOL    HW125964   3.147   0.481   0.456
 8355SOL    HW225965   3.123   0.330   0.513
 8356SOL     OW25966   1.273   5.994   0.064
 8356SOL    HW125967   1.363   6.027   0.092
 8356SOL    HW225968   1.202   6.047   0.111
 8357SOL     OW25969   3.397   5.619   4.614
 8357SOL    HW125970   3.310   5.636   4.659
 8357SOL    HW225971   3.381   5.588   4.520
 8358SOL     OW25972   1.741   2.301   5.751
 8358SOL    HW125973   1.699   2.268   5.836
 8358SOL    HW225974   1.720   2.238   5.676
 8359SOL     OW25975   4.275   5.354   4.371
 8359SOL    HW125976   4.199   5.290   4.364
 8359SOL    HW225977   4.254   5.436   4.319
 8360SOL     OW25978   4.444   0.142   3.179
 8360SOL    HW125979   4.418   0.095   3.095
 8360SOL    HW225980   4.483   0.231   3.156
 8361SOL     OW25981   1.531   1.383   2.668
 8361SOL    HW125982   1.458   1.451   2.658
 8361SOL    HW225983   1.590   1.409   2.745
 8362SOL     OW25984   2.454   2.687   0.442
 8362SOL    HW125985   2.502   2.698   0.529
 8362SOL    HW225986   2.357   2.670   0.459
 8363SOL     OW25987   1.086   2.697   0.941
 8363SOL    HW125988   1.134   2.632   1.001
 8363SOL    HW225989   1.038   2.647   0.869
 8364SOL     OW25990   6.297   3.749   3.405
 8364SOL    HW125991   6.354   3.796   3.336
 8364SOL    HW225992   6.214   3.716   3.362
 8365SOL     OW25993   1.571   3.498   0.415
 8365SOL    HW125994   1.611   3.542   0.496
 8365SOL    HW225995   1.632   3.509   0.337
 8366SOL     OW25996   4.798   6.231   2.422
 8366SOL    HW125997   4.766   6.293   2.349
 8366SOL    HW225998   4.720   6.200   2.476
 8367SOL     OW25999   4.843   6.254   3.705
 8367SOL    HW126000   4.840   6.296   3.614
 8367SOL    HW226001   4.823   6.324   3.774
 8368SOL     OW26002   2.674   5.231   5.944
 8368SOL    HW126003   2.658   5.329   5.944
 8368SOL    HW226004   2.610   5.186   5.881
 8369SOL     OW26005   2.043   1.099   0.244
 8369SOL    HW126006   2.066   1.024   0.306
 8369SOL    HW226007   2.120   1.116   0.183
 8370SOL     OW26008   1.525   1.911   6.466
 8370SOL    HW126009   1.461   1.937   6.394
 8370SOL    HW226010   1.612   1.886   6.425
 8371SOL     OW26011   1.247   2.963   0.733
 8371SOL    HW126012   1.344   2.940   0.742
 8371SOL    HW226013   1.200   2.942   0.818
 8372SOL     OW26014   0.088   0.107   2.404
 8372SOL    HW126015   0.078   0.095   2.305
 8372SOL    HW226016   0.184   0.124   2.426
 8373SOL     OW26017   0.992   6.409   5.985
 8373SOL    HW126018   0.950   6.471   5.918
 8373SOL    HW226019   0.926   6.390   6.058
 8374SOL     OW26020   6.849   0.776   0.112
 8374SOL    HW126021   6.828   0.766   0.210
 8374SOL    HW226022   6.853   0.874   0.089
 8375SOL     OW26023   3.164   6.194   6.068
 8375SOL    HW126024   3.065   6.204   6.061
 8375SOL    HW226025   3.186   6.098   6.089
 8376SOL     OW26026   2.939   0.075   3.786
 8376SOL    HW126027   2.864   0.028   3.832
 8376SOL    HW226028   3.012   0.095   3.851
 8377SOL     OW26029   6.268   5.349   1.475
 8377SOL    HW126030   6.258   5.344   1.375
 8377SOL    HW226031   6.225   5.433   1.508
 8378SOL     OW26032   5.356   3.462   2.908
 8378SOL    HW126033   5.425   3.524   2.945
 8378SOL    HW226034   5.288   3.442   2.978
 8379SOL     OW26035   6.451   3.578   1.708
 8379SOL    HW126036   6.417   3.667   1.678
 8379SOL    HW226037   6.443   3.570   1.807
 8380SOL     OW26038   5.780   1.336   2.590
 8380SOL    HW126039   5.826   1.300   2.508
 8380SOL    HW226040   5.823   1.422   2.617
 8381SOL     OW26041   1.400   5.380   4.563
 8381SOL    HW126042   1.381   5.349   4.470
 8381SOL    HW226043   1.315   5.379   4.616
 8382SOL     OW26044   1.528   2.028   2.570
 8382SOL    HW126045   1.500   2.088   2.645
 8382SOL    HW226046   1.495   1.935   2.587
 8383SOL     OW26047   2.635   2.509   6.703
 8383SOL    HW126048   2.541   2.529   6.672
 8383SOL    HW226049   2.689   2.479   6.625
 8384SOL     OW26050   6.944   6.181   1.540
 8384SOL    HW126051   0.002   6.144   1.498
 8384SOL    HW226052   6.964   6.269   1.583
 8385SOL     OW26053   5.135   2.297   2.366
 8385SOL    HW126054   5.211   2.311   2.429
 8385SOL    HW226055   5.138   2.204   2.331
 8386SOL     OW26056   0.702   4.351   2.827
 8386SOL    HW126057   0.660   4.264   2.801
 8386SOL    HW226058   0.631   4.420   2.842
 8387SOL     OW26059   1.079   1.655   1.479
 8387SOL    HW126060   1.078   1.579   1.414
 8387SOL    HW226061   1.137   1.631   1.558
 8388SOL     OW26062   3.110   6.464   1.317
 8388SOL    HW126063   3.053   6.450   1.236
 8388SOL    HW226064   3.181   6.393   1.320
 8389SOL     OW26065   5.158   3.142   2.119
 8389SOL    HW126066   5.255   3.164   2.132
 8389SOL    HW226067   5.114   3.132   2.208
 8390SOL     OW26068   4.620   2.102   5.750
 8390SOL    HW126069   4.641   2.098   5.847
 8390SOL    HW226070   4.659   2.021   5.705
 8391SOL     OW26071   6.549   0.341   0.559
 8391SOL    HW126072   6.577   0.245   0.561
 8391SOL    HW226073   6.466   0.352   0.614
 8392SOL     OW26074   5.836   3.341   4.398
 8392SOL    HW126075   5.839   3.383   4.489
 8392SOL    HW226076   5.809   3.410   4.330
 8393SOL     OW26077   4.752   7.024   1.903
 8393SOL    HW126078   4.710   6.988   1.987
 8393SOL    HW226079   4.704   0.082   1.874
 8394SOL     OW26080   5.923   3.866   2.570
 8394SOL    HW126081   5.927   3.780   2.620
 8394SOL    HW226082   5.868   3.854   2.487
 8395SOL     OW26083   2.355   1.036   5.063
 8395SOL    HW126084   2.339   1.117   5.007
 8395SOL    HW226085   2.273   0.978   5.062
 8396SOL     OW26086   4.471   5.360   4.687
 8396SOL    HW126087   4.550   5.338   4.630
 8396SOL    HW226088   4.501   5.414   4.766
 8397SOL     OW26089   6.473   1.137   3.669
 8397SOL    HW126090   6.565   1.107   3.644
 8397SOL    HW226091   6.475   1.235   3.691
 8398SOL     OW26092   5.150   2.271   5.830
 8398SOL    HW126093   5.071   2.261   5.770
 8398SOL    HW226094   5.125   2.324   5.911
 8399SOL     OW26095   0.384   5.766   0.252
 8399SOL    HW126096   0.288   5.757   0.227
 8399SOL    HW226097   0.392   5.779   0.351
 8400SOL     OW26098   1.319   2.127   4.107
 8400SOL    HW126099   1.368   2.179   4.036
 8400SOL    HW226100   1.233   2.173   4.128
 8401SOL     OW26101   3.083   0.511   5.685
 8401SOL    HW126102   3.048   0.564   5.608
 8401SOL    HW226103   3.007   0.481   5.742
 8402SOL     OW26104   4.425   0.918   5.947
 8402SOL    HW126105   4.400   1.012   5.972
 8402SOL    HW226106   4.417   0.859   6.027
 8403SOL     OW26107   6.158   4.648   4.663
 8403SOL    HW126108   6.151   4.656   4.762
 8403SOL    HW226109   6.145   4.738   4.621
 8404SOL     OW26110   2.123   1.972   6.653
 8404SOL    HW126111   2.185   2.050   6.650
 8404SOL    HW226112   2.096   1.947   6.560
 8405SOL     OW26113   3.968   1.008   4.996
 8405SOL    HW126114   4.053   1.060   4.984
 8405SOL    HW226115   3.895   1.070   5.024
 8406SOL     OW26116   5.302   1.086   6.247
 8406SOL    HW126117   5.371   1.072   6.318
 8406SOL    HW226118   5.211   1.086   6.288
 8407SOL     OW26119   3.818   6.164   3.193
 8407SOL    HW126120   3.879   6.098   3.236
 8407SOL    HW226121   3.765   6.212   3.263
 8408SOL     OW26122   5.474   0.381   1.283
 8408SOL    HW126123   5.429   0.292   1.282
 8408SOL    HW226124   5.467   0.421   1.374
 8409SOL     OW26125   4.218   2.204   2.064
 8409SOL    HW126126   4.214   2.250   1.976
 8409SOL    HW226127   4.294   2.242   2.118
 8410SOL     OW26128   6.798   1.737   1.929
 8410SOL    HW126129   6.825   1.820   1.880
 8410SOL    HW226130   6.869   1.712   1.994
 8411SOL     OW26131   1.270   5.988   0.664
 8411SOL    HW126132   1.325   6.013   0.744
 8411SOL    HW226133   1.179   5.960   0.694
 8412SOL     OW26134   2.918   3.301   0.196
 8412SOL    HW126135   2.978   3.367   0.150
 8412SOL    HW226136   2.974   3.236   0.248
 8413SOL     OW26137   4.189   5.320   5.741
 8413SOL    HW126138   4.284   5.327   5.710
 8413SOL    HW226139   4.182   5.251   5.813
 8414SOL     OW26140   1.244   1.499   2.696
 8414SOL    HW126141   1.199   1.506   2.607
 8414SOL    HW226142   1.187   1.444   2.758
 8415SOL     OW26143   2.748   0.106   4.478
 8415SOL    HW126144   2.766   0.188   4.532
 8415SOL    HW226145   2.741   0.027   4.539
 8416SOL     OW26146   6.509   1.782   4.866
 8416SOL    HW126147   6.445   1.859   4.863
 8416SOL    HW226148   6.583   1.803   4.929
 8417SOL     OW26149   0.953   3.349   4.850
 8417SOL    HW126150   1.033   3.403   4.875
 8417SOL    HW226151   0.931   3.286   4.924
 8418SOL     OW26152   1.170   5.814   2.690
 8418SOL    HW126153   1.242   5.821   2.760
 8418SOL    HW226154   1.189   5.736   2.630
 8419SOL     OW26155   5.164   0.778   3.992
 8419SOL    HW126156   5.241   0.830   4.029
 8419SOL    HW226157   5.116   0.834   3.924
 8420SOL     OW26158   3.291   6.663   2.071
 8420SOL    HW126159   3.319   6.636   2.163
 8420SOL    HW226160   3.215   6.605   2.041
 8421SOL     OW26161   4.139   6.322   6.408
 8421SOL    HW126162   4.160   6.283   6.497
 8421SOL    HW226163   4.055   6.281   6.372
 8422SOL     OW26164   4.524   2.512   2.977
 8422SOL    HW126165   4.600   2.450   2.959
 8422SOL    HW226166   4.526   2.540   3.073
 8423SOL     OW26167   5.452   4.628   5.838
 8423SOL    HW126168   5.393   4.557   5.798
 8423SOL    HW226169   5.533   4.585   5.878
 8424SOL     OW26170   2.084   6.947   3.484
 8424SOL    HW126171   2.108   6.970   3.578
 8424SOL    HW226172   2.084   0.006   3.429
 8425SOL     OW26173   3.175   4.039   3.629
 8425SOL    HW126174   3.158   4.013   3.534
 8425SOL    HW226175   3.272   4.027   3.650
 8426SOL     OW26176   3.676   2.993   2.172
 8426SOL    HW126177   3.638   3.078   2.135
 8426SOL    HW226178   3.650   2.916   2.114
 8427SOL     OW26179   3.057   3.956   3.863
 8427SOL    HW126180   2.978   3.896   3.855
 8427SOL    HW226181   3.068   4.007   3.777
 8428SOL     OW26182   0.003   0.765   0.808
 8428SOL    HW126183   0.083   0.714   0.839
 8428SOL    HW226184   7.015   0.751   0.710
 8429SOL     OW26185   1.681   5.550   6.242
 8429SOL    HW126186   1.706   5.635   6.195
 8429SOL    HW226187   1.600   5.566   6.299
 8430SOL     OW26188   4.190   5.974   4.463
 8430SOL    HW126189   4.258   5.905   4.486
 8430SOL    HW226190   4.130   5.989   4.542
 8431SOL     OW26191   2.940   3.358   6.291
 8431SOL    HW126192   2.885   3.321   6.217
 8431SOL    HW226193   2.881   3.406   6.356
 8432SOL     OW26194   6.482   5.692   6.374
 8432SOL    HW126195   6.445   5.764   6.431
 8432SOL    HW226196   6.428   5.684   6.290
 8433SOL     OW26197   4.897   2.533   0.579
 8433SOL    HW126198   4.903   2.586   0.495
 8433SOL    HW226199   4.843   2.583   0.647
 8434SOL     OW26200   2.135   5.651   5.416
 8434SOL    HW126201   2.206   5.718   5.438
 8434SOL    HW226202   2.079   5.686   5.342
 8435SOL     OW26203   5.142   0.839   2.836
 8435SOL    HW126204   5.106   0.869   2.924
 8435SOL    HW226205   5.142   0.915   2.772
 8436SOL     OW26206   2.353   6.935   3.015
 8436SOL    HW126207   2.385   6.998   3.085
 8436SOL    HW226208   2.266   6.967   2.978
 8437SOL     OW26209   2.247   2.948   2.312
 8437SOL    HW126210   2.207   3.038   2.333
 8437SOL    HW226211   2.257   2.939   2.213
 8438SOL     OW26212   1.613   4.639   3.079
 8438SOL    HW126213   1.668   4.581   3.138
 8438SOL    HW226214   1.594   4.592   2.993
 8439SOL     OW26215   6.020   5.712   3.551
 8439SOL    HW126216   5.991   5.805   3.526
 8439SOL    HW226217   5.960   5.678   3.624
 8440SOL     OW26218   2.191   1.262   3.350
 8440SOL    HW126219   2.214   1.247   3.446
 8440SOL    HW226220   2.145   1.180   3.314
 8441SOL     OW26221   5.755   0.260   5.442
 8441SOL    HW126222   5.786   0.241   5.349
 8441SOL    HW226223   5.776   0.182   5.500
 8442SOL     OW26224   3.819   0.806   5.469
 8442SOL    HW126225   3.759   0.737   5.428
 8442SOL    HW226226   3.851   0.868   5.397
 8443SOL     OW26227   1.317   4.700   3.546
 8443SOL    HW126228   1.344   4.642   3.470
 8443SOL    HW226229   1.398   4.742   3.587
 8444SOL     OW26230   4.737   5.845   3.407
 8444SOL    HW126231   4.743   5.746   3.390
 8444SOL    HW226232   4.728   5.861   3.505
 8445SOL     OW26233   3.330   6.749   7.005
 8445SOL    HW126234   3.325   6.721   0.076
 8445SOL    HW226235   3.304   6.672   6.947
 8446SOL     OW26236   0.450   5.928   5.165
 8446SOL    HW126237   0.483   5.985   5.090
 8446SOL    HW226238   0.415   5.986   5.238
 8447SOL     OW26239   3.756   1.454   2.706
 8447SOL    HW126240   3.680   1.516   2.688
 8447SOL    HW226241   3.840   1.492   2.667
 8448SOL     OW26242   4.897   6.709   3.027
 8448SOL    HW126243   4.811   6.682   2.983
 8448SOL    HW226244   4.877   6.758   3.112
 8449SOL     OW26245   1.848   2.442   3.109
 8449SOL    HW126246   1.872   2.521   3.053
 8449SOL    HW226247   1.914   2.432   3.184
 8450SOL     OW26248   6.691   0.651   6.952
 8450SOL    HW126249   6.739   0.710   7.018
 8450SOL    HW226250   6.758   0.611   6.889
 8451SOL     OW26251   4.813   1.912   1.274
 8451SOL    HW126252   4.843   1.867   1.191
 8451SOL    HW226253   4.885   1.972   1.308
 8452SOL     OW26254   5.175   1.947   4.967
 8452SOL    HW126255   5.130   1.940   4.878
 8452SOL    HW226256   5.121   1.897   5.035
 8453SOL     OW26257   0.674   5.677   6.821
 8453SOL    HW126258   0.708   5.763   6.783
 8453SOL    HW226259   0.611   5.697   6.896
 8454SOL     OW26260   0.882   4.463   0.384
 8454SOL    HW126261   0.934   4.402   0.445
 8454SOL    HW226262   0.784   4.449   0.399
 8455SOL     OW26263   1.229   0.635   3.012
 8455SOL    HW126264   1.222   0.734   3.028
 8455SOL    HW226265   1.138   0.597   2.997
 8456SOL     OW26266   5.681   1.550   3.448
 8456SOL    HW126267   5.593   1.526   3.487
 8456SOL    HW226268   5.737   1.467   3.438
 8457SOL     OW26269   6.271   6.383   4.726
 8457SOL    HW126270   6.363   6.413   4.702
 8457SOL    HW226271   6.204   6.432   4.670
 8458SOL     OW26272   6.538   0.267   6.654
 8458SOL    HW126273   6.637   0.258   6.653
 8458SOL    HW226274   6.496   0.177   6.669
 8459SOL     OW26275   1.582   5.947   3.076
 8459SOL    HW126276   1.625   5.913   2.992
 8459SOL    HW226277   1.652   5.981   3.138
 8460SOL     OW26278   3.262   4.075   5.032
 8460SOL    HW126279   3.215   4.006   4.978
 8460SOL    HW226280   3.202   4.154   5.045
 8461SOL     OW26281   6.634   3.019   4.628
 8461SOL    HW126282   6.695   3.080   4.577
 8461SOL    HW226283   6.619   3.056   4.720
 8462SOL     OW26284   2.471   2.259   1.887
 8462SOL    HW126285   2.501   2.344   1.930
 8462SOL    HW226286   2.551   2.203   1.865
 8463SOL     OW26287   5.756   0.901   2.493
 8463SOL    HW126288   5.728   0.953   2.574
 8463SOL    HW226289   5.728   0.806   2.503
 8464SOL     OW26290   5.796   2.765   4.357
 8464SOL    HW126291   5.743   2.846   4.381
 8464SOL    HW226292   5.777   2.740   4.262
 8465SOL     OW26293   1.696   2.516   0.524
 8465SOL    HW126294   1.782   2.471   0.549
 8465SOL    HW226295   1.691   2.523   0.425
 8466SOL     OW26296   1.063   6.128   3.568
 8466SOL    HW126297   1.047   6.030   3.578
 8466SOL    HW226298   1.149   6.144   3.520
 8467SOL     OW26299   2.993   5.574   1.142
 8467SOL    HW126300   2.937   5.536   1.068
 8467SOL    HW226301   3.089   5.573   1.115
 8468SOL     OW26302   4.654   1.611   6.622
 8468SOL    HW126303   4.593   1.622   6.544
 8468SOL    HW226304   4.633   1.525   6.670
 8469SOL     OW26305   3.589   2.649   6.766
 8469SOL    HW126306   3.663   2.638   6.833
 8469SOL    HW226307   3.565   2.746   6.760
 8470SOL     OW26308   3.080   3.421   6.708
 8470SOL    HW126309   3.003   3.439   6.769
 8470SOL    HW226310   3.130   3.507   6.692
 8471SOL     OW26311   3.460   0.567   3.705
 8471SOL    HW126312   3.423   0.581   3.613
 8471SOL    HW226313   3.536   0.630   3.720
 8472SOL     OW26314   1.449   6.621   4.179
 8472SOL    HW126315   1.429   6.525   4.157
 8472SOL    HW226316   1.481   6.627   4.274
 8473SOL     OW26317   7.024   5.181   6.654
 8473SOL    HW126318   0.071   5.111   6.653
 8473SOL    HW226319   0.021   5.251   6.722
 8474SOL     OW26320   3.247   3.833   1.554
 8474SOL    HW126321   3.240   3.836   1.653
 8474SOL    HW226322   3.203   3.749   1.520
 8475SOL     OW26323   5.856   1.605   2.677
 8475SOL    HW126324   5.771   1.652   2.697
 8475SOL    HW226325   5.910   1.597   2.761
 8476SOL     OW26326   4.542   0.914   2.228
 8476SOL    HW126327   4.453   0.960   2.227
 8476SOL    HW226328   4.615   0.984   2.230
 8477SOL     OW26329   2.742   0.733   0.934
 8477SOL    HW126330   2.725   0.641   0.900
 8477SOL    HW226331   2.732   0.799   0.859
 8478SOL     OW26332   1.283   0.329   5.661
 8478SOL    HW126333   1.252   0.303   5.570
 8478SOL    HW226334   1.370   0.284   5.681
 8479SOL     OW26335   5.997   0.855   0.897
 8479SOL    HW126336   6.002   0.914   0.816
 8479SOL    HW226337   5.955   0.906   0.973
 8480SOL     OW26338   3.262   0.838   1.535
 8480SOL    HW126339   3.341   0.881   1.580
 8480SOL    HW226340   3.257   0.742   1.561
 8481SOL     OW26341   3.696   0.900   4.004
 8481SOL    HW126342   3.698   0.889   4.103
 8481SOL    HW226343   3.655   0.989   3.981
 8482SOL     OW26344   1.528   6.772   2.204
 8482SOL    HW126345   1.619   6.782   2.165
 8482SOL    HW226346   1.517   6.680   2.241
 8483SOL     OW26347   3.804   5.984   0.836
 8483SOL    HW126348   3.899   5.955   0.843
 8483SOL    HW226349   3.767   5.956   0.747
 8484SOL     OW26350   0.715   4.991   4.719
 8484SOL    HW126351   0.735   5.089   4.728
 8484SOL    HW226352   0.771   4.953   4.646
 8485SOL     OW26353   2.287   3.443   6.965
 8485SOL    HW126354   2.252   3.376   6.900
 8485SOL    HW226355   2.378   3.473   6.936
 8486SOL     OW26356   5.493   0.686   2.348
 8486SOL    HW126357   5.579   0.702   2.299
 8486SOL    HW226358   5.423   0.655   2.283
 8487SOL     OW26359   5.064   0.444   1.582
 8487SOL    HW126360   5.046   0.372   1.514
 8487SOL    HW226361   4.990   0.446   1.649
 8488SOL     OW26362   5.075   3.462   3.998
 8488SOL    HW126363   5.011   3.388   4.017
 8488SOL    HW226364   5.024   3.545   3.975
 8489SOL     OW26365   4.933   4.651   1.674
 8489SOL    HW126366   4.903   4.735   1.720
 8489SOL    HW226367   5.002   4.674   1.606
 8490SOL     OW26368   4.226   5.020   2.907
 8490SOL    HW126369   4.160   4.945   2.917
 8490SOL    HW226370   4.273   5.012   2.820
 8491SOL     OW26371   2.193   0.692   2.347
 8491SOL    HW126372   2.126   0.624   2.378
 8491SOL    HW226373   2.266   0.701   2.416
 8492SOL     OW26374   6.014   2.682   4.830
 8492SOL    HW126375   5.925   2.690   4.785
 8492SOL    HW226376   6.078   2.633   4.771
 8493SOL     OW26377   4.314   1.594   6.375
 8493SOL    HW126378   4.402   1.640   6.388
 8493SOL    HW226379   4.311   1.552   6.285
 8494SOL     OW26380   3.339   5.749   6.513
 8494SOL    HW126381   3.377   5.665   6.475
 8494SOL    HW226382   3.279   5.792   6.445
 8495SOL     OW26383   6.957   2.560   1.302
 8495SOL    HW126384   0.024   2.586   1.330
 8495SOL    HW226385   6.918   2.632   1.244
 8496SOL     OW26386   0.356   2.734   3.394
 8496SOL    HW126387   0.362   2.640   3.425
 8496SOL    HW226388   0.346   2.795   3.474
 8497SOL     OW26389   5.669   5.412   3.594
 8497SOL    HW126390   5.766   5.414   3.567
 8497SOL    HW226391   5.661   5.366   3.683
 8498SOL     OW26392   0.256   1.047   1.112
 8498SOL    HW126393   0.261   1.144   1.090
 8498SOL    HW226394   0.165   1.013   1.090
 8499SOL     OW26395   3.532   4.240   6.016
 8499SOL    HW126396   3.541   4.282   5.926
 8499SOL    HW226397   3.621   4.203   6.045
 8500SOL     OW26398   2.465   6.478   5.920
 8500SOL    HW126399   2.448   6.494   5.823
 8500SOL    HW226400   2.425   6.552   5.974
 8501SOL     OW26401   1.650   3.147   6.651
 8501SOL    HW126402   1.681   3.233   6.610
 8501SOL    HW226403   1.641   3.158   6.750
 8502SOL     OW26404   6.935   0.009   1.599
 8502SOL    HW126405   6.936   6.956   1.661
 8502SOL    HW226406   7.024   0.018   1.555
 8503SOL     OW26407   2.792   5.016   3.333
 8503SOL    HW126408   2.871   5.055   3.285
 8503SOL    HW226409   2.793   4.917   3.322
 8504SOL     OW26410   1.336   5.265   3.432
 8504SOL    HW126411   1.335   5.169   3.403
 8504SOL    HW226412   1.249   5.288   3.476
 8505SOL     OW26413   5.117   3.612   3.338
 8505SOL    HW126414   5.023   3.602   3.304
 8505SOL    HW226415   5.134   3.708   3.359
 8506SOL     OW26416   1.655   6.515   0.221
 8506SOL    HW126417   1.639   6.550   0.313
 8506SOL    HW226418   1.718   6.438   0.225
 8507SOL     OW26419   1.283   0.790   5.608
 8507SOL    HW126420   1.235   0.715   5.564
 8507SOL    HW226421   1.271   0.873   5.554
 8508SOL     OW26422   0.401   2.262   5.683
 8508SOL    HW126423   0.373   2.262   5.778
 8508SOL    HW226424   0.444   2.350   5.661
 8509SOL     OW26425   6.140   1.728   4.308
 8509SOL    HW126426   6.184   1.818   4.301
 8509SOL    HW226427   6.112   1.698   4.217
 8510SOL     OW26428   5.683   5.901   2.618
 8510SOL    HW126429   5.715   5.937   2.531
 8510SOL    HW226430   5.596   5.854   2.605
 8511SOL     OW26431   6.609   4.956   2.044
 8511SOL    HW126432   6.628   4.863   2.076
 8511SOL    HW226433   6.554   5.003   2.113
 8512SOL     OW26434   5.152   2.298   0.060
 8512SOL    HW126435   5.100   2.213   0.068
 8512SOL    HW226436   5.184   2.308   6.991
 8513SOL     OW26437   6.295   4.510   1.282
 8513SOL    HW126438   6.307   4.440   1.352
 8513SOL    HW226439   6.198   4.517   1.258
 8514SOL     OW26440   2.891   1.686   5.145
 8514SOL    HW126441   2.955   1.756   5.113
 8514SOL    HW226442   2.939   1.622   5.205
 8515SOL     OW26443   0.982   1.040   0.678
 8515SOL    HW126444   0.926   0.957   0.671
 8515SOL    HW226445   1.044   1.031   0.756
 8516SOL     OW26446   6.015   2.690   2.143
 8516SOL    HW126447   5.962   2.736   2.072
 8516SOL    HW226448   5.989   2.594   2.148
 8517SOL     OW26449   1.476   2.792   5.348
 8517SOL    HW126450   1.551   2.826   5.291
 8517SOL    HW226451   1.493   2.696   5.371
 8518SOL     OW26452   5.540   4.778   6.708
 8518SOL    HW126453   5.539   4.875   6.685
 8518SOL    HW226454   5.572   4.766   6.802
 8519SOL     OW26455   1.361   4.088   0.925
 8519SOL    HW126456   1.425   4.011   0.920
 8519SOL    HW226457   1.388   4.158   0.858
 8520SOL     OW26458   3.772   3.545   4.513
 8520SOL    HW126459   3.815   3.477   4.455
 8520SOL    HW226460   3.813   3.635   4.495
 8521SOL     OW26461   1.727   5.854   5.455
 8521SOL    HW126462   1.634   5.861   5.491
 8521SOL    HW226463   1.783   5.798   5.517
 8522SOL     OW26464   1.385   6.764   0.931
 8522SOL    HW126465   1.341   6.816   1.005
 8522SOL    HW226466   1.314   6.723   0.873
 8523SOL     OW26467   2.766   0.258   6.334
 8523SOL    HW126468   2.862   0.239   6.315
 8523SOL    HW226469   2.758   0.349   6.375
 8524SOL     OW26470   1.660   5.321   4.673
 8524SOL    HW126471   1.568   5.335   4.636
 8524SOL    HW226472   1.728   5.335   4.601
 8525SOL     OW26473   6.676   4.622   1.649
 8525SOL    HW126474   6.644   4.713   1.623
 8525SOL    HW226475   6.774   4.625   1.665
 8526SOL     OW26476   2.658   6.920   0.615
 8526SOL    HW126477   2.581   6.966   0.660
 8526SOL    HW226478   2.740   6.977   0.622
 8527SOL     OW26479   3.411   0.058   6.449
 8527SOL    HW126480   3.407   0.150   6.488
 8527SOL    HW226481   3.329   0.041   6.395
 8528SOL     OW26482   5.001   2.317   0.933
 8528SOL    HW126483   4.970   2.408   0.907
 8528SOL    HW226484   5.014   2.261   0.851
 8529SOL     OW26485   1.211   6.068   6.618
 8529SOL    HW126486   1.194   6.040   6.524
 8529SOL    HW226487   1.207   6.167   6.625
 8530SOL     OW26488   3.079   3.598   4.179
 8530SOL    HW126489   3.000   3.640   4.224
 8530SOL    HW226490   3.087   3.503   4.206
 8531SOL     OW26491   6.987   5.880   3.910
 8531SOL    HW126492   0.022   5.959   3.920
 8531SOL    HW226493   0.018   5.797   3.902
 8532SOL     OW26494   3.575   6.132   4.290
 8532SOL    HW126495   3.621   6.193   4.354
 8532SOL    HW226496   3.477   6.132   4.308
 8533SOL     OW26497   0.862   6.154   6.520
 8533SOL    HW126498   0.862   6.065   6.473
 8533SOL    HW226499   0.913   6.147   6.605
 8534SOL     OW26500   4.149   2.283   4.169
 8534SOL    HW126501   4.099   2.208   4.126
 8534SOL    HW226502   4.087   2.360   4.184
 8535SOL     OW26503   5.716   0.860   3.968
 8535SOL    HW126504   5.792   0.828   4.025
 8535SOL    HW226505   5.664   0.929   4.017
 8536SOL     OW26506   0.214   0.897   4.305
 8536SOL    HW126507   0.285   0.949   4.353
 8536SOL    HW226508   0.247   0.872   4.214
 8537SOL     OW26509   6.895   1.114   3.139
 8537SOL    HW126510   6.974   1.058   3.113
 8537SOL    HW226511   6.923   1.179   3.210
 8538SOL     OW26512   1.244   2.592   0.337
 8538SOL    HW126513   1.255   2.494   0.356
 8538SOL    HW226514   1.300   2.645   0.400
 8539SOL     OW26515   6.533   2.792   2.816
 8539SOL    HW126516   6.595   2.809   2.739
 8539SOL    HW226517   6.440   2.814   2.789
 8540SOL     OW26518   4.391   6.806   6.921
 8540SOL    HW126519   4.364   6.781   6.828
 8540SOL    HW226520   4.478   6.763   6.943
 8541SOL     OW26521   2.209   2.189   3.697
 8541SOL    HW126522   2.195   2.190   3.796
 8541SOL    HW226523   2.306   2.200   3.677
 8542SOL     OW26524   4.165   3.748   6.709
 8542SOL    HW126525   4.261   3.761   6.684
 8542SOL    HW226526   4.109   3.816   6.661
 8543SOL     OW26527   2.171   2.960   6.981
 8543SOL    HW126528   2.243   2.904   7.023
 8543SOL    HW226529   2.192   2.974   6.884
 8544SOL     OW26530   5.237   2.594   4.153
 8544SOL    HW126531   5.322   2.599   4.100
 8544SOL    HW226532   5.195   2.685   4.155
 8545SOL     OW26533   4.719   5.961   5.079
 8545SOL    HW126534   4.704   6.042   5.023
 8545SOL    HW226535   4.787   5.902   5.035
 8546SOL     OW26536   4.999   1.507   4.007
 8546SOL    HW126537   4.934   1.446   4.052
 8546SOL    HW226538   5.084   1.509   4.060
 8547SOL     OW26539   0.959   4.590   3.647
 8547SOL    HW126540   0.865   4.626   3.650
 8547SOL    HW226541   0.989   4.582   3.552
 8548SOL     OW26542   5.535   0.979   4.728
 8548SOL    HW126543   5.579   0.939   4.648
 8548SOL    HW226544   5.491   0.906   4.782
 8549SOL     OW26545   6.423   3.383   4.158
 8549SOL    HW126546   6.363   3.383   4.238
 8549SOL    HW226547   6.381   3.436   4.085
 8550SOL     OW26548   1.428   5.106   6.449
 8550SOL    HW126549   1.444   5.014   6.484
 8550SOL    HW226550   1.380   5.102   6.362
 8551SOL     OW26551   3.472   3.840   6.885
 8551SOL    HW126552   3.515   3.829   6.975
 8551SOL    HW226553   3.374   3.824   6.894
 8552SOL     OW26554   2.630   6.217   3.440
 8552SOL    HW126555   2.561   6.162   3.392
 8552SOL    HW226556   2.717   6.212   3.391
 8553SOL     OW26557   4.962   6.760   0.643
 8553SOL    HW126558   5.042   6.819   0.633
 8553SOL    HW226559   4.992   6.666   0.657
 8554SOL     OW26560   6.947   4.358   6.878
 8554SOL    HW126561   6.950   4.264   6.911
 8554SOL    HW226562   7.017   4.412   6.924
 8555SOL     OW26563   1.293   0.371   4.126
 8555SOL    HW126564   1.370   0.309   4.118
 8555SOL    HW226565   1.218   0.325   4.174
 8556SOL     OW26566   6.759   0.335   3.811
 8556SOL    HW126567   6.721   0.413   3.860
 8556SOL    HW226568   6.697   0.257   3.820
 8557SOL     OW26569   7.010   6.920   1.129
 8557SOL    HW126570   0.078   6.887   1.148
 8557SOL    HW226571   6.993   6.916   1.031
 8558SOL     OW26572   1.062   5.185   2.101
 8558SOL    HW126573   1.054   5.085   2.101
 8558SOL    HW226574   1.123   5.213   2.027
 8559SOL     OW26575   1.374   0.202   2.004
 8559SOL    HW126576   1.282   0.214   2.043
 8559SOL    HW226577   1.390   0.270   1.934
 8560SOL     OW26578   6.436   1.747   0.231
 8560SOL    HW126579   6.394   1.838   0.229
 8560SOL    HW226580   6.382   1.688   0.292
 8561SOL     OW26581   4.807   6.358   3.455
 8561SOL    HW126582   4.821   6.368   3.356
 8561SOL    HW226583   4.711   6.377   3.477
 8562SOL     OW26584   3.589   6.695   4.034
 8562SOL    HW126585   3.681   6.722   4.063
 8562SOL    HW226586   3.548   6.768   3.979
 8563SOL     OW26587   2.816   2.759   0.053
 8563SOL    HW126588   2.823   2.659   0.049
 8563SOL    HW226589   2.888   2.795   0.112
 8564SOL     OW26590   1.038   6.804   3.356
 8564SOL    HW126591   1.026   6.825   3.453
 8564SOL    HW226592   1.112   6.861   3.318
 8565SOL     OW26593   3.605   6.685   1.004
 8565SOL    HW126594   3.611   6.711   0.907
 8565SOL    HW226595   3.592   6.586   1.010
 8566SOL     OW26596   1.285   2.394   3.207
 8566SOL    HW126597   1.303   2.349   3.294
 8566SOL    HW226598   1.255   2.327   3.140
 8567SOL     OW26599   5.077   1.459   1.055
 8567SOL    HW126600   5.061   1.384   1.119
 8567SOL    HW226601   5.173   1.487   1.060
 8568SOL     OW26602   5.590   1.556   0.193
 8568SOL    HW126603   5.533   1.479   0.162
 8568SOL    HW226604   5.672   1.521   0.238
 8569SOL     OW26605   4.318   1.499   4.421
 8569SOL    HW126606   4.361   1.559   4.488
 8569SOL    HW226607   4.342   1.531   4.329
 8570SOL     OW26608   0.478   4.132   6.976
 8570SOL    HW126609   0.438   4.221   6.993
 8570SOL    HW226610   0.516   4.095   0.036
 8571SOL     OW26611   7.000   4.168   4.718
 8571SOL    HW126612   0.062   4.187   4.763
 8571SOL    HW226613   6.940   4.118   4.781
 8572SOL     OW26614   2.216   4.900   5.594
 8572SOL    HW126615   2.151   4.976   5.601
 8572SOL    HW226616   2.242   4.870   5.686
 8573SOL     OW26617   3.901   5.821   5.767
 8573SOL    HW126618   3.963   5.743   5.782
 8573SOL    HW226619   3.808   5.795   5.791
 8574SOL     OW26620   0.613   3.353   5.755
 8574SOL    HW126621   0.573   3.415   5.824
 8574SOL    HW226622   0.711   3.344   5.772
 8575SOL     OW26623   3.175   2.551   0.823
 8575SOL    HW126624   3.226   2.581   0.904
 8575SOL    HW226625   3.077   2.560   0.840
 8576SOL     OW26626   1.497   0.204   1.583
 8576SOL    HW126627   1.419   0.230   1.525
 8576SOL    HW226628   1.581   0.210   1.530
 8577SOL     OW26629   6.421   6.297   3.374
 8577SOL    HW126630   6.466   6.358   3.439
 8577SOL    HW226631   6.434   6.202   3.404
 8578SOL     OW26632   4.308   6.852   3.724
 8578SOL    HW126633   4.276   6.944   3.701
 8578SOL    HW226634   4.348   6.809   3.644
 8579SOL     OW26635   1.106   5.300   3.557
 8579SOL    HW126636   1.029   5.328   3.500
 8579SOL    HW226637   1.074   5.240   3.630
 8580SOL     OW26638   2.063   5.790   1.146
 8580SOL    HW126639   2.028   5.822   1.234
 8580SOL    HW226640   1.987   5.762   1.088
 8581SOL     OW26641   3.263   1.810   0.756
 8581SOL    HW126642   3.252   1.890   0.698
 8581SOL    HW226643   3.339   1.754   0.723
 8582SOL     OW26644   4.252   4.449   1.698
 8582SOL    HW126645   4.341   4.404   1.692
 8582SOL    HW226646   4.183   4.392   1.655
 8583SOL     OW26647   5.981   6.834   6.047
 8583SOL    HW126648   5.912   6.869   6.111
 8583SOL    HW226649   6.028   6.910   6.004
 8584SOL     OW26650   6.675   5.456   0.455
 8584SOL    HW126651   6.715   5.422   0.540
 8584SOL    HW226652   6.608   5.527   0.475
 8585SOL     OW26653   0.284   1.006   0.080
 8585SOL    HW126654   0.248   0.915   0.060
 8585SOL    HW226655   0.365   0.997   0.138
 8586SOL     OW26656   3.751   5.503   2.823
 8586SOL    HW126657   3.820   5.471   2.888
 8586SOL    HW226658   3.660   5.487   2.861
 8587SOL     OW26659   0.134   2.033   2.268
 8587SOL    HW126660   0.050   2.083   2.248
 8587SOL    HW226661   0.161   2.050   2.363
 8588SOL     OW26662   4.722   2.452   0.173
 8588SOL    HW126663   4.798   2.411   0.224
 8588SOL    HW226664   4.637   2.408   0.200
 8589SOL     OW26665   3.639   1.667   4.187
 8589SOL    HW126666   3.735   1.697   4.192
 8589SOL    HW226667   3.579   1.744   4.209
 8590SOL     OW26668   5.918   5.279   5.185
 8590SOL    HW126669   5.932   5.356   5.246
 8590SOL    HW226670   5.996   5.271   5.123
 8591SOL     OW26671   1.017   3.733   6.668
 8591SOL    HW126672   0.970   3.645   6.674
 8591SOL    HW226673   0.979   3.786   6.592
 8592SOL     OW26674   6.440   4.453   0.790
 8592SOL    HW126675   6.462   4.398   0.871
 8592SOL    HW226676   6.518   4.512   0.769
 8593SOL     OW26677   1.821   0.766   2.495
 8593SOL    HW126678   1.759   0.845   2.494
 8593SOL    HW226679   1.819   0.723   2.585
 8594SOL     OW26680   2.912   3.706   4.389
 8594SOL    HW126681   2.872   3.719   4.480
 8594SOL    HW226682   2.956   3.791   4.359
 8595SOL     OW26683   1.747   2.386   2.613
 8595SOL    HW126684   1.726   2.338   2.698
 8595SOL    HW226685   1.669   2.380   2.551
 8596SOL     OW26686   6.137   5.356   1.790
 8596SOL    HW126687   6.103   5.429   1.849
 8596SOL    HW226688   6.098   5.366   1.699
 8597SOL     OW26689   2.594   1.224   0.586
 8597SOL    HW126690   2.600   1.324   0.596
 8597SOL    HW226691   2.503   1.199   0.554
 8598SOL     OW26692   5.867   5.219   0.882
 8598SOL    HW126693   5.869   5.311   0.921
 8598SOL    HW226694   5.892   5.152   0.951
 8599SOL     OW26695   1.818   3.338   3.104
 8599SOL    HW126696   1.762   3.402   3.157
 8599SOL    HW226697   1.864   3.274   3.166
 8600SOL     OW26698   6.730   4.945   6.747
 8600SOL    HW126699   6.687   5.009   6.810
 8600SOL    HW226700   6.670   4.867   6.732
 8601SOL     OW26701   0.455   0.009   4.248
 8601SOL    HW126702   0.501   6.954   4.209
 8601SOL    HW226703   0.357   7.016   4.253
 8602SOL     OW26704   2.385   5.607   2.014
 8602SOL    HW126705   2.349   5.636   2.102
 8602SOL    HW226706   2.310   5.602   1.948
 8603SOL     OW26707   4.142   3.068   0.268
 8603SOL    HW126708   4.080   3.107   0.336
 8603SOL    HW226709   4.173   2.978   0.297
 8604SOL     OW26710   5.198   3.123   3.540
 8604SOL    HW126711   5.226   3.027   3.547
 8604SOL    HW226712   5.253   3.178   3.603
 8605SOL     OW26713   2.510   6.223   3.005
 8605SOL    HW126714   2.415   6.193   3.016
 8605SOL    HW226715   2.570   6.160   3.055
 8606SOL     OW26716   4.124   4.676   5.552
 8606SOL    HW126717   4.038   4.668   5.603
 8606SOL    HW226718   4.200   4.656   5.614
 8607SOL     OW26719   4.263   5.720   1.540
 8607SOL    HW126720   4.188   5.720   1.474
 8607SOL    HW226721   4.260   5.803   1.595
 8608SOL     OW26722   4.434   5.450   2.137
 8608SOL    HW126723   4.436   5.549   2.125
 8608SOL    HW226724   4.380   5.428   2.218
 8609SOL     OW26725   3.509   0.848   5.423
 8609SOL    HW126726   3.462   0.835   5.511
 8609SOL    HW226727   3.545   0.941   5.418
 8610SOL     OW26728   1.244   6.456   3.837
 8610SOL    HW126729   1.217   6.550   3.815
 8610SOL    HW226730   1.175   6.393   3.803
 8611SOL     OW26731   1.793   1.832   4.704
 8611SOL    HW126732   1.882   1.873   4.728
 8611SOL    HW226733   1.727   1.905   4.686
 8612SOL     OW26734   4.059   2.745   5.925
 8612SOL    HW126735   4.138   2.731   5.865
 8612SOL    HW226736   4.090   2.748   6.020
 8613SOL     OW26737   1.887   1.938   1.079
 8613SOL    HW126738   1.830   1.973   1.154
 8613SOL    HW226739   1.870   1.993   0.997
 8614SOL     OW26740   0.890   2.290   3.064
 8614SOL    HW126741   0.905   2.337   3.151
 8614SOL    HW226742   0.937   2.339   2.991
 8615SOL     OW26743   4.340   2.090   5.245
 8615SOL    HW126744   4.344   2.072   5.147
 8615SOL    HW226745   4.308   2.183   5.261
 8616SOL     OW26746   1.134   4.833   0.617
 8616SOL    HW126747   1.047   4.810   0.659
 8616SOL    HW226748   1.209   4.805   0.677
 8617SOL     OW26749   5.958   2.707   0.758
 8617SOL    HW126750   6.022   2.762   0.705
 8617SOL    HW226751   5.987   2.612   0.758
 8618SOL     OW26752   4.621   7.002   3.299
 8618SOL    HW126753   4.577   6.995   3.388
 8618SOL    HW226754   4.579   0.051   3.246
 8619SOL     OW26755   4.388   4.834   6.831
 8619SOL    HW126756   4.291   4.811   6.827
 8619SOL    HW226757   4.424   4.814   6.922
 8620SOL     OW26758   6.219   6.507   2.749
 8620SOL    HW126759   6.172   6.550   2.671
 8620SOL    HW226760   6.290   6.569   2.783
 8621SOL     OW26761   5.842   0.939   3.731
 8621SOL    HW126762   5.802   0.895   3.811
 8621SOL    HW226763   5.921   0.886   3.699
 8622SOL     OW26764   4.613   5.141   0.467
 8622SOL    HW126765   4.681   5.186   0.408
 8622SOL    HW226766   4.660   5.087   0.537
 8623SOL     OW26767   0.272   3.793   3.106
 8623SOL    HW126768   0.178   3.817   3.085
 8623SOL    HW226769   0.322   3.775   3.021
 8624SOL     OW26770   0.441   4.377   2.945
 8624SOL    HW126771   0.353   4.331   2.946
 8624SOL    HW226772   0.499   4.341   3.018
 8625SOL     OW26773   3.575   0.864   4.840
 8625SOL    HW126774   3.532   0.849   4.929
 8625SOL    HW226775   3.615   0.779   4.807
 8626SOL     OW26776   3.351   3.900   3.899
 8626SOL    HW126777   3.352   3.809   3.941
 8626SOL    HW226778   3.257   3.927   3.880
 8627SOL     OW26779   1.149   0.943   0.408
 8627SOL    HW126780   1.138   0.929   0.507
 8627SOL    HW226781   1.076   1.002   0.374
 8628SOL     OW26782   5.669   0.828   0.038
 8628SOL    HW126783   5.709   0.917   0.016
 8628SOL    HW226784   5.666   0.817   0.138
 8629SOL     OW26785   1.313   4.168   4.061
 8629SOL    HW126786   1.382   4.208   4.001
 8629SOL    HW226787   1.356   4.105   4.125
 8630SOL     OW26788   5.814   4.512   3.777
 8630SOL    HW126789   5.802   4.503   3.678
 8630SOL    HW226790   5.747   4.455   3.825
 8631SOL     OW26791   3.816   5.906   4.861
 8631SOL    HW126792   3.828   5.927   4.764
 8631SOL    HW226793   3.789   5.811   4.872
 8632SOL     OW26794   3.900   0.086   3.135
 8632SOL    HW126795   3.968   0.130   3.077
 8632SOL    HW226796   3.810   0.123   3.116
 8633SOL     OW26797   5.833   1.305   4.077
 8633SOL    HW126798   5.840   1.377   4.009
 8633SOL    HW226799   5.770   1.333   4.149
 8634SOL     OW26800   6.807   4.986   2.325
 8634SOL    HW126801   6.750   4.962   2.404
 8634SOL    HW226802   6.877   5.051   2.354
 8635SOL     OW26803   6.141   3.474   5.597
 8635SOL    HW126804   6.048   3.508   5.615
 8635SOL    HW226805   6.194   3.475   5.682
 8636SOL     OW26806   6.752   5.407   0.718
 8636SOL    HW126807   6.819   5.417   0.791
 8636SOL    HW226808   6.660   5.414   0.756
 8637SOL     OW26809   1.650   0.768   0.788
 8637SOL    HW126810   1.689   0.739   0.701
 8637SOL    HW226811   1.554   0.792   0.774
 8638SOL     OW26812   2.995   5.046   0.074
 8638SOL    HW126813   2.917   5.093   0.032
 8638SOL    HW226814   3.072   5.044   0.011
 8639SOL     OW26815   6.389   3.813   1.933
 8639SOL    HW126816   6.353   3.887   1.989
 8639SOL    HW226817   6.469   3.846   1.882
 8640SOL     OW26818   4.664   5.334   0.964
 8640SOL    HW126819   4.722   5.253   0.958
 8640SOL    HW226820   4.633   5.360   0.872
 8641SOL     OW26821   6.813   4.372   3.184
 8641SOL    HW126822   6.799   4.363   3.283
 8641SOL    HW226823   6.846   4.465   3.164
 8642SOL     OW26824   4.427   0.835   1.750
 8642SOL    HW126825   4.478   0.908   1.794
 8642SOL    HW226826   4.373   0.872   1.674
 8643SOL     OW26827   4.763   0.248   5.968
 8643SOL    HW126828   4.823   0.271   6.045
 8643SOL    HW226829   4.668   0.256   5.997
 8644SOL     OW26830   5.895   2.437   4.635
 8644SOL    HW126831   5.838   2.518   4.648
 8644SOL    HW226832   5.991   2.465   4.628
 8645SOL     OW26833   6.060   4.543   1.159
 8645SOL    HW126834   6.003   4.461   1.164
 8645SOL    HW226835   6.101   4.551   1.068
 8646SOL     OW26836   5.655   0.545   0.367
 8646SOL    HW126837   5.739   0.493   0.354
 8646SOL    HW226838   5.628   0.587   0.280
 8647SOL     OW26839   4.049   5.260   0.169
 8647SOL    HW126840   3.966   5.269   0.113
 8647SOL    HW226841   4.038   5.182   0.230
 8648SOL     OW26842   5.502   1.167   3.843
 8648SOL    HW126843   5.508   1.267   3.846
 8648SOL    HW226844   5.406   1.140   3.851
 8649SOL     OW26845   6.286   3.994   5.705
 8649SOL    HW126846   6.306   3.955   5.615
 8649SOL    HW226847   6.301   3.925   5.776
 8650SOL     OW26848   2.304   5.217   3.469
 8650SOL    HW126849   2.383   5.173   3.510
 8650SOL    HW226850   2.333   5.271   3.390
 8651SOL     OW26851   3.754   1.619   6.776
 8651SOL    HW126852   3.752   1.692   6.708
 8651SOL    HW226853   3.847   1.582   6.782
 8652SOL     OW26854   1.943   3.688   3.594
 8652SOL    HW126855   1.951   3.610   3.532
 8652SOL    HW226856   1.863   3.675   3.653
 8653SOL     OW26857   7.021   2.901   7.009
 8653SOL    HW126858   6.981   2.948   0.063
 8653SOL    HW226859   6.983   2.940   6.925
 8654SOL     OW26860   0.798   0.165   3.115
 8654SOL    HW126861   0.887   0.208   3.131
 8654SOL    HW226862   0.736   0.232   3.074
 8655SOL     OW26863   6.418   6.288   4.974
 8655SOL    HW126864   6.388   6.195   4.997
 8655SOL    HW226865   6.406   6.303   4.876
 8656SOL     OW26866   6.565   0.895   1.109
 8656SOL    HW126867   6.545   0.962   1.038
 8656SOL    HW226868   6.661   0.903   1.138
 8657SOL     OW26869   4.246   4.205   6.769
 8657SOL    HW126870   4.289   4.128   6.815
 8657SOL    HW226871   4.256   4.195   6.670
 8658SOL     OW26872   5.737   5.434   6.998
 8658SOL    HW126873   5.759   5.418   0.070
 8658SOL    HW226874   5.815   5.477   6.952
 8659SOL     OW26875   5.268   0.528   3.766
 8659SOL    HW126876   5.233   0.619   3.788
 8659SOL    HW226877   5.309   0.487   3.847
 8660SOL     OW26878   5.595   3.520   0.736
 8660SOL    HW126879   5.537   3.448   0.774
 8660SOL    HW226880   5.691   3.502   0.758
 8661SOL     OW26881   0.123   3.836   1.686
 8661SOL    HW126882   0.184   3.914   1.697
 8661SOL    HW226883   0.168   3.765   1.632
 8662SOL     OW26884   6.804   6.508   0.882
 8662SOL    HW126885   6.830   6.470   0.793
 8662SOL    HW226886   6.771   6.602   0.870
 8663SOL     OW26887   2.527   5.569   0.879
 8663SOL    HW126888   2.484   5.634   0.816
 8663SOL    HW226889   2.626   5.579   0.874
 8664SOL     OW26890   4.120   5.909   0.179
 8664SOL    HW126891   4.034   5.890   0.226
 8664SOL    HW226892   4.118   5.869   0.088
 8665SOL     OW26893   4.512   5.604   5.468
 8665SOL    HW126894   4.438   5.639   5.525
 8665SOL    HW226895   4.583   5.675   5.459
 8666SOL     OW26896   5.075   2.500   5.182
 8666SOL    HW126897   4.992   2.490   5.127
 8666SOL    HW226898   5.072   2.436   5.259
 8667SOL     OW26899   5.217   1.234   3.859
 8667SOL    HW126900   5.159   1.308   3.825
 8667SOL    HW226901   5.254   1.258   3.948
 8668SOL     OW26902   4.615   1.800   4.319
 8668SOL    HW126903   4.544   1.864   4.288
 8668SOL    HW226904   4.688   1.796   4.251
 8669SOL     OW26905   4.017   0.177   5.910
 8669SOL    HW126906   4.013   0.079   5.926
 8669SOL    HW226907   3.926   0.217   5.920
 8670SOL     OW26908   3.359   5.782   4.231
 8670SOL    HW126909   3.352   5.835   4.315
 8670SOL    HW226910   3.452   5.786   4.196
 8671SOL     OW26911   6.273   6.645   3.865
 8671SOL    HW126912   6.364   6.671   3.897
 8671SOL    HW226913   6.267   6.546   3.856
 8672SOL     OW26914   3.381   5.124   4.419
 8672SOL    HW126915   3.465   5.080   4.388
 8672SOL    HW226916   3.308   5.056   4.427
 8673SOL     OW26917   6.325   2.007   0.850
 8673SOL    HW126918   6.395   1.981   0.917
 8673SOL    HW226919   6.271   1.927   0.826
 8674SOL     OW26920   6.900   0.270   3.096
 8674SOL    HW126921   6.883   0.288   2.999
 8674SOL    HW226922   6.844   0.331   3.152
 8675SOL     OW26923   2.377   1.024   3.309
 8675SOL    HW126924   2.391   0.960   3.234
 8675SOL    HW226925   2.440   1.101   3.299
 8676SOL     OW26926   4.335   0.044   2.925
 8676SOL    HW126927   4.333   6.974   2.955
 8676SOL    HW226928   4.367   0.049   2.830
 8677SOL     OW26929   2.421   4.280   6.036
 8677SOL    HW126930   2.346   4.277   5.970
 8677SOL    HW226931   2.504   4.311   5.990
 8678SOL     OW26932   1.117   0.526   6.752
 8678SOL    HW126933   1.030   0.574   6.764
 8678SOL    HW226934   1.117   0.479   6.664
 8679SOL     OW26935   6.084   2.023   5.295
 8679SOL    HW126936   6.147   2.071   5.235
 8679SOL    HW226937   6.105   1.925   5.295
 8680SOL     OW26938   1.201   3.542   0.261
 8680SOL    HW126939   1.238   3.452   0.238
 8680SOL    HW226940   1.217   3.561   0.358
 8681SOL     OW26941   4.101   4.186   0.337
 8681SOL    HW126942   4.008   4.161   0.365
 8681SOL    HW226943   4.142   4.245   0.406
 8682SOL     OW26944   2.760   6.037   2.559
 8682SOL    HW126945   2.714   6.090   2.488
 8682SOL    HW226946   2.784   5.947   2.522
 8683SOL     OW26947   0.387   3.002   1.523
 8683SOL    HW126948   0.398   2.907   1.491
 8683SOL    HW226949   0.403   3.064   1.446
 8684SOL     OW26950   6.135   3.069   4.986
 8684SOL    HW126951   6.096   3.123   4.912
 8684SOL    HW226952   6.170   3.130   5.057
 8685SOL     OW26953   0.763   1.767   6.449
 8685SOL    HW126954   0.716   1.687   6.485
 8685SOL    HW226955   0.862   1.754   6.457
 8686SOL     OW26956   0.051   2.303   2.590
 8686SOL    HW126957   0.128   2.242   2.577
 8686SOL    HW226958   0.081   2.398   2.579
 8687SOL     OW26959   3.682   6.819   2.213
 8687SOL    HW126960   3.587   6.847   2.227
 8687SOL    HW226961   3.685   6.723   2.185
 8688SOL     OW26962   2.506   0.509   1.781
 8688SOL    HW126963   2.532   0.477   1.690
 8688SOL    HW226964   2.587   0.519   1.838
 8689SOL     OW26965   4.604   6.030   7.005
 8689SOL    HW126966   4.535   5.958   6.995
 8689SOL    HW226967   4.664   6.009   0.057
 8690SOL     OW26968   0.640   1.835   3.395
 8690SOL    HW126969   0.597   1.818   3.484
 8690SOL    HW226970   0.595   1.778   3.325
 8691SOL     OW26971   4.686   2.617   6.338
 8691SOL    HW126972   4.707   2.530   6.294
 8691SOL    HW226973   4.653   2.602   6.431
 8692SOL     OW26974   2.562   2.277   3.842
 8692SOL    HW126975   2.472   2.272   3.886
 8692SOL    HW226976   2.628   2.222   3.894
 8693SOL     OW26977   5.797   1.983   0.956
 8693SOL    HW126978   5.841   1.973   0.867
 8693SOL    HW226979   5.866   1.995   1.027
 8694SOL     OW26980   4.680   0.090   6.836
 8694SOL    HW126981   4.722   0.147   6.766
 8694SOL    HW226982   4.657   0.000   6.798
 8695SOL     OW26983   5.351   3.748   5.475
 8695SOL    HW126984   5.431   3.768   5.531
 8695SOL    HW226985   5.349   3.651   5.453
 8696SOL     OW26986   2.657   5.982   1.154
 8696SOL    HW126987   2.631   5.946   1.244
 8696SOL    HW226988   2.589   5.952   1.086
 8697SOL     OW26989   6.516   3.608   0.848
 8697SOL    HW126990   6.476   3.603   0.939
 8697SOL    HW226991   6.447   3.585   0.780
 8698SOL     OW26992   5.018   6.277   4.780
 8698SOL    HW126993   5.105   6.303   4.738
 8698SOL    HW226994   5.015   6.178   4.791
 8699SOL     OW26995   1.151   1.721   5.766
 8699SOL    HW126996   1.215   1.671   5.707
 8699SOL    HW226997   1.060   1.682   5.757
 8700SOL     OW26998   2.579   1.255   4.975
 8700SOL    HW126999   2.589   1.160   4.946
 8700SOL    HW227000   2.485   1.272   5.002
 8701SOL     OW27001   1.163   0.737   4.680
 8701SOL    HW127002   1.119   0.819   4.644
 8701SOL    HW227003   1.147   0.731   4.779
 8702SOL     OW27004   5.505   5.385   0.193
 8702SOL    HW127005   5.516   5.414   0.098
 8702SOL    HW227006   5.514   5.464   0.254
 8703SOL     OW27007   2.845   5.815   1.063
 8703SOL    HW127008   2.851   5.728   1.111
 8703SOL    HW227009   2.807   5.885   1.124
 8704SOL     OW27010   6.712   4.894   2.585
 8704SOL    HW127011   6.755   4.827   2.646
 8704SOL    HW227012   6.690   4.976   2.637
 8705SOL     OW27013   5.174   7.011   6.409
 8705SOL    HW127014   5.136   7.006   6.502
 8705SOL    HW227015   5.099   7.019   6.343
 8706SOL     OW27016   4.953   2.120   6.903
 8706SOL    HW127017   5.016   2.099   6.828
 8706SOL    HW227018   4.996   2.094   6.990
 8707SOL     OW27019   4.619   3.168   6.745
 8707SOL    HW127020   4.667   3.222   6.675
 8707SOL    HW227021   4.683   3.145   6.818
 8708SOL     OW27022   3.874   1.108   1.606
 8708SOL    HW127023   3.911   1.149   1.689
 8708SOL    HW227024   3.776   1.128   1.599
 8709SOL     OW27025   0.018   4.291   0.275
 8709SOL    HW127026   0.029   4.284   0.175
 8709SOL    HW227027   6.953   4.258   0.301
 8710SOL     OW27028   2.066   3.633   2.947
 8710SOL    HW127029   2.039   3.570   2.873
 8710SOL    HW227030   2.087   3.723   2.908
 8711SOL     OW27031   6.352   0.701   2.748
 8711SOL    HW127032   6.415   0.755   2.693
 8711SOL    HW227033   6.402   0.628   2.794
 8712SOL     OW27034   3.321   1.371   5.058
 8712SOL    HW127035   3.241   1.327   5.016
 8712SOL    HW227036   3.297   1.464   5.085
 8713SOL     OW27037   6.458   4.662   3.784
 8713SOL    HW127038   6.359   4.669   3.800
 8713SOL    HW227039   6.479   4.572   3.745
 8714SOL     OW27040   1.161   0.699   5.864
 8714SOL    HW127041   1.165   0.790   5.823
 8714SOL    HW227042   1.089   0.697   5.934
 8715SOL     OW27043   6.353   1.434   1.865
 8715SOL    HW127044   6.281   1.369   1.843
 8715SOL    HW227045   6.415   1.395   1.933
 8716SOL     OW27046   0.821   1.419   1.406
 8716SOL    HW127047   0.738   1.365   1.390
 8716SOL    HW227048   0.820   1.455   1.499
 8717SOL     OW27049   4.152   3.750   2.012
 8717SOL    HW127050   4.185   3.839   2.044
 8717SOL    HW227051   4.129   3.692   2.090
 8718SOL     OW27052   0.003   2.890   4.845
 8718SOL    HW127053   0.026   2.855   4.754
 8718SOL    HW227054   0.072   2.956   4.874
 8719SOL     OW27055   1.005   0.532   5.721
 8719SOL    HW127056   1.065   0.582   5.784
 8719SOL    HW227057   0.956   0.461   5.771
 8720SOL     OW27058   5.823   4.919   5.035
 8720SOL    HW127059   5.770   4.994   5.074
 8720SOL    HW227060   5.762   4.841   5.018
 8721SOL     OW27061   6.873   2.224   4.417
 8721SOL    HW127062   6.884   2.125   4.409
 8721SOL    HW227063   6.955   2.263   4.459
 8722SOL     OW27064   3.881   2.443   0.804
 8722SOL    HW127065   3.838   2.386   0.734
 8722SOL    HW227066   3.966   2.399   0.835
 8723SOL     OW27067   0.049   5.156   0.475
 8723SOL    HW127068   0.081   5.250   0.482
 8723SOL    HW227069   0.099   5.109   0.402
 8724SOL     OW27070   5.516   0.543   5.978
 8724SOL    HW127071   5.453   0.620   5.990
 8724SOL    HW227072   5.566   0.554   5.892
 8725SOL     OW27073   1.902   0.295   0.593
 8725SOL    HW127074   1.946   0.216   0.551
 8725SOL    HW227075   1.949   0.317   0.679
 8726SOL     OW27076   6.222   0.267   1.672
 8726SOL    HW127077   6.271   0.180   1.673
 8726SOL    HW227078   6.197   0.289   1.577
 8727SOL     OW27079   6.707   6.333   1.383
 8727SOL    HW127080   6.761   6.369   1.307
 8727SOL    HW227081   6.769   6.295   1.452
 8728SOL     OW27082   3.243   6.549   4.855
 8728SOL    HW127083   3.253   6.511   4.947
 8728SOL    HW227084   3.234   6.649   4.861
 8729SOL     OW27085   4.005   5.248   3.480
 8729SOL    HW127086   3.929   5.275   3.421
 8729SOL    HW227087   4.070   5.323   3.487
 8730SOL     OW27088   0.614   6.238   2.210
 8730SOL    HW127089   0.701   6.279   2.182
 8730SOL    HW227090   0.615   6.140   2.189
 8731SOL     OW27091   1.139   1.985   3.584
 8731SOL    HW127092   1.139   2.067   3.641
 8731SOL    HW227093   1.051   1.937   3.594
 8732SOL     OW27094   5.633   3.641   1.399
 8732SOL    HW127095   5.720   3.636   1.350
 8732SOL    HW227096   5.650   3.636   1.498
 8733SOL     OW27097   1.219   6.524   1.944
 8733SOL    HW127098   1.131   6.492   1.980
 8733SOL    HW227099   1.210   6.621   1.918
 8734SOL     OW27100   0.058   5.571   1.209
 8734SOL    HW127101   0.105   5.528   1.132
 8734SOL    HW227102   0.098   5.540   1.295
 8735SOL     OW27103   0.143   1.593   6.760
 8735SOL    HW127104   0.144   1.678   6.812
 8735SOL    HW227105   0.215   1.532   6.793
 8736SOL     OW27106   0.737   4.726   0.088
 8736SOL    HW127107   0.800   4.725   0.166
 8736SOL    HW227108   0.778   4.675   0.012
 8737SOL     OW27109   3.535   6.081   6.120
 8737SOL    HW127110   3.555   6.174   6.088
 8737SOL    HW227111   3.531   6.019   6.042
 8738SOL     OW27112   1.426   3.759   4.074
 8738SOL    HW127113   1.483   3.698   4.130
 8738SOL    HW227114   1.422   3.725   3.980
 8739SOL     OW27115   0.170   3.398   5.403
 8739SOL    HW127116   0.087   3.453   5.399
 8739SOL    HW227117   0.194   3.378   5.498
 8740SOL     OW27118   2.778   0.160   6.883
 8740SOL    HW127119   2.693   0.112   6.861
 8740SOL    HW227120   2.828   0.109   6.953
 8741SOL     OW27121   1.105   2.896   2.582
 8741SOL    HW127122   1.174   2.840   2.626
 8741SOL    HW227123   1.014   2.861   2.604
 8742SOL     OW27124   4.584   7.008   1.602
 8742SOL    HW127125   4.566   0.080   1.583
 8742SOL    HW227126   4.554   6.986   1.695
 8743SOL     OW27127   1.920   5.611   2.190
 8743SOL    HW127128   1.946   5.515   2.203
 8743SOL    HW227129   1.864   5.641   2.267
 8744SOL     OW27130   3.995   2.627   6.188
 8744SOL    HW127131   3.996   2.527   6.181
 8744SOL    HW227132   4.024   2.655   6.279
 8745SOL     OW27133   6.046   2.190   5.496
 8745SOL    HW127134   6.038   2.278   5.449
 8745SOL    HW227135   6.067   2.118   5.430
 8746SOL     OW27136   4.998   4.888   5.104
 8746SOL    HW127137   5.055   4.831   5.163
 8746SOL    HW227138   4.963   4.834   5.028
 8747SOL     OW27139   1.372   2.532   4.534
 8747SOL    HW127140   1.456   2.586   4.533
 8747SOL    HW227141   1.371   2.470   4.456
 8748SOL     OW27142   1.372   0.691   6.681
 8748SOL    HW127143   1.391   0.607   6.731
 8748SOL    HW227144   1.458   0.733   6.653
 8749SOL     OW27145   3.995   0.312   3.456
 8749SOL    HW127146   3.939   0.243   3.410
 8749SOL    HW227147   3.956   0.403   3.440
 8750SOL     OW27148   1.857   1.959   5.117
 8750SOL    HW127149   1.844   2.055   5.093
 8750SOL    HW227150   1.783   1.929   5.177
 8751SOL     OW27151   1.184   0.108   2.344
 8751SOL    HW127152   1.166   0.140   2.252
 8751SOL    HW227153   1.188   0.186   2.407
 8752SOL     OW27154   1.871   3.203   6.231
 8752SOL    HW127155   1.794   3.159   6.184
 8752SOL    HW227156   1.856   3.302   6.233
 8753SOL     OW27157   5.523   1.188   4.890
 8753SOL    HW127158   5.591   1.260   4.873
 8753SOL    HW227159   5.528   1.120   4.817
 8754SOL     OW27160   1.029   1.766   6.111
 8754SOL    HW127161   1.106   1.803   6.058
 8754SOL    HW227162   1.012   1.672   6.083
 8755SOL     OW27163   2.418   0.883   0.260
 8755SOL    HW127164   2.504   0.923   0.227
 8755SOL    HW227165   2.341   0.931   0.217
 8756SOL     OW27166   2.286   2.940   4.094
 8756SOL    HW127167   2.332   2.859   4.057
 8756SOL    HW227168   2.250   2.920   4.185
 8757SOL     OW27169   3.951   6.079   5.014
 8757SOL    HW127170   3.885   6.009   4.987
 8757SOL    HW227171   3.974   6.136   4.934
 8758SOL     OW27172   6.453   6.346   1.884
 8758SOL    HW127173   6.431   6.400   1.803
 8758SOL    HW227174   6.552   6.339   1.894
 8759SOL     OW27175   4.636   0.522   5.929
 8759SOL    HW127176   4.540   0.506   5.949
 8759SOL    HW227177   4.687   0.436   5.935
 8760SOL     OW27178   2.024   1.808   4.156
 8760SOL    HW127179   1.983   1.867   4.225
 8760SOL    HW227180   1.966   1.807   4.074
 8761SOL     OW27181   4.924   0.088   6.992
 8761SOL    HW127182   4.831   0.085   6.955
 8761SOL    HW227183   4.973   0.006   6.963
 8762SOL     OW27184   1.085   3.762   1.589
 8762SOL    HW127185   1.089   3.734   1.493
 8762SOL    HW227186   1.095   3.681   1.648
 8763SOL     OW27187   0.163   6.161   5.811
 8763SOL    HW127188   0.231   6.090   5.795
 8763SOL    HW227189   0.151   6.175   5.910
 8764SOL     OW27190   4.497   1.652   4.540
 8764SOL    HW127191   4.559   1.625   4.614
 8764SOL    HW227192   4.548   1.705   4.472
 8765SOL     OW27193   6.031   6.835   4.245
 8765SOL    HW127194   5.949   6.890   4.232
 8765SOL    HW227195   6.034   6.801   4.339
 8766SOL     OW27196   2.429   4.728   2.784
 8766SOL    HW127197   2.346   4.778   2.760
 8766SOL    HW227198   2.476   4.700   2.701
 8767SOL     OW27199   4.610   0.976   3.100
 8767SOL    HW127200   4.586   1.010   3.191
 8767SOL    HW227201   4.587   0.879   3.093
 8768SOL     OW27202   2.085   3.615   0.072
 8768SOL    HW127203   2.024   3.611   7.018
 8768SOL    HW227204   2.170   3.567   0.051
 8769SOL     OW27205   1.360   6.894   5.887
 8769SOL    HW127206   1.306   6.918   5.968
 8769SOL    HW227207   1.412   6.810   5.906
 8770SOL     OW27208   5.407   3.375   1.472
 8770SOL    HW127209   5.319   3.410   1.442
 8770SOL    HW227210   5.412   3.378   1.572
 8771SOL     OW27211   1.475   1.798   6.713
 8771SOL    HW127212   1.440   1.706   6.694
 8771SOL    HW227213   1.481   1.849   6.628
 8772SOL     OW27214   5.661   1.521   6.378
 8772SOL    HW127215   5.753   1.519   6.339
 8772SOL    HW227216   5.657   1.459   6.456
 8773SOL     OW27217   2.808   2.354   3.382
 8773SOL    HW127218   2.840   2.374   3.474
 8773SOL    HW227219   2.875   2.298   3.334
 8774SOL     OW27220   0.847   1.438   0.762
 8774SOL    HW127221   0.747   1.443   0.758
 8774SOL    HW227222   0.874   1.361   0.820
 8775SOL     OW27223   6.239   6.852   3.599
 8775SOL    HW127224   6.221   6.755   3.587
 8775SOL    HW227225   6.228   6.876   3.695
 8776SOL     OW27226   3.463   3.099   5.068
 8776SOL    HW127227   3.550   3.114   5.022
 8776SOL    HW227228   3.436   3.003   5.057
 8777SOL     OW27229   6.271   6.174   2.042
 8777SOL    HW127230   6.341   6.239   2.012
 8777SOL    HW227231   6.263   6.101   1.974
 8778SOL     OW27232   0.104   1.975   3.757
 8778SOL    HW127233   0.070   1.930   3.675
 8778SOL    HW227234   0.202   1.957   3.766
 8779SOL     OW27235   1.745   4.798   1.123
 8779SOL    HW127236   1.665   4.833   1.172
 8779SOL    HW227237   1.777   4.867   1.058
 8780SOL     OW27238   0.846   5.416   4.534
 8780SOL    HW127239   0.797   5.361   4.602
 8780SOL    HW227240   0.908   5.479   4.581
 8781SOL     OW27241   0.167   2.184   3.123
 8781SOL    HW127242   0.138   2.226   3.037
 8781SOL    HW227243   0.132   2.238   3.200
 8782SOL     OW27244   4.268   1.589   3.010
 8782SOL    HW127245   4.223   1.602   3.098
 8782SOL    HW227246   4.200   1.584   2.937
 8783SOL     OW27247   6.053   3.966   4.780
 8783SOL    HW127248   6.023   4.061   4.779
 8783SOL    HW227249   6.124   3.954   4.849
 8784SOL     OW27250   5.636   5.013   5.772
 8784SOL    HW127251   5.627   5.023   5.673
 8784SOL    HW227252   5.665   5.101   5.811
 8785SOL     OW27253   5.944   4.221   6.939
 8785SOL    HW127254   5.895   4.165   7.006
 8785SOL    HW227255   5.897   4.218   6.851
 8786SOL     OW27256   1.646   6.918   0.061
 8786SOL    HW127257   1.743   6.939   0.054
 8786SOL    HW227258   1.600   6.946   7.001
 8787SOL     OW27259   1.400   3.728   1.589
 8787SOL    HW127260   1.332   3.789   1.630
 8787SOL    HW227261   1.488   3.775   1.582
 8788SOL     OW27262   0.468   1.892   5.320
 8788SOL    HW127263   0.556   1.935   5.340
 8788SOL    HW227264   0.482   1.794   5.307
 8789SOL     OW27265   6.698   0.178   6.416
 8789SOL    HW127266   6.723   0.081   6.414
 8789SOL    HW227267   6.661   0.205   6.327
 8790SOL     OW27268   6.182   1.706   6.889
 8790SOL    HW127269   6.098   1.721   6.942
 8790SOL    HW227270   6.159   1.670   6.799
 8791SOL     OW27271   4.683   6.551   5.990
 8791SOL    HW127272   4.587   6.571   6.007
 8791SOL    HW227273   4.692   6.456   5.960
 8792SOL     OW27274   4.627   6.906   3.042
 8792SOL    HW127275   4.640   6.971   3.117
 8792SOL    HW227276   4.599   6.818   3.078
 8793SOL     OW27277   1.910   6.022   3.645
 8793SOL    HW127278   1.833   6.026   3.581
 8793SOL    HW227279   1.931   5.926   3.666
 8794SOL     OW27280   1.879   0.192   2.757
 8794SOL    HW127281   1.832   0.182   2.668
 8794SOL    HW227282   1.921   0.105   2.781
 8795SOL     OW27283   1.542   6.375   5.661
 8795SOL    HW127284   1.578   6.324   5.739
 8795SOL    HW227285   1.469   6.436   5.692
 8796SOL     OW27286   4.524   2.607   5.634
 8796SOL    HW127287   4.559   2.519   5.663
 8796SOL    HW227288   4.493   2.601   5.539
 8797SOL     OW27289   0.090   6.760   6.477
 8797SOL    HW127290   0.166   6.718   6.527
 8797SOL    HW227291   0.073   6.708   6.393
 8798SOL     OW27292   5.660   3.648   5.253
 8798SOL    HW127293   5.583   3.709   5.233
 8798SOL    HW227294   5.659   3.570   5.190
 8799SOL     OW27295   3.036   5.102   3.269
 8799SOL    HW127296   3.093   5.177   3.234
 8799SOL    HW227297   3.077   5.015   3.245
 8800SOL     OW27298   4.550   4.791   6.604
 8800SOL    HW127299   4.507   4.798   6.694
 8800SOL    HW227300   4.582   4.882   6.576
 8801SOL     OW27301   2.562   1.355   4.684
 8801SOL    HW127302   2.602   1.273   4.641
 8801SOL    HW227303   2.614   1.378   4.766
 8802SOL     OW27304   2.609   6.229   2.101
 8802SOL    HW127305   2.567   6.319   2.089
 8802SOL    HW227306   2.708   6.237   2.095
 8803SOL     OW27307   3.095   5.607   0.002
 8803SOL    HW127308   3.124   5.702   7.012
 8803SOL    HW227309   3.033   5.580   6.952
 8804SOL     OW27310   4.751   0.773   1.513
 8804SOL    HW127311   4.775   0.678   1.532
 8804SOL    HW227312   4.739   0.786   1.415
 8805SOL     OW27313   0.575   0.341   3.055
 8805SOL    HW127314   0.625   0.394   3.124
 8805SOL    HW227315   0.528   0.265   3.099
 8806SOL     OW27316   1.519   4.980   0.182
 8806SOL    HW127317   1.618   4.976   0.193
 8806SOL    HW227318   1.478   5.020   0.264
 8807SOL     OW27319   0.231   6.439   6.219
 8807SOL    HW127320   0.259   6.505   6.150
 8807SOL    HW227321   0.309   6.414   6.276
 8808SOL     OW27322   4.929   1.145   0.238
 8808SOL    HW127323   4.839   1.108   0.265
 8808SOL    HW227324   4.927   1.244   0.244
 8809SOL     OW27325   5.571   4.107   1.166
 8809SOL    HW127326   5.635   4.040   1.128
 8809SOL    HW227327   5.556   4.180   1.100
 8810SOL     OW27328   4.237   1.413   3.728
 8810SOL    HW127329   4.306   1.449   3.666
 8810SOL    HW227330   4.272   1.332   3.774
 8811SOL     OW27331   1.675   1.660   2.677
 8811SOL    HW127332   1.686   1.606   2.761
 8811SOL    HW227333   1.759   1.712   2.660
 8812SOL     OW27334   1.444   1.079   0.593
 8812SOL    HW127335   1.368   1.143   0.578
 8812SOL    HW227336   1.429   0.997   0.537
 8813SOL     OW27337   1.787   6.828   2.154
 8813SOL    HW127338   1.872   6.776   2.158
 8813SOL    HW227339   1.805   6.923   2.180
 8814SOL     OW27340   5.850   0.756   6.099
 8814SOL    HW127341   5.891   0.825   6.160
 8814SOL    HW227342   5.830   0.799   6.011
 8815SOL     OW27343   0.042   6.044   2.610
 8815SOL    HW127344   0.076   6.007   2.524
 8815SOL    HW227345   0.087   6.131   2.629
 8816SOL     OW27346   1.440   5.997   1.241
 8816SOL    HW127347   1.345   6.012   1.270
 8816SOL    HW227348   1.482   6.084   1.218
 8817SOL     OW27349   1.598   5.620   5.026
 8817SOL    HW127350   1.563   5.682   5.096
 8817SOL    HW227351   1.649   5.546   5.069
 8818SOL     OW27352   0.523   4.948   3.871
 8818SOL    HW127353   0.440   4.919   3.823
 8818SOL    HW227354   0.565   4.869   3.916
 8819SOL     OW27355   4.683   6.529   4.391
 8819SOL    HW127356   4.780   6.525   4.415
 8819SOL    HW227357   4.665   6.467   4.315
 8820SOL     OW27358   1.412   2.354   4.310
 8820SOL    HW127359   1.365   2.305   4.237
 8820SOL    HW227360   1.511   2.338   4.303
 8821SOL     OW27361   2.653   0.746   6.488
 8821SOL    HW127362   2.674   0.716   6.394
 8821SOL    HW227363   2.687   0.839   6.501
 8822SOL     OW27364   0.866   1.988   3.918
 8822SOL    HW127365   0.799   1.953   3.984
 8822SOL    HW227366   0.818   2.036   3.845
 8823SOL     OW27367   1.834   6.759   0.906
 8823SOL    HW127368   1.878   6.749   0.817
 8823SOL    HW227369   1.761   6.690   0.914
 8824SOL     OW27370   3.435   3.804   0.764
 8824SOL    HW127371   3.500   3.829   0.692
 8824SOL    HW227372   3.450   3.710   0.792
 8825SOL     OW27373   0.926   1.338   2.379
 8825SOL    HW127374   0.958   1.245   2.394
 8825SOL    HW227375   0.826   1.341   2.387
 8826SOL     OW27376   5.618   1.379   6.644
 8826SOL    HW127377   5.592   1.295   6.692
 8826SOL    HW227378   5.575   1.457   6.690
 8827SOL     OW27379   1.726   1.513   3.182
 8827SOL    HW127380   1.646   1.486   3.237
 8827SOL    HW227381   1.778   1.583   3.230
 8828SOL     OW27382   3.238   6.674   2.642
 8828SOL    HW127383   3.295   6.753   2.665
 8828SOL    HW227384   3.183   6.696   2.561
 8829SOL     OW27385   0.266   2.233   6.846
 8829SOL    HW127386   0.360   2.265   6.845
 8829SOL    HW227387   0.247   2.186   6.933
 8830SOL     OW27388   0.728   1.797   0.593
 8830SOL    HW127389   0.821   1.761   0.600
 8830SOL    HW227390   0.677   1.772   0.675
 8831SOL     OW27391   6.509   0.980   3.157
 8831SOL    HW127392   6.520   0.899   3.216
 8831SOL    HW227393   6.553   1.058   3.201
 8832SOL     OW27394   6.389   0.534   2.462
 8832SOL    HW127395   6.483   0.566   2.465
 8832SOL    HW227396   6.326   0.611   2.473
 8833SOL     OW27397   2.494   5.039   4.120
 8833SOL    HW127398   2.531   5.052   4.028
 8833SOL    HW227399   2.566   5.008   4.181
 8834SOL     OW27400   5.647   3.178   4.941
 8834SOL    HW127401   5.705   3.256   4.965
 8834SOL    HW227402   5.554   3.211   4.922
 8835SOL     OW27403   6.985   6.681   5.486
 8835SOL    HW127404   6.925   6.676   5.405
 8835SOL    HW227405   6.929   6.698   5.567
 8836SOL     OW27406   4.295   0.961   6.831
 8836SOL    HW127407   4.302   0.953   6.931
 8836SOL    HW227408   4.374   1.011   6.796
 8837SOL     OW27409   0.426   0.833   1.786
 8837SOL    HW127410   0.522   0.855   1.767
 8837SOL    HW227411   0.398   0.756   1.729
 8838SOL     OW27412   2.732   5.227   3.161
 8838SOL    HW127413   2.729   5.136   3.204
 8838SOL    HW227414   2.687   5.223   3.072
 8839SOL     OW27415   6.359   6.174   3.691
 8839SOL    HW127416   6.417   6.254   3.705
 8839SOL    HW227417   6.413   6.099   3.655
 8840SOL     OW27418   5.762   2.388   1.945
 8840SOL    HW127419   5.699   2.366   2.019
 8840SOL    HW227420   5.819   2.308   1.926
 8841SOL     OW27421   0.875   1.367   5.562
 8841SOL    HW127422   0.960   1.357   5.510
 8841SOL    HW227423   0.797   1.372   5.498
 8842SOL     OW27424   2.467   2.741   1.862
 8842SOL    HW127425   2.427   2.663   1.814
 8842SOL    HW227426   2.438   2.740   1.957
 8843SOL     OW27427   1.152   2.653   5.115
 8843SOL    HW127428   1.069   2.680   5.066
 8843SOL    HW227429   1.231   2.666   5.055
 8844SOL     OW27430   6.528   0.676   5.980
 8844SOL    HW127431   6.437   0.646   5.953
 8844SOL    HW227432   6.523   0.770   6.015
 8845SOL     OW27433   5.443   4.531   0.073
 8845SOL    HW127434   5.355   4.561   0.037
 8845SOL    HW227435   5.428   4.458   0.140
 8846SOL     OW27436   1.925   4.868   4.288
 8846SOL    HW127437   1.901   4.961   4.314
 8846SOL    HW227438   2.019   4.849   4.316
 8847SOL     OW27439   3.220   0.221   1.920
 8847SOL    HW127440   3.298   0.159   1.916
 8847SOL    HW227441   3.154   0.196   1.849
 8848SOL     OW27442   1.463   0.718   2.708
 8848SOL    HW127443   1.392   0.648   2.697
 8848SOL    HW227444   1.553   0.676   2.700
 8849SOL     OW27445   2.942   6.717   1.188
 8849SOL    HW127446   2.944   6.707   1.287
 8849SOL    HW227447   2.851   6.746   1.159
 8850SOL     OW27448   3.623   2.196   6.461
 8850SOL    HW127449   3.595   2.270   6.523
 8850SOL    HW227450   3.723   2.192   6.457
 8851SOL     OW27451   1.466   4.545   2.877
 8851SOL    HW127452   1.428   4.630   2.841
 8851SOL    HW227453   1.479   4.479   2.802
 8852SOL     OW27454   1.338   1.281   6.462
 8852SOL    HW127455   1.349   1.313   6.556
 8852SOL    HW227456   1.348   1.358   6.399
 8853SOL     OW27457   3.850   0.863   0.476
 8853SOL    HW127458   3.839   0.959   0.452
 8853SOL    HW227459   3.948   0.841   0.480
 8854SOL     OW27460   1.293   3.619   4.753
 8854SOL    HW127461   1.272   3.522   4.745
 8854SOL    HW227462   1.277   3.665   4.666
 8855SOL     OW27463   5.869   5.527   0.718
 8855SOL    HW127464   5.836   5.537   0.625
 8855SOL    HW227465   5.967   5.507   0.717
 8856SOL     OW27466   0.349   4.965   6.454
 8856SOL    HW127467   0.352   4.989   6.551
 8856SOL    HW227468   0.341   5.049   6.399
 8857SOL     OW27469   6.424   1.291   5.732
 8857SOL    HW127470   6.444   1.278   5.635
 8857SOL    HW227471   6.482   1.229   5.787
 8858SOL     OW27472   6.211   5.144   4.509
 8858SOL    HW127473   6.280   5.139   4.438
 8858SOL    HW227474   6.178   5.238   4.518
 8859SOL     OW27475   0.890   0.589   3.595
 8859SOL    HW127476   0.959   0.524   3.626
 8859SOL    HW227477   0.799   0.555   3.618
 8860SOL     OW27478   6.812   2.780   2.154
 8860SOL    HW127479   6.845   2.874   2.151
 8860SOL    HW227480   6.862   2.729   2.223
 8861SOL     OW27481   4.797   2.089   1.616
 8861SOL    HW127482   4.826   1.997   1.642
 8861SOL    HW227483   4.790   2.146   1.698
 8862SOL     OW27484   4.615   5.072   5.452
 8862SOL    HW127485   4.656   5.019   5.378
 8862SOL    HW227486   4.518   5.088   5.432
 8863SOL     OW27487   2.170   3.874   3.571
 8863SOL    HW127488   2.203   3.955   3.620
 8863SOL    HW227489   2.072   3.862   3.587
 8864SOL     OW27490   5.995   1.702   5.358
 8864SOL    HW127491   6.006   1.779   5.420
 8864SOL    HW227492   5.987   1.617   5.410
 8865SOL     OW27493   2.106   1.288   6.287
 8865SOL    HW127494   2.066   1.372   6.250
 8865SOL    HW227495   2.152   1.238   6.214
 8866SOL     OW27496   6.020   6.014   2.465
 8866SOL    HW127497   6.071   6.075   2.403
 8866SOL    HW227498   5.991   6.066   2.545
 8867SOL     OW27499   6.497   4.076   2.832
 8867SOL    HW127500   6.561   4.120   2.895
 8867SOL    HW227501   6.417   4.044   2.882
 8868SOL     OW27502   0.028   3.656   3.472
 8868SOL    HW127503   0.084   3.653   3.555
 8868SOL    HW227504   6.987   3.731   3.478
 8869SOL     OW27505   3.173   6.527   3.262
 8869SOL    HW127506   3.125   6.451   3.305
 8869SOL    HW227507   3.218   6.582   3.333
 8870SOL     OW27508   1.752   0.624   2.724
 8870SOL    HW127509   1.731   0.527   2.740
 8870SOL    HW227510   1.789   0.664   2.807
 8871SOL     OW27511   0.242   0.400   2.498
 8871SOL    HW127512   0.184   0.418   2.418
 8871SOL    HW227513   0.247   0.482   2.554
 8872SOL     OW27514   0.125   4.978   4.816
 8872SOL    HW127515   0.213   4.959   4.772
 8872SOL    HW227516   0.140   4.993   4.914
 8873SOL     OW27517   1.645   1.158   2.257
 8873SOL    HW127518   1.638   1.254   2.287
 8873SOL    HW227519   1.634   1.098   2.335
 8874SOL     OW27520   3.412   6.040   0.538
 8874SOL    HW127521   3.351   5.962   0.547
 8874SOL    HW227522   3.462   6.033   0.451
 8875SOL     OW27523   0.181   3.132   3.523
 8875SOL    HW127524   0.275   3.131   3.556
 8875SOL    HW227525   0.164   3.049   3.469
 8876SOL     OW27526   3.556   0.840   6.253
 8876SOL    HW127527   3.584   0.824   6.158
 8876SOL    HW227528   3.459   0.862   6.256
 8877SOL     OW27529   1.792   4.402   1.347
 8877SOL    HW127530   1.839   4.315   1.359
 8877SOL    HW227531   1.812   4.439   1.256
 8878SOL     OW27532   4.589   3.854   0.936
 8878SOL    HW127533   4.674   3.904   0.955
 8878SOL    HW227534   4.586   3.772   0.992
 8879SOL     OW27535   5.992   5.140   2.842
 8879SOL    HW127536   5.949   5.147   2.752
 8879SOL    HW227537   6.013   5.044   2.862
 8880SOL     OW27538   4.081   0.293   4.038
 8880SOL    HW127539   4.051   0.209   3.993
 8880SOL    HW227540   4.180   0.303   4.030
 8881SOL     OW27541   4.426   4.976   4.460
 8881SOL    HW127542   4.439   5.040   4.384
 8881SOL    HW227543   4.373   5.020   4.532
 8882SOL     OW27544   4.678   0.855   0.957
 8882SOL    HW127545   4.760   0.904   0.928
 8882SOL    HW227546   4.629   0.822   0.877
 8883SOL     OW27547   6.872   6.262   4.571
 8883SOL    HW127548   6.898   6.309   4.655
 8883SOL    HW227549   6.917   6.173   4.567
 8884SOL     OW27550   5.475   3.658   5.009
 8884SOL    HW127551   5.387   3.618   4.982
 8884SOL    HW227552   5.494   3.738   4.951
 8885SOL     OW27553   6.268   5.690   0.572
 8885SOL    HW127554   6.367   5.673   0.567
 8885SOL    HW227555   6.246   5.772   0.519
 8886SOL     OW27556   3.612   5.464   6.504
 8886SOL    HW127557   3.621   5.564   6.509
 8886SOL    HW227558   3.527   5.441   6.458
 8887SOL     OW27559   5.243   1.249   1.773
 8887SOL    HW127560   5.290   1.191   1.839
 8887SOL    HW227561   5.198   1.324   1.820
 8888SOL     OW27562   2.298   1.995   3.060
 8888SOL    HW127563   2.334   1.947   2.980
 8888SOL    HW227564   2.359   2.070   3.085
 8889SOL     OW27565   7.000   6.248   6.228
 8889SOL    HW127566   6.945   6.322   6.265
 8889SOL    HW227567   0.041   6.284   6.161
 8890SOL     OW27568   0.789   6.437   0.595
 8890SOL    HW127569   0.694   6.409   0.581
 8890SOL    HW227570   0.823   6.399   0.680
 8891SOL     OW27571   5.941   3.924   0.035
 8891SOL    HW127572   6.031   3.947   0.073
 8891SOL    HW227573   5.872   3.985   0.074
 8892SOL     OW27574   3.172   5.657   3.817
 8892SOL    HW127575   3.080   5.634   3.786
 8892SOL    HW227576   3.217   5.576   3.854
 8893SOL     OW27577   1.551   5.164   5.027
 8893SOL    HW127578   1.650   5.176   5.019
 8893SOL    HW227579   1.531   5.066   5.039
 8894SOL     OW27580   4.578   1.500   0.215
 8894SOL    HW127581   4.480   1.483   0.224
 8894SOL    HW227582   4.610   1.558   0.290
 8895SOL     OW27583   6.759   3.613   1.398
 8895SOL    HW127584   6.859   3.603   1.397
 8895SOL    HW227585   6.734   3.692   1.454
 8896SOL     OW27586   0.124   2.080   4.714
 8896SOL    HW127587   0.123   2.150   4.785
 8896SOL    HW227588   0.160   2.119   4.629
 8897SOL     OW27589   1.932   3.823   3.970
 8897SOL    HW127590   1.979   3.860   4.051
 8897SOL    HW227591   1.912   3.726   3.984
 8898SOL     OW27592   4.858   4.293   2.807
 8898SOL    HW127593   4.792   4.281   2.881
 8898SOL    HW227594   4.951   4.288   2.844
 8899SOL     OW27595   0.339   3.633   5.848
 8899SOL    HW127596   0.422   3.678   5.881
 8899SOL    HW227597   0.275   3.702   5.815
 8900SOL     OW27598   5.080   2.859   4.153
 8900SOL    HW127599   5.132   2.861   4.239
 8900SOL    HW227600   4.998   2.915   4.163
 8901SOL     OW27601   1.456   2.877   4.336
 8901SOL    HW127602   1.366   2.911   4.364
 8901SOL    HW227603   1.460   2.778   4.348
 8902SOL     OW27604   0.571   4.757   0.553
 8902SOL    HW127605   0.564   4.657   0.555
 8902SOL    HW227606   0.666   4.784   0.569
 8903SOL     OW27607   1.341   6.863   5.442
 8903SOL    HW127608   1.370   6.918   5.364
 8903SOL    HW227609   1.388   6.775   5.440
 8904SOL     OW27610   0.554   0.873   3.273
 8904SOL    HW127611   0.507   0.805   3.217
 8904SOL    HW227612   0.637   0.833   3.312
 8905SOL     OW27613   1.447   3.683   2.339
 8905SOL    HW127614   1.354   3.714   2.359
 8905SOL    HW227615   1.457   3.588   2.369
 8906SOL     OW27616   6.821   6.750   0.282
 8906SOL    HW127617   6.856   6.833   0.238
 8906SOL    HW227618   6.722   6.745   0.270
 8907SOL     OW27619   3.363   2.943   4.682
 8907SOL    HW127620   3.412   2.940   4.769
 8907SOL    HW227621   3.274   2.987   4.694
 8908SOL     OW27622   1.121   5.749   0.406
 8908SOL    HW127623   1.122   5.721   0.310
 8908SOL    HW227624   1.162   5.677   0.462
 8909SOL     OW27625   2.852   0.612   0.108
 8909SOL    HW127626   2.938   0.562   0.123
 8909SOL    HW227627   2.790   0.555   0.054
 8910SOL     OW27628   2.150   1.873   3.794
 8910SOL    HW127629   2.216   1.857   3.721
 8910SOL    HW227630   2.197   1.913   3.873
 8911SOL     OW27631   4.627   1.557   4.013
 8911SOL    HW127632   4.704   1.600   4.061
 8911SOL    HW227633   4.620   1.595   3.921
 8912SOL     OW27634   3.324   3.695   5.060
 8912SOL    HW127635   3.369   3.618   5.105
 8912SOL    HW227636   3.337   3.778   5.115
 8913SOL     OW27637   5.626   6.061   6.851
 8913SOL    HW127638   5.560   6.000   6.807
 8913SOL    HW227639   5.718   6.027   6.835
 8914SOL     OW27640   4.663   5.972   6.403
 8914SOL    HW127641   4.605   5.892   6.417
 8914SOL    HW227642   4.613   6.054   6.429
 8915SOL     OW27643   1.462   1.287   3.729
 8915SOL    HW127644   1.404   1.220   3.775
 8915SOL    HW227645   1.476   1.365   3.789
 8916SOL     OW27646   5.041   0.892   0.215
 8916SOL    HW127647   4.990   0.976   0.234
 8916SOL    HW227648   5.106   0.876   0.289
 8917SOL     OW27649   5.810   1.516   0.421
 8917SOL    HW127650   5.759   1.585   0.473
 8917SOL    HW227651   5.808   1.429   0.469
 8918SOL     OW27652   0.980   4.261   2.259
 8918SOL    HW127653   0.928   4.176   2.254
 8918SOL    HW227654   0.979   4.295   2.353
 8919SOL     OW27655   5.619   3.726   0.579
 8919SOL    HW127656   5.605   3.661   0.653
 8919SOL    HW227657   5.587   3.816   0.607
 8920SOL     OW27658   6.409   1.279   0.526
 8920SOL    HW127659   6.453   1.190   0.537
 8920SOL    HW227660   6.457   1.332   0.457
 8921SOL     OW27661   1.496   3.087   1.286
 8921SOL    HW127662   1.485   3.167   1.345
 8921SOL    HW227663   1.489   3.115   1.190
 8922SOL     OW27664   3.918   0.062   3.411
 8922SOL    HW127665   3.925   0.064   3.311
 8922SOL    HW227666   3.829   0.026   3.438
 8923SOL     OW27667   1.588   2.205   5.233
 8923SOL    HW127668   1.537   2.125   5.265
 8923SOL    HW227669   1.655   2.232   5.303
 8924SOL     OW27670   4.896   5.363   4.835
 8924SOL    HW127671   4.921   5.405   4.748
 8924SOL    HW227672   4.978   5.342   4.887
 8925SOL     OW27673   1.183   0.757   3.322
 8925SOL    HW127674   1.156   0.802   3.408
 8925SOL    HW227675   1.276   0.721   3.331
 8926SOL     OW27676   6.195   2.696   5.226
 8926SOL    HW127677   6.227   2.734   5.139
 8926SOL    HW227678   6.177   2.598   5.216
 8927SOL     OW27679   0.199   1.041   6.500
 8927SOL    HW127680   0.166   1.125   6.459
 8927SOL    HW227681   0.270   1.062   6.568
 8928SOL     OW27682   2.037   6.704   5.046
 8928SOL    HW127683   2.097   6.624   5.049
 8928SOL    HW227684   1.963   6.688   4.980
 8929SOL     OW27685   0.069   2.765   4.598
 8929SOL    HW127686   7.004   2.734   4.567
 8929SOL    HW227687   0.139   2.700   4.567
 8930SOL     OW27688   1.707   4.485   3.612
 8930SOL    HW127689   1.674   4.510   3.703
 8930SOL    HW227690   1.710   4.566   3.554
 8931SOL     OW27691   3.895   2.407   1.226
 8931SOL    HW127692   3.828   2.468   1.184
 8931SOL    HW227693   3.901   2.322   1.174
 8932SOL     OW27694   0.523   3.145   3.185
 8932SOL    HW127695   0.495   3.049   3.179
 8932SOL    HW227696   0.455   3.196   3.238
 8933SOL     OW27697   3.839   1.482   5.776
 8933SOL    HW127698   3.761   1.543   5.783
 8933SOL    HW227699   3.824   1.417   5.702
 8934SOL     OW27700   2.650   6.266   3.931
 8934SOL    HW127701   2.672   6.184   3.984
 8934SOL    HW227702   2.557   6.296   3.952
 8935SOL     OW27703   0.143   4.889   1.679
 8935SOL    HW127704   0.056   4.909   1.633
 8935SOL    HW227705   0.144   4.932   1.769
 8936SOL     OW27706   2.339   3.041   0.275
 8936SOL    HW127707   2.375   3.125   0.233
 8936SOL    HW227708   2.411   2.971   0.277
 8937SOL     OW27709   0.982   6.004   5.792
 8937SOL    HW127710   0.935   5.915   5.797
 8937SOL    HW227711   1.069   5.998   5.842
 8938SOL     OW27712   6.285   5.293   0.918
 8938SOL    HW127713   6.245   5.271   1.007
 8938SOL    HW227714   6.283   5.212   0.860
 8939SOL     OW27715   5.332   2.293   4.602
 8939SOL    HW127716   5.360   2.344   4.521
 8939SOL    HW227717   5.406   2.292   4.669
 8940SOL     OW27718   6.524   0.824   3.364
 8940SOL    HW127719   6.620   0.798   3.355
 8940SOL    HW227720   6.516   0.906   3.420
 8941SOL     OW27721   4.984   2.664   6.345
 8941SOL    HW127722   5.033   2.630   6.425
 8941SOL    HW227723   4.885   2.651   6.357
 8942SOL     OW27724   0.187   2.260   4.885
 8942SOL    HW127725   0.185   2.358   4.868
 8942SOL    HW227726   0.159   2.242   4.980
 8943SOL     OW27727   4.861   3.228   1.333
 8943SOL    HW127728   4.951   3.194   1.303
 8943SOL    HW227729   4.824   3.165   1.402
 8944SOL     OW27730   4.114   5.642   0.654
 8944SOL    HW127731   4.209   5.612   0.649
 8944SOL    HW227732   4.110   5.740   0.672
 8945SOL     OW27733   2.588   0.908   3.878
 8945SOL    HW127734   2.581   0.842   3.802
 8945SOL    HW227735   2.681   0.909   3.912
 8946SOL     OW27736   3.479   1.780   4.522
 8946SOL    HW127737   3.450   1.843   4.595
 8946SOL    HW227738   3.449   1.687   4.544
 8947SOL     OW27739   4.161   3.734   5.226
 8947SOL    HW127740   4.081   3.762   5.172
 8947SOL    HW227741   4.219   3.674   5.170
 8948SOL     OW27742   5.367   4.710   3.301
 8948SOL    HW127743   5.280   4.714   3.251
 8948SOL    HW227744   5.396   4.803   3.324
 8949SOL     OW27745   2.306   6.271   0.290
 8949SOL    HW127746   2.265   6.217   0.216
 8949SOL    HW227747   2.275   6.366   0.282
 8950SOL     OW27748   4.666   2.618   4.583
 8950SOL    HW127749   4.693   2.589   4.491
 8950SOL    HW227750   4.715   2.701   4.609
 8951SOL     OW27751   1.619   2.543   5.666
 8951SOL    HW127752   1.525   2.516   5.642
 8951SOL    HW227753   1.669   2.463   5.699
 8952SOL     OW27754   0.663   1.246   2.806
 8952SOL    HW127755   0.574   1.232   2.761
 8952SOL    HW227756   0.658   1.212   2.900
 8953SOL     OW27757   1.664   3.226   6.928
 8953SOL    HW127758   1.605   3.299   6.962
 8953SOL    HW227759   1.733   3.205   6.996
 8954SOL     OW27760   1.994   5.895   6.553
 8954SOL    HW127761   2.081   5.937   6.576
 8954SOL    HW227762   1.954   5.854   6.636
 8955SOL     OW27763   6.750   4.285   3.434
 8955SOL    HW127764   6.826   4.235   3.476
 8955SOL    HW227765   6.717   4.354   3.498
 8956SOL     OW27766   0.302   0.705   6.014
 8956SOL    HW127767   0.337   0.626   5.963
 8956SOL    HW227768   0.369   0.779   6.011
 8957SOL     OW27769   2.578   4.584   2.534
 8957SOL    HW127770   2.628   4.588   2.447
 8957SOL    HW227771   2.526   4.499   2.539
 8958SOL     OW27772   1.687   6.796   4.444
 8958SOL    HW127773   1.771   6.763   4.486
 8958SOL    HW227774   1.622   6.721   4.435
 8959SOL     OW27775   1.501   4.785   0.409
 8959SOL    HW127776   1.408   4.748   0.415
 8959SOL    HW227777   1.566   4.709   0.399
 8960SOL     OW27778   3.887   5.588   1.628
 8960SOL    HW127779   3.793   5.569   1.602
 8960SOL    HW227780   3.949   5.542   1.565
 8961SOL     OW27781   1.975   2.359   3.920
 8961SOL    HW127782   2.027   2.342   3.837
 8961SOL    HW227783   1.960   2.273   3.969
 8962SOL     OW27784   5.895   0.695   3.328
 8962SOL    HW127785   5.854   0.604   3.332
 8962SOL    HW227786   5.983   0.694   3.376
 8963SOL     OW27787   6.048   0.566   4.317
 8963SOL    HW127788   6.076   0.660   4.338
 8963SOL    HW227789   6.120   0.520   4.267
 8964SOL     OW27790   5.300   4.591   2.078
 8964SOL    HW127791   5.395   4.606   2.106
 8964SOL    HW227792   5.295   4.584   1.978
 8965SOL     OW27793   1.509   5.007   1.528
 8965SOL    HW127794   1.598   5.051   1.535
 8965SOL    HW227795   1.513   4.935   1.458
 8966SOL     OW27796   2.089   2.360   6.410
 8966SOL    HW127797   2.050   2.413   6.335
 8966SOL    HW227798   2.031   2.281   6.428
 8967SOL     OW27799   4.307   0.497   0.458
 8967SOL    HW127800   4.363   0.418   0.430
 8967SOL    HW227801   4.256   0.531   0.379
 8968SOL     OW27802   5.105   6.370   1.529
 8968SOL    HW127803   5.154   6.289   1.496
 8968SOL    HW227804   5.013   6.344   1.558
 8969SOL     OW27805   6.402   0.735   3.824
 8969SOL    HW127806   6.497   0.724   3.796
 8969SOL    HW227807   6.396   0.808   3.893
 8970SOL     OW27808   3.802   1.792   1.607
 8970SOL    HW127809   3.707   1.773   1.629
 8970SOL    HW227810   3.844   1.845   1.681
 8971SOL     OW27811   3.889   5.190   1.882
 8971SOL    HW127812   3.907   5.288   1.872
 8971SOL    HW227813   3.813   5.176   1.945
 8972SOL     OW27814   5.084   6.247   5.243
 8972SOL    HW127815   5.157   6.189   5.206
 8972SOL    HW227816   5.105   6.271   5.338
 8973SOL     OW27817   1.288   4.908   0.024
 8973SOL    HW127818   1.370   4.929   0.078
 8973SOL    HW227819   1.207   4.929   0.078
 8974SOL     OW27820   0.597   3.515   6.027
 8974SOL    HW127821   0.695   3.496   6.022
 8974SOL    HW227822   0.579   3.607   5.992
 8975SOL     OW27823   3.309   0.189   0.348
 8975SOL    HW127824   3.258   0.272   0.368
 8975SOL    HW227825   3.373   0.169   0.422
 8976SOL     OW27826   2.183   5.380   4.337
 8976SOL    HW127827   2.183   5.287   4.372
 8976SOL    HW227828   2.103   5.429   4.372
 8977SOL     OW27829   6.701   1.367   5.945
 8977SOL    HW127830   6.750   1.364   6.033
 8977SOL    HW227831   6.607   1.397   5.960
 8978SOL     OW27832   5.825   6.500   0.488
 8978SOL    HW127833   5.835   6.533   0.394
 8978SOL    HW227834   5.868   6.566   0.551
 8979SOL     OW27835   1.814   3.872   5.049
 8979SOL    HW127836   1.785   3.897   5.142
 8979SOL    HW227837   1.913   3.867   5.046
 8980SOL     OW27838   3.991   3.071   4.321
 8980SOL    HW127839   3.914   3.007   4.321
 8980SOL    HW227840   4.027   3.079   4.414
 8981SOL     OW27841   3.450   1.712   4.896
 8981SOL    HW127842   3.398   1.703   4.981
 8981SOL    HW227843   3.445   1.807   4.864
 8982SOL     OW27844   3.058   4.286   0.495
 8982SOL    HW127845   2.969   4.256   0.530
 8982SOL    HW227846   3.088   4.223   0.423
 8983SOL     OW27847   4.476   5.348   0.316
 8983SOL    HW127848   4.513   5.266   0.359
 8983SOL    HW227849   4.433   5.324   0.229
 8984SOL     OW27850   2.238   6.080   2.943
 8984SOL    HW127851   2.215   6.007   3.006
 8984SOL    HW227852   2.273   6.041   2.857
 8985SOL     OW27853   3.937   2.926   0.035
 8985SOL    HW127854   3.929   2.859   0.109
 8985SOL    HW227855   3.926   3.018   0.073
 8986SOL     OW27856   3.808   4.989   2.810
 8986SOL    HW127857   3.749   4.963   2.886
 8986SOL    HW227858   3.778   5.077   2.773
 8987SOL     OW27859   5.655   5.981   2.361
 8987SOL    HW127860   5.567   5.947   2.329
 8987SOL    HW227861   5.724   5.965   2.291
 8988SOL     OW27862   0.486   5.337   4.552
 8988SOL    HW127863   0.504   5.334   4.650
 8988SOL    HW227864   0.429   5.259   4.526
 8989SOL     OW27865   4.292   2.833   6.473
 8989SOL    HW127866   4.345   2.857   6.554
 8989SOL    HW227867   4.354   2.813   6.397
 8990SOL     OW27868   0.264   5.384   3.800
 8990SOL    HW127869   0.341   5.442   3.773
 8990SOL    HW227870   0.239   5.404   3.895
 8991SOL     OW27871   1.441   2.357   5.088
 8991SOL    HW127872   1.487   2.284   5.138
 8991SOL    HW227873   1.375   2.318   5.024
 8992SOL     OW27874   6.338   2.030   0.205
 8992SOL    HW127875   6.334   2.063   0.111
 8992SOL    HW227876   6.251   1.986   0.229
 8993SOL     OW27877   4.069   3.042   6.141
 8993SOL    HW127878   4.072   3.038   6.241
 8993SOL    HW227879   4.154   3.007   6.104
 8994SOL     OW27880   2.159   4.241   4.568
 8994SOL    HW127881   2.108   4.256   4.484
 8994SOL    HW227882   2.129   4.307   4.637
 8995SOL     OW27883   0.145   1.531   1.468
 8995SOL    HW127884   0.143   1.590   1.549
 8995SOL    HW227885   0.095   1.575   1.394
 8996SOL     OW27886   5.402   4.129   6.706
 8996SOL    HW127887   5.316   4.169   6.677
 8996SOL    HW227888   5.394   4.029   6.709
 8997SOL     OW27889   5.554   1.243   5.185
 8997SOL    HW127890   5.541   1.249   5.086
 8997SOL    HW227891   5.464   1.241   5.231
 8998SOL     OW27892   5.887   3.992   3.999
 8998SOL    HW127893   5.943   4.036   3.928
 8998SOL    HW227894   5.884   4.051   4.080
 8999SOL     OW27895   4.728   6.788   5.660
 8999SOL    HW127896   4.726   6.761   5.563
 8999SOL    HW227897   4.797   6.859   5.673
 9000SOL     OW27898   1.751   4.706   1.653
 9000SOL    HW127899   1.800   4.632   1.698
 9000SOL    HW227900   1.712   4.673   1.567
 9001SOL     OW27901   7.016   5.111   2.461
 9001SOL    HW127902   7.016   5.071   2.552
 9001SOL    HW227903   6.974   5.201   2.464
 9002SOL     OW27904   1.280   4.398   5.581
 9002SOL    HW127905   1.312   4.385   5.487
 9002SOL    HW227906   1.344   4.458   5.630
 9003SOL     OW27907   5.324   1.992   1.235
 9003SOL    HW127908   5.376   2.076   1.217
 9003SOL    HW227909   5.266   2.006   1.315
 9004SOL     OW27910   4.115   5.171   0.613
 9004SOL    HW127911   4.107   5.241   0.542
 9004SOL    HW227912   4.209   5.169   0.647
 9005SOL     OW27913   5.441   1.432   6.260
 9005SOL    HW127914   5.534   1.448   6.293
 9005SOL    HW227915   5.432   1.468   6.167
 9006SOL     OW27916   3.645   0.286   0.436
 9006SOL    HW127917   3.589   0.238   0.502
 9006SOL    HW227918   3.624   0.254   0.344
 9007SOL     OW27919   2.479   1.447   2.729
 9007SOL    HW127920   2.543   1.401   2.790
 9007SOL    HW227921   2.530   1.496   2.658
 9008SOL     OW27922   0.358   5.934   2.977
 9008SOL    HW127923   0.402   5.886   3.054
 9008SOL    HW227924   0.391   6.028   2.973
 9009SOL     OW27925   3.874   5.682   0.536
 9009SOL    HW127926   3.953   5.634   0.575
 9009SOL    HW227927   3.847   5.757   0.597
 9010SOL     OW27928   2.267   6.915   4.111
 9010SOL    HW127929   2.228   6.825   4.130
 9010SOL    HW227930   2.343   6.905   4.047
 9011SOL     OW27931   4.706   0.623   2.689
 9011SOL    HW127932   4.758   0.587   2.766
 9011SOL    HW227933   4.665   0.711   2.714
 9012SOL     OW27934   2.589   5.920   0.517
 9012SOL    HW127935   2.688   5.910   0.532
 9012SOL    HW227936   2.571   6.008   0.473
 9013SOL     OW27937   1.828   6.707   4.808
 9013SOL    HW127938   1.779   6.622   4.827
 9013SOL    HW227939   1.762   6.779   4.787
 9014SOL     OW27940   6.295   2.397   2.346
 9014SOL    HW127941   6.323   2.471   2.284
 9014SOL    HW227942   6.365   2.327   2.347
 9015SOL     OW27943   5.249   2.603   0.789
 9015SOL    HW127944   5.333   2.643   0.824
 9015SOL    HW227945   5.261   2.504   0.777
 9016SOL     OW27946   5.776   5.616   5.721
 9016SOL    HW127947   5.767   5.522   5.688
 9016SOL    HW227948   5.720   5.629   5.802
 9017SOL     OW27949   3.394   1.034   4.733
 9017SOL    HW127950   3.465   0.973   4.767
 9017SOL    HW227951   3.307   1.013   4.779
 9018SOL     OW27952   4.039   3.072   6.683
 9018SOL    HW127953   4.120   3.045   6.737
 9018SOL    HW227954   4.005   3.159   6.717
 9019SOL     OW27955   1.080   3.358   3.328
 9019SOL    HW127956   1.166   3.390   3.370
 9019SOL    HW227957   1.070   3.399   3.237
 9020SOL     OW27958   6.513   5.679   1.760
 9020SOL    HW127959   6.610   5.698   1.744
 9020SOL    HW227960   6.487   5.712   1.851
 9021SOL     OW27961   0.080   7.011   3.702
 9021SOL    HW127962   0.034   6.932   3.662
 9021SOL    HW227963   0.012   0.047   3.744
 9022SOL     OW27964   4.057   2.707   6.446
 9022SOL    HW127965   4.147   2.748   6.464
 9022SOL    HW227966   4.039   2.636   6.513
 9023SOL     OW27967   4.262   3.254   1.330
 9023SOL    HW127968   4.346   3.253   1.277
 9023SOL    HW227969   4.245   3.347   1.363
 9024SOL     OW27970   1.394   5.091   5.878
 9024SOL    HW127971   1.474   5.140   5.842
 9024SOL    HW227972   1.425   5.020   5.942
 9025SOL     OW27973   0.493   5.661   0.862
 9025SOL    HW127974   0.560   5.609   0.914
 9025SOL    HW227975   0.536   5.700   0.780
 9026SOL     OW27976   3.945   1.954   6.922
 9026SOL    HW127977   3.902   1.874   6.963
 9026SOL    HW227978   4.022   1.925   6.865
 9027SOL     OW27979   0.650   4.142   3.435
 9027SOL    HW127980   0.670   4.047   3.413
 9027SOL    HW227981   0.730   4.186   3.474
 9028SOL     OW27982   3.809   3.799   5.318
 9028SOL    HW127983   3.831   3.800   5.416
 9028SOL    HW227984   3.855   3.876   5.273
 9029SOL     OW27985   4.209   0.548   4.601
 9029SOL    HW127986   4.290   0.502   4.567
 9029SOL    HW227987   4.184   0.623   4.538
 9030SOL     OW27988   2.458   2.598   4.270
 9030SOL    HW127989   2.438   2.668   4.338
 9030SOL    HW227990   2.525   2.534   4.307
 9031SOL     OW27991   4.544   0.410   4.809
 9031SOL    HW127992   4.561   0.495   4.759
 9031SOL    HW227993   4.520   0.337   4.744
 9032SOL     OW27994   4.701   3.463   1.377
 9032SOL    HW127995   4.745   3.374   1.367
 9032SOL    HW227996   4.765   3.527   1.419
 9033SOL     OW27997   0.856   5.344   2.529
 9033SOL    HW127998   0.834   5.290   2.448
 9033SOL    HW227999   0.921   5.295   2.587
 9034SOL     OW28000   3.268   6.494   4.558
 9034SOL    HW128001   3.322   6.568   4.519
 9034SOL    HW228002   3.241   6.518   4.651
 9035SOL     OW28003   2.243   5.988   0.381
 9035SOL    HW128004   2.196   6.061   0.331
 9035SOL    HW228005   2.309   6.029   0.445
 9036SOL     OW28006   1.364   3.466   5.003
 9036SOL    HW128007   1.266   3.484   5.013
 9036SOL    HW228008   1.400   3.519   4.927
 9037SOL     OW28009   0.526   2.344   3.875
 9037SOL    HW128010   0.593   2.397   3.822
 9037SOL    HW228011   0.446   2.401   3.893
 9038SOL     OW28012   5.022   3.370   6.605
 9038SOL    HW128013   5.089   3.358   6.532
 9038SOL    HW228014   4.935   3.330   6.577
 9039SOL     OW28015   3.260   5.131   0.046
 9039SOL    HW128016   3.244   5.219   0.002
 9039SOL    HW228017   3.355   5.102   0.030
 9040SOL     OW28018   2.227   2.299   1.770
 9040SOL    HW128019   2.193   2.226   1.710
 9040SOL    HW228020   2.308   2.268   1.818
 9041SOL     OW28021   0.377   2.063   0.897
 9041SOL    HW128022   0.338   2.024   0.813
 9041SOL    HW228023   0.419   2.151   0.877
 9042SOL     OW28024   3.486   5.896   5.885
 9042SOL    HW128025   3.430   5.973   5.853
 9042SOL    HW228026   3.491   5.827   5.813
 9043SOL     OW28027   2.673   1.242   6.940
 9043SOL    HW128028   2.623   1.167   6.983
 9043SOL    HW228029   2.680   1.226   6.842
 9044SOL     OW28030   0.516   6.831   0.037
 9044SOL    HW128031   0.464   6.833   0.122
 9044SOL    HW228032   0.472   6.770   6.997
 9045SOL     OW28033   4.272   0.292   3.387
 9045SOL    HW128034   4.269   0.274   3.289
 9045SOL    HW228035   4.178   0.303   3.422
 9046SOL     OW28036   3.066   3.183   2.958
 9046SOL    HW128037   3.126   3.139   3.024
 9046SOL    HW228038   3.056   3.124   2.877
 9047SOL     OW28039   1.377   4.479   6.030
 9047SOL    HW128040   1.396   4.541   5.953
 9047SOL    HW228041   1.324   4.528   6.099
 9048SOL     OW28042   5.864   2.362   6.280
 9048SOL    HW128043   5.852   2.431   6.350
 9048SOL    HW228044   5.847   2.271   6.319
 9049SOL     OW28045   3.048   6.813   6.254
 9049SOL    HW128046   3.055   6.810   6.354
 9049SOL    HW228047   3.000   6.732   6.221
 9050SOL     OW28048   0.722   4.378   1.708
 9050SOL    HW128049   0.637   4.429   1.718
 9050SOL    HW228050   0.792   4.437   1.669
 9051SOL     OW28051   2.839   1.623   1.212
 9051SOL    HW128052   2.799   1.714   1.201
 9051SOL    HW228053   2.911   1.609   1.145
 9052SOL     OW28054   1.710   3.198   4.609
 9052SOL    HW128055   1.778   3.176   4.680
 9052SOL    HW228056   1.725   3.141   4.529
 9053SOL     OW28057   1.998   1.509   1.133
 9053SOL    HW128058   1.938   1.503   1.213
 9053SOL    HW228059   1.946   1.485   1.051
 9054SOL     OW28060   2.922   5.687   3.673
 9054SOL    HW128061   2.909   5.588   3.679
 9054SOL    HW228062   2.977   5.709   3.593
 9055SOL     OW28063   0.363   4.024   4.890
 9055SOL    HW128064   0.300   4.048   4.964
 9055SOL    HW228065   0.358   4.092   4.817
 9056SOL     OW28066   6.090   2.221   2.900
 9056SOL    HW128067   6.128   2.131   2.920
 9056SOL    HW228068   6.007   2.211   2.844
 9057SOL     OW28069   4.270   0.892   4.568
 9057SOL    HW128070   4.265   0.825   4.493
 9057SOL    HW228071   4.195   0.957   4.560
 9058SOL     OW28072   1.635   0.756   6.634
 9058SOL    HW128073   1.604   0.818   6.562
 9058SOL    HW228074   1.701   0.690   6.596
 9059SOL     OW28075   1.540   1.981   2.169
 9059SOL    HW128076   1.563   1.898   2.219
 9059SOL    HW228077   1.613   2.001   2.103
 9060SOL     OW28078   4.872   3.001   4.519
 9060SOL    HW128079   4.828   2.948   4.592
 9060SOL    HW228080   4.860   2.953   4.432
 9061SOL     OW28081   4.604   5.455   2.445
 9061SOL    HW128082   4.557   5.428   2.361
 9061SOL    HW228083   4.676   5.389   2.466
 9062SOL     OW28084   1.352   5.357   1.440
 9062SOL    HW128085   1.362   5.398   1.531
 9062SOL    HW228086   1.407   5.274   1.436
 9063SOL     OW28087   2.692   2.019   2.887
 9063SOL    HW128088   2.745   1.965   2.951
 9063SOL    HW228089   2.603   1.976   2.871
 9064SOL     OW28090   6.344   3.422   6.769
 9064SOL    HW128091   6.315   3.331   6.737
 9064SOL    HW228092   6.358   3.481   6.690
 9065SOL     OW28093   2.514   0.902   0.651
 9065SOL    HW128094   2.440   0.946   0.601
 9065SOL    HW228095   2.562   0.969   0.707
 9066SOL     OW28096   5.059   6.599   6.878
 9066SOL    HW128097   4.990   6.527   6.886
 9066SOL    HW228098   5.113   6.603   6.962
 9067SOL     OW28099   1.463   6.782   3.206
 9067SOL    HW128100   1.401   6.860   3.203
 9067SOL    HW228101   1.466   6.746   3.299
 9068SOL     OW28102   1.807   5.928   6.374
 9068SOL    HW128103   1.723   5.883   6.405
 9068SOL    HW228104   1.879   5.915   6.441
 9069SOL     OW28105   1.888   2.469   6.145
 9069SOL    HW128106   1.837   2.388   6.174
 9069SOL    HW228107   1.823   2.542   6.121
 9070SOL     OW28108   1.324   4.358   4.659
 9070SOL    HW128109   1.345   4.452   4.631
 9070SOL    HW228110   1.397   4.297   4.630
 9071SOL     OW28111   6.124   6.634   0.195
 9071SOL    HW128112   6.192   6.707   0.188
 9071SOL    HW228113   6.157   6.564   0.258
 9072SOL     OW28114   6.535   4.146   0.030
 9072SOL    HW128115   6.578   4.057   0.048
 9072SOL    HW228116   6.575   4.215   0.091
 9073SOL     OW28117   1.862   1.027   2.074
 9073SOL    HW128118   1.932   1.089   2.039
 9073SOL    HW228119   1.791   1.079   2.120
 9074SOL     OW28120   1.223   6.968   3.220
 9074SOL    HW128121   1.243   0.035   3.255
 9074SOL    HW228122   1.166   6.975   3.139
 9075SOL     OW28123   6.582   0.773   2.318
 9075SOL    HW128124   6.512   0.731   2.261
 9075SOL    HW228125   6.647   0.703   2.348
 9076SOL     OW28126   6.786   0.801   5.755
 9076SOL    HW128127   6.783   0.791   5.656
 9076SOL    HW228128   6.730   0.729   5.797
 9077SOL     OW28129   5.669   6.370   2.236
 9077SOL    HW128130   5.750   6.326   2.198
 9077SOL    HW228131   5.683   6.469   2.237
 9078SOL     OW28132   3.888   3.005   4.639
 9078SOL    HW128133   3.954   3.070   4.603
 9078SOL    HW228134   3.880   3.017   4.738
 9079SOL     OW28135   3.459   0.098   5.681
 9079SOL    HW128136   3.512   0.045   5.747
 9079SOL    HW228137   3.364   0.068   5.683
 9080SOL     OW28138   5.301   1.688   0.874
 9080SOL    HW128139   5.327   1.784   0.883
 9080SOL    HW228140   5.273   1.670   0.779
 9081SOL     OW28141   5.486   6.516   2.036
 9081SOL    HW128142   5.524   6.475   2.119
 9081SOL    HW228143   5.549   6.503   1.960
 9082SOL     OW28144   3.017   1.304   3.996
 9082SOL    HW128145   2.950   1.357   4.048
 9082SOL    HW228146   3.102   1.296   4.049
 9083SOL     OW28147   4.980   4.420   4.553
 9083SOL    HW128148   5.034   4.371   4.622
 9083SOL    HW228149   4.883   4.399   4.567
 9084SOL     OW28150   3.503   4.177   3.495
 9084SOL    HW128151   3.478   4.265   3.536
 9084SOL    HW228152   3.577   4.136   3.549
 9085SOL     OW28153   1.819   2.149   0.918
 9085SOL    HW128154   1.820   2.248   0.909
 9085SOL    HW228155   1.728   2.114   0.896
 9086SOL     OW28156   0.492   4.198   1.327
 9086SOL    HW128157   0.480   4.276   1.265
 9086SOL    HW228158   0.560   4.221   1.396
 9087SOL     OW28159   4.907   3.602   1.898
 9087SOL    HW128160   4.821   3.556   1.915
 9087SOL    HW228161   4.965   3.545   1.840
 9088SOL     OW28162   5.211   0.754   6.955
 9088SOL    HW128163   5.183   0.801   0.014
 9088SOL    HW228164   5.144   0.684   6.932
 9089SOL     OW28165   4.455   0.026   5.257
 9089SOL    HW128166   4.519   0.059   5.326
 9089SOL    HW228167   4.382   6.998   5.302
 9090SOL     OW28168   5.711   1.544   4.596
 9090SOL    HW128169   5.735   1.638   4.621
 9090SOL    HW228170   5.793   1.494   4.571
 9091SOL     OW28171   3.205   3.795   6.943
 9091SOL    HW128172   3.172   3.844   6.863
 9091SOL    HW228173   3.130   3.779   7.007
 9092SOL     OW28174   6.847   2.668   0.274
 9092SOL    HW128175   6.833   2.582   0.324
 9092SOL    HW228176   6.932   2.710   0.306
 9093SOL     OW28177   1.278   6.520   6.034
 9093SOL    HW128178   1.187   6.478   6.031
 9093SOL    HW228179   1.295   6.555   6.126
 9094SOL     OW28180   0.538   3.685   2.212
 9094SOL    HW128181   0.535   3.784   2.195
 9094SOL    HW228182   0.446   3.652   2.229
 9095SOL     OW28183   5.414   5.762   5.256
 9095SOL    HW128184   5.419   5.749   5.157
 9095SOL    HW228185   5.320   5.780   5.283
 9096SOL     OW28186   6.385   5.796   2.713
 9096SOL    HW128187   6.398   5.894   2.698
 9096SOL    HW228188   6.307   5.764   2.660
 9097SOL     OW28189   1.120   2.886   6.151
 9097SOL    HW128190   1.096   2.968   6.099
 9097SOL    HW228191   1.148   2.912   6.243
 9098SOL     OW28192   1.615   3.603   4.190
 9098SOL    HW128193   1.682   3.627   4.260
 9098SOL    HW228194   1.625   3.507   4.165
 9099SOL     OW28195   2.409   3.137   6.991
 9099SOL    HW128196   2.344   3.094   6.929
 9099SOL    HW228197   2.497   3.150   6.944
 9100SOL     OW28198   1.010   4.706   3.119
 9100SOL    HW128199   0.989   4.625   3.065
 9100SOL    HW228200   0.978   4.788   3.071
 9101SOL     OW28201   1.345   2.169   2.054
 9101SOL    HW128202   1.401   2.103   2.105
 9101SOL    HW228203   1.325   2.133   1.963
 9102SOL     OW28204   4.507   6.190   2.513
 9102SOL    HW128205   4.418   6.232   2.525
 9102SOL    HW228206   4.510   6.144   2.424
 9103SOL     OW28207   6.258   1.668   0.456
 9103SOL    HW128208   6.219   1.760   0.455
 9103SOL    HW228209   6.248   1.628   0.547
 9104SOL     OW28210   5.627   0.723   6.632
 9104SOL    HW128211   5.651   0.650   6.568
 9104SOL    HW228212   5.690   0.800   6.620
 9105SOL     OW28213   1.963   6.994   6.608
 9105SOL    HW128214   1.917   6.936   6.676
 9105SOL    HW228215   1.894   0.016   6.552
 9106SOL     OW28216   1.797   4.332   0.375
 9106SOL    HW128217   1.859   4.296   0.305
 9106SOL    HW228218   1.705   4.343   0.336
 9107SOL     OW28219   2.480   0.970   6.753
 9107SOL    HW128220   2.499   0.898   6.686
 9107SOL    HW228221   2.421   1.039   6.711
 9108SOL     OW28222   5.898   4.620   5.949
 9108SOL    HW128223   5.899   4.527   5.987
 9108SOL    HW228224   5.858   4.683   6.015
 9109SOL     OW28225   4.958   3.048   2.678
 9109SOL    HW128226   5.001   2.965   2.642
 9109SOL    HW228227   4.952   3.042   2.778
 9110SOL     OW28228   1.523   6.132   4.614
 9110SOL    HW128229   1.504   6.163   4.707
 9110SOL    HW228230   1.594   6.062   4.616
 9111SOL     OW28231   4.061   2.914   5.545
 9111SOL    HW128232   4.035   3.007   5.518
 9111SOL    HW228233   4.095   2.915   5.639
 9112SOL     OW28234   1.213   5.295   2.285
 9112SOL    HW128235   1.181   5.267   2.375
 9112SOL    HW228236   1.163   5.245   2.214
 9113SOL     OW28237   5.426   1.495   3.648
 9113SOL    HW128238   5.463   1.477   3.739
 9113SOL    HW228239   5.406   1.408   3.602
 9114SOL     OW28240   1.378   5.962   5.111
 9114SOL    HW128241   1.444   5.894   5.145
 9114SOL    HW228242   1.344   5.933   5.022
 9115SOL     OW28243   5.403   4.261   4.159
 9115SOL    HW128244   5.440   4.282   4.249
 9115SOL    HW228245   5.415   4.341   4.099
 9116SOL     OW28246   1.028   0.288   3.207
 9116SOL    HW128247   1.018   0.388   3.204
 9116SOL    HW228248   1.053   0.260   3.299
 9117SOL     OW28249   3.650   0.604   6.896
 9117SOL    HW128250   3.574   0.550   6.861
 9117SOL    HW228251   3.706   0.548   6.957
 9118SOL     OW28252   6.702   4.128   1.708
 9118SOL    HW128253   6.726   4.224   1.696
 9118SOL    HW228254   6.764   4.086   1.774
 9119SOL     OW28255   3.997   0.582   1.044
 9119SOL    HW128256   4.084   0.631   1.046
 9119SOL    HW228257   3.988   0.525   1.125
 9120SOL     OW28258   6.258   3.346   5.392
 9120SOL    HW128259   6.353   3.372   5.378
 9120SOL    HW228260   6.226   3.382   5.480
 9121SOL     OW28261   3.165   0.984   4.888
 9121SOL    HW128262   3.140   1.070   4.933
 9121SOL    HW228263   3.088   0.920   4.894
 9122SOL     OW28264   1.945   4.052   2.280
 9122SOL    HW128265   1.953   4.117   2.356
 9122SOL    HW228266   1.868   4.078   2.222
 9123SOL     OW28267   0.986   0.172   3.796
 9123SOL    HW128268   0.973   0.178   3.894
 9123SOL    HW228269   1.065   0.112   3.776
 9124SOL     OW28270   2.851   5.482   1.625
 9124SOL    HW128271   2.931   5.473   1.565
 9124SOL    HW228272   2.774   5.434   1.583
 9125SOL     OW28273   4.477   6.431   1.022
 9125SOL    HW128274   4.509   6.392   0.936
 9125SOL    HW228275   4.527   6.515   1.042
 9126SOL     OW28276   4.010   4.785   0.365
 9126SOL    HW128277   3.989   4.756   0.458
 9126SOL    HW228278   4.044   4.879   0.366
 9127SOL     OW28279   0.503   4.353   4.947
 9127SOL    HW128280   0.514   4.396   5.037
 9127SOL    HW228281   0.430   4.398   4.897
 9128SOL     OW28282   6.139   3.738   5.423
 9128SOL    HW128283   6.070   3.716   5.354
 9128SOL    HW228284   6.130   3.675   5.500
 9129SOL     OW28285   1.636   2.519   1.026
 9129SOL    HW128286   1.713   2.477   0.978
 9129SOL    HW228287   1.670   2.566   1.108
 9130SOL     OW28288   2.568   3.847   5.309
 9130SOL    HW128289   2.505   3.890   5.244
 9130SOL    HW228290   2.661   3.852   5.273
 9131SOL     OW28291   5.114   2.504   1.177
 9131SOL    HW128292   5.040   2.530   1.239
 9131SOL    HW228293   5.193   2.474   1.230
 9132SOL     OW28294   0.051   4.380   3.658
 9132SOL    HW128295   0.026   4.397   3.754
 9132SOL    HW228296   0.052   4.281   3.642
 9133SOL     OW28297   4.726   1.204   0.794
 9133SOL    HW128298   4.801   1.259   0.756
 9133SOL    HW228299   4.643   1.217   0.739
 9134SOL     OW28300   4.268   4.882   0.522
 9134SOL    HW128301   4.207   4.904   0.598
 9134SOL    HW228302   4.278   4.962   0.463
 9135SOL     OW28303   6.836   6.636   2.515
 9135SOL    HW128304   6.868   6.692   2.439
 9135SOL    HW228305   6.736   6.630   2.513
 9136SOL     OW28306   6.046   4.170   6.564
 9136SOL    HW128307   5.963   4.169   6.620
 9136SOL    HW228308   6.065   4.263   6.533
 9137SOL     OW28309   5.461   5.823   6.483
 9137SOL    HW128310   5.523   5.795   6.410
 9137SOL    HW228311   5.429   5.917   6.466
 9138SOL     OW28312   3.497   3.023   1.137
 9138SOL    HW128313   3.499   3.118   1.169
 9138SOL    HW228314   3.587   2.998   1.101
 9139SOL     OW28315   6.854   0.294   0.878
 9139SOL    HW128316   6.950   0.313   0.857
 9139SOL    HW228317   6.796   0.348   0.817
 9140SOL     OW28318   1.330   4.117   3.387
 9140SOL    HW128319   1.237   4.152   3.375
 9140SOL    HW228320   1.392   4.167   3.327
 9141SOL     OW28321   6.776   5.682   5.454
 9141SOL    HW128322   6.789   5.594   5.409
 9141SOL    HW228323   6.749   5.668   5.549
 9142SOL     OW28324   1.503   4.166   4.506
 9142SOL    HW128325   1.418   4.115   4.500
 9142SOL    HW228326   1.506   4.236   4.436
 9143SOL     OW28327   0.212   4.164   2.883
 9143SOL    HW128328   0.156   4.139   2.804
 9143SOL    HW228329   0.155   4.209   2.951
 9144SOL     OW28330   2.331   4.574   5.290
 9144SOL    HW128331   2.299   4.666   5.314
 9144SOL    HW228332   2.423   4.581   5.251
 9145SOL     OW28333   1.594   6.038   5.812
 9145SOL    HW128334   1.603   5.944   5.781
 9145SOL    HW228335   1.684   6.074   5.838
 9146SOL     OW28336   6.008   3.066   2.970
 9146SOL    HW128337   6.006   2.992   2.902
 9146SOL    HW228338   5.999   3.027   3.062
 9147SOL     OW28339   3.964   6.893   4.722
 9147SOL    HW128340   3.979   6.837   4.804
 9147SOL    HW228341   3.959   6.833   4.642
 9148SOL     OW28342   6.027   6.316   1.661
 9148SOL    HW128343   5.982   6.231   1.632
 9148SOL    HW228344   6.019   6.326   1.760
 9149SOL     OW28345   0.269   3.731   1.502
 9149SOL    HW128346   0.367   3.752   1.492
 9149SOL    HW228347   0.242   3.666   1.431
 9150SOL     OW28348   2.225   2.644   0.259
 9150SOL    HW128349   2.299   2.683   0.204
 9150SOL    HW228350   2.222   2.545   0.247
 9151SOL     OW28351   1.731   3.146   4.035
 9151SOL    HW128352   1.788   3.156   4.117
 9151SOL    HW228353   1.668   3.069   4.048
 9152SOL     OW28354   1.279   4.267   2.564
 9152SOL    HW128355   1.248   4.360   2.546
 9152SOL    HW228356   1.233   4.204   2.501
 9153SOL     OW28357   0.333   3.912   6.722
 9153SOL    HW128358   0.401   3.844   6.753
 9153SOL    HW228359   0.300   3.887   6.631
 9154SOL     OW28360   5.427   5.160   2.757
 9154SOL    HW128361   5.446   5.089   2.824
 9154SOL    HW228362   5.509   5.178   2.703
 9155SOL     OW28363   1.348   6.608   2.828
 9155SOL    HW128364   1.363   6.592   2.730
 9155SOL    HW228365   1.253   6.638   2.842
 9156SOL     OW28366   6.991   3.648   6.376
 9156SOL    HW128367   0.052   3.686   6.412
 9156SOL    HW228368   7.011   3.590   6.297
 9157SOL     OW28369   1.553   4.459   6.563
 9157SOL    HW128370   1.570   4.487   6.658
 9157SOL    HW228371   1.547   4.360   6.558
 9158SOL     OW28372   6.916   3.704   4.837
 9158SOL    HW128373   6.978   3.745   4.903
 9158SOL    HW228374   6.930   3.748   4.748
 9159SOL     OW28375   3.455   1.428   3.991
 9159SOL    HW128376   3.447   1.527   3.991
 9159SOL    HW228377   3.388   1.389   4.055
 9160SOL     OW28378   0.475   4.513   1.728
 9160SOL    HW128379   0.470   4.579   1.803
 9160SOL    HW228380   0.504   4.559   1.644
 9161SOL     OW28381   6.706   4.493   2.358
 9161SOL    HW128382   6.655   4.407   2.371
 9161SOL    HW228383   6.804   4.473   2.358
 9162SOL     OW28384   3.981   1.932   1.758
 9162SOL    HW128385   3.950   2.025   1.777
 9162SOL    HW228386   3.969   1.875   1.839
 9163SOL     OW28387   1.804   2.478   4.095
 9163SOL    HW128388   1.870   2.464   4.022
 9163SOL    HW228389   1.724   2.527   4.058
 9164SOL     OW28390   2.500   6.768   0.435
 9164SOL    HW128391   2.505   6.834   0.359
 9164SOL    HW228392   2.570   6.791   0.503
 9165SOL     OW28393   5.352   1.847   6.315
 9165SOL    HW128394   5.259   1.831   6.348
 9165SOL    HW228395   5.416   1.790   6.367
 9166SOL     OW28396   5.480   5.744   1.445
 9166SOL    HW128397   5.519   5.823   1.398
 9166SOL    HW228398   5.442   5.773   1.533
 9167SOL     OW28399   1.609   0.961   4.604
 9167SOL    HW128400   1.670   1.031   4.567
 9167SOL    HW228401   1.533   1.004   4.653
 9168SOL     OW28402   6.746   5.842   4.670
 9168SOL    HW128403   6.766   5.884   4.581
 9168SOL    HW228404   6.807   5.765   4.685
 9169SOL     OW28405   6.736   5.935   1.326
 9169SOL    HW128406   6.745   5.941   1.425
 9169SOL    HW228407   6.739   6.026   1.286
 9170SOL     OW28408   1.135   1.098   6.390
 9170SOL    HW128409   1.186   1.181   6.415
 9170SOL    HW228410   1.198   1.031   6.352
 9171SOL     OW28411   3.362   4.932   6.685
 9171SOL    HW128412   3.440   4.964   6.739
 9171SOL    HW228413   3.325   5.007   6.631
 9172SOL     OW28414   4.479   1.306   4.051
 9172SOL    HW128415   4.520   1.398   4.048
 9172SOL    HW228416   4.542   1.243   4.095
 9173SOL     OW28417   5.644   2.835   5.017
 9173SOL    HW128418   5.739   2.866   5.026
 9173SOL    HW228419   5.595   2.855   5.102
 9174SOL     OW28420   0.105   4.812   0.922
 9174SOL    HW128421   0.120   4.909   0.900
 9174SOL    HW228422   0.182   4.758   0.888
 9175SOL     OW28423   1.996   0.420   0.177
 9175SOL    HW128424   1.932   0.390   0.107
 9175SOL    HW228425   1.947   0.444   0.260
 9176SOL     OW28426   1.886   1.462   2.134
 9176SOL    HW128427   1.903   1.421   2.224
 9176SOL    HW228428   1.789   1.482   2.124
 9177SOL     OW28429   0.244   4.882   3.754
 9177SOL    HW128430   0.199   4.970   3.770
 9177SOL    HW228431   0.285   4.882   3.662
 9178SOL     OW28432   2.183   5.710   0.765
 9178SOL    HW128433   2.158   5.806   0.752
 9178SOL    HW228434   2.109   5.662   0.812
 9179SOL     OW28435   3.319   5.541   4.363
 9179SOL    HW128436   3.325   5.616   4.298
 9179SOL    HW228437   3.314   5.454   4.314
 9180SOL     OW28438   6.986   0.734   5.099
 9180SOL    HW128439   6.993   0.815   5.041
 9180SOL    HW228440   0.053   0.705   5.127
 9181SOL     OW28441   2.589   2.050   3.405
 9181SOL    HW128442   2.570   2.116   3.332
 9181SOL    HW228443   2.562   1.959   3.374
 9182SOL     OW28444   1.187   1.769   3.082
 9182SOL    HW128445   1.198   1.816   3.170
 9182SOL    HW228446   1.091   1.769   3.056
 9183SOL     OW28447   0.715   1.749   6.051
 9183SOL    HW128448   0.640   1.685   6.042
 9183SOL    HW228449   0.802   1.699   6.051
 9184SOL     OW28450   4.058   2.929   0.596
 9184SOL    HW128451   4.066   2.938   0.695
 9184SOL    HW228452   4.059   3.019   0.554
 9185SOL     OW28453   0.721   0.908   0.006
 9185SOL    HW128454   0.809   0.946   0.036
 9185SOL    HW228455   0.680   0.969   6.963
 9186SOL     OW28456   5.561   1.193   6.372
 9186SOL    HW128457   5.484   1.256   6.357
 9186SOL    HW228458   5.536   1.125   6.440
 9187SOL     OW28459   5.812   1.979   0.665
 9187SOL    HW128460   5.749   2.025   0.602
 9187SOL    HW228461   5.905   1.983   0.629
 9188SOL     OW28462   1.886   0.764   2.216
 9188SOL    HW128463   1.882   0.779   2.314
 9188SOL    HW228464   1.878   0.851   2.168
 9189SOL     OW28465   4.031   1.375   4.999
 9189SOL    HW128466   4.033   1.462   5.048
 9189SOL    HW228467   3.936   1.352   4.977
 9190SOL     OW28468   6.450   1.729   5.376
 9190SOL    HW128469   6.454   1.829   5.384
 9190SOL    HW228470   6.425   1.690   5.465
 9191SOL     OW28471   5.835   0.028   0.760
 9191SOL    HW128472   5.794   0.105   0.710
 9191SOL    HW228473   5.931   0.019   0.733
 9192SOL     OW28474   5.169   4.164   4.288
 9192SOL    HW128475   5.258   4.140   4.248
 9192SOL    HW228476   5.148   4.260   4.267
 9193SOL     OW28477   2.928   3.563   3.575
 9193SOL    HW128478   2.970   3.631   3.515
 9193SOL    HW228479   2.962   3.472   3.551
 9194SOL     OW28480   3.990   5.607   2.640
 9194SOL    HW128481   4.039   5.682   2.684
 9194SOL    HW228482   3.892   5.626   2.643
 9195SOL     OW28483   0.391   2.985   2.447
 9195SOL    HW128484   0.457   3.060   2.447
 9195SOL    HW228485   0.315   3.007   2.385
 9196SOL     OW28486   4.620   6.843   3.635
 9196SOL    HW128487   4.714   6.808   3.627
 9196SOL    HW228488   4.623   6.939   3.663
 9197SOL     OW28489   3.542   2.737   5.209
 9197SOL    HW128490   3.625   2.748   5.155
 9197SOL    HW228491   3.564   2.698   5.298
 9198SOL     OW28492   5.231   2.029   5.423
 9198SOL    HW128493   5.229   2.090   5.503
 9198SOL    HW228494   5.138   2.004   5.399
 9199SOL     OW28495   1.644   3.746   6.407
 9199SOL    HW128496   1.663   3.827   6.351
 9199SOL    HW228497   1.616   3.670   6.348
 9200SOL     OW28498   5.791   6.279   0.608
 9200SOL    HW128499   5.820   6.201   0.553
 9200SOL    HW228500   5.782   6.359   0.549
 9201SOL     OW28501   1.833   4.204   2.891
 9201SOL    HW128502   1.744   4.182   2.932
 9201SOL    HW228503   1.896   4.233   2.963
 9202SOL     OW28504   3.327   5.647   3.567
 9202SOL    HW128505   3.268   5.615   3.641
 9202SOL    HW228506   3.353   5.742   3.583
 9203SOL     OW28507   5.390   0.813   6.023
 9203SOL    HW128508   5.318   0.841   5.960
 9203SOL    HW228509   5.459   0.885   6.027
 9204SOL     OW28510   4.852   4.269   1.673
 9204SOL    HW128511   4.804   4.184   1.692
 9204SOL    HW228512   4.814   4.343   1.729
 9205SOL     OW28513   4.854   2.999   2.255
 9205SOL    HW128514   4.886   2.911   2.220
 9205SOL    HW228515   4.801   3.045   2.184
 9206SOL     OW28516   0.618   6.614   3.058
 9206SOL    HW128517   0.565   6.636   2.977
 9206SOL    HW228518   0.561   6.626   3.140
 9207SOL     OW28519   3.869   6.657   0.038
 9207SOL    HW128520   3.950   6.603   0.016
 9207SOL    HW228521   3.795   6.634   6.999
 9208SOL     OW28522   4.948   4.582   2.087
 9208SOL    HW128523   4.937   4.563   2.184
 9208SOL    HW228524   4.983   4.500   2.041
 9209SOL     OW28525   3.813   0.431   3.012
 9209SOL    HW128526   3.773   0.360   3.070
 9209SOL    HW228527   3.881   0.483   3.063
 9210SOL     OW28528   1.355   6.800   0.559
 9210SOL    HW128529   1.344   6.879   0.619
 9210SOL    HW228530   1.345   6.830   0.464
 9211SOL     OW28531   4.883   1.290   5.839
 9211SOL    HW128532   4.891   1.202   5.886
 9211SOL    HW228533   4.974   1.332   5.834
 9212SOL     OW28534   6.091   3.549   4.772
 9212SOL    HW128535   6.174   3.549   4.715
 9212SOL    HW228536   6.012   3.575   4.717
 9213SOL     OW28537   6.634   6.893   2.577
 9213SOL    HW128538   6.553   6.950   2.563
 9213SOL    HW228539   6.674   6.914   2.667
 9214SOL     OW28540   1.997   2.416   5.477
 9214SOL    HW128541   1.954   2.334   5.440
 9214SOL    HW228542   1.998   2.411   5.577
 9215SOL     OW28543   0.426   3.232   2.767
 9215SOL    HW128544   0.327   3.216   2.768
 9215SOL    HW228545   0.471   3.162   2.823
 9216SOL     OW28546   3.022   5.390   3.949
 9216SOL    HW128547   2.922   5.395   3.950
 9216SOL    HW228548   3.055   5.417   3.859
 9217SOL     OW28549   4.491   0.608   6.395
 9217SOL    HW128550   4.443   0.567   6.317
 9217SOL    HW228551   4.537   0.692   6.365
 9218SOL     OW28552   5.846   5.490   6.081
 9218SOL    HW128553   5.768   5.529   6.032
 9218SOL    HW228554   5.813   5.428   6.153
 9219SOL     OW28555   3.399   2.855   5.661
 9219SOL    HW128556   3.421   2.839   5.757
 9219SOL    HW228557   3.483   2.864   5.608
 9220SOL     OW28558   0.456   6.661   3.664
 9220SOL    HW128559   0.397   6.602   3.609
 9220SOL    HW228560   0.428   6.756   3.653
 9221SOL     OW28561   2.036   1.461   0.170
 9221SOL    HW128562   1.983   1.393   0.221
 9221SOL    HW228563   1.982   1.493   0.092
 9222SOL     OW28564   1.916   3.180   4.223
 9222SOL    HW128565   1.913   3.118   4.302
 9222SOL    HW228566   2.011   3.207   4.206
 9223SOL     OW28567   0.558   2.914   4.971
 9223SOL    HW128568   0.568   2.844   4.900
 9223SOL    HW228569   0.561   2.871   5.061
 9224SOL     OW28570   2.482   4.493   3.417
 9224SOL    HW128571   2.433   4.408   3.436
 9224SOL    HW228572   2.487   4.548   3.501
 9225SOL     OW28573   5.635   5.775   6.268
 9225SOL    HW128574   5.608   5.680   6.251
 9225SOL    HW228575   5.725   5.792   6.229
 9226SOL     OW28576   1.104   0.969   0.902
 9226SOL    HW128577   1.095   1.012   0.992
 9226SOL    HW228578   1.064   0.877   0.906
 9227SOL     OW28579   2.610   4.324   0.344
 9227SOL    HW128580   2.536   4.282   0.291
 9227SOL    HW228581   2.697   4.307   0.298
 9228SOL     OW28582   3.597   3.221   5.340
 9228SOL    HW128583   3.518   3.208   5.280
 9228SOL    HW228584   3.605   3.317   5.366
 9229SOL     OW28585   0.235   4.652   0.237
 9229SOL    HW128586   0.174   4.700   0.174
 9229SOL    HW228587   0.327   4.649   0.199
 9230SOL     OW28588   4.615   1.538   4.919
 9230SOL    HW128589   4.661   1.459   4.961
 9230SOL    HW228590   4.523   1.547   4.955
 9231SOL     OW28591   6.646   5.968   3.289
 9231SOL    HW128592   6.670   5.899   3.221
 9231SOL    HW228593   6.716   6.040   3.290
 9232SOL     OW28594   1.095   4.969   2.381
 9232SOL    HW128595   1.006   5.003   2.413
 9232SOL    HW228596   1.081   4.884   2.330
 9233SOL     OW28597   0.322   6.665   6.912
 9233SOL    HW128598   0.282   6.680   6.821
 9233SOL    HW228599   0.388   6.590   6.907
 9234SOL     OW28600   2.387   4.222   0.204
 9234SOL    HW128601   2.396   4.133   0.249
 9234SOL    HW228602   2.291   4.249   0.203
 9235SOL     OW28603   1.643   2.219   2.810
 9235SOL    HW128604   1.608   2.126   2.815
 9235SOL    HW228605   1.618   2.268   2.894
 9236SOL     OW28606   2.188   3.323   6.740
 9236SOL    HW128607   2.096   3.284   6.735
 9236SOL    HW228608   2.196   3.397   6.673
 9237SOL     OW28609   5.108   5.326   3.336
 9237SOL    HW128610   5.172   5.291   3.267
 9237SOL    HW228611   5.159   5.370   3.410
 9238SOL     OW28612   1.039   2.674   4.556
 9238SOL    HW128613   1.090   2.707   4.635
 9238SOL    HW228614   1.073   2.720   4.474
 9239SOL     OW28615   1.370   4.757   6.806
 9239SOL    HW128616   1.436   4.703   6.857
 9239SOL    HW228617   1.311   4.807   6.869
 9240SOL     OW28618   4.223   1.913   3.181
 9240SOL    HW128619   4.291   1.842   3.161
 9240SOL    HW228620   4.258   2.002   3.150
 9241SOL     OW28621   5.670   6.772   0.990
 9241SOL    HW128622   5.580   6.756   0.950
 9241SOL    HW228623   5.737   6.787   0.917
 9242SOL     OW28624   1.285   2.631   0.715
 9242SOL    HW128625   1.287   2.727   0.743
 9242SOL    HW228626   1.313   2.573   0.792
 9243SOL     OW28627   1.213   0.766   0.231
 9243SOL    HW128628   1.195   0.810   0.143
 9243SOL    HW228629   1.198   0.832   0.304
 9244SOL     OW28630   3.561   6.843   5.879
 9244SOL    HW128631   3.524   6.792   5.801
 9244SOL    HW228632   3.640   6.897   5.848
 9245SOL     OW28633   1.113   4.782   3.729
 9245SOL    HW128634   1.184   4.763   3.662
 9245SOL    HW228635   1.038   4.716   3.718
 9246SOL     OW28636   5.642   0.052   6.531
 9246SOL    HW128637   5.647   0.052   6.631
 9246SOL    HW228638   5.564   0.107   6.501
 9247SOL     OW28639   3.946   5.943   3.291
 9247SOL    HW128640   3.898   5.961   3.377
 9247SOL    HW228641   3.885   5.895   3.228
 9248SOL     OW28642   2.417   0.347   6.495
 9248SOL    HW128643   2.354   0.401   6.441
 9248SOL    HW228644   2.395   0.356   6.592
 9249SOL     OW28645   3.222   6.214   0.995
 9249SOL    HW128646   3.229   6.303   1.038
 9249SOL    HW228647   3.262   6.218   0.903
 9250SOL     OW28648   0.237   2.757   4.100
 9250SOL    HW128649   0.250   2.798   4.009
 9250SOL    HW228650   0.286   2.670   4.104
 9251SOL     OW28651   3.237   2.894   0.678
 9251SOL    HW128652   3.254   2.904   0.776
 9251SOL    HW228653   3.203   2.802   0.659
 9252SOL     OW28654   5.363   1.905   5.174
 9252SOL    HW128655   5.342   1.936   5.081
 9252SOL    HW228656   5.308   1.956   5.240
 9253SOL     OW28657   0.964   5.798   5.160
 9253SOL    HW128658   0.948   5.786   5.062
 9253SOL    HW228659   0.881   5.836   5.202
 9254SOL     OW28660   0.053   4.512   2.773
 9254SOL    HW128661   0.113   4.509   2.853
 9254SOL    HW228662   0.103   4.479   2.693
 9255SOL     OW28663   6.965   4.283   0.556
 9255SOL    HW128664   6.939   4.187   0.565
 9255SOL    HW228665   7.011   4.313   0.640
 9256SOL     OW28666   2.947   6.416   1.074
 9256SOL    HW128667   2.873   6.484   1.073
 9256SOL    HW228668   2.991   6.414   0.984
 9257SOL     OW28669   6.557   5.788   4.367
 9257SOL    HW128670   6.538   5.791   4.465
 9257SOL    HW228671   6.557   5.693   4.336
 9258SOL     OW28672   3.022   4.959   1.069
 9258SOL    HW128673   2.925   4.965   1.093
 9258SOL    HW228674   3.052   4.864   1.073
 9259SOL     OW28675   1.551   2.118   6.957
 9259SOL    HW128676   1.574   2.021   6.965
 9259SOL    HW228677   1.496   2.132   6.874
 9260SOL     OW28678   5.575   3.921   4.910
 9260SOL    HW128679   5.551   3.953   4.818
 9260SOL    HW228680   5.652   3.857   4.904
 9261SOL     OW28681   3.387   2.364   1.673
 9261SOL    HW128682   3.398   2.459   1.642
 9261SOL    HW228683   3.476   2.325   1.696
 9262SOL     OW28684   6.843   6.393   5.227
 9262SOL    HW128685   6.891   6.379   5.140
 9262SOL    HW228686   6.877   6.326   5.294
 9263SOL     OW28687   2.170   4.577   3.704
 9263SOL    HW128688   2.133   4.518   3.633
 9263SOL    HW228689   2.150   4.672   3.683
 9264SOL     OW28690   5.044   4.392   6.851
 9264SOL    HW128691   4.996   4.448   6.784
 9264SOL    HW228692   5.090   4.452   6.917
 9265SOL     OW28693   5.850   1.536   1.074
 9265SOL    HW128694   5.768   1.593   1.073
 9265SOL    HW228695   5.900   1.549   0.988
 9266SOL     OW28696   1.415   4.612   1.324
 9266SOL    HW128697   1.384   4.543   1.259
 9266SOL    HW228698   1.389   4.584   1.417
 9267SOL     OW28699   6.966   0.544   4.242
 9267SOL    HW128700   6.949   0.543   4.144
 9267SOL    HW228701   6.919   0.622   4.283
 9268SOL     OW28702   0.607   0.043   1.519
 9268SOL    HW128703   0.659   0.076   1.598
 9268SOL    HW228704   0.670   0.005   1.451
 9269SOL     OW28705   3.691   1.525   0.027
 9269SOL    HW128706   3.688   1.561   6.958
 9269SOL    HW228707   3.654   1.433   0.028
 9270SOL     OW28708   1.999   0.464   6.190
 9270SOL    HW128709   1.997   0.376   6.143
 9270SOL    HW228710   1.960   0.454   6.282
 9271SOL     OW28711   1.291   5.934   4.833
 9271SOL    HW128712   1.332   6.025   4.839
 9271SOL    HW228713   1.322   5.888   4.751
 9272SOL     OW28714   6.521   6.322   6.394
 9272SOL    HW128715   6.532   6.417   6.365
 9272SOL    HW228716   6.599   6.296   6.451
 9273SOL     OW28717   4.676   4.669   3.515
 9273SOL    HW128718   4.614   4.730   3.563
 9273SOL    HW228719   4.707   4.713   3.431
 9274SOL     OW28720   0.273   3.053   0.820
 9274SOL    HW128721   0.278   3.107   0.736
 9274SOL    HW228722   0.213   2.974   0.805
 9275SOL     OW28723   6.987   0.740   0.511
 9275SOL    HW128724   6.907   0.749   0.451
 9275SOL    HW228725   0.037   0.797   0.478
 9276SOL     OW28726   2.866   5.663   0.196
 9276SOL    HW128727   2.859   5.624   0.288
 9276SOL    HW228728   2.939   5.616   0.146
 9277SOL     OW28729   5.182   5.566   1.311
 9277SOL    HW128730   5.230   5.529   1.232
 9277SOL    HW228731   5.171   5.495   1.380
 9278SOL     OW28732   0.943   0.353   5.420
 9278SOL    HW128733   0.924   0.436   5.368
 9278SOL    HW228734   1.036   0.323   5.402
 9279SOL     OW28735   4.017   5.977   1.508
 9279SOL    HW128736   4.067   6.032   1.441
 9279SOL    HW228737   3.938   6.029   1.541
 9280SOL     OW28738   1.454   6.520   2.610
 9280SOL    HW128739   1.539   6.572   2.599
 9280SOL    HW228740   1.426   6.484   2.522
 9281SOL     OW28741   2.418   5.185   6.956
 9281SOL    HW128742   2.432   5.087   6.942
 9281SOL    HW228743   2.467   5.237   6.886
 9282SOL     OW28744   3.337   0.160   5.334
 9282SOL    HW128745   3.390   0.219   5.273
 9282SOL    HW228746   3.288   0.217   5.400
 9283SOL     OW28747   4.313   6.689   0.898
 9283SOL    HW128748   4.372   6.615   0.933
 9283SOL    HW228749   4.370   6.763   0.862
 9284SOL     OW28750   4.300   3.985   5.332
 9284SOL    HW128751   4.266   3.992   5.426
 9284SOL    HW228752   4.245   3.919   5.281
 9285SOL     OW28753   0.551   5.408   2.708
 9285SOL    HW128754   0.615   5.478   2.739
 9285SOL    HW228755   0.516   5.432   2.617
 9286SOL     OW28756   4.714   6.535   1.370
 9286SOL    HW128757   4.650   6.601   1.409
 9286SOL    HW228758   4.775   6.501   1.442
 9287SOL     OW28759   3.901   3.790   5.577
 9287SOL    HW128760   3.989   3.798   5.622
 9287SOL    HW228761   3.840   3.732   5.631
 9288SOL     OW28762   3.342   1.856   2.634
 9288SOL    HW128763   3.392   1.798   2.570
 9288SOL    HW228764   3.394   1.941   2.650
 9289SOL     OW28765   5.042   6.485   0.686
 9289SOL    HW128766   5.070   6.417   0.618
 9289SOL    HW228767   5.097   6.474   0.768
 9290SOL     OW28768   4.867   1.318   4.171
 9290SOL    HW128769   4.808   1.356   4.242
 9290SOL    HW228770   4.850   1.220   4.162
 9291SOL     OW28771   0.980   4.211   6.408
 9291SOL    HW128772   1.052   4.255   6.355
 9291SOL    HW228773   1.019   4.140   6.466
 9292SOL     OW28774   0.771   1.452   6.861
 9292SOL    HW128775   0.808   1.373   6.812
 9292SOL    HW228776   0.803   1.451   6.956
 9293SOL     OW28777   4.769   2.550   4.337
 9293SOL    HW128778   4.765   2.452   4.316
 9293SOL    HW228779   4.862   2.574   4.364
 9294SOL     OW28780   4.795   0.173   6.585
 9294SOL    HW128781   4.741   0.255   6.567
 9294SOL    HW228782   4.834   0.139   6.499
 9295SOL     OW28783   0.396   0.785   5.032
 9295SOL    HW128784   0.469   0.734   4.987
 9295SOL    HW228785   0.328   0.721   5.068
 9296SOL     OW28786   2.220   4.702   6.451
 9296SOL    HW128787   2.268   4.774   6.401
 9296SOL    HW228788   2.136   4.678   6.402
 9297SOL     OW28789   6.263   6.117   2.320
 9297SOL    HW128790   6.292   6.022   2.311
 9297SOL    HW228791   6.236   6.153   2.231
 9298SOL     OW28792   1.469   4.877   6.571
 9298SOL    HW128793   1.435   4.818   6.645
 9298SOL    HW228794   1.563   4.851   6.549
 9299SOL     OW28795   2.497   2.556   4.609
 9299SOL    HW128796   2.557   2.565   4.530
 9299SOL    HW228797   2.544   2.589   4.691
 9300SOL     OW28798   1.972   5.682   4.804
 9300SOL    HW128799   2.034   5.621   4.853
 9300SOL    HW228800   1.921   5.737   4.870
 9301SOL     OW28801   0.108   4.570   4.886
 9301SOL    HW128802   0.146   4.551   4.795
 9301SOL    HW228803   0.071   4.486   4.925
 9302SOL     OW28804   2.184   3.550   5.360
 9302SOL    HW128805   2.264   3.491   5.369
 9302SOL    HW228806   2.213   3.643   5.337
 9303SOL     OW28807   2.482   4.563   0.121
 9303SOL    HW128808   2.577   4.547   0.095
 9303SOL    HW228809   2.424   4.561   0.040
 9304SOL     OW28810   4.845   4.997   6.772
 9304SOL    HW128811   4.776   4.992   6.700
 9304SOL    HW228812   4.893   5.084   6.766
 9305SOL     OW28813   2.239   1.768   1.420
 9305SOL    HW128814   2.298   1.836   1.464
 9305SOL    HW228815   2.143   1.794   1.433
 9306SOL     OW28816   7.016   6.215   5.334
 9306SOL    HW128817   0.055   6.270   5.280
 9306SOL    HW228818   0.023   6.210   5.429
 9307SOL     OW28819   1.738   3.457   1.473
 9307SOL    HW128820   1.766   3.398   1.398
 9307SOL    HW228821   1.641   3.440   1.495
 9308SOL     OW28822   2.000   3.516   1.871
 9308SOL    HW128823   1.941   3.597   1.877
 9308SOL    HW228824   2.089   3.537   1.913
 9309SOL     OW28825   4.722   5.004   6.322
 9309SOL    HW128826   4.769   4.923   6.286
 9309SOL    HW228827   4.697   5.063   6.246
 9310SOL     OW28828   5.974   6.541   6.971
 9310SOL    HW128829   6.025   6.572   0.027
 9310SOL    HW228830   5.879   6.522   6.996
 9311SOL     OW28831   4.465   3.667   1.313
 9311SOL    HW128832   4.525   3.621   1.249
 9311SOL    HW228833   4.388   3.608   1.336
 9312SOL     OW28834   0.725   2.804   3.351
 9312SOL    HW128835   0.748   2.825   3.256
 9312SOL    HW228836   0.680   2.883   3.393
 9313SOL     OW28837   0.608   0.858   2.068
 9313SOL    HW128838   0.546   0.859   2.146
 9313SOL    HW228839   0.627   0.763   2.041
 9314SOL     OW28840   5.225   3.953   0.567
 9314SOL    HW128841   5.262   3.867   0.601
 9314SOL    HW228842   5.269   3.976   0.480
 9315SOL     OW28843   5.116   6.810   6.018
 9315SOL    HW128844   5.102   6.907   6.039
 9315SOL    HW228845   5.048   6.780   5.952
 9316SOL     OW28846   4.943   0.845   5.806
 9316SOL    HW128847   4.843   0.840   5.801
 9316SOL    HW228848   4.979   0.871   5.716
 9317SOL     OW28849   3.765   5.791   3.084
 9317SOL    HW128850   3.786   5.699   3.114
 9317SOL    HW228851   3.780   5.798   2.985
 9318SOL     OW28852   4.037   6.610   1.600
 9318SOL    HW128853   4.098   6.664   1.542
 9318SOL    HW228854   4.037   6.515   1.569
 9319SOL     OW28855   3.197   2.790   6.465
 9319SOL    HW128856   3.214   2.691   6.464
 9319SOL    HW228857   3.208   2.825   6.558
 9320SOL     OW28858   6.250   6.321   6.986
 9320SOL    HW128859   6.224   6.417   6.999
 9320SOL    HW228860   6.319   6.315   6.914
 9321SOL     OW28861   0.531   3.175   4.919
 9321SOL    HW128862   0.534   3.219   5.009
 9321SOL    HW228863   0.523   3.076   4.932
 9322SOL     OW28864   6.045   3.312   6.833
 9322SOL    HW128865   6.026   3.395   6.886
 9322SOL    HW228866   6.019   3.232   6.886
 9323SOL     OW28867   0.306   1.869   5.818
 9323SOL    HW128868   0.330   1.776   5.846
 9323SOL    HW228869   0.360   1.896   5.738
 9324SOL     OW28870   0.844   4.659   1.958
 9324SOL    HW128871   0.757   4.629   1.997
 9324SOL    HW228872   0.905   4.580   1.948
 9325SOL     OW28873   1.009   4.558   3.351
 9325SOL    HW128874   0.916   4.521   3.353
 9325SOL    HW228875   1.015   4.628   3.279
 9326SOL     OW28876   4.524   4.426   1.683
 9326SOL    HW128877   4.581   4.507   1.689
 9326SOL    HW228878   4.512   4.387   1.775
 9327SOL     OW28879   3.775   0.744   3.218
 9327SOL    HW128880   3.727   0.831   3.224
 9327SOL    HW228881   3.782   0.716   3.123
 9328SOL     OW28882   2.477   0.284   4.131
 9328SOL    HW128883   2.379   0.271   4.148
 9328SOL    HW228884   2.521   0.195   4.125
 9329SOL     OW28885   0.416   5.479   6.496
 9329SOL    HW128886   0.403   5.381   6.483
 9329SOL    HW228887   0.335   5.528   6.464
 9330SOL     OW28888   6.547   6.160   0.041
 9330SOL    HW128889   6.513   6.176   6.973
 9330SOL    HW228890   6.537   6.062   0.063
 9331SOL     OW28891   1.997   3.377   3.618
 9331SOL    HW128892   2.073   3.427   3.661
 9331SOL    HW228893   1.999   3.391   3.519
 9332SOL     OW28894   4.920   5.890   0.599
 9332SOL    HW128895   4.825   5.922   0.598
 9332SOL    HW228896   4.950   5.878   0.694
 9333SOL     OW28897   4.182   3.968   0.615
 9333SOL    HW128898   4.278   3.984   0.637
 9333SOL    HW228899   4.170   3.967   0.516
 9334SOL     OW28900   6.029   5.940   5.801
 9334SOL    HW128901   6.098   5.926   5.872
 9334SOL    HW228902   5.939   5.916   5.837
 9335SOL     OW28903   1.159   3.692   2.105
 9335SOL    HW128904   1.158   3.733   2.197
 9335SOL    HW228905   1.113   3.754   2.041
 9336SOL     OW28906   5.743   6.686   5.502
 9336SOL    HW128907   5.817   6.634   5.544
 9336SOL    HW228908   5.742   6.669   5.403
 9337SOL     OW28909   2.457   0.532   6.170
 9337SOL    HW128910   2.404   0.587   6.234
 9337SOL    HW228911   2.424   0.438   6.172
 9338SOL     OW28912   5.508   6.706   0.062
 9338SOL    HW128913   5.533   6.661   0.149
 9338SOL    HW228914   5.417   6.745   0.070
 9339SOL     OW28915   5.915   3.959   5.569
 9339SOL    HW128916   5.991   3.988   5.628
 9339SOL    HW228917   5.840   4.025   5.576
 9340SOL     OW28918   3.624   5.129   0.764
 9340SOL    HW128919   3.583   5.220   0.760
 9340SOL    HW228920   3.717   5.136   0.799
 9341SOL     OW28921   5.309   4.209   6.403
 9341SOL    HW128922   5.318   4.266   6.321
 9341SOL    HW228923   5.260   4.259   6.473
 9342SOL     OW28924   3.317   0.351   4.030
 9342SOL    HW128925   3.254   0.414   3.984
 9342SOL    HW228926   3.319   0.372   4.128
 9343SOL     OW28927   4.536   4.118   1.357
 9343SOL    HW128928   4.559   4.090   1.450
 9343SOL    HW228929   4.619   4.142   1.307
 9344SOL     OW28930   6.084   6.773   5.232
 9344SOL    HW128931   6.059   6.820   5.147
 9344SOL    HW228932   6.059   6.831   5.310
 9345SOL     OW28933   1.093   5.690   0.144
 9345SOL    HW128934   1.183   5.707   0.105
 9345SOL    HW228935   1.033   5.648   0.075
 9346SOL     OW28936   5.835   6.179   0.877
 9346SOL    HW128937   5.804   6.085   0.896
 9346SOL    HW228938   5.814   6.202   0.782
 9347SOL     OW28939   3.499   5.382   0.819
 9347SOL    HW128940   3.547   5.451   0.874
 9347SOL    HW228941   3.401   5.385   0.840
 9348SOL     OW28942   2.538   5.721   1.590
 9348SOL    HW128943   2.620   5.731   1.534
 9348SOL    HW228944   2.472   5.792   1.566
 9349SOL     OW28945   6.810   5.680   1.941
 9349SOL    HW128946   6.796   5.621   2.020
 9349SOL    HW228947   6.849   5.767   1.971
 9350SOL     OW28948   6.646   0.444   5.854
 9350SOL    HW128949   6.708   0.372   5.885
 9350SOL    HW228950   6.636   0.513   5.925
 9351SOL     OW28951   3.332   2.694   6.139
 9351SOL    HW128952   3.363   2.788   6.151
 9351SOL    HW228953   3.232   2.693   6.129
 9352SOL     OW28954   3.278   2.444   5.807
 9352SOL    HW128955   3.228   2.530   5.821
 9352SOL    HW228956   3.287   2.426   5.710
 9353SOL     OW28957   0.722   3.879   1.865
 9353SOL    HW128958   0.710   3.931   1.950
 9353SOL    HW228959   0.634   3.846   1.833
 9354SOL     OW28960   5.121   1.805   1.496
 9354SOL    HW128961   5.090   1.750   1.419
 9354SOL    HW228962   5.122   1.901   1.470
 9355SOL     OW28963   6.374   0.471   3.083
 9355SOL    HW128964   6.409   0.473   2.990
 9355SOL    HW228965   6.274   0.461   3.081
 9356SOL     OW28966   4.402   4.662   2.310
 9356SOL    HW128967   4.347   4.665   2.226
 9356SOL    HW228968   4.458   4.579   2.310
 9357SOL     OW28969   3.772   3.027   0.931
 9357SOL    HW128970   3.864   2.987   0.922
 9357SOL    HW228971   3.767   3.082   1.014
 9358SOL     OW28972   5.968   4.591   2.225
 9358SOL    HW128973   6.020   4.634   2.151
 9358SOL    HW228974   5.877   4.568   2.192
 9359SOL     OW28975   6.335   3.826   5.981
 9359SOL    HW128976   6.307   3.913   6.022
 9359SOL    HW228977   6.260   3.760   5.989
 9360SOL     OW28978   1.879   0.900   6.788
 9360SOL    HW128979   1.887   0.804   6.762
 9360SOL    HW228980   1.911   0.958   6.713
 9361SOL     OW28981   2.925   7.021   2.346
 9361SOL    HW128982   2.860   0.038   2.282
 9361SOL    HW228983   2.946   6.928   2.317
 9362SOL     OW28984   2.471   1.672   3.070
 9362SOL    HW128985   2.413   1.732   3.126
 9362SOL    HW228986   2.469   1.579   3.107
 9363SOL     OW28987   2.912   6.004   2.024
 9363SOL    HW128988   2.963   5.939   2.079
 9363SOL    HW228989   2.867   5.956   1.949
 9364SOL     OW28990   4.640   4.977   0.028
 9364SOL    HW128991   4.699   4.952   6.976
 9364SOL    HW228992   4.694   5.027   0.097
 9365SOL     OW28993   2.379   1.550   4.942
 9365SOL    HW128994   2.309   1.620   4.932
 9365SOL    HW228995   2.467   1.587   4.910
 9366SOL     OW28996   2.690   1.868   0.644
 9366SOL    HW128997   2.778   1.891   0.603
 9366SOL    HW228998   2.672   1.771   0.632
 9367SOL     OW28999   6.727   5.572   3.250
 9367SOL    HW129000   6.711   5.482   3.290
 9367SOL    HW229001   6.799   5.620   3.302
 9368SOL     OW29002   3.140   2.634   1.318
 9368SOL    HW129003   3.180   2.726   1.324
 9368SOL    HW229004   3.043   2.638   1.339
 9369SOL     OW29005   0.072   2.316   4.552
 9369SOL    HW129006   0.114   2.387   4.496
 9369SOL    HW229007   0.036   2.356   4.636
 9370SOL     OW29008   6.131   1.329   3.152
 9370SOL    HW129009   6.202   1.294   3.212
 9370SOL    HW229010   6.069   1.255   3.127
 9371SOL     OW29011   0.509   6.381   0.584
 9371SOL    HW129012   0.473   6.334   0.503
 9371SOL    HW229013   0.447   6.365   0.661
 9372SOL     OW29014   6.088   6.907   4.996
 9372SOL    HW129015   6.178   6.873   4.969
 9372SOL    HW229016   6.043   6.950   4.917
 9373SOL     OW29017   4.024   1.846   3.349
 9373SOL    HW129018   3.940   1.817   3.303
 9373SOL    HW229019   4.092   1.873   3.281
 9374SOL     OW29020   5.318   3.714   0.644
 9374SOL    HW129021   5.394   3.680   0.588
 9374SOL    HW229022   5.259   3.637   0.670
 9375SOL     OW29023   0.753   1.494   3.573
 9375SOL    HW129024   0.774   1.397   3.559
 9375SOL    HW229025   0.696   1.527   3.497
 9376SOL     OW29026   2.014   3.999   1.779
 9376SOL    HW129027   1.978   3.952   1.698
 9376SOL    HW229028   2.080   3.940   1.825
 9377SOL     OW29029   5.814   5.392   4.341
 9377SOL    HW129030   5.862   5.365   4.257
 9377SOL    HW229031   5.855   5.475   4.377
 9378SOL     OW29032   2.835   0.034   0.376
 9378SOL    HW129033   2.841   0.114   0.317
 9378SOL    HW229034   2.880   0.053   0.463
 9379SOL     OW29035   4.938   4.669   4.207
 9379SOL    HW129036   4.907   4.751   4.158
 9379SOL    HW229037   4.958   4.692   4.302
 9380SOL     OW29038   5.697   6.883   5.715
 9380SOL    HW129039   5.718   6.836   5.630
 9380SOL    HW229040   5.685   6.816   5.788
 9381SOL     OW29041   2.290   1.623   5.800
 9381SOL    HW129042   2.322   1.686   5.729
 9381SOL    HW229043   2.248   1.676   5.874
 9382SOL     OW29044   5.283   2.289   2.982
 9382SOL    HW129045   5.198   2.294   3.034
 9382SOL    HW229046   5.262   2.283   2.884
 9383SOL     OW29047   3.937   5.959   4.358
 9383SOL    HW129048   4.036   5.963   4.370
 9383SOL    HW229049   3.910   5.865   4.338
 9384SOL     OW29050   4.894   5.677   1.519
 9384SOL    HW129051   4.984   5.701   1.556
 9384SOL    HW229052   4.833   5.653   1.594
 9385SOL     OW29053   3.331   1.140   3.302
 9385SOL    HW129054   3.352   1.187   3.217
 9385SOL    HW229055   3.313   1.207   3.374
 9386SOL     OW29056   2.812   0.089   5.443
 9386SOL    HW129057   2.890   0.125   5.391
 9386SOL    HW229058   2.741   0.059   5.380
 9387SOL     OW29059   3.625   6.606   6.894
 9387SOL    HW129060   3.651   6.606   6.797
 9387SOL    HW229061   3.555   6.536   6.909
 9388SOL     OW29062   6.554   0.541   3.245
 9388SOL    HW129063   6.480   0.519   3.181
 9388SOL    HW229064   6.526   0.617   3.303
 9389SOL     OW29065   2.629   0.698   5.767
 9389SOL    HW129066   2.678   0.759   5.704
 9389SOL    HW229067   2.550   0.745   5.805
 9390SOL     OW29068   2.799   5.012   2.350
 9390SOL    HW129069   2.843   5.102   2.355
 9390SOL    HW229070   2.867   4.940   2.361
 9391SOL     OW29071   0.880   1.104   6.251
 9391SOL    HW129072   0.892   1.129   6.155
 9391SOL    HW229073   0.970   1.102   6.296
 9392SOL     OW29074   1.750   6.046   4.330
 9392SOL    HW129075   1.715   6.132   4.365
 9392SOL    HW229076   1.697   6.019   4.249
 9393SOL     OW29077   3.705   2.132   5.403
 9393SOL    HW129078   3.761   2.139   5.320
 9393SOL    HW229079   3.701   2.037   5.433
 9394SOL     OW29080   6.452   2.670   2.373
 9394SOL    HW129081   6.513   2.643   2.298
 9394SOL    HW229082   6.388   2.739   2.340
 9395SOL     OW29083   2.288   3.518   0.535
 9395SOL    HW129084   2.287   3.421   0.508
 9395SOL    HW229085   2.272   3.575   0.454
 9396SOL     OW29086   6.387   0.315   6.045
 9396SOL    HW129087   6.357   0.397   5.996
 9396SOL    HW229088   6.423   0.249   5.979
 9397SOL     OW29089   2.703   0.431   1.094
 9397SOL    HW129090   2.661   0.435   1.004
 9397SOL    HW229091   2.716   0.523   1.130
 9398SOL     OW29092   2.668   1.572   5.968
 9398SOL    HW129093   2.668   1.633   5.888
 9398SOL    HW229094   2.579   1.527   5.975
 9399SOL     OW29095   0.044   0.673   5.621
 9399SOL    HW129096   6.983   0.680   5.570
 9399SOL    HW229097   0.037   0.600   5.689
 9400SOL     OW29098   6.003   2.977   2.521
 9400SOL    HW129099   6.070   2.956   2.450
 9400SOL    HW229100   5.912   2.951   2.489
 9401SOL     OW29101   3.194   6.886   2.951
 9401SOL    HW129102   3.288   6.860   2.977
 9401SOL    HW229103   3.188   6.892   2.851
 9402SOL     OW29104   2.014   5.083   6.263
 9402SOL    HW129105   2.075   5.047   6.333
 9402SOL    HW229106   1.919   5.072   6.293
 9403SOL     OW29107   5.259   1.602   4.107
 9403SOL    HW129108   5.232   1.662   4.183
 9403SOL    HW229109   5.356   1.614   4.088
 9404SOL     OW29110   1.181   4.402   6.783
 9404SOL    HW129111   1.126   4.338   6.836
 9404SOL    HW229112   1.247   4.351   6.727
 9405SOL     OW29113   6.311   6.982   1.163
 9405SOL    HW129114   6.351   6.898   1.125
 9405SOL    HW229115   6.331   6.987   1.261
 9406SOL     OW29116   0.081   1.650   4.814
 9406SOL    HW129117   0.014   1.645   4.888
 9406SOL    HW229118   0.143   1.726   4.832
 9407SOL     OW29119   3.280   5.910   2.799
 9407SOL    HW129120   3.289   5.824   2.849
 9407SOL    HW229121   3.189   5.948   2.816
 9408SOL     OW29122   3.878   1.601   6.281
 9408SOL    HW129123   3.838   1.658   6.210
 9408SOL    HW229124   3.915   1.658   6.353
 9409SOL     OW29125   5.838   3.971   3.647
 9409SOL    HW129126   5.746   3.998   3.676
 9409SOL    HW229127   5.906   4.021   3.700
 9410SOL     OW29128   4.205   6.112   2.634
 9410SOL    HW129129   4.187   6.203   2.596
 9410SOL    HW229130   4.130   6.086   2.695
 9411SOL     OW29131   4.280   5.083   0.323
 9411SOL    HW129132   4.307   5.083   0.226
 9411SOL    HW229133   4.181   5.096   0.330
 9412SOL     OW29134   6.826   2.350   1.206
 9412SOL    HW129135   6.881   2.434   1.211
 9412SOL    HW229136   6.812   2.326   1.110
 9413SOL     OW29137   3.747   6.102   5.718
 9413SOL    HW129138   3.663   6.145   5.684
 9413SOL    HW229139   3.817   6.106   5.647
 9414SOL     OW29140   2.809   1.605   2.023
 9414SOL    HW129141   2.744   1.563   2.085
 9414SOL    HW229142   2.773   1.692   1.990
 9415SOL     OW29143   2.985   6.781   2.174
 9415SOL    HW129144   2.996   6.811   2.079
 9415SOL    HW229145   2.915   6.710   2.179
 9416SOL     OW29146   1.043   2.225   1.540
 9416SOL    HW129147   0.957   2.245   1.492
 9416SOL    HW229148   1.042   2.130   1.570
 9417SOL     OW29149   2.560   5.660   5.359
 9417SOL    HW129150   2.611   5.576   5.377
 9417SOL    HW229151   2.566   5.682   5.262
 9418SOL     OW29152   2.990   5.366   0.953
 9418SOL    HW129153   2.984   5.277   0.906
 9418SOL    HW229154   3.072   5.414   0.921
 9419SOL     OW29155   2.727   6.572   5.236
 9419SOL    HW129156   2.683   6.662   5.233
 9419SOL    HW229157   2.815   6.580   5.282
 9420SOL     OW29158   0.160   1.242   4.420
 9420SOL    HW129159   0.247   1.216   4.462
 9420SOL    HW229160   0.094   1.265   4.491
 9421SOL     OW29161   1.051   4.515   5.495
 9421SOL    HW129162   1.129   4.462   5.529
 9421SOL    HW229163   1.073   4.552   5.405
 9422SOL     OW29164   4.922   0.678   2.419
 9422SOL    HW129165   4.960   0.706   2.507
 9422SOL    HW229166   4.873   0.591   2.431
 9423SOL     OW29167   3.977   0.830   4.309
 9423SOL    HW129168   3.893   0.881   4.328
 9423SOL    HW229169   4.044   0.891   4.268
 9424SOL     OW29170   3.541   6.296   4.573
 9424SOL    HW129171   3.638   6.291   4.600
 9424SOL    HW229172   3.513   6.392   4.567
 9425SOL     OW29173   1.010   3.147   4.660
 9425SOL    HW129174   0.948   3.080   4.620
 9425SOL    HW229175   0.962   3.234   4.673
 9426SOL     OW29176   3.281   0.144   6.822
 9426SOL    HW129177   3.376   0.161   6.848
 9426SOL    HW229178   3.255   0.208   6.749
 9427SOL     OW29179   3.110   5.467   4.744
 9427SOL    HW129180   3.192   5.479   4.799
 9427SOL    HW229181   3.029   5.480   4.801
 9428SOL     OW29182   5.524   0.124   2.907
 9428SOL    HW129183   5.480   0.127   2.817
 9428SOL    HW229184   5.454   0.113   2.978
 9429SOL     OW29185   0.452   4.229   2.572
 9429SOL    HW129186   0.485   4.178   2.651
 9429SOL    HW229187   0.472   4.178   2.488
 9430SOL     OW29188   6.861   6.961   1.862
 9430SOL    HW129189   6.913   6.878   1.842
 9430SOL    HW229190   6.783   6.967   1.800
 9431SOL     OW29191   6.670   4.239   1.439
 9431SOL    HW129192   6.660   4.147   1.478
 9431SOL    HW229193   6.711   4.300   1.507
 9432SOL     OW29194   6.674   6.850   3.187
 9432SOL    HW129195   6.641   6.758   3.209
 9432SOL    HW229196   6.596   6.908   3.161
 9433SOL     OW29197   3.407   4.745   5.337
 9433SOL    HW129198   3.317   4.716   5.305
 9433SOL    HW229199   3.452   4.800   5.266
 9434SOL     OW29200   5.199   5.072   2.610
 9434SOL    HW129201   5.123   5.037   2.665
 9434SOL    HW229202   5.270   5.107   2.671
 9435SOL     OW29203   1.562   0.884   4.239
 9435SOL    HW129204   1.576   0.840   4.328
 9435SOL    HW229205   1.473   0.928   4.237
 9436SOL     OW29206   2.427   3.516   0.241
 9436SOL    HW129207   2.525   3.536   0.240
 9436SOL    HW229208   2.375   3.602   0.234
 9437SOL     OW29209   1.515   5.033   3.640
 9437SOL    HW129210   1.471   5.013   3.726
 9437SOL    HW229211   1.477   5.118   3.601
 9438SOL     OW29212   1.000   6.466   2.083
 9438SOL    HW129213   1.014   6.542   2.145
 9438SOL    HW229214   0.931   6.490   2.015
 9439SOL     OW29215   0.419   2.473   2.403
 9439SOL    HW129216   0.440   2.569   2.388
 9439SOL    HW229217   0.448   2.419   2.324
 9440SOL     OW29218   5.188   6.357   6.252
 9440SOL    HW129219   5.181   6.455   6.271
 9440SOL    HW229220   5.239   6.344   6.166
 9441SOL     OW29221   1.599   5.152   5.353
 9441SOL    HW129222   1.580   5.173   5.257
 9441SOL    HW229223   1.518   5.110   5.394
 9442SOL     OW29224   6.838   3.150   1.289
 9442SOL    HW129225   6.907   3.110   1.229
 9442SOL    HW229226   6.762   3.086   1.300
 9443SOL     OW29227   1.902   3.888   1.414
 9443SOL    HW129228   1.933   3.900   1.320
 9443SOL    HW229229   1.894   3.790   1.434
 9444SOL     OW29230   0.353   3.536   0.247
 9444SOL    HW129231   0.310   3.554   0.335
 9444SOL    HW229232   0.372   3.438   0.239
 9445SOL     OW29233   5.333   3.661   1.383
 9445SOL    HW129234   5.430   3.635   1.378
 9445SOL    HW229235   5.314   3.733   1.316
 9446SOL     OW29236   6.278   5.951   1.873
 9446SOL    HW129237   6.303   5.886   1.945
 9446SOL    HW229238   6.179   5.961   1.870
 9447SOL     OW29239   5.885   3.697   2.162
 9447SOL    HW129240   5.948   3.701   2.085
 9447SOL    HW229241   5.791   3.707   2.129
 9448SOL     OW29242   5.863   6.676   0.251
 9448SOL    HW129243   5.954   6.675   0.209
 9448SOL    HW229244   5.800   6.623   0.194
 9449SOL     OW29245   6.058   5.040   5.729
 9449SOL    HW129246   5.982   4.986   5.764
 9449SOL    HW229247   6.067   5.124   5.783
 9450SOL     OW29248   3.112   4.946   4.644
 9450SOL    HW129249   3.195   4.891   4.638
 9450SOL    HW229250   3.042   4.906   4.585
 9451SOL     OW29251   4.306   5.309   6.369
 9451SOL    HW129252   4.296   5.214   6.342
 9451SOL    HW229253   4.400   5.339   6.353
 9452SOL     OW29254   2.474   4.847   1.686
 9452SOL    HW129255   2.472   4.932   1.738
 9452SOL    HW229256   2.561   4.800   1.703
 9453SOL     OW29257   2.802   5.509   2.831
 9453SOL    HW129258   2.761   5.578   2.772
 9453SOL    HW229259   2.735   5.480   2.899
 9454SOL     OW29260   1.617   3.399   5.760
 9454SOL    HW129261   1.618   3.342   5.678
 9454SOL    HW229262   1.709   3.434   5.778
 9455SOL     OW29263   3.392   1.635   2.333
 9455SOL    HW129264   3.464   1.696   2.366
 9455SOL    HW229265   3.328   1.686   2.275
 9456SOL     OW29266   1.140   3.727   1.253
 9456SOL    HW129267   1.203   3.797   1.218
 9456SOL    HW229268   1.048   3.745   1.219
 9457SOL     OW29269   1.032   3.250   0.259
 9457SOL    HW129270   0.984   3.260   0.172
 9457SOL    HW229271   1.129   3.272   0.246
 9458SOL     OW29272   6.992   5.466   5.177
 9458SOL    HW129273   0.053   5.438   5.134
 9458SOL    HW229274   7.004   5.471   5.276
 9459SOL     OW29275   6.294   5.813   1.605
 9459SOL    HW129276   6.271   5.880   1.676
 9459SOL    HW229277   6.363   5.750   1.640
 9460SOL     OW29278   0.886   1.744   5.272
 9460SOL    HW129279   0.843   1.739   5.182
 9460SOL    HW229280   0.985   1.742   5.262
 9461SOL     OW29281   0.977   0.902   3.917
 9461SOL    HW129282   0.985   0.808   3.951
 9461SOL    HW229283   0.946   0.962   3.991
 9462SOL     OW29284   1.319   2.539   2.308
 9462SOL    HW129285   1.280   2.542   2.400
 9462SOL    HW229286   1.258   2.587   2.244
 9463SOL     OW29287   5.933   1.413   0.089
 9463SOL    HW129288   6.007   1.457   0.141
 9463SOL    HW229289   5.877   1.358   0.152
 9464SOL     OW29290   5.816   6.935   6.221
 9464SOL    HW129291   5.855   7.015   6.267
 9464SOL    HW229292   5.736   6.963   6.168
 9465SOL     OW29293   6.299   0.472   4.204
 9465SOL    HW129294   6.373   0.414   4.238
 9465SOL    HW229295   6.324   0.568   4.216
 9466SOL     OW29296   2.758   2.680   6.334
 9466SOL    HW129297   2.706   2.732   6.266
 9466SOL    HW229298   2.822   2.741   6.381
 9467SOL     OW29299   1.936   2.918   2.482
 9467SOL    HW129300   1.950   2.944   2.387
 9467SOL    HW229301   1.984   2.832   2.501
 9468SOL     OW29302   0.101   3.089   5.543
 9468SOL    HW129303   0.193   3.093   5.505
 9468SOL    HW229304   0.033   3.092   5.470
 9469SOL     OW29305   6.065   5.389   2.533
 9469SOL    HW129306   6.128   5.397   2.455
 9469SOL    HW229307   6.109   5.427   2.615
 9470SOL     OW29308   4.443   3.666   0.580
 9470SOL    HW129309   4.521   3.726   0.563
 9470SOL    HW229310   4.473   3.584   0.629
 9471SOL     OW29311   0.335   2.051   5.525
 9471SOL    HW129312   0.377   2.131   5.568
 9471SOL    HW229313   0.403   2.004   5.469
 9472SOL     OW29314   5.340   4.561   4.351
 9472SOL    HW129315   5.339   4.462   4.333
 9472SOL    HW229316   5.431   4.589   4.379
 9473SOL     OW29317   2.644   5.501   5.922
 9473SOL    HW129318   2.582   5.561   5.870
 9473SOL    HW229319   2.700   5.555   5.984
 9474SOL     OW29320   4.447   4.975   2.074
 9474SOL    HW129321   4.350   4.993   2.088
 9474SOL    HW229322   4.492   4.961   2.162
 9475SOL     OW29323   2.656   3.705   1.401
 9475SOL    HW129324   2.678   3.766   1.477
 9475SOL    HW229325   2.573   3.654   1.422
 9476SOL     OW29326   3.799   3.201   5.151
 9476SOL    HW129327   3.816   3.297   5.130
 9476SOL    HW229328   3.739   3.194   5.230
 9477SOL     OW29329   1.084   2.760   1.371
 9477SOL    HW129330   1.078   2.860   1.367
 9477SOL    HW229331   1.173   2.731   1.335
 9478SOL     OW29332   5.727   4.825   5.371
 9478SOL    HW129333   5.679   4.799   5.287
 9478SOL    HW229334   5.684   4.779   5.449
 9479SOL     OW29335   6.194   5.594   6.406
 9479SOL    HW129336   6.162   5.509   6.447
 9479SOL    HW229337   6.202   5.664   6.476
 9480SOL     OW29338   5.645   4.762   6.971
 9480SOL    HW129339   5.635   4.821   0.027
 9480SOL    HW229340   5.740   4.732   6.964
 9481SOL     OW29341   6.907   3.344   1.604
 9481SOL    HW129342   6.947   3.291   1.678
 9481SOL    HW229343   6.828   3.395   1.638
 9482SOL     OW29344   4.772   1.118   2.256
 9482SOL    HW129345   4.861   1.072   2.264
 9482SOL    HW229346   4.734   1.132   2.348
 9483SOL     OW29347   1.571   1.783   0.104
 9483SOL    HW129348   1.606   1.693   0.130
 9483SOL    HW229349   1.598   1.802   0.009
 9484SOL     OW29350   6.690   1.234   3.964
 9484SOL    HW129351   6.600   1.278   3.969
 9484SOL    HW229352   6.754   1.282   4.024
 9485SOL     OW29353   1.128   0.763   2.561
 9485SOL    HW129354   1.141   0.859   2.587
 9485SOL    HW229355   1.031   0.745   2.549
 9486SOL     OW29356   3.023   5.868   1.299
 9486SOL    HW129357   3.001   5.948   1.243
 9486SOL    HW229358   3.122   5.858   1.305
 9487SOL     OW29359   3.619   3.832   3.839
 9487SOL    HW129360   3.655   3.822   3.746
 9487SOL    HW229361   3.519   3.828   3.836
 9488SOL     OW29362   1.146   6.401   1.218
 9488SOL    HW129363   1.222   6.406   1.154
 9488SOL    HW229364   1.061   6.384   1.167
 9489SOL     OW29365   3.907   4.849   1.110
 9489SOL    HW129366   3.946   4.796   1.185
 9489SOL    HW229367   3.921   4.800   1.024
 9490SOL     OW29368   5.107   1.005   1.713
 9490SOL    HW129369   5.080   1.011   1.617
 9490SOL    HW229370   5.133   1.096   1.747
 9491SOL     OW29371   5.821   5.114   5.395
 9491SOL    HW129372   5.842   5.017   5.411
 9491SOL    HW229373   5.876   5.148   5.320
 9492SOL     OW29374   3.317   4.366   1.611
 9492SOL    HW129375   3.413   4.382   1.635
 9492SOL    HW229376   3.285   4.282   1.654
 9493SOL     OW29377   4.654   6.051   2.697
 9493SOL    HW129378   4.596   6.109   2.640
 9493SOL    HW229379   4.719   6.107   2.748
 9494SOL     OW29380   4.865   3.080   5.812
 9494SOL    HW129381   4.915   3.106   5.894
 9494SOL    HW229382   4.781   3.133   5.805
 9495SOL     OW29383   5.893   2.073   5.041
 9495SOL    HW129384   5.892   2.132   4.960
 9495SOL    HW229385   5.883   2.128   5.123
 9496SOL     OW29386   5.475   3.926   0.024
 9496SOL    HW129387   5.514   4.009   7.008
 9496SOL    HW229388   5.506   3.846   6.996
 9497SOL     OW29389   5.542   5.528   6.832
 9497SOL    HW129390   5.615   5.494   6.891
 9497SOL    HW229391   5.488   5.596   6.882
 9498SOL     OW29392   3.514   0.234   6.137
 9498SOL    HW129393   3.593   0.282   6.176
 9498SOL    HW229394   3.503   0.262   6.041
 9499SOL     OW29395   2.772   3.882   5.510
 9499SOL    HW129396   2.789   3.789   5.542
 9499SOL    HW229397   2.676   3.892   5.484
 9500SOL     OW29398   4.061   6.204   1.852
 9500SOL    HW129399   4.159   6.222   1.842
 9500SOL    HW229400   4.047   6.114   1.892
 9501SOL     OW29401   3.623   1.189   4.356
 9501SOL    HW129402   3.621   1.220   4.451
 9501SOL    HW229403   3.649   1.266   4.297
 9502SOL     OW29404   6.260   2.403   5.194
 9502SOL    HW129405   6.349   2.417   5.150
 9502SOL    HW229406   6.189   2.394   5.124
 9503SOL     OW29407   1.025   0.052   1.808
 9503SOL    HW129408   1.072   0.135   1.838
 9503SOL    HW229409   0.982   0.008   1.887
 9504SOL     OW29410   0.349   3.029   0.385
 9504SOL    HW129411   0.444   3.023   0.417
 9504SOL    HW229412   0.314   2.937   0.368
 9505SOL     OW29413   6.325   3.345   3.296
 9505SOL    HW129414   6.376   3.286   3.359
 9505SOL    HW229415   6.358   3.439   3.306
 9506SOL     OW29416   0.027   3.834   0.381
 9506SOL    HW129417   0.058   3.765   0.316
 9506SOL    HW229418   6.953   3.843   0.375
 9507SOL     OW29419   0.912   1.630   3.282
 9507SOL    HW129420   0.932   1.722   3.248
 9507SOL    HW229421   0.952   1.619   3.373
 9508SOL     OW29422   5.599   1.487   0.712
 9508SOL    HW129423   5.545   1.488   0.796
 9508SOL    HW229424   5.618   1.581   0.684
 9509SOL     OW29425   2.314   6.592   5.677
 9509SOL    HW129426   2.299   6.631   5.768
 9509SOL    HW229427   2.289   6.495   5.679
 9510SOL     OW29428   6.263   4.748   3.062
 9510SOL    HW129429   6.284   4.656   3.028
 9510SOL    HW229430   6.181   4.744   3.119
 9511SOL     OW29431   0.650   2.339   0.124
 9511SOL    HW129432   0.623   2.298   0.211
 9511SOL    HW229433   0.750   2.340   0.118
 9512SOL     OW29434   1.086   2.292   4.146
 9512SOL    HW129435   1.037   2.332   4.223
 9512SOL    HW229436   1.035   2.308   4.061
 9513SOL     OW29437   2.129   3.867   4.179
 9513SOL    HW129438   2.196   3.929   4.219
 9513SOL    HW229439   2.145   3.774   4.213
 9514SOL     OW29440   1.970   3.480   0.277
 9514SOL    HW129441   2.020   3.522   0.201
 9514SOL    HW229442   1.977   3.538   0.358
 9515SOL     OW29443   1.762   6.221   6.401
 9515SOL    HW129444   1.787   6.219   6.498
 9515SOL    HW229445   1.725   6.132   6.374
 9516SOL     OW29446   5.479   3.883   4.067
 9516SOL    HW129447   5.441   3.794   4.094
 9516SOL    HW229448   5.408   3.935   4.019
 9517SOL     OW29449   0.446   5.580   1.656
 9517SOL    HW129450   0.439   5.546   1.562
 9517SOL    HW229451   0.512   5.654   1.660
 9518SOL     OW29452   0.749   2.585   6.329
 9518SOL    HW129453   0.681   2.512   6.339
 9518SOL    HW229454   0.756   2.636   6.414
 9519SOL     OW29455   3.169   3.714   2.897
 9519SOL    HW129456   3.116   3.795   2.920
 9519SOL    HW229457   3.266   3.732   2.911
 9520SOL     OW29458   0.002   0.473   5.298
 9520SOL    HW129459   6.950   0.469   5.362
 9520SOL    HW229460   0.013   0.567   5.266
 9521SOL     OW29461   3.365   0.503   0.738
 9521SOL    HW129462   3.311   0.419   0.736
 9521SOL    HW229463   3.407   0.517   0.648
 9522SOL     OW29464   3.903   6.082   1.177
 9522SOL    HW129465   3.972   6.017   1.144
 9522SOL    HW229466   3.813   6.037   1.175
 9523SOL     OW29467   2.531   5.326   4.183
 9523SOL    HW129468   2.530   5.305   4.281
 9523SOL    HW229469   2.482   5.255   4.133
 9524SOL     OW29470   1.872   4.159   1.481
 9524SOL    HW129471   1.936   4.201   1.545
 9524SOL    HW229472   1.906   4.069   1.454
 9525SOL     OW29473   1.785   2.719   5.453
 9525SOL    HW129474   1.806   2.642   5.393
 9525SOL    HW229475   1.774   2.686   5.547
 9526SOL     OW29476   5.431   5.232   6.790
 9526SOL    HW129477   5.465   5.319   6.756
 9526SOL    HW229478   5.331   5.230   6.784
 9527SOL     OW29479   3.639   6.786   3.174
 9527SOL    HW129480   3.629   6.717   3.246
 9527SOL    HW229481   3.736   6.803   3.157
 9528SOL     OW29482   5.937   1.527   0.790
 9528SOL    HW129483   5.881   1.467   0.734
 9528SOL    HW229484   5.973   1.602   0.734
 9529SOL     OW29485   6.350   1.980   1.693
 9529SOL    HW129486   6.379   1.886   1.715
 9529SOL    HW229487   6.364   1.997   1.596
 9530SOL     OW29488   0.468   5.534   3.763
 9530SOL    HW129489   0.526   5.452   3.759
 9530SOL    HW229490   0.506   5.599   3.829
 9531SOL     OW29491   3.661   4.895   3.015
 9531SOL    HW129492   3.584   4.921   3.073
 9531SOL    HW229493   3.705   4.814   3.053
 9532SOL     OW29494   5.941   5.562   2.340
 9532SOL    HW129495   5.854   5.556   2.290
 9532SOL    HW229496   5.923   5.562   2.439
 9533SOL     OW29497   2.227   5.563   3.638
 9533SOL    HW129498   2.250   5.588   3.732
 9533SOL    HW229499   2.179   5.476   3.638
 9534SOL     OW29500   5.652   4.512   5.008
 9534SOL    HW129501   5.645   4.542   4.913
 9534SOL    HW229502   5.726   4.445   5.016
 9535SOL     OW29503   0.968   1.320   5.828
 9535SOL    HW129504   0.913   1.253   5.878
 9535SOL    HW229505   0.953   1.309   5.730
 9536SOL     OW29506   3.459   3.926   4.537
 9536SOL    HW129507   3.455   3.937   4.438
 9536SOL    HW229508   3.504   3.840   4.560
 9537SOL     OW29509   1.584   0.971   3.780
 9537SOL    HW129510   1.615   0.888   3.735
 9537SOL    HW229511   1.497   1.001   3.741
 9538SOL     OW29512   3.310   0.617   4.622
 9538SOL    HW129513   3.230   0.602   4.565
 9538SOL    HW229514   3.288   0.598   4.718
 9539SOL     OW29515   3.737   2.937   3.262
 9539SOL    HW129516   3.816   2.885   3.230
 9539SOL    HW229517   3.719   3.012   3.199
 9540SOL     OW29518   4.610   5.003   3.905
 9540SOL    HW129519   4.585   5.058   3.826
 9540SOL    HW229520   4.643   4.913   3.874
 9541SOL     OW29521   1.838   5.768   5.025
 9541SOL    HW129522   1.831   5.861   5.062
 9541SOL    HW229523   1.747   5.731   5.010
 9542SOL     OW29524   5.395   4.802   4.174
 9542SOL    HW129525   5.485   4.834   4.144
 9542SOL    HW229526   5.405   4.719   4.228
 9543SOL     OW29527   2.730   1.054   5.709
 9543SOL    HW129528   2.806   1.098   5.757
 9543SOL    HW229529   2.761   0.968   5.668
 9544SOL     OW29530   5.476   3.911   3.483
 9544SOL    HW129531   5.451   3.930   3.577
 9544SOL    HW229532   5.402   3.863   3.437
 9545SOL     OW29533   0.915   4.916   1.956
 9545SOL    HW129534   1.012   4.910   1.933
 9545SOL    HW229535   0.871   4.829   1.938
 9546SOL     OW29536   2.891   1.530   6.152
 9546SOL    HW129537   2.823   1.513   6.081
 9546SOL    HW229538   2.933   1.443   6.179
 9547SOL     OW29539   3.629   6.288   3.792
 9547SOL    HW129540   3.567   6.360   3.823
 9547SOL    HW229541   3.621   6.279   3.692
 9548SOL     OW29542   1.066   4.916   6.643
 9548SOL    HW129543   1.086   4.832   6.592
 9548SOL    HW229544   1.032   4.893   6.734
 9549SOL     OW29545   3.841   1.870   2.387
 9549SOL    HW129546   3.824   1.880   2.289
 9549SOL    HW229547   3.815   1.953   2.435
 9550SOL     OW29548   5.462   2.665   1.471
 9550SOL    HW129549   5.454   2.669   1.570
 9550SOL    HW229550   5.492   2.754   1.436
 9551SOL     OW29551   6.279   2.128   6.344
 9551SOL    HW129552   6.364   2.172   6.370
 9551SOL    HW229553   6.217   2.196   6.303
 9552SOL     OW29554   2.340   1.053   6.390
 9552SOL    HW129555   2.336   1.084   6.485
 9552SOL    HW229556   2.432   1.069   6.353
 9553SOL     OW29557   5.403   2.227   0.182
 9553SOL    HW129558   5.315   2.215   0.136
 9553SOL    HW229559   5.411   2.322   0.212
 9554SOL     OW29560   2.643   6.470   4.366
 9554SOL    HW129561   2.684   6.483   4.456
 9554SOL    HW229562   2.712   6.489   4.295
 9555SOL     OW29563   6.696   1.024   3.560
 9555SOL    HW129564   6.752   1.002   3.480
 9555SOL    HW229565   6.753   1.024   3.642
 9556SOL     OW29566   2.115   4.093   0.993
 9556SOL    HW129567   2.091   4.165   0.927
 9556SOL    HW229568   2.214   4.083   0.997
 9557SOL     OW29569   5.129   0.619   1.826
 9557SOL    HW129570   5.160   0.578   1.741
 9557SOL    HW229571   5.116   0.548   1.895
 9558SOL     OW29572   5.670   6.269   5.955
 9558SOL    HW129573   5.717   6.277   6.043
 9558SOL    HW229574   5.636   6.175   5.944
 9559SOL     OW29575   1.329   3.656   0.033
 9559SOL    HW129576   1.368   3.734   0.083
 9559SOL    HW229577   1.283   3.595   0.097
 9560SOL     OW29578   3.561   0.420   1.809
 9560SOL    HW129579   3.540   0.504   1.858
 9560SOL    HW229580   3.505   0.345   1.845
 9561SOL     OW29581   0.813   0.907   1.153
 9561SOL    HW129582   0.839   0.811   1.150
 9561SOL    HW229583   0.781   0.935   1.062
 9562SOL     OW29584   2.709   5.444   3.566
 9562SOL    HW129585   2.679   5.536   3.592
 9562SOL    HW229586   2.733   5.442   3.469
 9563SOL     OW29587   0.701   6.253   0.356
 9563SOL    HW129588   0.664   6.294   0.273
 9563SOL    HW229589   0.708   6.322   0.428
 9564SOL     OW29590   1.768   0.782   1.051
 9564SOL    HW129591   1.684   0.769   1.104
 9564SOL    HW229592   1.745   0.786   0.954
 9565SOL     OW29593   3.644   0.784   3.715
 9565SOL    HW129594   3.642   0.859   3.649
 9565SOL    HW229595   3.656   0.820   3.807
 9566SOL     OW29596   2.358   6.773   0.654
 9566SOL    HW129597   2.402   6.742   0.570
 9566SOL    HW229598   2.375   6.706   0.727
 9567SOL     OW29599   0.059   4.829   0.403
 9567SOL    HW129600   0.079   4.733   0.388
 9567SOL    HW229601   0.055   4.876   0.314
 9568SOL     OW29602   4.338   1.797   6.881
 9568SOL    HW129603   4.347   1.729   6.954
 9568SOL    HW229604   4.244   1.796   6.846
 9569SOL     OW29605   6.052   0.267   1.903
 9569SOL    HW129606   6.029   0.345   1.961
 9569SOL    HW229607   6.088   0.299   1.816
 9570SOL     OW29608   0.233   3.204   1.046
 9570SOL    HW129609   0.170   3.276   1.016
 9570SOL    HW229610   0.248   3.140   0.971
 9571SOL     OW29611   2.465   2.796   6.266
 9571SOL    HW129612   2.498   2.890   6.275
 9571SOL    HW229613   2.404   2.776   6.342
 9572SOL     OW29614   2.290   4.176   3.420
 9572SOL    HW129615   2.311   4.167   3.517
 9572SOL    HW229616   2.271   4.086   3.381
 9573SOL     OW29617   6.794   0.939   5.275
 9573SOL    HW129618   6.877   0.911   5.227
 9573SOL    HW229619   6.740   0.999   5.216
 9574SOL     OW29620   4.117   2.946   1.463
 9574SOL    HW129621   4.026   2.988   1.467
 9574SOL    HW229622   4.126   2.880   1.538
 9575SOL     OW29623   5.755   6.700   1.831
 9575SOL    HW129624   5.758   6.604   1.858
 9575SOL    HW229625   5.677   6.715   1.771
 9576SOL     OW29626   1.285   1.605   0.056
 9576SOL    HW129627   1.328   1.516   0.048
 9576SOL    HW229628   1.289   1.636   0.151
 9577SOL     OW29629   0.099   6.109   1.302
 9577SOL    HW129630   0.008   6.129   1.268
 9577SOL    HW229631   0.107   6.011   1.320
 9578SOL     OW29632   1.300   2.711   3.324
 9578SOL    HW129633   1.283   2.777   3.251
 9578SOL    HW229634   1.335   2.626   3.285
 9579SOL     OW29635   5.865   6.930   1.941
 9579SOL    HW129636   5.824   6.851   1.895
 9579SOL    HW229637   5.831   6.935   2.035
 9580SOL     OW29638   5.052   4.691   1.074
 9580SOL    HW129639   5.023   4.601   1.108
 9580SOL    HW229640   5.148   4.706   1.099
 9581SOL     OW29641   6.340   0.485   6.960
 9581SOL    HW129642   6.322   0.387   6.959
 9581SOL    HW229643   6.434   0.502   6.989
 9582SOL     OW29644   3.808   5.630   3.968
 9582SOL    HW129645   3.819   5.531   3.969
 9582SOL    HW229646   3.740   5.657   4.036
 9583SOL     OW29647   3.263   4.805   1.830
 9583SOL    HW129648   3.351   4.761   1.844
 9583SOL    HW229649   3.203   4.745   1.777
 9584SOL     OW29650   1.755   4.216   4.624
 9584SOL    HW129651   1.802   4.170   4.699
 9584SOL    HW229652   1.672   4.165   4.601
 9585SOL     OW29653   5.231   6.105   1.483
 9585SOL    HW129654   5.170   6.047   1.430
 9585SOL    HW229655   5.269   6.054   1.559
 9586SOL     OW29656   4.423   5.078   1.497
 9586SOL    HW129657   4.343   5.132   1.524
 9586SOL    HW229658   4.448   5.102   1.403
 9587SOL     OW29659   2.417   6.441   1.620
 9587SOL    HW129660   2.407   6.413   1.524
 9587SOL    HW229661   2.507   6.413   1.653
 9588SOL     OW29662   6.270   6.133   0.742
 9588SOL    HW129663   6.233   6.109   0.832
 9588SOL    HW229664   6.203   6.188   0.692
 9589SOL     OW29665   1.549   3.343   6.318
 9589SOL    HW129666   1.460   3.388   6.314
 9589SOL    HW229667   1.539   3.247   6.291
 9590SOL     OW29668   5.746   1.837   1.895
 9590SOL    HW129669   5.822   1.894   1.925
 9590SOL    HW229670   5.777   1.742   1.886
 9591SOL     OW29671   3.644   6.991   6.362
 9591SOL    HW129672   3.627   7.001   6.264
 9591SOL    HW229673   3.567   0.003   6.413
 9592SOL     OW29674   2.655   4.366   6.391
 9592SOL    HW129675   2.741   4.400   6.353
 9592SOL    HW229676   2.672   4.323   6.479
 9593SOL     OW29677   1.934   1.228   5.430
 9593SOL    HW129678   1.942   1.182   5.518
 9593SOL    HW229679   1.995   1.184   5.364
 9594SOL     OW29680   2.349   6.285   3.992
 9594SOL    HW129681   2.355   6.320   4.086
 9594SOL    HW229682   2.278   6.215   3.987
 9595SOL     OW29683   0.504   3.067   3.794
 9595SOL    HW129684   0.453   3.062   3.881
 9595SOL    HW229685   0.460   3.135   3.735
 9596SOL     OW29686   0.466   5.537   1.394
 9596SOL    HW129687   0.561   5.506   1.393
 9596SOL    HW229688   0.408   5.467   1.352
 9597SOL     OW29689   0.984   4.396   2.017
 9597SOL    HW129690   0.932   4.324   1.970
 9597SOL    HW229691   0.997   4.371   2.113
 9598SOL     OW29692   1.611   3.811   2.906
 9598SOL    HW129693   1.557   3.755   2.843
 9598SOL    HW229694   1.563   3.896   2.924
 9599SOL     OW29695   3.288   6.900   3.732
 9599SOL    HW129696   3.362   6.942   3.784
 9599SOL    HW229697   3.322   6.818   3.685
 9600SOL     OW29698   2.969   0.490   0.901
 9600SOL    HW129699   3.017   0.404   0.911
 9600SOL    HW229700   2.975   0.542   0.986
 9601SOL     OW29701   6.462   4.701   1.159
 9601SOL    HW129702   6.557   4.697   1.192
 9601SOL    HW229703   6.416   4.616   1.183
 9602SOL     OW29704   4.553   4.635   5.672
 9602SOL    HW129705   4.514   4.669   5.586
 9602SOL    HW229706   4.592   4.711   5.724
 9603SOL     OW29707   5.617   6.464   5.790
 9603SOL    HW129708   5.660   6.535   5.846
 9603SOL    HW229709   5.622   6.376   5.838
 9604SOL     OW29710   5.048   0.793   1.531
 9604SOL    HW129711   4.952   0.821   1.524
 9604SOL    HW229712   5.066   0.758   1.623
 9605SOL     OW29713   6.893   5.089   3.029
 9605SOL    HW129714   6.868   5.178   2.992
 9605SOL    HW229715   6.991   5.075   3.020
 9606SOL     OW29716   1.049   1.530   6.907
 9606SOL    HW129717   0.983   1.605   6.902
 9606SOL    HW229718   1.128   1.559   6.960
 9607SOL     OW29719   2.905   1.786   6.849
 9607SOL    HW129720   2.817   1.762   6.890
 9607SOL    HW229721   2.921   1.729   6.768
 9608SOL     OW29722   6.856   4.394   2.660
 9608SOL    HW129723   6.929   4.413   2.726
 9608SOL    HW229724   6.779   4.456   2.676
 9609SOL     OW29725   3.653   2.665   6.373
 9609SOL    HW129726   3.701   2.693   6.290
 9609SOL    HW229727   3.694   2.711   6.452
 9610SOL     OW29728   2.164   4.815   2.666
 9610SOL    HW129729   2.186   4.728   2.623
 9610SOL    HW229730   2.114   4.799   2.751
 9611SOL     OW29731   2.065   6.852   0.674
 9611SOL    HW129732   2.149   6.813   0.636
 9611SOL    HW229733   2.003   6.874   0.599
 9612SOL     OW29734   1.070   3.429   2.117
 9612SOL    HW129735   1.076   3.529   2.116
 9612SOL    HW229736   1.133   3.393   2.185
 9613SOL     OW29737   5.991   6.438   3.440
 9613SOL    HW129738   5.907   6.390   3.464
 9613SOL    HW229739   6.053   6.376   3.393
 9614SOL     OW29740   3.980   2.183   2.799
 9614SOL    HW129741   4.023   2.172   2.709
 9614SOL    HW229742   3.890   2.139   2.799
 9615SOL     OW29743   2.361   2.348   0.750
 9615SOL    HW129744   2.457   2.370   0.736
 9615SOL    HW229745   2.354   2.273   0.816
 9616SOL     OW29746   3.765   2.862   0.716
 9616SOL    HW129747   3.731   2.925   0.787
 9616SOL    HW229748   3.837   2.805   0.755
 9617SOL     OW29749   2.128   2.753   3.591
 9617SOL    HW129750   2.165   2.797   3.508
 9617SOL    HW229751   2.176   2.790   3.671
 9618SOL     OW29752   3.108   1.277   0.951
 9618SOL    HW129753   3.094   1.317   1.041
 9618SOL    HW229754   3.202   1.294   0.921
 9619SOL     OW29755   1.722   0.409   5.692
 9619SOL    HW129756   1.694   0.423   5.597
 9619SOL    HW229757   1.730   0.311   5.710
 9620SOL     OW29758   4.780   0.636   4.861
 9620SOL    HW129759   4.680   0.629   4.867
 9620SOL    HW229760   4.805   0.731   4.841
 9621SOL     OW29761   1.766   2.787   2.106
 9621SOL    HW129762   1.754   2.725   2.029
 9621SOL    HW229763   1.777   2.881   2.072
 9622SOL     OW29764   5.988   1.060   0.694
 9622SOL    HW129765   5.892   1.082   0.715
 9622SOL    HW229766   6.036   1.143   0.667
 9623SOL     OW29767   2.710   2.863   6.583
 9623SOL    HW129768   2.759   2.807   6.650
 9623SOL    HW229769   2.776   2.912   6.526
 9624SOL     OW29770   6.062   3.583   2.967
 9624SOL    HW129771   6.087   3.488   2.982
 9624SOL    HW229772   6.135   3.630   2.918
 9625SOL     OW29773   5.414   6.039   0.035
 9625SOL    HW129774   5.384   5.950   7.024
 9625SOL    HW229775   5.502   6.064   7.018
 9626SOL     OW29776   3.697   4.996   0.517
 9626SOL    HW129777   3.680   5.066   0.586
 9626SOL    HW229778   3.627   5.003   0.446
 9627SOL     OW29779   0.692   6.357   6.600
 9627SOL    HW129780   0.755   6.280   6.585
 9627SOL    HW229781   0.745   6.440   6.615
 9628SOL     OW29782   5.239   6.066   0.854
 9628SOL    HW129783   5.145   6.032   0.848
 9628SOL    HW229784   5.293   6.028   0.779
 9629SOL     OW29785   2.182   0.624   1.417
 9629SOL    HW129786   2.205   0.584   1.505
 9629SOL    HW229787   2.169   0.723   1.427
 9630SOL     OW29788   6.381   0.419   5.438
 9630SOL    HW129789   6.378   0.474   5.522
 9630SOL    HW229790   6.291   0.419   5.395
 9631SOL     OW29791   6.288   0.320   6.290
 9631SOL    HW129792   6.307   0.341   6.194
 9631SOL    HW229793   6.357   0.363   6.348
 9632SOL     OW29794   1.605   6.284   2.404
 9632SOL    HW129795   1.661   6.256   2.482
 9632SOL    HW229796   1.564   6.203   2.362
 9633SOL     OW29797   5.800   5.346   6.620
 9633SOL    HW129798   5.871   5.409   6.650
 9633SOL    HW229799   5.720   5.398   6.589
 9634SOL     OW29800   1.704   6.276   4.867
 9634SOL    HW129801   1.709   6.200   4.932
 9634SOL    HW229802   1.692   6.240   4.775
 9635SOL     OW29803   2.493   5.378   4.939
 9635SOL    HW129804   2.502   5.399   4.841
 9635SOL    HW229805   2.579   5.399   4.985
 9636SOL     OW29806   3.894   1.438   5.404
 9636SOL    HW129807   3.814   1.498   5.397
 9636SOL    HW229808   3.977   1.494   5.404
 9637SOL     OW29809   1.997   1.897   6.412
 9637SOL    HW129810   2.039   1.955   6.343
 9637SOL    HW229811   1.910   1.862   6.379
 9638SOL     OW29812   6.871   3.398   5.088
 9638SOL    HW129813   6.802   3.446   5.143
 9638SOL    HW229814   6.960   3.443   5.099
 9639SOL     OW29815   4.137   1.875   2.739
 9639SOL    HW129816   4.131   1.973   2.720
 9639SOL    HW229817   4.206   1.834   2.680
 9640SOL     OW29818   2.317   2.800   3.147
 9640SOL    HW129819   2.355   2.708   3.160
 9640SOL    HW229820   2.377   2.852   3.087
 9641SOL     OW29821   4.747   0.128   0.625
 9641SOL    HW129822   4.825   0.075   0.657
 9641SOL    HW229823   4.727   0.104   0.530
 9642SOL     OW29824   3.425   0.347   4.583
 9642SOL    HW129825   3.467   0.425   4.630
 9642SOL    HW229826   3.494   0.278   4.564
 9643SOL     OW29827   5.054   4.138   3.333
 9643SOL    HW129828   4.966   4.171   3.368
 9643SOL    HW229829   5.051   4.132   3.234
 9644SOL     OW29830   0.986   3.243   6.290
 9644SOL    HW129831   0.911   3.205   6.344
 9644SOL    HW229832   1.045   3.298   6.349
 9645SOL     OW29833   3.289   5.107   5.184
 9645SOL    HW129834   3.379   5.063   5.184
 9645SOL    HW229835   3.299   5.203   5.208
 9646SOL     OW29836   4.165   5.050   2.113
 9646SOL    HW129837   4.106   5.076   2.190
 9646SOL    HW229838   4.115   4.986   2.054
 9647SOL     OW29839   6.290   3.241   1.108
 9647SOL    HW129840   6.242   3.230   1.021
 9647SOL    HW229841   6.311   3.338   1.122
 9648SOL     OW29842   4.450   2.247   1.196
 9648SOL    HW129843   4.427   2.342   1.177
 9648SOL    HW229844   4.370   2.200   1.233
 9649SOL     OW29845   2.479   6.163   0.454
 9649SOL    HW129846   2.431   6.201   0.375
 9649SOL    HW229847   2.454   6.213   0.536
 9650SOL     OW29848   6.853   5.681   2.296
 9650SOL    HW129849   6.859   5.692   2.395
 9650SOL    HW229850   6.827   5.768   2.254
 9651SOL     OW29851   0.962   1.486   6.073
 9651SOL    HW129852   0.901   1.444   6.141
 9651SOL    HW229853   1.013   1.415   6.026
 9652SOL     OW29854   0.727   4.683   2.397
 9652SOL    HW129855   0.689   4.751   2.335
 9652SOL    HW229856   0.653   4.628   2.437
 9653SOL     OW29857   4.765   4.899   4.170
 9653SOL    HW129858   4.723   4.967   4.110
 9653SOL    HW229859   4.844   4.940   4.217
 9654SOL     OW29860   2.355   2.684   2.123
 9654SOL    HW129861   2.345   2.648   2.216
 9654SOL    HW229862   2.284   2.752   2.106
 9655SOL     OW29863   7.021   1.561   6.318
 9655SOL    HW129864   0.054   1.613   6.381
 9655SOL    HW229865   6.925   1.574   6.343
 9656SOL     OW29866   3.259   0.059   2.241
 9656SOL    HW129867   3.165   0.027   2.226
 9656SOL    HW229868   3.265   0.155   2.212
 9657SOL     OW29869   6.092   1.182   5.029
 9657SOL    HW129870   6.130   1.270   4.999
 9657SOL    HW229871   6.118   1.111   4.964
 9658SOL     OW29872   6.171   3.183   1.974
 9658SOL    HW129873   6.090   3.135   2.006
 9658SOL    HW229874   6.143   3.260   1.917
 9659SOL     OW29875   0.925   4.728   0.317
 9659SOL    HW129876   0.931   4.633   0.348
 9659SOL    HW229877   0.891   4.785   0.392
 9660SOL     OW29878   1.037   5.208   0.671
 9660SOL    HW129879   0.969   5.280   0.683
 9660SOL    HW229880   1.120   5.231   0.721
 9661SOL     OW29881   4.637   0.114   0.906
 9661SOL    HW129882   4.627   0.196   0.962
 9661SOL    HW229883   4.661   0.141   0.812
 9662SOL     OW29884   6.162   1.559   4.556
 9662SOL    HW129885   6.189   1.595   4.467
 9662SOL    HW229886   6.112   1.474   4.545
 9663SOL     OW29887   1.742   5.396   2.888
 9663SOL    HW129888   1.793   5.346   2.958
 9663SOL    HW229889   1.779   5.375   2.797
 9664SOL     OW29890   4.158   6.605   2.371
 9664SOL    HW129891   4.066   6.582   2.340
 9664SOL    HW229892   4.195   6.679   2.315
 9665SOL     OW29893   5.248   4.276   5.080
 9665SOL    HW129894   5.181   4.207   5.106
 9665SOL    HW229895   5.340   4.239   5.093
 9666SOL     OW29896   5.275   4.432   2.534
 9666SOL    HW129897   5.248   4.436   2.438
 9666SOL    HW229898   5.204   4.475   2.590
 9667SOL     OW29899   3.998   3.677   4.147
 9667SOL    HW129900   3.931   3.621   4.196
 9667SOL    HW229901   4.043   3.620   4.077
 9668SOL     OW29902   0.421   1.218   5.582
 9668SOL    HW129903   0.456   1.197   5.673
 9668SOL    HW229904   0.485   1.184   5.512
 9669SOL     OW29905   0.400   6.764   0.286
 9669SOL    HW129906   0.309   6.732   0.259
 9669SOL    HW229907   0.436   6.706   0.359
 9670SOL     OW29908   4.876   4.747   6.586
 9670SOL    HW129909   4.882   4.825   6.649
 9670SOL    HW229910   4.897   4.777   6.493
 9671SOL     OW29911   0.149   5.251   5.446
 9671SOL    HW129912   0.094   5.333   5.465
 9671SOL    HW229913   0.152   5.193   5.527
 9672SOL     OW29914   0.502   6.005   4.876
 9672SOL    HW129915   0.570   6.071   4.909
 9672SOL    HW229916   0.439   6.052   4.814
 9673SOL     OW29917   3.293   4.214   6.672
 9673SOL    HW129918   3.382   4.202   6.717
 9673SOL    HW229919   3.302   4.282   6.599
 9674SOL     OW29920   3.148   6.288   1.855
 9674SOL    HW129921   3.078   6.244   1.799
 9674SOL    HW229922   3.110   6.370   1.898
 9675SOL     OW29923   6.556   1.838   2.458
 9675SOL    HW129924   6.535   1.786   2.375
 9675SOL    HW229925   6.650   1.873   2.452
 9676SOL     OW29926   0.946   3.869   4.639
 9676SOL    HW129927   0.964   3.967   4.630
 9676SOL    HW229928   0.873   3.855   4.706
 9677SOL     OW29929   2.052   3.721   6.024
 9677SOL    HW129930   2.108   3.651   5.982
 9677SOL    HW229931   1.955   3.694   6.020
 9678SOL     OW29932   4.025   3.851   3.251
 9678SOL    HW129933   4.081   3.768   3.250
 9678SOL    HW229934   4.020   3.886   3.345
 9679SOL     OW29935   1.646   2.563   1.952
 9679SOL    HW129936   1.602   2.484   1.995
 9679SOL    HW229937   1.622   2.567   1.856
 9680SOL     OW29938   6.055   5.968   3.350
 9680SOL    HW129939   6.069   6.057   3.306
 9680SOL    HW229940   6.079   5.974   3.447
 9681SOL     OW29941   2.163   0.953   2.305
 9681SOL    HW129942   2.155   0.853   2.307
 9681SOL    HW229943   2.207   0.981   2.220
 9682SOL     OW29944   5.537   4.210   3.555
 9682SOL    HW129945   5.467   4.207   3.483
 9682SOL    HW229946   5.557   4.116   3.586
 9683SOL     OW29947   4.240   6.140   0.191
 9683SOL    HW129948   4.203   6.048   0.195
 9683SOL    HW229949   4.339   6.136   0.177
 9684SOL     OW29950   0.611   3.725   5.353
 9684SOL    HW129951   0.684   3.724   5.284
 9684SOL    HW229952   0.529   3.683   5.314
 9685SOL     OW29953   1.405   3.116   1.012
 9685SOL    HW129954   1.311   3.084   1.006
 9685SOL    HW229955   1.454   3.092   0.928
 9686SOL     OW29956   6.765   0.517   1.850
 9686SOL    HW129957   6.733   0.612   1.854
 9686SOL    HW229958   6.803   0.491   1.939
 9687SOL     OW29959   2.349   0.025   3.715
 9687SOL    HW129960   2.389   6.999   3.639
 9687SOL    HW229961   2.394   0.114   3.724
 9688SOL     OW29962   0.095   1.427   3.064
 9688SOL    HW129963   0.158   1.497   3.031
 9688SOL    HW229964   0.124   1.338   3.030
 9689SOL     OW29965   2.889   6.294   6.434
 9689SOL    HW129966   2.909   6.332   6.525
 9689SOL    HW229967   2.898   6.365   6.365
 9690SOL     OW29968   6.289   5.046   0.799
 9690SOL    HW129969   6.357   5.017   0.867
 9690SOL    HW229970   6.240   4.967   0.765
 9691SOL     OW29971   1.582   5.006   2.329
 9691SOL    HW129972   1.490   5.042   2.314
 9691SOL    HW229973   1.629   4.996   2.241
 9692SOL     OW29974   2.963   5.536   1.870
 9692SOL    HW129975   2.928   5.528   1.777
 9692SOL    HW229976   2.887   5.540   1.935
 9693SOL     OW29977   6.811   5.983   2.216
 9693SOL    HW129978   6.729   6.037   2.233
 9693SOL    HW229979   6.869   6.031   2.150
 9694SOL     OW29980   1.566   2.482   6.883
 9694SOL    HW129981   1.519   2.488   6.795
 9694SOL    HW229982   1.522   2.543   6.949
 9695SOL     OW29983   6.390   4.325   1.499
 9695SOL    HW129984   6.363   4.381   1.578
 9695SOL    HW229985   6.490   4.318   1.497
 9696SOL     OW29986   3.955   2.887   1.804
 9696SOL    HW129987   3.857   2.890   1.785
 9696SOL    HW229988   3.974   2.938   1.888
 9697SOL     OW29989   0.349   5.138   0.000
 9697SOL    HW129990   0.350   5.218   6.966
 9697SOL    HW229991   0.322   5.058   6.971
 9698SOL     OW29992   5.555   1.726   5.166
 9698SOL    HW129993   5.605   1.738   5.252
 9698SOL    HW229994   5.479   1.790   5.162
 9699SOL     OW29995   1.565   3.510   6.994
 9699SOL    HW129996   1.473   3.547   7.008
 9699SOL    HW229997   1.597   3.535   6.903
 9700SOL     OW29998   3.770   4.455   5.600
 9700SOL    HW129999   3.714   4.509   5.537
 9700SOL    HW230000   3.763   4.358   5.577
 9701SOL     OW30001   4.529   4.822   4.679
 9701SOL    HW130002   4.496   4.828   4.585
 9701SOL    HW230003   4.509   4.908   4.727
 9702SOL     OW30004   5.073   1.113   1.010
 9702SOL    HW130005   5.003   1.115   1.082
 9702SOL    HW230006   5.160   1.143   1.048
 9703SOL     OW30007   3.021   6.150   4.269
 9703SOL    HW130008   3.023   6.194   4.358
 9703SOL    HW230009   3.006   6.219   4.198
 9704SOL     OW30010   4.039   6.781   2.971
 9704SOL    HW130011   3.977   6.780   3.049
 9704SOL    HW230012   3.994   6.826   2.893
 9705SOL     OW30013   3.409   4.722   0.568
 9705SOL    HW130014   3.446   4.803   0.614
 9705SOL    HW230015   3.344   4.677   0.627
 9706SOL     OW30016   6.079   3.174   2.278
 9706SOL    HW130017   6.163   3.192   2.226
 9706SOL    HW230018   6.099   3.179   2.376
 9707SOL     OW30019   2.070   4.997   1.995
 9707SOL    HW130020   2.036   4.906   1.971
 9707SOL    HW230021   2.152   4.988   2.051
 9708SOL     OW30022   2.284   1.833   3.283
 9708SOL    HW130023   2.193   1.809   3.249
 9708SOL    HW230024   2.314   1.919   3.241
 9709SOL     OW30025   1.726   6.300   2.967
 9709SOL    HW130026   1.653   6.319   2.902
 9709SOL    HW230027   1.720   6.365   3.044
 9710SOL     OW30028   0.272   1.206   3.299
 9710SOL    HW130029   0.299   1.235   3.207
 9710SOL    HW230030   0.353   1.182   3.352
 9711SOL     OW30031   1.096   3.784   5.940
 9711SOL    HW130032   1.058   3.858   5.884
 9711SOL    HW230033   1.135   3.713   5.880
 9712SOL     OW30034   5.342   2.213   4.240
 9712SOL    HW130035   5.250   2.246   4.259
 9712SOL    HW230036   5.395   2.210   4.325
 9713SOL     OW30037   6.683   5.144   3.267
 9713SOL    HW130038   6.707   5.091   3.185
 9713SOL    HW230039   6.721   5.099   3.348
 9714SOL     OW30040   1.995   2.456   1.686
 9714SOL    HW130041   2.090   2.428   1.695
 9714SOL    HW230042   1.942   2.417   1.762
 9715SOL     OW30043   5.081   5.601   5.087
 9715SOL    HW130044   5.142   5.585   5.165
 9715SOL    HW230045   5.026   5.519   5.071
 9716SOL     OW30046   4.544   1.738   6.409
 9716SOL    HW130047   4.639   1.762   6.389
 9716SOL    HW230048   4.486   1.819   6.400
 9717SOL     OW30049   5.691   5.804   3.988
 9717SOL    HW130050   5.600   5.785   3.951
 9717SOL    HW230051   5.730   5.719   4.023
 9718SOL     OW30052   3.684   3.441   1.185
 9718SOL    HW130053   3.661   3.493   1.267
 9718SOL    HW230054   3.741   3.497   1.125
 9719SOL     OW30055   0.568   2.604   0.177
 9719SOL    HW130056   0.580   2.640   0.084
 9719SOL    HW230057   0.577   2.505   0.176
 9720SOL     OW30058   0.741   6.607   2.278
 9720SOL    HW130059   0.737   6.523   2.332
 9720SOL    HW230060   0.677   6.601   2.202
 9721SOL     OW30061   6.909   3.948   2.568
 9721SOL    HW130062   6.871   3.888   2.498
 9721SOL    HW230063   6.835   4.004   2.607
 9722SOL     OW30064   0.629   0.491   3.678
 9722SOL    HW130065   0.542   0.532   3.706
 9722SOL    HW230066   0.610   0.410   3.623
 9723SOL     OW30067   0.125   0.757   3.510
 9723SOL    HW130068   0.163   0.809   3.434
 9723SOL    HW230069   0.175   0.671   3.519
 9724SOL     OW30070   2.968   2.381   1.000
 9724SOL    HW130071   3.044   2.377   1.065
 9724SOL    HW230072   2.966   2.297   0.945
 9725SOL     OW30073   5.348   3.458   5.423
 9725SOL    HW130074   5.258   3.430   5.388
 9725SOL    HW230075   5.418   3.436   5.355
 9726SOL     OW30076   4.926   6.478   4.499
 9726SOL    HW130077   4.926   6.379   4.485
 9726SOL    HW230078   5.014   6.507   4.537
 9727SOL     OW30079   0.902   3.168   5.841
 9727SOL    HW130080   0.985   3.145   5.791
 9727SOL    HW230081   0.831   3.101   5.821
 9728SOL     OW30082   2.462   5.883   6.317
 9728SOL    HW130083   2.391   5.880   6.388
 9728SOL    HW230084   2.486   5.790   6.290
 9729SOL     OW30085   1.398   4.573   3.302
 9729SOL    HW130086   1.444   4.612   3.222
 9729SOL    HW230087   1.442   4.487   3.327
 9730SOL     OW30088   6.754   3.471   2.365
 9730SOL    HW130089   6.751   3.495   2.269
 9730SOL    HW230090   6.713   3.381   2.379
 9731SOL     OW30091   3.486   5.421   0.543
 9731SOL    HW130092   3.467   5.401   0.639
 9731SOL    HW230093   3.417   5.377   0.485
 9732SOL     OW30094   6.752   6.214   2.412
 9732SOL    HW130095   6.689   6.181   2.342
 9732SOL    HW230096   6.845   6.219   2.374
 9733SOL     OW30097   5.066   4.938   4.730
 9733SOL    HW130098   5.063   4.848   4.774
 9733SOL    HW230099   5.021   4.932   4.640
 9734SOL     OW30100   5.391   2.358   3.988
 9734SOL    HW130101   5.366   2.320   4.077
 9734SOL    HW230102   5.432   2.286   3.931
 9735SOL     OW30103   2.201   5.370   1.777
 9735SOL    HW130104   2.236   5.279   1.799
 9735SOL    HW230105   2.266   5.418   1.717
 9736SOL     OW30106   4.502   1.210   6.492
 9736SOL    HW130107   4.498   1.298   6.445
 9736SOL    HW230108   4.424   1.154   6.464
 9737SOL     OW30109   4.093   2.194   5.068
 9737SOL    HW130110   4.106   2.291   5.046
 9737SOL    HW230111   4.176   2.143   5.043
 9738SOL     OW30112   1.891   1.290   3.147
 9738SOL    HW130113   1.925   1.287   3.053
 9738SOL    HW230114   1.828   1.366   3.158
 9739SOL     OW30115   6.004   4.875   1.642
 9739SOL    HW130116   6.000   4.930   1.558
 9739SOL    HW230117   6.037   4.784   1.621
 9740SOL     OW30118   6.147   4.891   2.859
 9740SOL    HW130119   6.198   4.839   2.928
 9740SOL    HW230120   6.150   4.843   2.772
 9741SOL     OW30121   4.464   1.944   2.055
 9741SOL    HW130122   4.400   1.924   2.129
 9741SOL    HW230123   4.457   1.874   1.984
 9742SOL     OW30124   5.481   1.041   3.491
 9742SOL    HW130125   5.472   0.957   3.543
 9742SOL    HW230126   5.562   1.091   3.522
 9743SOL     OW30127   1.687   3.072   6.021
 9743SOL    HW130128   1.746   2.992   6.015
 9743SOL    HW230129   1.705   3.133   5.943
 9744SOL     OW30130   1.679   1.583   1.849
 9744SOL    HW130131   1.643   1.669   1.886
 9744SOL    HW230132   1.685   1.515   1.922
 9745SOL     OW30133   0.468   2.326   5.032
 9745SOL    HW130134   0.469   2.241   4.980
 9745SOL    HW230135   0.552   2.377   5.014
 9746SOL     OW30136   5.968   0.754   5.055
 9746SOL    HW130137   5.946   0.763   4.958
 9746SOL    HW230138   5.909   0.684   5.096
 9747SOL     OW30139   0.871   0.306   6.529
 9747SOL    HW130140   0.873   0.391   6.476
 9747SOL    HW230141   0.929   0.238   6.486
 9748SOL     OW30142   1.448   6.027   4.182
 9748SOL    HW130143   1.511   6.012   4.106
 9748SOL    HW230144   1.417   6.122   4.181
 9749SOL     OW30145   0.788   3.667   4.279
 9749SOL    HW130146   0.779   3.627   4.370
 9749SOL    HW230147   0.740   3.754   4.276
 9750SOL     OW30148   4.535   5.156   3.680
 9750SOL    HW130149   4.609   5.188   3.621
 9750SOL    HW230150   4.470   5.231   3.694
 9751SOL     OW30151   1.890   2.330   0.606
 9751SOL    HW130152   1.831   2.253   0.583
 9751SOL    HW230153   1.986   2.303   0.597
 9752SOL     OW30154   4.489   0.672   5.301
 9752SOL    HW130155   4.416   0.606   5.283
 9752SOL    HW230156   4.456   0.742   5.365
 9753SOL     OW30157   6.521   5.975   5.508
 9753SOL    HW130158   6.500   6.059   5.458
 9753SOL    HW230159   6.457   5.965   5.585
 9754SOL     OW30160   1.195   2.021   6.789
 9754SOL    HW130161   1.225   1.952   6.855
 9754SOL    HW230162   1.160   2.101   6.838
 9755SOL     OW30163   4.014   3.760   4.942
 9755SOL    HW130164   3.925   3.729   4.975
 9755SOL    HW230165   4.013   3.767   4.842
 9756SOL     OW30166   5.958   2.466   6.708
 9756SOL    HW130167   5.947   2.524   6.789
 9756SOL    HW230168   6.041   2.411   6.717
 9757SOL     OW30169   5.884   2.265   3.978
 9757SOL    HW130170   5.932   2.315   4.050
 9757SOL    HW230171   5.792   2.242   4.009
 9758SOL     OW30172   3.120   0.508   6.846
 9758SOL    HW130173   3.055   0.448   6.800
 9758SOL    HW230174   3.072   0.584   6.889
 9759SOL     OW30175   3.034   6.499   0.791
 9759SOL    HW130176   3.045   6.412   0.742
 9759SOL    HW230177   3.123   6.544   0.798
 9760SOL     OW30178   5.894   4.353   6.048
 9760SOL    HW130179   5.957   4.303   5.989
 9760SOL    HW230180   5.894   4.310   6.139
 9761SOL     OW30181   5.458   5.296   1.820
 9761SOL    HW130182   5.444   5.308   1.918
 9761SOL    HW230183   5.497   5.205   1.803
 9762SOL     OW30184   2.537   2.519   4.895
 9762SOL    HW130185   2.576   2.552   4.981
 9762SOL    HW230186   2.438   2.528   4.897
 9763SOL     OW30187   2.906   2.023   1.574
 9763SOL    HW130188   3.000   2.004   1.603
 9763SOL    HW230189   2.875   2.108   1.616
 9764SOL     OW30190   1.170   2.143   3.090
 9764SOL    HW130191   1.224   2.077   3.143
 9764SOL    HW230192   1.073   2.123   3.101
 9765SOL     OW30193   0.288   2.278   5.916
 9765SOL    HW130194   0.330   2.334   5.987
 9765SOL    HW230195   0.254   2.193   5.956
 9766SOL     OW30196   2.844   0.140   2.961
 9766SOL    HW130197   2.926   0.118   3.014
 9766SOL    HW230198   2.792   0.056   2.945
 9767SOL     OW30199   5.280   0.769   5.179
 9767SOL    HW130200   5.193   0.816   5.196
 9767SOL    HW230201   5.265   0.670   5.181
 9768SOL     OW30202   4.343   2.101   2.703
 9768SOL    HW130203   4.436   2.071   2.680
 9768SOL    HW230204   4.347   2.192   2.744
 9769SOL     OW30205   1.145   2.122   0.863
 9769SOL    HW130206   1.084   2.051   0.829
 9769SOL    HW230207   1.208   2.083   0.931
 9770SOL     OW30208   5.552   4.601   5.556
 9770SOL    HW130209   5.486   4.590   5.630
 9770SOL    HW230210   5.516   4.558   5.473
 9771SOL     OW30211   3.965   5.487   6.032
 9771SOL    HW130212   3.967   5.570   6.086
 9771SOL    HW230213   3.870   5.465   6.007
 9772SOL     OW30214   6.941   0.411   2.063
 9772SOL    HW130215   6.931   0.312   2.055
 9772SOL    HW230216   7.017   0.443   2.007
 9773SOL     OW30217   6.241   5.285   3.873
 9773SOL    HW130218   6.150   5.285   3.833
 9773SOL    HW230219   6.235   5.279   3.973
 9774SOL     OW30220   5.945   4.705   4.191
 9774SOL    HW130221   5.909   4.612   4.187
 9774SOL    HW230222   5.890   4.760   4.254
 9775SOL     OW30223   1.814   2.617   4.872
 9775SOL    HW130224   1.857   2.557   4.940
 9775SOL    HW230225   1.752   2.562   4.815
 9776SOL     OW30226   0.057   6.052   4.483
 9776SOL    HW130227   0.126   6.059   4.411
 9776SOL    HW230228   0.091   5.993   4.557
 9777SOL     OW30229   5.643   4.429   5.955
 9777SOL    HW130230   5.579   4.354   5.971
 9777SOL    HW230231   5.734   4.403   5.986
 9778SOL     OW30232   4.941   6.860   2.656
 9778SOL    HW130233   4.939   6.864   2.556
 9778SOL    HW230234   4.847   6.854   2.690
 9779SOL     OW30235   2.714   1.961   5.547
 9779SOL    HW130236   2.683   1.976   5.641
 9779SOL    HW230237   2.722   2.049   5.500
 9780SOL     OW30238   2.804   4.259   0.160
 9780SOL    HW130239   2.788   4.164   0.135
 9780SOL    HW230240   2.893   4.289   0.123
 9781SOL     OW30241   2.396   4.963   4.901
 9781SOL    HW130242   2.389   4.981   4.803
 9781SOL    HW230243   2.461   4.890   4.917
 9782SOL     OW30244   6.594   0.309   1.833
 9782SOL    HW130245   6.672   0.371   1.827
 9782SOL    HW230246   6.573   0.291   1.929
 9783SOL     OW30247   5.531   1.477   1.744
 9783SOL    HW130248   5.462   1.471   1.817
 9783SOL    HW230249   5.500   1.428   1.664
 9784SOL     OW30250   4.632   0.660   3.124
 9784SOL    HW130251   4.660   0.608   3.044
 9784SOL    HW230252   4.535   0.641   3.144
 9785SOL     OW30253   1.023   2.637   2.077
 9785SOL    HW130254   1.109   2.616   2.029
 9785SOL    HW230255   1.014   2.736   2.087
 9786SOL     OW30256   3.137   5.778   5.189
 9786SOL    HW130257   3.098   5.807   5.276
 9786SOL    HW230258   3.087   5.822   5.114
 9787SOL     OW30259   5.054   4.375   1.937
 9787SOL    HW130260   5.131   4.318   1.966
 9787SOL    HW230261   5.031   4.355   1.842
 9788SOL     OW30262   6.310   0.705   5.328
 9788SOL    HW130263   6.215   0.736   5.335
 9788SOL    HW230264   6.311   0.605   5.318
 9789SOL     OW30265   2.431   5.150   5.159
 9789SOL    HW130266   2.395   5.064   5.122
 9789SOL    HW230267   2.504   5.183   5.098
 9790SOL     OW30268   5.702   2.060   4.327
 9790SOL    HW130269   5.613   2.040   4.369
 9790SOL    HW230270   5.688   2.112   4.243
 9791SOL     OW30271   0.339   1.954   1.653
 9791SOL    HW130272   0.265   2.017   1.627
 9791SOL    HW230273   0.375   1.981   1.742
 9792SOL     OW30274   4.333   5.217   0.924
 9792SOL    HW130275   4.275   5.153   0.975
 9792SOL    HW230276   4.298   5.226   0.831
 9793SOL     OW30277   5.386   5.605   2.044
 9793SOL    HW130278   5.447   5.660   2.101
 9793SOL    HW230279   5.308   5.574   2.099
 9794SOL     OW30280   4.867   3.056   6.161
 9794SOL    HW130281   4.797   3.126   6.147
 9794SOL    HW230282   4.834   2.968   6.127
 9795SOL     OW30283   1.716   3.351   3.817
 9795SOL    HW130284   1.772   3.360   3.734
 9795SOL    HW230285   1.738   3.264   3.862
 9796SOL     OW30286   2.816   5.133   6.887
 9796SOL    HW130287   2.775   5.222   6.910
 9796SOL    HW230288   2.875   5.143   6.807
 9797SOL     OW30289   4.688   3.318   5.836
 9797SOL    HW130290   4.712   3.414   5.853
 9797SOL    HW230291   4.616   3.314   5.767
 9798SOL     OW30292   2.598   1.770   1.143
 9798SOL    HW130293   2.529   1.806   1.205
 9798SOL    HW230294   2.599   1.826   1.059
 9799SOL     OW30295   2.828   3.447   2.232
 9799SOL    HW130296   2.774   3.530   2.216
 9799SOL    HW230297   2.770   3.378   2.276
 9800SOL     OW30298   4.369   4.742   6.425
 9800SOL    HW130299   4.439   4.744   6.496
 9800SOL    HW230300   4.337   4.835   6.405
 9801SOL     OW30301   4.113   5.839   6.935
 9801SOL    HW130302   4.107   5.747   6.896
 9801SOL    HW230303   4.055   5.901   6.882
 9802SOL     OW30304   6.765   3.335   0.715
 9802SOL    HW130305   6.857   3.372   0.731
 9802SOL    HW230306   6.728   3.298   0.800
 9803SOL     OW30307   5.971   0.416   6.640
 9803SOL    HW130308   5.974   0.513   6.663
 9803SOL    HW230309   5.987   0.404   6.542
 9804SOL     OW30310   6.038   5.928   4.353
 9804SOL    HW130311   5.985   5.861   4.405
 9804SOL    HW230312   5.976   5.981   4.295
 9805SOL     OW30313   1.834   5.253   0.184
 9805SOL    HW130314   1.750   5.307   0.185
 9805SOL    HW230315   1.811   5.157   0.198
 9806SOL     OW30316   7.015   2.283   2.935
 9806SOL    HW130317   7.009   2.252   2.840
 9806SOL    HW230318   6.951   2.359   2.949
 9807SOL     OW30319   4.138   2.393   0.895
 9807SOL    HW130320   4.210   2.428   0.835
 9807SOL    HW230321   4.156   2.421   0.989
 9808SOL     OW30322   0.582   1.368   4.605
 9808SOL    HW130323   0.582   1.371   4.505
 9808SOL    HW230324   0.521   1.438   4.641
 9809SOL     OW30325   0.529   0.908   4.767
 9809SOL    HW130326   0.479   0.964   4.833
 9809SOL    HW230327   0.594   0.965   4.717
 9810SOL     OW30328   3.593   0.972   3.277
 9810SOL    HW130329   3.588   0.981   3.377
 9810SOL    HW230330   3.507   1.000   3.237
 9811SOL     OW30331   0.416   6.770   2.361
 9811SOL    HW130332   0.465   6.831   2.423
 9811SOL    HW230333   0.448   6.783   2.268
 9812SOL     OW30334   4.722   2.750   6.008
 9812SOL    HW130335   4.784   2.764   6.086
 9812SOL    HW230336   4.711   2.652   5.991
 9813SOL     OW30337   6.807   4.480   0.444
 9813SOL    HW130338   6.865   4.414   0.491
 9813SOL    HW230339   6.722   4.435   0.416
 9814SOL     OW30340   6.848   0.042   5.451
 9814SOL    HW130341   6.891   0.076   5.534
 9814SOL    HW230342   6.751   0.026   5.467
 9815SOL     OW30343   6.001   3.613   2.441
 9815SOL    HW130344   5.961   3.656   2.360
 9815SOL    HW230345   5.927   3.584   2.503
 9816SOL     OW30346   6.837   6.623   6.932
 9816SOL    HW130347   6.879   6.701   6.977
 9816SOL    HW230348   6.848   6.542   6.989
 9817SOL     OW30349   2.781   6.528   6.759
 9817SOL    HW130350   2.792   6.564   6.851
 9817SOL    HW230351   2.716   6.452   6.759
 9818SOL     OW30352   1.050   6.588   3.628
 9818SOL    HW130353   1.075   6.681   3.655
 9818SOL    HW230354   1.113   6.556   3.558
 9819SOL     OW30355   0.319   3.641   4.995
 9819SOL    HW130356   0.413   3.646   4.961
 9819SOL    HW230357   0.275   3.560   4.957
 9820SOL     OW30358   3.894   1.915   5.814
 9820SOL    HW130359   3.936   1.824   5.809
 9820SOL    HW230360   3.802   1.907   5.850
 9821SOL     OW30361   4.456   2.390   1.562
 9821SOL    HW130362   4.366   2.433   1.562
 9821SOL    HW230363   4.511   2.428   1.636
 9822SOL     OW30364   3.510   6.266   5.339
 9822SOL    HW130365   3.568   6.269   5.258
 9822SOL    HW230366   3.455   6.183   5.337
 9823SOL     OW30367   1.778   0.304   3.278
 9823SOL    HW130368   1.773   0.330   3.375
 9823SOL    HW230369   1.800   0.384   3.223
 9824SOL     OW30370   1.173   5.918   5.310
 9824SOL    HW130371   1.099   5.883   5.252
 9824SOL    HW230372   1.258   5.919   5.258
 9825SOL     OW30373   5.226   6.307   5.475
 9825SOL    HW130374   5.150   6.298   5.539
 9825SOL    HW230375   5.299   6.363   5.516
 9826SOL     OW30376   1.929   6.062   5.257
 9826SOL    HW130377   1.906   6.045   5.353
 9826SOL    HW230378   1.996   6.136   5.251
 9827SOL     OW30379   1.415   5.557   1.645
 9827SOL    HW130380   1.468   5.499   1.707
 9827SOL    HW230381   1.362   5.623   1.698
 9828SOL     OW30382   4.100   2.187   4.653
 9828SOL    HW130383   4.160   2.231   4.720
 9828SOL    HW230384   4.127   2.214   4.561
 9829SOL     OW30385   4.326   5.386   5.291
 9829SOL    HW130386   4.263   5.403   5.367
 9829SOL    HW230387   4.352   5.289   5.291
 9830SOL     OW30388   6.201   2.595   2.570
 9830SOL    HW130389   6.205   2.692   2.546
 9830SOL    HW230390   6.237   2.541   2.494
 9831SOL     OW30391   0.482   3.692   2.585
 9831SOL    HW130392   0.489   3.595   2.610
 9831SOL    HW230393   0.573   3.729   2.570
 9832SOL     OW30394   4.824   4.977   4.615
 9832SOL    HW130395   4.757   4.903   4.615
 9832SOL    HW230396   4.861   4.989   4.707
 9833SOL     OW30397   3.735   4.076   4.306
 9833SOL    HW130398   3.740   4.102   4.210
 9833SOL    HW230399   3.669   4.001   4.316
 9834SOL     OW30400   2.703   6.245   6.156
 9834SOL    HW130401   2.705   6.154   6.197
 9834SOL    HW230402   2.667   6.311   6.221
 9835SOL     OW30403   3.873   3.847   4.398
 9835SOL    HW130404   3.919   3.822   4.313
 9835SOL    HW230405   3.844   3.942   4.394
 9836SOL     OW30406   0.558   3.788   5.975
 9836SOL    HW130407   0.570   3.840   6.060
 9836SOL    HW230408   0.580   3.846   5.897
 9837SOL     OW30409   5.254   2.129   3.374
 9837SOL    HW130410   5.221   2.093   3.287
 9837SOL    HW230411   5.321   2.066   3.414
 9838SOL     OW30412   1.547   6.746   1.371
 9838SOL    HW130413   1.537   6.840   1.338
 9838SOL    HW230414   1.640   6.714   1.354
 9839SOL     OW30415   4.829   0.050   3.871
 9839SOL    HW130416   4.903   0.114   3.889
 9839SOL    HW230417   4.750   0.101   3.836
 9840SOL     OW30418   5.998   0.691   6.704
 9840SOL    HW130419   5.980   0.736   6.792
 9840SOL    HW230420   5.969   0.750   6.629
 9841SOL     OW30421   0.503   6.516   3.894
 9841SOL    HW130422   0.459   6.557   3.974
 9841SOL    HW230423   0.507   6.583   3.820
 9842SOL     OW30424   2.810   2.038   6.783
 9842SOL    HW130425   2.858   1.955   6.810
 9842SOL    HW230426   2.731   2.014   6.727
 9843SOL     OW30427   0.964   0.570   1.440
 9843SOL    HW130428   1.051   0.606   1.472
 9843SOL    HW230429   0.973   0.539   1.345
 9844SOL     OW30430   4.526   6.880   4.422
 9844SOL    HW130431   4.565   6.924   4.503
 9844SOL    HW230432   4.555   6.784   4.420
 9845SOL     OW30433   1.800   3.679   1.830
 9845SOL    HW130434   1.712   3.694   1.785
 9845SOL    HW230435   1.785   3.644   1.923
 9846SOL     OW30436   5.859   2.273   1.262
 9846SOL    HW130437   5.859   2.334   1.342
 9846SOL    HW230438   5.804   2.192   1.283
 9847SOL     OW30439   4.273   3.813   0.031
 9847SOL    HW130440   4.341   3.751   0.071
 9847SOL    HW230441   4.320   3.888   7.010
 9848SOL     OW30442   3.142   3.957   5.790
 9848SOL    HW130443   3.232   3.914   5.779
 9848SOL    HW230444   3.154   4.052   5.816
 9849SOL     OW30445   0.459   1.908   4.649
 9849SOL    HW130446   0.385   1.855   4.607
 9849SOL    HW230447   0.525   1.935   4.579
 9850SOL     OW30448   1.259   0.306   4.538
 9850SOL    HW130449   1.162   0.296   4.560
 9850SOL    HW230450   1.282   0.248   4.460
 9851SOL     OW30451   3.591   4.979   4.364
 9851SOL    HW130452   3.682   4.987   4.405
 9851SOL    HW230453   3.598   4.936   4.274
 9852SOL     OW30454   2.175   0.562   6.875
 9852SOL    HW130455   2.176   0.527   6.969
 9852SOL    HW230456   2.176   0.662   6.876
 9853SOL     OW30457   6.586   4.504   3.538
 9853SOL    HW130458   6.584   4.604   3.537
 9853SOL    HW230459   6.502   4.469   3.581
 9854SOL     OW30460   0.755   4.199   6.225
 9854SOL    HW130461   0.724   4.290   6.251
 9854SOL    HW230462   0.839   4.177   6.274
 9855SOL     OW30463   1.234   4.813   1.516
 9855SOL    HW130464   1.222   4.785   1.421
 9855SOL    HW230465   1.327   4.845   1.531
 9856SOL     OW30466   5.727   4.209   3.219
 9856SOL    HW130467   5.732   4.304   3.252
 9856SOL    HW230468   5.639   4.194   3.174
 9857SOL     OW30469   3.567   0.628   5.233
 9857SOL    HW130470   3.660   0.597   5.251
 9857SOL    HW230471   3.540   0.696   5.300
 9858SOL     OW30472   5.903   6.467   2.574
 9858SOL    HW130473   5.878   6.378   2.611
 9858SOL    HW230474   5.840   6.537   2.609
 9859SOL     OW30475   0.067   6.032   3.129
 9859SOL    HW130476   0.061   6.107   3.063
 9859SOL    HW230477   0.137   5.967   3.098
 9860SOL     OW30478   1.226   3.129   4.173
 9860SOL    HW130479   1.271   3.069   4.107
 9860SOL    HW230480   1.254   3.224   4.156
 9861SOL     OW30481   3.207   1.798   3.353
 9861SOL    HW130482   3.252   1.841   3.431
 9861SOL    HW230483   3.275   1.779   3.282
 9862SOL     OW30484   1.217   4.723   0.388
 9862SOL    HW130485   1.139   4.709   0.327
 9862SOL    HW230486   1.190   4.780   0.465
 9863SOL     OW30487   3.506   5.743   0.638
 9863SOL    HW130488   3.439   5.695   0.581
 9863SOL    HW230489   3.460   5.808   0.697
 9864SOL     OW30490   3.084   5.374   5.600
 9864SOL    HW130491   3.037   5.419   5.676
 9864SOL    HW230492   3.033   5.292   5.573
 9865SOL     OW30493   0.394   6.080   5.408
 9865SOL    HW130494   0.330   6.015   5.451
 9865SOL    HW230495   0.476   6.087   5.465
 9866SOL     OW30496   6.086   4.334   5.200
 9866SOL    HW130497   6.145   4.370   5.128
 9866SOL    HW230498   6.052   4.409   5.256
 9867SOL     OW30499   4.286   1.832   1.882
 9867SOL    HW130500   4.313   1.903   1.817
 9867SOL    HW230501   4.243   1.875   1.961
 9868SOL     OW30502   2.160   3.601   3.753
 9868SOL    HW130503   2.228   3.635   3.687
 9868SOL    HW230504   2.070   3.638   3.729
 9869SOL     OW30505   6.212   2.930   1.044
 9869SOL    HW130506   6.233   2.836   1.016
 9869SOL    HW230507   6.173   2.929   1.137
 9870SOL     OW30508   2.826   1.373   2.618
 9870SOL    HW130509   2.903   1.314   2.646
 9870SOL    HW230510   2.747   1.354   2.675
 9871SOL     OW30511   6.808   4.697   4.539
 9871SOL    HW130512   6.740   4.625   4.549
 9871SOL    HW230513   6.841   4.725   4.629
 9872SOL     OW30514   0.900   4.597   6.146
 9872SOL    HW130515   0.941   4.676   6.100
 9872SOL    HW230516   0.800   4.606   6.146
 9873SOL     OW30517   1.284   1.820   5.978
 9873SOL    HW130518   1.383   1.822   5.963
 9873SOL    HW230519   1.239   1.770   5.905
 9874SOL     OW30520   0.102   2.620   4.872
 9874SOL    HW130521   0.082   2.715   4.849
 9874SOL    HW230522   0.190   2.615   4.920
 9875SOL     OW30523   6.523   5.667   0.750
 9875SOL    HW130524   6.554   5.585   0.796
 9875SOL    HW230525   6.445   5.707   0.800
 9876SOL     OW30526   1.694   6.399   4.107
 9876SOL    HW130527   1.691   6.497   4.089
 9876SOL    HW230528   1.603   6.367   4.135
 9877SOL     OW30529   0.918   4.898   5.064
 9877SOL    HW130530   0.899   4.813   5.014
 9877SOL    HW230531   1.002   4.939   5.028
 9878SOL     OW30532   2.406   2.856   6.580
 9878SOL    HW130533   2.506   2.845   6.574
 9878SOL    HW230534   2.385   2.944   6.624
 9879SOL     OW30535   6.959   5.217   6.382
 9879SOL    HW130536   6.999   5.242   6.470
 9879SOL    HW230537   6.936   5.120   6.381
 9880SOL     OW30538   2.936   1.600   0.044
 9880SOL    HW130539   2.839   1.614   0.025
 9880SOL    HW230540   2.978   1.688   0.069
 9881SOL     OW30541   6.045   0.615   3.926
 9881SOL    HW130542   6.136   0.579   3.908
 9881SOL    HW230543   6.049   0.681   4.001
 9882SOL     OW30544   3.108   3.038   4.744
 9882SOL    HW130545   3.052   3.118   4.765
 9882SOL    HW230546   3.061   2.956   4.776
 9883SOL     OW30547   2.633   6.786   2.017
 9883SOL    HW130548   2.542   6.811   1.982
 9883SOL    HW230549   2.661   6.853   2.085
 9884SOL     OW30550   2.580   3.584   5.821
 9884SOL    HW130551   2.598   3.672   5.779
 9884SOL    HW230552   2.586   3.512   5.751
 9885SOL     OW30553   5.508   2.949   5.241
 9885SOL    HW130554   5.522   2.972   5.338
 9885SOL    HW230555   5.411   2.960   5.219
 9886SOL     OW30556   4.087   5.879   1.153
 9886SOL    HW130557   4.184   5.854   1.155
 9886SOL    HW230558   4.035   5.815   1.210
 9887SOL     OW30559   3.143   0.365   6.437
 9887SOL    HW130560   3.142   0.268   6.462
 9887SOL    HW230561   3.187   0.375   6.348
 9888SOL     OW30562   6.739   6.421   3.192
 9888SOL    HW130563   6.838   6.438   3.193
 9888SOL    HW230564   6.704   6.419   3.286
 9889SOL     OW30565   6.933   5.682   3.389
 9889SOL    HW130566   6.926   5.779   3.411
 9889SOL    HW230567   6.980   5.634   3.464
 9890SOL     OW30568   0.470   3.763   1.775
 9890SOL    HW130569   0.447   3.696   1.704
 9890SOL    HW230570   0.387   3.787   1.826
 9891SOL     OW30571   5.489   5.699   1.002
 9891SOL    HW130572   5.582   5.734   1.010
 9891SOL    HW230573   5.484   5.608   1.044
 9892SOL     OW30574   1.725   4.733   3.844
 9892SOL    HW130575   1.783   4.653   3.832
 9892SOL    HW230576   1.729   4.763   3.939
 9893SOL     OW30577   5.158   5.282   3.629
 9893SOL    HW130578   5.135   5.200   3.577
 9893SOL    HW230579   5.254   5.307   3.612
 9894SOL     OW30580   4.017   3.526   5.863
 9894SOL    HW130581   4.107   3.560   5.836
 9894SOL    HW230582   4.028   3.447   5.924
 9895SOL     OW30583   5.677   2.140   6.632
 9895SOL    HW130584   5.715   2.153   6.540
 9895SOL    HW230585   5.685   2.043   6.658
 9896SOL     OW30586   4.255   3.703   0.406
 9896SOL    HW130587   4.296   3.649   0.332
 9896SOL    HW230588   4.319   3.707   0.483
 9897SOL     OW30589   6.757   1.993   3.732
 9897SOL    HW130590   6.775   1.898   3.758
 9897SOL    HW230591   6.829   2.051   3.770
 9898SOL     OW30592   1.135   5.214   5.597
 9898SOL    HW130593   1.172   5.307   5.593
 9898SOL    HW230594   1.042   5.214   5.560
 9899SOL     OW30595   5.797   4.670   1.910
 9899SOL    HW130596   5.698   4.681   1.915
 9899SOL    HW230597   5.838   4.752   1.872
 9900SOL     OW30598   0.797   3.631   3.277
 9900SOL    HW130599   0.794   3.559   3.347
 9900SOL    HW230600   0.708   3.637   3.232
 9901SOL     OW30601   2.947   1.913   5.367
 9901SOL    HW130602   2.883   1.878   5.436
 9901SOL    HW230603   2.932   2.011   5.355
 9902SOL     OW30604   4.447   3.967   6.882
 9902SOL    HW130605   4.530   4.022   6.879
 9902SOL    HW230606   4.450   3.898   6.810
 9903SOL     OW30607   3.976   1.402   1.384
 9903SOL    HW130608   4.033   1.413   1.466
 9903SOL    HW230609   3.902   1.469   1.386
 9904SOL     OW30610   6.550   0.279   2.095
 9904SOL    HW130611   6.615   0.345   2.133
 9904SOL    HW230612   6.457   0.307   2.120
 9905SOL     OW30613   1.428   6.286   5.439
 9905SOL    HW130614   1.357   6.355   5.421
 9905SOL    HW230615   1.468   6.303   5.529
 9906SOL     OW30616   3.277   3.114   6.020
 9906SOL    HW130617   3.361   3.088   5.974
 9906SOL    HW230618   3.279   3.084   6.115
 9907SOL     OW30619   2.025   6.530   2.523
 9907SOL    HW130620   2.010   6.466   2.448
 9907SOL    HW230621   1.972   6.500   2.603
 9908SOL     OW30622   1.070   3.429   5.284
 9908SOL    HW130623   1.000   3.417   5.355
 9908SOL    HW230624   1.154   3.383   5.312
 9909SOL     OW30625   4.139   6.662   2.663
 9909SOL    HW130626   4.106   6.638   2.572
 9909SOL    HW230627   4.089   6.608   2.731
 9910SOL     OW30628   0.270   4.340   1.686
 9910SOL    HW130629   0.309   4.248   1.681
 9910SOL    HW230630   0.344   4.407   1.699
 9911SOL     OW30631   2.776   4.705   3.621
 9911SOL    HW130632   2.849   4.714   3.553
 9911SOL    HW230633   2.690   4.737   3.581
 9912SOL     OW30634   4.983   0.253   1.373
 9912SOL    HW130635   4.901   0.199   1.389
 9912SOL    HW230636   5.049   0.199   1.321
 9913SOL     OW30637   4.596   2.064   2.578
 9913SOL    HW130638   4.636   2.153   2.555
 9913SOL    HW230639   4.643   1.992   2.528
 9914SOL     OW30640   1.746   6.132   5.561
 9914SOL    HW130641   1.699   6.208   5.606
 9914SOL    HW230642   1.685   6.054   5.554
 9915SOL     OW30643   5.286   3.664   4.618
 9915SOL    HW130644   5.371   3.683   4.570
 9915SOL    HW230645   5.209   3.696   4.563
 9916SOL     OW30646   2.391   3.106   1.356
 9916SOL    HW130647   2.439   3.169   1.418
 9916SOL    HW230648   2.414   3.012   1.380
 9917SOL     OW30649   2.250   3.504   5.678
 9917SOL    HW130650   2.339   3.490   5.635
 9917SOL    HW230651   2.181   3.518   5.607
 9918SOL     OW30652   1.425   1.117   5.035
 9918SOL    HW130653   1.508   1.071   5.065
 9918SOL    HW230654   1.373   1.147   5.114
 9919SOL     OW30655   6.977   5.536   3.082
 9919SOL    HW130656   0.048   5.525   3.109
 9919SOL    HW230657   6.937   5.612   3.134
 9920SOL     OW30658   4.663   6.786   1.463
 9920SOL    HW130659   4.762   6.796   1.465
 9920SOL    HW230660   4.622   6.855   1.523
 9921SOL     OW30661   5.291   0.175   2.728
 9921SOL    HW130662   5.278   0.083   2.765
 9921SOL    HW230663   5.219   0.235   2.763
 9922SOL     OW30664   4.531   2.809   1.433
 9922SOL    HW130665   4.492   2.851   1.515
 9922SOL    HW230666   4.613   2.860   1.406
 9923SOL     OW30667   6.641   1.670   6.315
 9923SOL    HW130668   6.718   1.673   6.378
 9923SOL    HW230669   6.576   1.743   6.337
 9924SOL     OW30670   5.882   0.783   3.069
 9924SOL    HW130671   5.889   0.778   3.169
 9924SOL    HW230672   5.962   0.739   3.028
 9925SOL     OW30673   2.191   2.790   5.012
 9925SOL    HW130674   2.244   2.874   5.008
 9925SOL    HW230675   2.207   2.736   4.930
 9926SOL     OW30676   1.100   1.442   0.226
 9926SOL    HW130677   1.025   1.484   0.174
 9926SOL    HW230678   1.143   1.511   0.283
 9927SOL     OW30679   0.875   2.481   2.656
 9927SOL    HW130680   0.856   2.408   2.591
 9927SOL    HW230681   0.805   2.481   2.728
 9928SOL     OW30682   0.167   3.182   2.850
 9928SOL    HW130683   0.156   3.083   2.843
 9928SOL    HW230684   0.102   3.218   2.917
 9929SOL     OW30685   1.973   4.341   6.237
 9929SOL    HW130686   1.939   4.306   6.150
 9929SOL    HW230687   2.057   4.393   6.221
 9930SOL     OW30688   0.484   5.739   0.014
 9930SOL    HW130689   0.471   5.762   0.110
 9930SOL    HW230690   0.421   5.792   6.982
 9931SOL     OW30691   2.445   5.601   6.212
 9931SOL    HW130692   2.360   5.553   6.236
 9931SOL    HW230693   2.441   5.630   6.116
 9932SOL     OW30694   1.972   2.180   0.241
 9932SOL    HW130695   2.015   2.094   0.268
 9932SOL    HW230696   1.939   2.173   0.147
 9933SOL     OW30697   1.037   2.354   3.663
 9933SOL    HW130698   0.976   2.424   3.701
 9933SOL    HW230699   1.068   2.293   3.736
 9934SOL     OW30700   3.946   1.011   6.188
 9934SOL    HW130701   3.910   1.001   6.281
 9934SOL    HW230702   4.020   0.945   6.173
 9935SOL     OW30703   2.801   2.210   0.744
 9935SOL    HW130704   2.783   2.137   0.810
 9935SOL    HW230705   2.893   2.199   0.706
 9936SOL     OW30706   5.881   6.462   5.641
 9936SOL    HW130707   5.784   6.463   5.664
 9936SOL    HW230708   5.928   6.396   5.699
 9937SOL     OW30709   0.583   0.297   3.509
 9937SOL    HW130710   0.484   0.284   3.516
 9937SOL    HW230711   0.630   0.219   3.550
 9938SOL     OW30712   7.000   1.606   3.734
 9938SOL    HW130713   0.023   1.540   3.792
 9938SOL    HW230714   0.039   1.640   3.664
 9939SOL     OW30715   3.048   4.260   0.977
 9939SOL    HW130716   3.071   4.322   1.052
 9939SOL    HW230717   3.071   4.166   1.002
 9940SOL     OW30718   0.232   1.096   3.601
 9940SOL    HW130719   0.224   1.189   3.564
 9940SOL    HW230720   0.148   1.072   3.650
 9941SOL     OW30721   5.380   4.946   0.000
 9941SOL    HW130722   5.463   4.986   0.039
 9941SOL    HW230723   5.394   4.929   6.927
 9942SOL     OW30724   4.853   4.741   3.046
 9942SOL    HW130725   4.802   4.827   3.050
 9942SOL    HW230726   4.847   4.703   2.954
 9943SOL     OW30727   2.306   3.789   6.295
 9943SOL    HW130728   2.369   3.860   6.265
 9943SOL    HW230729   2.348   3.699   6.283
 9944SOL     OW30730   0.635   4.467   6.410
 9944SOL    HW130731   0.573   4.518   6.471
 9944SOL    HW230732   0.727   4.465   6.450
 9945SOL     OW30733   6.522   3.331   6.000
 9945SOL    HW130734   6.615   3.367   6.002
 9945SOL    HW230735   6.524   3.233   5.982
 9946SOL     OW30736   5.598   1.670   1.494
 9946SOL    HW130737   5.579   1.723   1.577
 9946SOL    HW230738   5.512   1.632   1.459
 9947SOL     OW30739   1.308   1.772   3.652
 9947SOL    HW130740   1.261   1.860   3.649
 9947SOL    HW230741   1.378   1.769   3.581
 9948SOL     OW30742   5.505   0.015   4.325
 9948SOL    HW130743   5.536   0.092   4.269
 9948SOL    HW230744   5.426   0.042   4.380
 9949SOL     OW30745   6.058   5.206   4.177
 9949SOL    HW130746   6.141   5.151   4.166
 9949SOL    HW230747   5.996   5.187   4.100
 9950SOL     OW30748   5.705   4.227   5.373
 9950SOL    HW130749   5.665   4.136   5.362
 9950SOL    HW230750   5.781   4.222   5.438
 9951SOL     OW30751   0.367   1.932   3.763
 9951SOL    HW130752   0.396   1.994   3.836
 9951SOL    HW230753   0.399   1.967   3.675
 9952SOL     OW30754   0.715   5.042   1.793
 9952SOL    HW130755   0.796   4.994   1.827
 9952SOL    HW230756   0.742   5.130   1.754
 9953SOL     OW30757   5.664   2.485   3.679
 9953SOL    HW130758   5.607   2.557   3.639
 9953SOL    HW230759   5.702   2.516   3.766
 9954SOL     OW30760   3.493   1.499   6.038
 9954SOL    HW130761   3.509   1.500   5.940
 9954SOL    HW230762   3.572   1.459   6.085
 9955SOL     OW30763   5.579   4.203   0.866
 9955SOL    HW130764   5.641   4.125   0.862
 9955SOL    HW230765   5.496   4.182   0.814
 9956SOL     OW30766   2.139   3.325   3.168
 9956SOL    HW130767   2.161   3.269   3.089
 9956SOL    HW230768   2.130   3.267   3.249
 9957SOL     OW30769   5.399   0.075   0.930
 9957SOL    HW130770   5.308   0.116   0.934
 9957SOL    HW230771   5.394   7.004   0.961
 9958SOL     OW30772   5.314   6.133   0.266
 9958SOL    HW130773   5.344   6.117   0.172
 9958SOL    HW230774   5.271   6.050   0.301
 9959SOL     OW30775   5.094   4.813   0.834
 9959SOL    HW130776   5.104   4.767   0.922
 9959SOL    HW230777   5.134   4.756   0.762
 9960SOL     OW30778   0.509   0.562   0.143
 9960SOL    HW130779   0.577   0.611   0.197
 9960SOL    HW230780   0.546   0.540   0.053
 9961SOL     OW30781   2.909   5.279   1.195
 9961SOL    HW130782   2.951   5.315   1.112
 9961SOL    HW230783   2.950   5.323   1.275
 9962SOL     OW30784   2.996   0.497   1.415
 9962SOL    HW130785   2.905   0.511   1.454
 9962SOL    HW230786   3.022   0.401   1.425
 9963SOL     OW30787   0.752   0.906   6.397
 9963SOL    HW130788   0.736   0.811   6.369
 9963SOL    HW230789   0.799   0.954   6.324
 9964SOL     OW30790   4.735   4.202   5.938
 9964SOL    HW130791   4.804   4.194   6.010
 9964SOL    HW230792   4.780   4.210   5.849
 9965SOL     OW30793   2.741   5.453   3.990
 9965SOL    HW130794   2.683   5.380   4.026
 9965SOL    HW230795   2.686   5.513   3.932
 9966SOL     OW30796   3.891   4.866   2.047
 9966SOL    HW130797   3.891   4.881   2.146
 9966SOL    HW230798   3.798   4.849   2.016
 9967SOL     OW30799   6.731   0.525   2.808
 9967SOL    HW130800   6.704   0.555   2.899
 9967SOL    HW230801   6.794   0.448   2.815
 9968SOL     OW30802   2.983   6.622   0.160
 9968SOL    HW130803   2.984   6.688   0.235
 9968SOL    HW230804   2.975   6.669   0.073
 9969SOL     OW30805   1.541   6.039   3.635
 9969SOL    HW130806   1.619   6.051   3.573
 9969SOL    HW230807   1.569   6.060   3.728
 9970SOL     OW30808   6.384   3.805   1.574
 9970SOL    HW130809   6.301   3.789   1.521
 9970SOL    HW230810   6.394   3.903   1.592
 9971SOL     OW30811   0.551   5.387   3.369
 9971SOL    HW130812   0.592   5.477   3.382
 9971SOL    HW230813   0.548   5.365   3.272
 9972SOL     OW30814   2.886   3.755   6.539
 9972SOL    HW130815   2.827   3.833   6.518
 9972SOL    HW230816   2.937   3.728   6.457
 9973SOL     OW30817   2.874   2.290   3.648
 9973SOL    HW130818   2.904   2.317   3.740
 9973SOL    HW230819   2.882   2.191   3.638
 9974SOL     OW30820   1.164   3.016   3.030
 9974SOL    HW130821   1.114   3.029   2.944
 9974SOL    HW230822   1.147   2.924   3.065
 9975SOL     OW30823   2.062   5.128   6.852
 9975SOL    HW130824   2.084   5.225   6.865
 9975SOL    HW230825   2.113   5.073   6.918
 9976SOL     OW30826   3.335   4.075   6.408
 9976SOL    HW130827   3.252   4.109   6.365
 9976SOL    HW230828   3.315   4.045   6.501
 9977SOL     OW30829   4.811   6.409   5.608
 9977SOL    HW130830   4.724   6.449   5.639
 9977SOL    HW230831   4.844   6.459   5.528
 9978SOL     OW30832   0.798   3.570   6.706
 9978SOL    HW130833   0.728   3.639   6.688
 9978SOL    HW230834   0.757   3.479   6.702
 9979SOL     OW30835   3.804   3.405   4.777
 9979SOL    HW130836   3.812   3.486   4.720
 9979SOL    HW230837   3.894   3.377   4.809
 9980SOL     OW30838   2.301   1.962   0.708
 9980SOL    HW130839   2.204   1.984   0.720
 9980SOL    HW230840   2.334   1.911   0.787
 9981SOL     OW30841   7.002   2.837   1.567
 9981SOL    HW130842   0.065   2.789   1.573
 9981SOL    HW230843   7.018   2.933   1.546
 9982SOL     OW30844   1.930   2.087   4.811
 9982SOL    HW130845   1.879   2.140   4.744
 9982SOL    HW230846   1.894   2.105   4.903
 9983SOL     OW30847   1.157   2.576   2.560
 9983SOL    HW130848   1.193   2.629   2.636
 9983SOL    HW230849   1.080   2.521   2.591
 9984SOL     OW30850   0.545   5.806   1.343
 9984SOL    HW130851   0.508   5.713   1.350
 9984SOL    HW230852   0.605   5.824   1.421
 9985SOL     OW30853   4.258   4.565   0.532
 9985SOL    HW130854   4.312   4.514   0.599
 9985SOL    HW230855   4.164   4.574   0.564
 9986SOL     OW30856   5.602   5.177   7.010
 9986SOL    HW130857   5.531   5.196   6.942
 9986SOL    HW230858   5.684   5.230   6.988
 9987SOL     OW30859   5.138   2.849   1.084
 9987SOL    HW130860   5.086   2.781   1.033
 9987SOL    HW230861   5.228   2.811   1.108
 9988SOL     OW30862   5.200   6.234   4.391
 9988SOL    HW130863   5.197   6.333   4.386
 9988SOL    HW230864   5.138   6.195   4.323
 9989SOL     OW30865   6.494   5.226   2.462
 9989SOL    HW130866   6.547   5.307   2.436
 9989SOL    HW230867   6.480   5.226   2.561
 9990SOL     OW30868   0.744   6.858   3.728
 9990SOL    HW130869   0.720   6.911   3.647
 9990SOL    HW230870   0.660   6.834   3.778
 9991SOL     OW30871   1.621   4.955   3.341
 9991SOL    HW130872   1.682   4.901   3.283
 9991SOL    HW230873   1.674   5.003   3.411
 9992SOL     OW30874   3.421   4.923   0.759
 9992SOL    HW130875   3.498   4.984   0.776
 9992SOL    HW230876   3.375   4.903   0.845
 9993SOL     OW30877   3.709   6.498   4.760
 9993SOL    HW130878   3.672   6.406   4.768
 9993SOL    HW230879   3.660   6.548   4.689
 9994SOL     OW30880   6.254   5.018   4.754
 9994SOL    HW130881   6.331   4.955   4.747
 9994SOL    HW230882   6.246   5.071   4.669
 9995SOL     OW30883   2.998   0.734   4.864
 9995SOL    HW130884   2.964   0.671   4.794
 9995SOL    HW230885   2.968   0.703   4.954
 9996SOL     OW30886   2.632   3.187   1.097
 9996SOL    HW130887   2.621   3.208   1.194
 9996SOL    HW230888   2.557   3.228   1.045
 9997SOL     OW30889   5.952   2.900   3.577
 9997SOL    HW130890   6.022   2.939   3.517
 9997SOL    HW230891   5.938   2.804   3.555
 9998SOL     OW30892   4.926   4.537   2.684
 9998SOL    HW130893   5.007   4.571   2.732
 9998SOL    HW230894   4.889   4.458   2.732
 9999SOL     OW30895   1.395   6.417   3.480
 9999SOL    HW130896   1.401   6.346   3.551
 9999SOL    HW230897   1.315   6.400   3.423
10000SOL     OW30898   5.686   2.285   1.626
10000SOL    HW130899   5.704   2.377   1.660
10000SOL    HW230900   5.634   2.234   1.695
10001SOL     OW30901   4.194   6.306   2.121
10001SOL    HW130902   4.219   6.351   2.207
10001SOL    HW230903   4.114   6.351   2.081
10002SOL     OW30904   2.740   0.787   1.687
10002SOL    HW130905   2.836   0.774   1.661
10002SOL    HW230906   2.723   0.744   1.775
10003SOL     OW30907   1.598   0.729   4.016
10003SOL    HW130908   1.611   0.778   4.102
10003SOL    HW230909   1.505   0.746   3.982
10004SOL     OW30910   6.305   3.948   5.000
10004SOL    HW130911   6.249   3.996   5.067
10004SOL    HW230912   6.288   3.850   5.006
10005SOL     OW30913   1.944   5.424   3.257
10005SOL    HW130914   1.973   5.329   3.270
10005SOL    HW230915   1.945   5.447   3.160
10006SOL     OW30916   5.262   0.141   5.059
10006SOL    HW130917   5.167   0.129   5.087
10006SOL    HW230918   5.276   0.235   5.026
10007SOL     OW30919   1.686   4.861   4.092
10007SOL    HW130920   1.631   4.941   4.118
10007SOL    HW230921   1.688   4.796   4.167
10008SOL     OW30922   4.580   1.192   5.932
10008SOL    HW130923   4.601   1.193   6.030
10008SOL    HW230924   4.662   1.214   5.880
10009SOL     OW30925   1.497   3.228   2.004
10009SOL    HW130926   1.572   3.164   1.985
10009SOL    HW230927   1.416   3.199   1.953
10010SOL     OW30928   2.509   3.842   0.079
10010SOL    HW130929   2.441   3.801   0.018
10010SOL    HW230930   2.462   3.897   0.148
10011SOL     OW30931   1.283   3.556   0.532
10011SOL    HW130932   1.257   3.599   0.618
10011SOL    HW230933   1.380   3.574   0.514
10012SOL     OW30934   4.931   1.701   2.531
10012SOL    HW130935   5.018   1.697   2.579
10012SOL    HW230936   4.857   1.673   2.593
10013SOL     OW30937   0.326   6.125   4.720
10013SOL    HW130938   0.261   6.052   4.698
10013SOL    HW230939   0.290   6.180   4.795
10014SOL     OW30940   0.863   6.955   2.942
10014SOL    HW130941   0.829   6.869   2.980
10014SOL    HW230942   0.845   0.005   3.006
10015SOL     OW30943   4.301   4.577   5.762
10015SOL    HW130944   4.301   4.478   5.747
10015SOL    HW230945   4.385   4.616   5.727
10016SOL     OW30946   2.316   0.284   2.714
10016SOL    HW130947   2.380   0.309   2.786
10016SOL    HW230948   2.356   0.304   2.625
10017SOL     OW30949   2.682   1.783   2.645
10017SOL    HW130950   2.684   1.712   2.715
10017SOL    HW230951   2.771   1.829   2.641
10018SOL     OW30952   6.382   2.534   6.149
10018SOL    HW130953   6.319   2.498   6.218
10018SOL    HW230954   6.449   2.594   6.193
10019SOL     OW30955   0.675   2.017   2.751
10019SOL    HW130956   0.629   2.096   2.791
10019SOL    HW230957   0.748   1.986   2.812
10020SOL     OW30958   6.373   0.666   2.183
10020SOL    HW130959   6.325   0.581   2.159
10020SOL    HW230960   6.316   0.744   2.159
10021SOL     OW30961   1.207   4.080   2.337
10021SOL    HW130962   1.296   4.111   2.303
10021SOL    HW230963   1.135   4.141   2.302
10022SOL     OW30964   2.714   6.074   0.280
10022SOL    HW130965   2.631   6.109   0.324
10022SOL    HW230966   2.770   6.151   0.250
10023SOL     OW30967   1.339   6.526   5.759
10023SOL    HW130968   1.298   6.531   5.849
10023SOL    HW230969   1.286   6.580   5.694
10024SOL     OW30970   1.802   4.540   2.780
10024SOL    HW130971   1.891   4.499   2.758
10024SOL    HW230972   1.749   4.477   2.836
10025SOL     OW30973   1.122   4.466   1.792
10025SOL    HW130974   1.078   4.451   1.881
10025SOL    HW230975   1.102   4.389   1.732
10026SOL     OW30976   5.547   1.678   4.053
10026SOL    HW130977   5.544   1.721   4.143
10026SOL    HW230978   5.549   1.748   3.982
10027SOL     OW30979   1.880   1.581   5.668
10027SOL    HW130980   1.792   1.542   5.696
10027SOL    HW230981   1.903   1.548   5.576
10028SOL     OW30982   4.823   0.569   1.757
10028SOL    HW130983   4.772   0.509   1.819
10028SOL    HW230984   4.786   0.661   1.763
10029SOL     OW30985   0.104   3.469   5.075
10029SOL    HW130986   0.138   3.396   5.134
10029SOL    HW230987   0.108   3.439   4.979
10030SOL     OW30988   2.512   0.042   5.003
10030SOL    HW130989   2.472   0.015   4.916
10030SOL    HW230990   2.612   0.043   4.995
10031SOL     OW30991   3.047   4.964   4.147
10031SOL    HW130992   3.091   5.018   4.075
10031SOL    HW230993   3.112   4.946   4.220
10032SOL     OW30994   2.918   6.245   4.768
10032SOL    HW130995   2.851   6.172   4.751
10032SOL    HW230996   3.000   6.205   4.808
10033SOL     OW30997   3.820   1.416   2.957
10033SOL    HW130998   3.784   1.421   2.864
10033SOL    HW230999   3.807   1.505   3.002
10034SOL     OW31000   2.605   0.432   3.517
10034SOL    HW131001   2.609   0.532   3.516
10034SOL    HW231002   2.681   0.395   3.466
10035SOL     OW31003   5.945   3.023   2.063
10035SOL    HW131004   5.893   3.092   2.013
10035SOL    HW231005   5.953   3.050   2.158
10036SOL     OW31006   6.739   0.578   6.470
10036SOL    HW131007   6.646   0.547   6.489
10036SOL    HW231008   6.790   0.587   6.556
10037SOL     OW31009   6.419   0.010   6.702
10037SOL    HW131010   6.467   6.977   6.769
10037SOL    HW231011   6.324   0.023   6.731
10038SOL     OW31012   4.491   0.128   0.035
10038SOL    HW131013   4.411   0.069   0.034
10038SOL    HW231014   4.545   0.112   6.977
10039SOL     OW31015   6.128   5.451   3.528
10039SOL    HW131016   6.224   5.444   3.555
10039SOL    HW231017   6.099   5.546   3.532
10040SOL     OW31018   3.820   0.488   0.046
10040SOL    HW131019   3.854   0.557   0.110
10040SOL    HW231020   3.847   0.397   0.077
10041SOL     OW31021   6.743   4.976   4.839
10041SOL    HW131022   6.810   4.910   4.803
10041SOL    HW231023   6.728   5.048   4.772
10042SOL     OW31024   0.121   0.491   5.056
10042SOL    HW131025   0.186   0.435   5.005
10042SOL    HW231026   0.078   0.435   5.128
10043SOL     OW31027   1.085   1.093   2.924
10043SOL    HW131028   1.155   1.055   2.985
10043SOL    HW231029   0.997   1.051   2.945
10044SOL     OW31030   2.411   1.417   5.651
10044SOL    HW131031   2.351   1.481   5.698
10044SOL    HW231032   2.451   1.461   5.570
10045SOL     OW31033   4.010   6.251   4.806
10045SOL    HW131034   3.949   6.300   4.745
10045SOL    HW231035   4.101   6.293   4.802
10046SOL     OW31036   0.061   2.556   1.806
10046SOL    HW131037   0.109   2.537   1.892
10046SOL    HW231038   0.123   2.605   1.744
10047SOL     OW31039   6.739   1.770   5.059
10047SOL    HW131040   6.733   1.855   5.113
10047SOL    HW231041   6.832   1.757   5.028
10048SOL     OW31042   3.508   1.833   1.658
10048SOL    HW131043   3.450   1.838   1.577
10048SOL    HW231044   3.453   1.806   1.737
10049SOL     OW31045   2.161   0.674   6.191
10049SOL    HW131046   2.152   0.579   6.163
10049SOL    HW231047   2.199   0.728   6.116
10050SOL     OW31048   5.021   2.634   4.432
10050SOL    HW131049   5.070   2.713   4.394
10050SOL    HW231050   5.028   2.637   4.532
10051SOL     OW31051   6.042   3.225   4.763
10051SOL    HW131052   6.032   3.145   4.703
10051SOL    HW231053   5.998   3.304   4.720
10052SOL     OW31054   1.432   3.378   1.675
10052SOL    HW131055   1.523   3.383   1.716
10052SOL    HW231056   1.373   3.446   1.717
10053SOL     OW31057   3.301   5.060   3.502
10053SOL    HW131058   3.378   5.019   3.551
10053SOL    HW231059   3.237   4.989   3.474
10054SOL     OW31060   3.634   5.430   5.065
10054SOL    HW131061   3.697   5.506   5.077
10054SOL    HW231062   3.573   5.449   4.988
10055SOL     OW31063   6.579   2.192   4.893
10055SOL    HW131064   6.553   2.150   4.980
10055SOL    HW231065   6.675   2.173   4.873
10056SOL     OW31066   6.307   4.726   1.818
10056SOL    HW131067   6.354   4.813   1.804
10056SOL    HW231068   6.249   4.730   1.899
10057SOL     OW31069   3.907   1.678   4.384
10057SOL    HW131070   3.975   1.606   4.368
10057SOL    HW231071   3.855   1.656   4.466
10058SOL     OW31072   0.193   5.352   4.189
10058SOL    HW131073   0.185   5.252   4.186
10058SOL    HW231074   0.273   5.381   4.136
10059SOL     OW31075   5.367   0.743   0.905
10059SOL    HW131076   5.360   0.814   0.974
10059SOL    HW231077   5.380   0.654   0.949
10060SOL     OW31078   3.134   2.239   1.756
10060SOL    HW131079   3.093   2.279   1.839
10060SOL    HW231080   3.229   2.267   1.749
10061SOL     OW31081   6.357   1.419   4.256
10061SOL    HW131082   6.337   1.332   4.303
10061SOL    HW231083   6.278   1.447   4.202
10062SOL     OW31084   6.446   5.811   3.641
10062SOL    HW131085   6.450   5.762   3.729
10062SOL    HW231086   6.392   5.758   3.576
10063SOL     OW31087   0.956   3.652   3.572
10063SOL    HW131088   1.035   3.675   3.629
10063SOL    HW231089   0.953   3.714   3.494
10064SOL     OW31090   4.938   5.776   4.199
10064SOL    HW131091   4.905   5.691   4.156
10064SOL    HW231092   4.875   5.804   4.271
10065SOL     OW31093   1.096   6.694   2.636
10065SOL    HW131094   1.064   6.606   2.670
10065SOL    HW231095   1.086   6.696   2.536
10066SOL     OW31096   0.877   7.008   4.433
10066SOL    HW131097   0.817   0.046   4.384
10066SOL    HW231098   0.883   6.922   4.382
10067SOL     OW31099   4.834   4.479   3.980
10067SOL    HW131100   4.934   4.471   3.984
10067SOL    HW231101   4.802   4.450   3.889
10068SOL     OW31102   5.334   2.908   4.658
10068SOL    HW131103   5.395   2.942   4.731
10068SOL    HW231104   5.289   2.985   4.613
10069SOL     OW31105   3.275   1.171   3.629
10069SOL    HW131106   3.354   1.228   3.610
10069SOL    HW231107   3.191   1.221   3.607
10070SOL     OW31108   0.947   6.710   4.981
10070SOL    HW131109   0.913   6.619   4.958
10070SOL    HW231110   0.872   6.766   5.016
10071SOL     OW31111   4.864   5.325   3.923
10071SOL    HW131112   4.899   5.374   3.843
10071SOL    HW231113   4.900   5.232   3.924
10072SOL     OW31114   0.410   6.442   3.495
10072SOL    HW131115   0.469   6.367   3.524
10072SOL    HW231116   0.412   6.450   3.396
10073SOL     OW31117   6.668   4.966   5.656
10073SOL    HW131118   6.737   4.948   5.585
10073SOL    HW231119   6.700   4.930   5.743
10074SOL     OW31120   1.243   0.233   6.316
10074SOL    HW131121   1.281   0.145   6.287
10074SOL    HW231122   1.312   0.304   6.305
10075SOL     OW31123   1.644   2.683   4.000
10075SOL    HW131124   1.625   2.778   4.025
10075SOL    HW231125   1.718   2.680   3.932
10076SOL     OW31126   4.835   6.805   4.537
10076SOL    HW131127   4.922   6.757   4.525
10076SOL    HW231128   4.765   6.741   4.567
10077SOL     OW31129   3.962   2.368   6.125
10077SOL    HW131130   4.059   2.348   6.140
10077SOL    HW231131   3.920   2.295   6.071
10078SOL     OW31132   5.691   0.032   5.241
10078SOL    HW131133   5.631   0.039   5.161
10078SOL    HW231134   5.775   0.084   5.224
10079SOL     OW31135   1.097   3.046   1.259
10079SOL    HW131136   1.039   3.114   1.305
10079SOL    HW231137   1.191   3.055   1.293
10080SOL     OW31138   2.382   2.753   0.066
10080SOL    HW131139   2.434   2.813   0.127
10080SOL    HW231140   2.441   2.721   7.016
10081SOL     OW31141   0.562   0.292   6.521
10081SOL    HW131142   0.658   0.297   6.493
10081SOL    HW231143   0.525   0.384   6.531
10082SOL     OW31144   6.127   2.497   1.584
10082SOL    HW131145   6.227   2.500   1.586
10082SOL    HW231146   6.093   2.461   1.671
10083SOL     OW31147   3.863   0.089   3.718
10083SOL    HW131148   3.793   0.159   3.728
10083SOL    HW231149   3.867   0.059   3.623
10084SOL     OW31150   2.478   1.127   5.715
10084SOL    HW131151   2.464   1.217   5.674
10084SOL    HW231152   2.575   1.106   5.720
10085SOL     OW31153   0.999   5.664   3.254
10085SOL    HW131154   1.075   5.680   3.318
10085SOL    HW231155   0.994   5.740   3.189
10086SOL     OW31156   6.140   4.648   2.018
10086SOL    HW131157   6.089   4.579   1.966
10086SOL    HW231158   6.198   4.603   2.085
10087SOL     OW31159   1.281   0.620   3.996
10087SOL    HW131160   1.289   0.695   4.061
10087SOL    HW231161   1.309   0.535   4.040
10088SOL     OW31162   0.800   6.377   4.719
10088SOL    HW131163   0.766   6.448   4.658
10088SOL    HW231164   0.868   6.321   4.671
10089SOL     OW31165   2.443   1.740   2.384
10089SOL    HW131166   2.394   1.791   2.314
10089SOL    HW231167   2.386   1.733   2.466
10090SOL     OW31168   1.094   4.304   0.495
10090SOL    HW131169   1.027   4.256   0.552
10090SOL    HW231170   1.186   4.282   0.526
10091SOL     OW31171   1.263   3.879   4.274
10091SOL    HW131172   1.281   3.836   4.185
10091SOL    HW231173   1.324   3.957   4.286
10092SOL     OW31174   1.667   3.349   4.883
10092SOL    HW131175   1.634   3.439   4.855
10092SOL    HW231176   1.757   3.332   4.843
10093SOL     OW31177   0.084   5.722   5.317
10093SOL    HW131178   0.152   5.737   5.245
10093SOL    HW231179   0.008   5.786   5.305
10094SOL     OW31180   2.419   1.029   2.438
10094SOL    HW131181   2.465   1.094   2.376
10094SOL    HW231182   2.333   0.999   2.396
10095SOL     OW31183   7.008   1.293   6.065
10095SOL    HW131184   6.944   1.217   6.069
10095SOL    HW231185   0.069   1.263   6.024
10096SOL     OW31186   0.276   5.228   2.755
10096SOL    HW131187   0.326   5.226   2.668
10096SOL    HW231188   0.219   5.310   2.759
10097SOL     OW31189   1.228   1.305   0.902
10097SOL    HW131190   1.131   1.282   0.896
10097SOL    HW231191   1.274   1.245   0.967
10098SOL     OW31192   2.093   6.144   6.011
10098SOL    HW131193   2.069   6.212   6.080
10098SOL    HW231194   2.164   6.083   6.048
10099SOL     OW31195   6.770   3.863   5.058
10099SOL    HW131196   6.681   3.819   5.073
10099SOL    HW231197   6.843   3.799   5.084
10100SOL     OW31198   4.841   1.031   4.904
10100SOL    HW131199   4.777   1.023   4.981
10100SOL    HW231200   4.935   1.032   4.938
10101SOL     OW31201   7.019   4.709   2.411
10101SOL    HW131202   6.976   4.751   2.331
10101SOL    HW231203   6.990   4.613   2.418
10102SOL     OW31204   3.447   1.349   2.308
10102SOL    HW131205   3.520   1.346   2.376
10102SOL    HW231206   3.430   1.444   2.281
10103SOL     OW31207   2.703   1.321   5.418
10103SOL    HW131208   2.605   1.332   5.400
10103SOL    HW231209   2.755   1.349   5.337
10104SOL     OW31210   1.240   4.857   5.377
10104SOL    HW131211   1.148   4.828   5.349
10104SOL    HW231212   1.254   4.953   5.352
10105SOL     OW31213   1.812   0.929   6.238
10105SOL    HW131214   1.883   0.992   6.208
10105SOL    HW231215   1.743   0.920   6.167
10106SOL     OW31216   5.209   5.721   0.975
10106SOL    HW131217   5.156   5.718   1.060
10106SOL    HW231218   5.303   5.750   0.995
10107SOL     OW31219   5.935   1.494   5.999
10107SOL    HW131220   5.941   1.413   5.940
10107SOL    HW231221   5.871   1.559   5.958
10108SOL     OW31222   6.318   6.535   0.568
10108SOL    HW131223   6.281   6.613   0.617
10108SOL    HW231224   6.251   6.502   0.501
10109SOL     OW31225   5.117   5.791   3.383
10109SOL    HW131226   5.062   5.716   3.348
10109SOL    HW231227   5.214   5.769   3.371
10110SOL     OW31228   3.486   6.981   6.115
10110SOL    HW131229   3.495   0.056   6.120
10110SOL    HW231230   3.523   6.950   6.027
10111SOL     OW31231   6.506   3.210   3.452
10111SOL    HW131232   6.497   3.192   3.550
10111SOL    HW231233   6.601   3.196   3.424
10112SOL     OW31234   5.329   4.136   5.370
10112SOL    HW131235   5.266   4.188   5.427
10112SOL    HW231236   5.300   4.041   5.367
10113SOL     OW31237   4.151   0.763   0.079
10113SOL    HW131238   4.248   0.759   0.054
10113SOL    HW231239   4.137   0.718   0.167
10114SOL     OW31240   5.035   1.503   6.779
10114SOL    HW131241   5.014   1.492   6.876
10114SOL    HW231242   5.134   1.505   6.767
10115SOL     OW31243   2.137   2.581   3.930
10115SOL    HW131244   2.074   2.505   3.915
10115SOL    HW231245   2.084   2.664   3.948
10116SOL     OW31246   0.479   0.057   1.139
10116SOL    HW131247   0.547   0.115   1.185
10116SOL    HW231248   0.390   0.069   1.183
10117SOL     OW31249   6.159   0.467   5.297
10117SOL    HW131250   6.145   0.420   5.209
10117SOL    HW231251   6.097   0.545   5.303
10118SOL     OW31252   6.975   5.532   2.623
10118SOL    HW131253   6.887   5.530   2.671
10118SOL    HW231254   6.989   5.623   2.585
10119SOL     OW31255   2.471   0.709   5.216
10119SOL    HW131256   2.558   0.666   5.194
10119SOL    HW231257   2.486   0.790   5.272
10120SOL     OW31258   0.614   3.311   4.105
10120SOL    HW131259   0.649   3.307   4.012
10120SOL    HW231260   0.691   3.311   4.169
10121SOL     OW31261   6.079   4.928   5.116
10121SOL    HW131262   6.095   4.844   5.168
10121SOL    HW231263   5.981   4.940   5.100
10122SOL     OW31264   5.050   2.840   0.182
10122SOL    HW131265   5.056   2.752   0.136
10122SOL    HW231266   5.141   2.881   0.187
10123SOL     OW31267   0.156   6.066   0.865
10123SOL    HW131268   0.193   6.098   0.952
10123SOL    HW231269   0.126   6.145   0.811
10124SOL     OW31270   3.354   4.224   0.092
10124SOL    HW131271   3.374   4.307   0.144
10124SOL    HW231272   3.321   4.248   0.001
10125SOL     OW31273   2.065   1.212   2.943
10125SOL    HW131274   2.119   1.193   2.861
10125SOL    HW231275   2.065   1.131   3.003
10126SOL     OW31276   6.590   5.327   0.046
10126SOL    HW131277   6.581   5.234   0.011
10126SOL    HW231278   6.642   5.382   7.005
10127SOL     OW31279   3.400   5.423   5.370
10127SOL    HW131280   3.410   5.501   5.309
10127SOL    HW231281   3.486   5.372   5.374
10128SOL     OW31282   6.822   1.478   0.540
10128SOL    HW131283   6.834   1.380   0.555
10128SOL    HW231284   6.735   1.494   0.493
10129SOL     OW31285   5.091   2.681   3.715
10129SOL    HW131286   5.032   2.675   3.795
10129SOL    HW231287   5.073   2.604   3.654
10130SOL     OW31288   1.245   5.525   2.559
10130SOL    HW131289   1.264   5.569   2.471
10130SOL    HW231290   1.302   5.443   2.568
10131SOL     OW31291   0.498   1.787   2.204
10131SOL    HW131292   0.399   1.773   2.210
10131SOL    HW231293   0.522   1.875   2.244
10132SOL     OW31294   3.475   6.366   2.889
10132SOL    HW131295   3.432   6.426   2.956
10132SOL    HW231296   3.446   6.392   2.797
10133SOL     OW31297   4.283   6.239   3.871
10133SOL    HW131298   4.337   6.182   3.808
10133SOL    HW231299   4.278   6.332   3.834
10134SOL     OW31300   6.236   1.289   3.544
10134SOL    HW131301   6.276   1.303   3.453
10134SOL    HW231302   6.308   1.263   3.608
10135SOL     OW31303   4.532   4.412   2.864
10135SOL    HW131304   4.509   4.480   2.934
10135SOL    HW231305   4.525   4.455   2.773
10136SOL     OW31306   5.788   6.763   3.560
10136SOL    HW131307   5.871   6.738   3.609
10136SOL    HW231308   5.779   6.863   3.559
10137SOL     OW31309   6.133   5.645   4.636
10137SOL    HW131310   6.160   5.593   4.717
10137SOL    HW231311   6.101   5.736   4.664
10138SOL     OW31312   5.403   2.124   0.607
10138SOL    HW131313   5.308   2.102   0.584
10138SOL    HW231314   5.430   2.074   0.689
10139SOL     OW31315   3.431   2.875   3.243
10139SOL    HW131316   3.405   2.901   3.337
10139SOL    HW231317   3.531   2.869   3.237
10140SOL     OW31318   6.358   5.658   6.851
10140SOL    HW131319   6.413   5.643   6.933
10140SOL    HW231320   6.301   5.578   6.833
10141SOL     OW31321   2.372   1.934   4.792
10141SOL    HW131322   2.372   1.927   4.693
10141SOL    HW231323   2.278   1.944   4.824
10142SOL     OW31324   4.500   6.335   5.044
10142SOL    HW131325   4.586   6.373   5.078
10142SOL    HW231326   4.458   6.279   5.115
10143SOL     OW31327   4.762   0.053   1.357
10143SOL    HW131328   4.804   7.001   1.406
10143SOL    HW231329   4.663   0.050   1.369
10144SOL     OW31330   3.490   5.605   5.796
10144SOL    HW131331   3.566   5.590   5.733
10144SOL    HW231332   3.412   5.549   5.768
10145SOL     OW31333   2.987   5.919   5.995
10145SOL    HW131334   3.079   5.922   6.035
10145SOL    HW231335   2.956   6.012   5.977
10146SOL     OW31336   3.621   5.312   4.412
10146SOL    HW131337   3.531   5.270   4.398
10146SOL    HW231338   3.644   5.308   4.510
10147SOL     OW31339   4.674   4.248   4.003
10147SOL    HW131340   4.727   4.330   4.023
10147SOL    HW231341   4.588   4.274   3.959
10148SOL     OW31342   6.252   5.919   0.436
10148SOL    HW131343   6.177   5.943   0.373
10148SOL    HW231344   6.340   5.935   0.390
10149SOL     OW31345   4.706   1.526   0.708
10149SOL    HW131346   4.757   1.463   0.649
10149SOL    HW231347   4.758   1.542   0.792
10150SOL     OW31348   4.798   4.637   0.740
10150SOL    HW131349   4.789   4.691   0.823
10150SOL    HW231350   4.816   4.541   0.764
10151SOL     OW31351   1.165   6.991   6.559
10151SOL    HW131352   1.110   7.020   6.481
10151SOL    HW231353   1.204   0.047   6.603
10152SOL     OW31354   1.538   5.094   4.149
10152SOL    HW131355   1.521   5.171   4.087
10152SOL    HW231356   1.456   5.076   4.203
10153SOL     OW31357   4.400   5.877   3.634
10153SOL    HW131358   4.421   5.839   3.725
10153SOL    HW231359   4.466   5.948   3.612
10154SOL     OW31360   6.525   6.452   5.980
10154SOL    HW131361   6.483   6.376   6.029
10154SOL    HW231362   6.518   6.436   5.882
10155SOL     OW31363   3.873   0.690   6.158
10155SOL    HW131364   3.971   0.710   6.147
10155SOL    HW231365   3.820   0.750   6.100
10156SOL     OW31366   5.527   0.008   2.603
10156SOL    HW131367   5.502   0.099   2.571
10156SOL    HW231368   5.625   7.018   2.591
10157SOL     OW31369   5.913   1.809   6.301
10157SOL    HW131370   5.821   1.835   6.272
10157SOL    HW231371   5.920   1.710   6.305
10158SOL     OW31372   4.849   3.970   0.038
10158SOL    HW131373   4.911   4.045   0.063
10158SOL    HW231374   4.901   3.897   7.020
10159SOL     OW31375   2.802   2.897   6.091
10159SOL    HW131376   2.727   2.930   6.147
10159SOL    HW231377   2.767   2.859   6.006
10160SOL     OW31378   0.919   4.575   2.721
10160SOL    HW131379   0.829   4.594   2.760
10160SOL    HW231380   0.936   4.639   2.646
10161SOL     OW31381   3.220   4.672   0.307
10161SOL    HW131382   3.283   4.690   0.382
10161SOL    HW231383   3.232   4.741   0.236
10162SOL     OW31384   2.532   3.537   6.846
10162SOL    HW131385   2.582   3.454   6.870
10162SOL    HW231386   2.548   3.607   6.914
10163SOL     OW31387   5.937   3.950   6.270
10163SOL    HW131388   6.020   3.939   6.324
10163SOL    HW231389   5.869   3.883   6.299
10164SOL     OW31390   6.751   3.316   4.562
10164SOL    HW131391   6.658   3.332   4.593
10164SOL    HW231392   6.815   3.348   4.631
10165SOL     OW31393   0.776   2.182   4.669
10165SOL    HW131394   0.805   2.247   4.739
10165SOL    HW231395   0.772   2.090   4.708
10166SOL     OW31396   3.581   0.768   1.851
10166SOL    HW131397   3.568   0.814   1.763
10166SOL    HW231398   3.500   0.713   1.872
10167SOL     OW31399   5.466   0.990   6.542
10167SOL    HW131400   5.404   1.001   6.619
10167SOL    HW231401   5.497   0.895   6.536
10168SOL     OW31402   6.853   4.018   5.277
10168SOL    HW131403   6.931   4.078   5.294
10168SOL    HW231404   6.870   3.964   5.195
10169SOL     OW31405   6.413   4.753   3.361
10169SOL    HW131406   6.472   4.758   3.441
10169SOL    HW231407   6.462   4.789   3.281
10170SOL     OW31408   0.875   4.307   5.719
10170SOL    HW131409   0.899   4.323   5.815
10170SOL    HW231410   0.837   4.391   5.680
10171SOL     OW31411   6.759   3.455   5.817
10171SOL    HW131412   6.766   3.360   5.846
10171SOL    HW231413   6.846   3.485   5.778
10172SOL     OW31414   5.784   0.150   2.914
10172SOL    HW131415   5.814   0.197   2.998
10172SOL    HW231416   5.687   0.128   2.921
10173SOL     OW31417   1.846   2.430   0.898
10173SOL    HW131418   1.889   2.393   0.815
10173SOL    HW231419   1.917   2.460   0.962
10174SOL     OW31420   5.413   4.505   2.905
10174SOL    HW131421   5.458   4.584   2.863
10174SOL    HW231422   5.456   4.421   2.871
10175SOL     OW31423   6.721   2.799   4.045
10175SOL    HW131424   6.649   2.870   4.047
10175SOL    HW231425   6.752   2.786   3.951
10176SOL     OW31426   1.404   3.342   5.895
10176SOL    HW131427   1.486   3.374   5.848
10176SOL    HW231428   1.368   3.261   5.848
10177SOL     OW31429   3.176   0.232   0.642
10177SOL    HW131430   3.110   0.157   0.651
10177SOL    HW231431   3.269   0.197   0.653
10178SOL     OW31432   6.200   3.036   4.178
10178SOL    HW131433   6.212   3.130   4.146
10178SOL    HW231434   6.115   3.029   4.230
10179SOL     OW31435   0.546   2.111   6.448
10179SOL    HW131436   0.553   2.041   6.377
10179SOL    HW231437   0.450   2.126   6.470
10180SOL     OW31438   3.014   5.169   6.116
10180SOL    HW131439   2.953   5.222   6.174
10180SOL    HW231440   3.011   5.205   6.023
10181SOL     OW31441   5.417   3.385   1.865
10181SOL    HW131442   5.389   3.359   1.957
10181SOL    HW231443   5.349   3.446   1.825
10182SOL     OW31444   5.835   1.492   1.505
10182SOL    HW131445   5.873   1.509   1.596
10182SOL    HW231446   5.741   1.526   1.501
10183SOL     OW31447   1.149   2.188   6.516
10183SOL    HW131448   1.163   2.123   6.591
10183SOL    HW231449   1.056   2.223   6.520
10184SOL     OW31450   4.626   1.793   6.035
10184SOL    HW131451   4.633   1.706   5.986
10184SOL    HW231452   4.678   1.787   6.120
10185SOL     OW31453   4.828   6.734   0.893
10185SOL    HW131454   4.896   6.691   0.954
10185SOL    HW231455   4.872   6.760   0.807
10186SOL     OW31456   5.945   3.185   3.337
10186SOL    HW131457   5.912   3.278   3.320
10186SOL    HW231458   5.870   3.120   3.326
10187SOL     OW31459   0.383   1.926   1.932
10187SOL    HW131460   0.448   1.850   1.936
10187SOL    HW231461   0.417   2.002   1.988
10188SOL     OW31462   3.785   6.241   0.310
10188SOL    HW131463   3.745   6.312   0.252
10188SOL    HW231464   3.839   6.178   0.253
10189SOL     OW31465   2.301   0.108   5.487
10189SOL    HW131466   2.334   0.171   5.556
10189SOL    HW231467   2.231   0.153   5.430
10190SOL     OW31468   4.976   2.166   1.168
10190SOL    HW131469   4.896   2.191   1.223
10190SOL    HW231470   4.992   2.237   1.099
10191SOL     OW31471   5.200   4.581   6.980
10191SOL    HW131472   5.141   4.649   7.023
10191SOL    HW231473   5.233   4.617   6.892
10192SOL     OW31474   4.147   0.641   4.861
10192SOL    HW131475   4.235   0.648   4.908
10192SOL    HW231476   4.162   0.607   4.768
10193SOL     OW31477   4.084   3.932   1.514
10193SOL    HW131478   4.091   3.860   1.583
10193SOL    HW231479   4.164   3.928   1.454
10194SOL     OW31480   6.030   4.221   4.793
10194SOL    HW131481   5.939   4.214   4.834
10194SOL    HW231482   6.075   4.304   4.825
10195SOL     OW31483   5.620   4.530   1.696
10195SOL    HW131484   5.690   4.588   1.738
10195SOL    HW231485   5.659   4.484   1.616
10196SOL     OW31486   6.330   1.584   4.795
10196SOL    HW131487   6.286   1.608   4.709
10196SOL    HW231488   6.407   1.646   4.812
10197SOL     OW31489   6.811   1.422   4.831
10197SOL    HW131490   6.725   1.436   4.781
10197SOL    HW231491   6.888   1.429   4.768
10198SOL     OW31492   3.803   0.600   2.599
10198SOL    HW131493   3.899   0.592   2.570
10198SOL    HW231494   3.780   0.523   2.657
10199SOL     OW31495   0.956   2.386   5.635
10199SOL    HW131496   0.924   2.353   5.724
10199SOL    HW231497   1.006   2.472   5.647
10200SOL     OW31498   4.747   2.628   1.026
10200SOL    HW131499   4.843   2.632   0.996
10200SOL    HW231500   4.743   2.602   1.122
10201SOL     OW31501   1.452   4.303   0.735
10201SOL    HW131502   1.534   4.360   0.726
10201SOL    HW231503   1.382   4.353   0.785
10202SOL     OW31504   4.132   1.575   5.408
10202SOL    HW131505   4.159   1.488   5.450
10202SOL    HW231506   4.206   1.641   5.417
10203SOL     OW31507   5.356   2.559   4.925
10203SOL    HW131508   5.442   2.541   4.877
10203SOL    HW231509   5.288   2.491   4.896
10204SOL     OW31510   5.202   6.513   6.522
10204SOL    HW131511   5.212   6.576   6.598
10204SOL    HW231512   5.269   6.439   6.530
10205SOL     OW31513   0.534   1.595   6.824
10205SOL    HW131514   0.630   1.570   6.828
10205SOL    HW231515   0.520   1.684   6.867
10206SOL     OW31516   0.977   0.683   6.105
10206SOL    HW131517   1.020   0.594   6.087
10206SOL    HW231518   0.977   0.702   6.203
10207SOL     OW31519   1.337   1.906   6.275
10207SOL    HW131520   1.248   1.952   6.276
10207SOL    HW231521   1.347   1.856   6.189
10208SOL     OW31522   5.168   5.511   4.751
10208SOL    HW131523   5.227   5.463   4.685
10208SOL    HW231524   5.195   5.486   4.844
10209SOL     OW31525   7.018   0.393   6.099
10209SOL    HW131526   0.015   0.481   6.057
10209SOL    HW231527   6.967   0.408   6.184
10210SOL     OW31528   4.494   6.329   1.342
10210SOL    HW131529   4.426   6.391   1.381
10210SOL    HW231530   4.586   6.362   1.366
10211SOL     OW31531   4.108   6.388   5.298
10211SOL    HW131532   4.072   6.450   5.368
10211SOL    HW231533   4.096   6.429   5.208
10212SOL     OW31534   0.752   0.384   5.649
10212SOL    HW131535   0.837   0.349   5.609
10212SOL    HW231536   0.698   0.308   5.685
10213SOL     OW31537   5.283   2.308   0.771
10213SOL    HW131538   5.186   2.312   0.750
10213SOL    HW231539   5.331   2.260   0.698
10214SOL     OW31540   1.322   2.525   1.516
10214SOL    HW131541   1.342   2.581   1.435
10214SOL    HW231542   1.237   2.558   1.558
10215SOL     OW31543   4.158   3.514   2.495
10215SOL    HW131544   4.121   3.554   2.579
10215SOL    HW231545   4.191   3.421   2.515
10216SOL     OW31546   6.289   0.382   2.228
10216SOL    HW131547   6.316   0.428   2.312
10216SOL    HW231548   6.198   0.344   2.239
10217SOL     OW31549   3.031   1.025   3.593
10217SOL    HW131550   2.980   1.085   3.654
10217SOL    HW231551   3.128   1.028   3.616
10218SOL     OW31552   1.496   2.773   2.423
10218SOL    HW131553   1.442   2.844   2.379
10218SOL    HW231554   1.524   2.706   2.354
10219SOL     OW31555   0.768   1.088   2.151
10219SOL    HW131556   0.707   1.030   2.096
10219SOL    HW231557   0.746   1.184   2.134
10220SOL     OW31558   3.943   2.621   1.439
10220SOL    HW131559   3.952   2.525   1.413
10220SOL    HW231560   3.862   2.632   1.497
10221SOL     OW31561   0.972   6.403   2.914
10221SOL    HW131562   1.055   6.458   2.902
10221SOL    HW231563   0.896   6.447   2.865
10222SOL     OW31564   2.928   3.715   4.656
10222SOL    HW131565   2.924   3.688   4.753
10222SOL    HW231566   3.022   3.706   4.623
10223SOL     OW31567   0.726   5.639   1.086
10223SOL    HW131568   0.655   5.568   1.090
10223SOL    HW231569   0.800   5.615   1.149
10224SOL     OW31570   6.109   4.218   3.240
10224SOL    HW131571   6.188   4.163   3.212
10224SOL    HW231572   6.140   4.309   3.266
10225SOL     OW31573   1.464   3.648   5.746
10225SOL    HW131574   1.523   3.581   5.701
10225SOL    HW231575   1.509   3.682   5.828
10226SOL     OW31576   4.051   2.373   0.028
10226SOL    HW131577   4.114   2.381   6.976
10226SOL    HW231578   4.049   2.279   0.061
10227SOL     OW31579   5.567   3.975   0.611
10227SOL    HW131580   5.619   4.052   0.573
10227SOL    HW231581   5.471   4.000   0.617
10228SOL     OW31582   5.373   1.080   0.470
10228SOL    HW131583   5.324   0.997   0.442
10228SOL    HW231584   5.353   1.099   0.566
10229SOL     OW31585   0.536   3.373   5.125
10229SOL    HW131586   0.554   3.421   5.040
10229SOL    HW231587   0.621   3.333   5.160
10230SOL     OW31588   6.498   5.709   2.448
10230SOL    HW131589   6.546   5.796   2.459
10230SOL    HW231590   6.424   5.702   2.514
10231SOL     OW31591   1.757   6.565   3.089
10231SOL    HW131592   1.787   6.659   3.107
10231SOL    HW231593   1.692   6.537   3.160
10232SOL     OW31594   4.395   6.764   2.731
10232SOL    HW131595   4.371   6.776   2.828
10232SOL    HW231596   4.319   6.721   2.683
10233SOL     OW31597   3.860   4.264   6.326
10233SOL    HW131598   3.901   4.177   6.355
10233SOL    HW231599   3.764   4.265   6.353
10234SOL     OW31600   6.976   0.856   1.666
10234SOL    HW131601   6.985   0.951   1.697
10234SOL    HW231602   6.883   0.842   1.631
10235SOL     OW31603   0.960   1.145   3.203
10235SOL    HW131604   0.976   1.165   3.106
10235SOL    HW231605   1.047   1.142   3.252
10236SOL     OW31606   2.034   0.095   0.788
10236SOL    HW131607   2.119   0.094   0.842
10236SOL    HW231608   2.026   0.010   0.736
10237SOL     OW31609   0.409   3.582   6.945
10237SOL    HW131610   0.326   3.616   6.902
10237SOL    HW231611   0.387   3.547   0.012
10238SOL     OW31612   3.905   5.238   0.799
10238SOL    HW131613   3.856   5.307   0.746
10238SOL    HW231614   3.972   5.192   0.740
10239SOL     OW31615   1.491   2.917   4.787
10239SOL    HW131616   1.515   2.978   4.862
10239SOL    HW231617   1.399   2.939   4.755
10240SOL     OW31618   2.437   0.218   1.140
10240SOL    HW131619   2.392   0.298   1.179
10240SOL    HW231620   2.531   0.214   1.171
10241SOL     OW31621   4.529   2.131   1.552
10241SOL    HW131622   4.621   2.118   1.589
10241SOL    HW231623   4.513   2.228   1.535
10242SOL     OW31624   6.892   2.176   0.547
10242SOL    HW131625   6.940   2.124   0.618
10242SOL    HW231626   6.793   2.165   0.559
10243SOL     OW31627   2.770   4.883   0.802
10243SOL    HW131628   2.841   4.826   0.844
10243SOL    HW231629   2.746   4.845   0.713
10244SOL     OW31630   2.195   4.260   1.877
10244SOL    HW131631   2.224   4.320   1.952
10244SOL    HW231632   2.140   4.185   1.914
10245SOL     OW31633   3.879   4.074   0.446
10245SOL    HW131634   3.921   4.108   0.529
10245SOL    HW231635   3.799   4.130   0.423
10246SOL     OW31636   3.255   3.028   4.105
10246SOL    HW131637   3.179   3.040   4.041
10246SOL    HW231638   3.228   3.061   4.195
10247SOL     OW31639   1.156   3.735   4.516
10247SOL    HW131640   1.069   3.774   4.548
10247SOL    HW231641   1.169   3.757   4.420
10248SOL     OW31642   1.367   0.497   3.433
10248SOL    HW131643   1.292   0.434   3.455
10248SOL    HW231644   1.428   0.504   3.512
10249SOL     OW31645   2.222   4.596   6.731
10249SOL    HW131646   2.242   4.631   6.640
10249SOL    HW231647   2.132   4.553   6.732
10250SOL     OW31648   5.018   2.618   6.685
10250SOL    HW131649   5.117   2.629   6.673
10250SOL    HW231650   4.996   2.521   6.696
10251SOL     OW31651   1.720   0.492   4.143
10251SOL    HW131652   1.755   0.511   4.234
10251SOL    HW231653   1.683   0.576   4.104
10252SOL     OW31654   4.901   4.285   5.669
10252SOL    HW131655   4.960   4.269   5.747
10252SOL    HW231656   4.879   4.199   5.624
10253SOL     OW31657   4.139   6.494   6.867
10253SOL    HW131658   4.169   6.562   6.801
10253SOL    HW231659   4.206   6.488   6.942
10254SOL     OW31660   5.733   1.812   4.695
10254SOL    HW131661   5.830   1.827   4.675
10254SOL    HW231662   5.718   1.817   4.794
10255SOL     OW31663   3.622   5.572   1.561
10255SOL    HW131664   3.559   5.612   1.494
10255SOL    HW231665   3.577   5.563   1.649
10256SOL     OW31666   4.965   0.863   2.611
10256SOL    HW131667   4.894   0.885   2.679
10256SOL    HW231668   5.033   0.935   2.610
10257SOL     OW31669   2.601   4.878   2.527
10257SOL    HW131670   2.680   4.930   2.495
10257SOL    HW231671   2.612   4.782   2.501
10258SOL     OW31672   2.298   1.922   2.212
10258SOL    HW131673   2.352   1.875   2.142
10258SOL    HW231674   2.248   1.998   2.170
10259SOL     OW31675   0.631   4.381   4.000
10259SOL    HW131676   0.700   4.430   3.946
10259SOL    HW231677   0.636   4.283   3.979
10260SOL     OW31678   1.714   1.231   3.664
10260SOL    HW131679   1.710   1.133   3.643
10260SOL    HW231680   1.623   1.265   3.684
10261SOL     OW31681   6.862   4.043   0.656
10261SOL    HW131682   6.828   3.965   0.603
10261SOL    HW231683   6.787   4.084   0.708
10262SOL     OW31684   3.779   1.180   6.760
10262SOL    HW131685   3.878   1.190   6.765
10262SOL    HW231686   3.736   1.232   6.834
10263SOL     OW31687   5.910   1.049   1.621
10263SOL    HW131688   5.821   1.094   1.636
10263SOL    HW231689   5.975   1.117   1.587
10264SOL     OW31690   6.112   5.174   6.845
10264SOL    HW131691   6.071   5.113   6.911
10264SOL    HW231692   6.047   5.193   6.771
10265SOL     OW31693   2.239   2.030   7.015
10265SOL    HW131694   2.153   2.077   6.992
10265SOL    HW231695   2.305   2.097   0.025
10266SOL     OW31696   2.909   3.339   2.511
10266SOL    HW131697   2.866   3.378   2.430
10266SOL    HW231698   2.975   3.405   2.548
10267SOL     OW31699   5.681   1.039   0.645
10267SOL    HW131700   5.623   1.011   0.721
10267SOL    HW231701   5.653   0.991   0.562
10268SOL     OW31702   5.088   6.937   1.169
10268SOL    HW131703   4.998   6.953   1.127
10268SOL    HW231704   5.153   6.912   1.098
10269SOL     OW31705   1.901   1.822   6.063
10269SOL    HW131706   1.849   1.885   6.006
10269SOL    HW231707   1.989   1.802   6.021
10270SOL     OW31708   3.203   5.894   1.916
10270SOL    HW131709   3.297   5.880   1.948
10270SOL    HW231710   3.191   5.988   1.887
10271SOL     OW31711   2.191   2.048   0.378
10271SOL    HW131712   2.125   1.981   0.344
10271SOL    HW231713   2.272   2.002   0.412
10272SOL     OW31714   6.841   0.788   4.335
10272SOL    HW131715   6.870   0.785   4.430
10272SOL    HW231716   6.844   0.882   4.302
10273SOL     OW31717   2.730   5.039   3.913
10273SOL    HW131718   2.750   5.095   3.994
10273SOL    HW231719   2.779   4.952   3.920
10274SOL     OW31720   0.180   5.004   5.593
10274SOL    HW131721   0.147   4.930   5.535
10274SOL    HW231722   0.279   5.010   5.586
10275SOL     OW31723   0.300   0.569   2.946
10275SOL    HW131724   0.317   0.557   3.044
10275SOL    HW231725   0.369   0.517   2.895
10276SOL     OW31726   4.453   6.012   5.709
10276SOL    HW131727   4.443   6.102   5.667
10276SOL    HW231728   4.407   5.944   5.651
10277SOL     OW31729   1.383   6.347   4.052
10277SOL    HW131730   1.325   6.391   3.982
10277SOL    HW231731   1.443   6.281   4.008
10278SOL     OW31732   0.419   0.484   5.279
10278SOL    HW131733   0.392   0.412   5.344
10278SOL    HW231734   0.462   0.443   5.199
10279SOL     OW31735   2.201   4.981   4.071
10279SOL    HW131736   2.291   4.998   4.111
10279SOL    HW231737   2.190   4.884   4.052
10280SOL     OW31738   5.340   4.157   0.735
10280SOL    HW131739   5.277   4.114   0.670
10280SOL    HW231740   5.290   4.227   0.787
10281SOL     OW31741   6.046   2.175   3.356
10281SOL    HW131742   6.129   2.191   3.302
10281SOL    HW231743   5.984   2.117   3.304
10282SOL     OW31744   4.926   3.545   2.729
10282SOL    HW131745   4.885   3.538   2.820
10282SOL    HW231746   5.025   3.560   2.738
10283SOL     OW31747   0.432   4.361   1.144
10283SOL    HW131748   0.386   4.449   1.134
10283SOL    HW231749   0.402   4.299   1.071
10284SOL     OW31750   0.036   2.538   3.512
10284SOL    HW131751   6.967   2.555   3.480
10284SOL    HW231752   0.034   2.502   3.606
10285SOL     OW31753   4.617   6.114   3.766
10285SOL    HW131754   4.698   6.156   3.725
10285SOL    HW231755   4.642   6.073   3.854
10286SOL     OW31756   3.247   1.483   4.371
10286SOL    HW131757   3.346   1.499   4.374
10286SOL    HW231758   3.208   1.504   4.460
10287SOL     OW31759   1.922   5.849   1.972
10287SOL    HW131760   2.018   5.876   1.975
10287SOL    HW231761   1.883   5.852   2.064
10288SOL     OW31762   3.540   0.029   5.124
10288SOL    HW131763   3.634   0.056   5.147
10288SOL    HW231764   3.532   6.954   5.131
10289SOL     OW31765   2.681   6.355   0.516
10289SOL    HW131766   2.702   6.294   0.593
10289SOL    HW231767   2.739   6.436   0.521
10290SOL     OW31768   3.073   3.110   2.501
10290SOL    HW131769   3.074   3.063   2.589
10290SOL    HW231770   3.001   3.179   2.500
10291SOL     OW31771   3.136   0.922   2.493
10291SOL    HW131772   3.142   0.988   2.418
10291SOL    HW231773   3.049   0.932   2.541
10292SOL     OW31774   6.866   0.385   6.328
10292SOL    HW131775   6.820   0.471   6.349
10292SOL    HW231776   6.824   0.311   6.381
10293SOL     OW31777   0.586   4.105   3.703
10293SOL    HW131778   0.594   4.101   3.603
10293SOL    HW231779   0.511   4.167   3.728
10294SOL     OW31780   3.169   2.104   2.865
10294SOL    HW131781   3.134   2.017   2.829
10294SOL    HW231782   3.098   2.174   2.858
10295SOL     OW31783   1.065   2.667   6.825
10295SOL    HW131784   1.095   2.636   6.915
10295SOL    HW231785   1.000   2.742   6.836
10296SOL     OW31786   6.057   0.636   5.760
10296SOL    HW131787   5.999   0.655   5.839
10296SOL    HW231788   6.021   0.556   5.711
10297SOL     OW31789   2.906   2.126   6.514
10297SOL    HW131790   2.974   2.055   6.497
10297SOL    HW231791   2.883   2.130   6.611
10298SOL     OW31792   0.757   3.301   2.565
10298SOL    HW131793   0.736   3.317   2.469
10298SOL    HW231794   0.767   3.203   2.581
10299SOL     OW31795   4.731   6.170   2.050
10299SOL    HW131796   4.676   6.227   2.112
10299SOL    HW231797   4.776   6.098   2.103
10300SOL     OW31798   0.682   3.500   2.059
10300SOL    HW131799   0.612   3.564   2.090
10300SOL    HW231800   0.639   3.422   2.015
10301SOL     OW31801   4.111   1.258   6.270
10301SOL    HW131802   4.158   1.344   6.249
10301SOL    HW231803   4.111   1.200   6.189
10302SOL     OW31804   2.722   6.187   4.387
10302SOL    HW131805   2.724   6.253   4.312
10302SOL    HW231806   2.730   6.235   4.474
10303SOL     OW31807   1.046   6.257   3.801
10303SOL    HW131808   1.102   6.203   3.863
10303SOL    HW231809   1.048   6.216   3.710
10304SOL     OW31810   6.523   6.859   6.906
10304SOL    HW131811   6.608   6.874   6.957
10304SOL    HW231812   6.531   6.775   6.852
10305SOL     OW31813   2.601   3.649   6.073
10305SOL    HW131814   2.546   3.731   6.084
10305SOL    HW231815   2.588   3.611   5.982
10306SOL     OW31816   5.903   0.432   1.051
10306SOL    HW131817   5.804   0.431   1.061
10306SOL    HW231818   5.946   0.443   1.141
10307SOL     OW31819   2.879   0.939   4.716
10307SOL    HW131820   2.921   0.876   4.781
10307SOL    HW231821   2.905   0.912   4.623
10308SOL     OW31822   2.392   4.389   2.546
10308SOL    HW131823   2.371   4.398   2.449
10308SOL    HW231824   2.339   4.315   2.585
10309SOL     OW31825   6.467   0.565   5.651
10309SOL    HW131826   6.449   0.662   5.640
10309SOL    HW231827   6.537   0.552   5.721
10310SOL     OW31828   2.771   3.212   6.562
10310SOL    HW131829   2.845   3.163   6.609
10310SOL    HW231830   2.793   3.310   6.561
10311SOL     OW31831   5.761   5.670   6.631
10311SOL    HW131832   5.673   5.654   6.677
10311SOL    HW231833   5.748   5.666   6.532
10312SOL     OW31834   4.548   0.425   2.244
10312SOL    HW131835   4.499   0.477   2.174
10312SOL    HW231836   4.500   0.434   2.332
10313SOL     OW31837   4.375   5.848   2.557
10313SOL    HW131838   4.349   5.944   2.569
10313SOL    HW231839   4.298   5.789   2.582
10314SOL     OW31840   0.762   6.869   6.984
10314SOL    HW131841   0.802   6.939   0.019
10314SOL    HW231842   0.665   6.858   7.004
10315SOL     OW31843   4.843   6.681   3.791
10315SOL    HW131844   4.912   6.710   3.724
10315SOL    HW231845   4.830   6.753   3.859
10316SOL     OW31846   6.552   2.222   6.356
10316SOL    HW131847   6.596   2.312   6.349
10316SOL    HW231848   6.609   2.154   6.309
10317SOL     OW31849   3.529   6.189   6.380
10317SOL    HW131850   3.564   6.156   6.292
10317SOL    HW231851   3.600   6.179   6.449
10318SOL     OW31852   5.378   0.137   0.148
10318SOL    HW131853   5.471   0.173   0.148
10318SOL    HW231854   5.315   0.209   0.119
10319SOL     OW31855   6.962   4.789   4.783
10319SOL    HW131856   6.993   4.714   4.841
10319SOL    HW231857   0.003   4.864   4.786
10320SOL     OW31858   0.254   0.497   3.313
10320SOL    HW131859   0.254   0.462   3.407
10320SOL    HW231860   0.192   0.442   3.257
10321SOL     OW31861   5.571   2.289   2.123
10321SOL    HW131862   5.600   2.343   2.202
10321SOL    HW231863   5.538   2.200   2.153
10322SOL     OW31864   4.292   4.692   4.075
10322SOL    HW131865   4.386   4.724   4.088
10322SOL    HW231866   4.263   4.641   4.156
10323SOL     OW31867   6.400   4.219   5.777
10323SOL    HW131868   6.381   4.133   5.730
10323SOL    HW231869   6.471   4.205   5.845
10324SOL     OW31870   3.080   3.539   2.280
10324SOL    HW131871   2.990   3.504   2.253
10324SOL    HW231872   3.110   3.608   2.213
10325SOL     OW31873   0.596   5.930   2.390
10325SOL    HW131874   0.511   5.929   2.337
10325SOL    HW231875   0.577   5.902   2.484
10326SOL     OW31876   5.368   3.847   6.718
10326SOL    HW131877   5.355   3.807   6.628
10326SOL    HW231878   5.281   3.849   6.767
10327SOL     OW31879   2.723   3.750   1.141
10327SOL    HW131880   2.730   3.656   1.108
10327SOL    HW231881   2.689   3.750   1.235
10328SOL     OW31882   6.454   3.267   2.113
10328SOL    HW131883   6.540   3.263   2.062
10328SOL    HW231884   6.381   3.226   2.058
10329SOL     OW31885   3.042   1.000   3.003
10329SOL    HW131886   3.117   1.018   2.940
10329SOL    HW231887   3.067   0.926   3.065
10330SOL     OW31888   4.836   0.500   0.924
10330SOL    HW131889   4.749   0.477   0.967
10330SOL    HW231890   4.907   0.437   0.956
10331SOL     OW31891   6.099   6.556   6.705
10331SOL    HW131892   6.036   6.539   6.629
10331SOL    HW231893   6.057   6.524   6.790
10332SOL     OW31894   0.577   1.054   0.516
10332SOL    HW131895   0.623   1.100   0.591
10332SOL    HW231896   0.478   1.066   0.525
10333SOL     OW31897   0.791   5.863   4.319
10333SOL    HW131898   0.744   5.780   4.348
10333SOL    HW231899   0.724   5.937   4.308
10334SOL     OW31900   3.107   6.812   3.883
10334SOL    HW131901   3.046   6.882   3.844
10334SOL    HW231902   3.196   6.819   3.839
10335SOL     OW31903   0.432   4.592   6.520
10335SOL    HW131904   0.417   4.646   6.603
10335SOL    HW231905   0.347   4.546   6.495
10336SOL     OW31906   6.123   6.932   2.626
10336SOL    HW131907   6.083   6.894   2.710
10336SOL    HW231908   6.165   6.859   2.573
10337SOL     OW31909   6.229   5.440   6.785
10337SOL    HW131910   6.187   5.359   6.827
10337SOL    HW231911   6.292   5.411   6.712
10338SOL     OW31912   2.037   6.303   1.825
10338SOL    HW131913   1.989   6.390   1.808
10338SOL    HW231914   2.000   6.233   1.764
10339SOL     OW31915   6.487   3.081   5.920
10339SOL    HW131916   6.485   3.006   5.987
10339SOL    HW231917   6.394   3.107   5.896
10340SOL     OW31918   1.501   3.081   6.274
10340SOL    HW131919   1.548   3.028   6.345
10340SOL    HW231920   1.535   3.053   6.184
10341SOL     OW31921   2.014   3.086   2.713
10341SOL    HW131922   1.935   3.095   2.773
10341SOL    HW231923   1.994   3.019   2.641
10342SOL     OW31924   1.666   0.802   3.564
10342SOL    HW131925   1.756   0.770   3.536
10342SOL    HW231926   1.605   0.724   3.578
10343SOL     OW31927   2.457   5.806   0.742
10343SOL    HW131928   2.528   5.846   0.685
10343SOL    HW231929   2.387   5.764   0.684
10344SOL     OW31930   3.705   3.833   6.671
10344SOL    HW131931   3.645   3.838   6.591
10344SOL    HW231932   3.653   3.800   6.750
10345SOL     OW31933   1.199   2.737   5.349
10345SOL    HW131934   1.156   2.713   5.262
10345SOL    HW231935   1.298   2.744   5.336
10346SOL     OW31936   0.031   5.550   1.685
10346SOL    HW131937   0.014   5.487   1.760
10346SOL    HW231938   6.974   5.607   1.671
10347SOL     OW31939   4.481   0.859   3.756
10347SOL    HW131940   4.387   0.830   3.733
10347SOL    HW231941   4.506   0.821   3.846
10348SOL     OW31942   5.871   3.184   0.262
10348SOL    HW131943   5.888   3.282   0.274
10348SOL    HW231944   5.959   3.136   0.261
10349SOL     OW31945   0.769   6.942   6.450
10349SOL    HW131946   0.862   6.978   6.455
10349SOL    HW231947   0.737   6.921   6.543
10350SOL     OW31948   2.902   6.450   5.476
10350SOL    HW131949   2.850   6.365   5.479
10350SOL    HW231950   2.997   6.430   5.451
10351SOL     OW31951   4.453   5.398   5.670
10351SOL    HW131952   4.431   5.474   5.731
10351SOL    HW231953   4.494   5.433   5.586
10352SOL     OW31954   3.766   1.380   6.199
10352SOL    HW131955   3.742   1.321   6.276
10352SOL    HW231956   3.826   1.454   6.231
10353SOL     OW31957   6.799   3.271   4.290
10353SOL    HW131958   6.806   3.305   4.383
10353SOL    HW231959   6.706   3.242   4.271
10354SOL     OW31960   5.328   0.864   1.700
10354SOL    HW131961   5.365   0.823   1.783
10354SOL    HW231962   5.239   0.906   1.721
10355SOL     OW31963   2.744   5.709   2.234
10355SOL    HW131964   2.825   5.761   2.209
10355SOL    HW231965   2.739   5.701   2.334
10356SOL     OW31966   6.868   4.249   5.528
10356SOL    HW131967   6.796   4.201   5.578
10356SOL    HW231968   6.956   4.205   5.543
10357SOL     OW31969   2.384   2.387   6.434
10357SOL    HW131970   2.295   2.366   6.395
10357SOL    HW231971   2.374   2.458   6.504
10358SOL     OW31972   0.564   2.911   2.666
10358SOL    HW131973   0.558   2.954   2.756
10358SOL    HW231974   0.497   2.952   2.605
10359SOL     OW31975   0.424   1.561   1.797
10359SOL    HW131976   0.342   1.611   1.769
10359SOL    HW231977   0.420   1.467   1.762
10360SOL     OW31978   5.351   6.204   3.322
10360SOL    HW131979   5.421   6.273   3.338
10360SOL    HW231980   5.324   6.163   3.409
10361SOL     OW31981   3.004   5.833   2.213
10361SOL    HW131982   3.029   5.737   2.216
10361SOL    HW231983   3.077   5.888   2.253
10362SOL     OW31984   2.064   4.424   4.733
10362SOL    HW131985   2.104   4.469   4.812
10362SOL    HW231986   2.057   4.489   4.657
10363SOL     OW31987   5.176   0.389   3.250
10363SOL    HW131988   5.197   0.421   3.343
10363SOL    HW231989   5.250   0.417   3.189
10364SOL     OW31990   2.249   4.338   1.255
10364SOL    HW131991   2.251   4.260   1.319
10364SOL    HW231992   2.208   4.309   1.169
10365SOL     OW31993   4.783   5.252   0.280
10365SOL    HW131994   4.840   5.193   0.222
10365SOL    HW231995   4.793   5.347   0.249
10366SOL     OW31996   2.489   6.877   3.531
10366SOL    HW131997   2.442   6.869   3.443
10366SOL    HW231998   2.563   6.944   3.524
10367SOL     OW31999   6.177   3.062   3.223
10367SOL    HW132000   6.091   3.100   3.258
10367SOL    HW232001   6.211   2.993   3.288
10368SOL     OW32002   2.054   1.201   1.986
10368SOL    HW132003   2.132   1.253   2.023
10368SOL    HW232004   2.084   1.149   1.906
10369SOL     OW32005   3.545   2.154   0.510
10369SOL    HW132006   3.512   2.122   0.600
10369SOL    HW232007   3.594   2.240   0.521
10370SOL     OW32008   4.177   0.616   5.287
10370SOL    HW132009   4.158   0.667   5.203
10370SOL    HW232010   4.163   0.519   5.271
10371SOL     OW32011   4.386   5.579   5.108
10371SOL    HW132012   4.359   5.529   5.190
10371SOL    HW232013   4.446   5.655   5.134
10372SOL     OW32014   2.289   1.262   4.011
10372SOL    HW132015   2.222   1.193   3.986
10372SOL    HW232016   2.378   1.238   3.973
10373SOL     OW32017   0.906   6.759   4.325
10373SOL    HW132018   0.902   6.760   4.225
10373SOL    HW232019   0.945   6.672   4.356
10374SOL     OW32020   2.838   1.908   3.070
10374SOL    HW132021   2.846   1.973   3.145
10374SOL    HW232022   2.847   1.815   3.104
10375SOL     OW32023   5.672   1.746   1.072
10375SOL    HW132024   5.732   1.814   1.030
10375SOL    HW232025   5.642   1.778   1.161
10376SOL     OW32026   0.349   0.839   3.779
10376SOL    HW132027   0.286   0.895   3.725
10376SOL    HW232028   0.434   0.890   3.795
10377SOL     OW32029   0.390   0.564   3.789
10377SOL    HW132030   0.316   0.545   3.853
10377SOL    HW232031   0.394   0.662   3.771
10378SOL     OW32032   6.768   0.264   6.021
10378SOL    HW132033   6.756   0.166   6.012
10378SOL    HW232034   6.842   0.283   6.085
10379SOL     OW32035   5.221   0.893   4.629
10379SOL    HW132036   5.250   0.798   4.638
10379SOL    HW232037   5.281   0.942   4.565
10380SOL     OW32038   4.906   0.360   2.088
10380SOL    HW132039   4.961   0.310   2.155
10380SOL    HW232040   4.890   0.453   2.122
10381SOL     OW32041   4.679   4.869   5.790
10381SOL    HW132042   4.756   4.901   5.735
10381SOL    HW232043   4.617   4.946   5.807
10382SOL     OW32044   2.357   4.954   6.644
10382SOL    HW132045   2.441   5.006   6.627
10382SOL    HW232046   2.369   4.897   6.725
10383SOL     OW32047   0.557   2.353   1.551
10383SOL    HW132048   0.645   2.338   1.507
10383SOL    HW232049   0.568   2.345   1.650
10384SOL     OW32050   6.582   6.619   0.563
10384SOL    HW132051   6.577   6.642   0.465
10384SOL    HW232052   6.494   6.642   0.606
10385SOL     OW32053   6.485   1.292   6.563
10385SOL    HW132054   6.412   1.232   6.595
10385SOL    HW232055   6.573   1.258   6.596
10386SOL     OW32056   6.443   3.082   5.383
10386SOL    HW132057   6.478   3.170   5.352
10386SOL    HW232058   6.349   3.070   5.351
10387SOL     OW32059   1.901   2.758   3.339
10387SOL    HW132060   1.803   2.742   3.348
10387SOL    HW232061   1.950   2.705   3.408
10388SOL     OW32062   1.475   5.330   2.985
10388SOL    HW132063   1.406   5.377   3.042
10388SOL    HW232064   1.564   5.374   2.998
10389SOL     OW32065   0.701   4.738   3.627
10389SOL    HW132066   0.607   4.746   3.595
10389SOL    HW232067   0.763   4.769   3.555
10390SOL     OW32068   0.713   3.379   3.663
10390SOL    HW132069   0.648   3.455   3.657
10390SOL    HW232070   0.768   3.377   3.579
10391SOL     OW32071   2.231   6.564   6.252
10391SOL    HW132072   2.178   6.588   6.334
10391SOL    HW232073   2.191   6.483   6.209
10392SOL     OW32074   6.871   5.037   0.618
10392SOL    HW132075   6.954   5.070   0.573
10392SOL    HW232076   6.823   4.973   0.558
10393SOL     OW32077   1.442   1.464   3.953
10393SOL    HW132078   1.414   1.391   4.016
10393SOL    HW232079   1.370   1.533   3.948
10394SOL     OW32080   2.183   6.349   6.965
10394SOL    HW132081   2.282   6.356   6.979
10394SOL    HW232082   2.140   6.438   6.982
10395SOL     OW32083   0.265   0.975   4.866
10395SOL    HW132084   0.240   1.072   4.867
10395SOL    HW232085   0.267   0.940   4.959
10396SOL     OW32086   1.334   6.984   5.108
10396SOL    HW132087   1.344   0.049   5.152
10396SOL    HW232088   1.255   6.986   5.046
10397SOL     OW32089   3.302   1.589   2.946
10397SOL    HW132090   3.396   1.622   2.938
10397SOL    HW232091   3.239   1.665   2.937
10398SOL     OW32092   6.141   2.875   2.299
10398SOL    HW132093   6.229   2.889   2.253
10398SOL    HW232094   6.088   2.808   2.248
10399SOL     OW32095   5.331   2.581   5.216
10399SOL    HW132096   5.374   2.606   5.129
10399SOL    HW232097   5.235   2.556   5.199
10400SOL     OW32098   2.512   5.383   1.886
10400SOL    HW132099   2.483   5.400   1.792
10400SOL    HW232100   2.482   5.459   1.944
10401SOL     OW32101   0.880   5.953   1.998
10401SOL    HW132102   0.921   5.988   1.914
10401SOL    HW232103   0.951   5.935   2.066
10402SOL     OW32104   0.494   3.552   4.435
10402SOL    HW132105   0.589   3.524   4.447
10402SOL    HW232106   0.447   3.486   4.377
10403SOL     OW32107   5.644   1.250   2.114
10403SOL    HW132108   5.644   1.181   2.187
10403SOL    HW232109   5.737   1.260   2.079
10404SOL     OW32110   0.538   6.279   3.805
10404SOL    HW132111   0.637   6.272   3.820
10404SOL    HW232112   0.507   6.371   3.829
10405SOL     OW32113   1.643   6.452   6.292
10405SOL    HW132114   1.581   6.412   6.224
10405SOL    HW232115   1.680   6.380   6.350
10406SOL     OW32116   2.222   4.594   5.967
10406SOL    HW132117   2.134   4.638   5.983
10406SOL    HW232118   2.206   4.502   5.931
10407SOL     OW32119   0.515   2.332   6.876
10407SOL    HW132120   0.547   2.350   6.969
10407SOL    HW232121   0.592   2.300   6.820
10408SOL     OW32122   4.446   5.710   2.882
10408SOL    HW132123   4.476   5.659   2.801
10408SOL    HW232124   4.507   5.787   2.897
10409SOL     OW32125   6.380   5.022   2.744
10409SOL    HW132126   6.287   5.012   2.780
10409SOL    HW232127   6.409   4.937   2.702
10410SOL     OW32128   5.158   0.188   0.924
10410SOL    HW132129   5.095   0.226   0.991
10410SOL    HW232130   5.109   0.171   0.838
10411SOL     OW32131   2.101   4.744   2.924
10411SOL    HW132132   2.013   4.701   2.944
10411SOL    HW232133   2.173   4.700   2.979
10412SOL     OW32134   0.630   1.943   0.900
10412SOL    HW132135   0.652   1.857   0.855
10412SOL    HW232136   0.532   1.947   0.919
10413SOL     OW32137   6.932   2.043   6.954
10413SOL    HW132138   6.889   2.105   6.889
10413SOL    HW232139   6.992   2.096   7.015
10414SOL     OW32140   5.714   6.118   5.602
10414SOL    HW132141   5.658   6.058   5.658
10414SOL    HW232142   5.772   6.063   5.542
10415SOL     OW32143   0.708   5.940   3.660
10415SOL    HW132144   0.614   5.972   3.664
10415SOL    HW232145   0.767   6.014   3.627
10416SOL     OW32146   5.671   1.319   5.748
10416SOL    HW132147   5.604   1.392   5.767
10416SOL    HW232148   5.637   1.262   5.674
10417SOL     OW32149   3.886   4.988   4.290
10417SOL    HW132150   3.938   4.922   4.235
10417SOL    HW232151   3.948   5.059   4.324
10418SOL     OW32152   6.081   3.484   6.585
10418SOL    HW132153   6.089   3.436   6.672
10418SOL    HW232154   6.026   3.567   6.597
10419SOL     OW32155   2.472   1.557   4.508
10419SOL    HW132156   2.529   1.499   4.566
10419SOL    HW232157   2.384   1.572   4.552
10420SOL     OW32158   6.568   3.681   3.252
10420SOL    HW132159   6.559   3.777   3.280
10420SOL    HW232160   6.578   3.623   3.332
10421SOL     OW32161   1.197   4.650   4.886
10421SOL    HW132162   1.193   4.568   4.942
10421SOL    HW232163   1.108   4.696   4.888
10422SOL     OW32164   6.650   3.630   4.876
10422SOL    HW132165   6.749   3.643   4.881
10422SOL    HW232166   6.606   3.669   4.957
10423SOL     OW32167   3.088   4.891   3.805
10423SOL    HW132168   3.097   4.903   3.706
10423SOL    HW232169   3.076   4.980   3.849
10424SOL     OW32170   3.755   1.152   0.396
10424SOL    HW132171   3.764   1.247   0.427
10424SOL    HW232172   3.662   1.120   0.414
10425SOL     OW32173   1.240   2.216   0.609
10425SOL    HW132174   1.229   2.177   0.701
10425SOL    HW232175   1.183   2.297   0.600
10426SOL     OW32176   6.138   2.135   5.952
10426SOL    HW132177   6.084   2.074   6.010
10426SOL    HW232178   6.235   2.118   5.966
10427SOL     OW32179   5.473   6.711   4.366
10427SOL    HW132180   5.412   6.790   4.374
10427SOL    HW232181   5.561   6.732   4.410
10428SOL     OW32182   2.631   0.516   4.167
10428SOL    HW132183   2.686   0.537   4.086
10428SOL    HW232184   2.581   0.431   4.152
10429SOL     OW32185   1.293   2.589   1.988
10429SOL    HW132186   1.339   2.656   1.930
10429SOL    HW232187   1.361   2.536   2.038
10430SOL     OW32188   3.374   0.048   3.475
10430SOL    HW132189   3.377   7.016   3.392
10430SOL    HW232190   3.288   0.032   3.523
10431SOL     OW32191   3.477   0.314   2.777
10431SOL    HW132192   3.456   0.295   2.681
10431SOL    HW232193   3.396   0.299   2.833
10432SOL     OW32194   1.297   5.556   6.113
10432SOL    HW132195   1.276   5.549   6.211
10432SOL    HW232196   1.330   5.468   6.079
10433SOL     OW32197   2.724   0.132   2.573
10433SOL    HW132198   2.768   0.081   2.500
10433SOL    HW232199   2.657   0.074   2.619
10434SOL     OW32200   4.914   6.978   5.640
10434SOL    HW132201   4.986   0.006   5.685
10434SOL    HW232202   4.947   6.947   5.551
10435SOL     OW32203   2.414   1.861   6.851
10435SOL    HW132204   2.377   1.939   6.902
10435SOL    HW232205   2.476   1.894   6.780
10436SOL     OW32206   6.695   3.577   5.230
10436SOL    HW132207   6.740   3.626   5.305
10436SOL    HW232208   6.603   3.615   5.217
10437SOL     OW32209   5.138   6.541   4.910
10437SOL    HW132210   5.230   6.503   4.922
10437SOL    HW232211   5.119   6.553   4.813
10438SOL     OW32212   6.760   5.780   6.615
10438SOL    HW132213   6.758   5.777   6.515
10438SOL    HW232214   6.667   5.795   6.649
10439SOL     OW32215   6.808   6.667   5.280
10439SOL    HW132216   6.826   6.581   5.233
10439SOL    HW232217   6.742   6.720   5.228
10440SOL     OW32218   6.863   2.722   0.706
10440SOL    HW132219   6.782   2.728   0.764
10440SOL    HW232220   6.843   2.661   0.629
10441SOL     OW32221   4.089   1.806   0.778
10441SOL    HW132222   4.166   1.772   0.724
10441SOL    HW232223   4.109   1.898   0.811
10442SOL     OW32224   2.190   1.822   5.981
10442SOL    HW132225   2.227   1.836   6.073
10442SOL    HW232226   2.175   1.911   5.938
10443SOL     OW32227   0.357   1.539   3.254
10443SOL    HW132228   0.453   1.511   3.245
10443SOL    HW232229   0.349   1.607   3.327
10444SOL     OW32230   3.996   5.480   4.294
10444SOL    HW132231   4.012   5.405   4.229
10444SOL    HW232232   4.019   5.567   4.251
10445SOL     OW32233   1.082   3.479   3.057
10445SOL    HW132234   1.051   3.489   2.962
10445SOL    HW232235   1.091   3.570   3.098
10446SOL     OW32236   1.688   4.245   5.685
10446SOL    HW132237   1.610   4.184   5.696
10446SOL    HW232238   1.771   4.192   5.668
10447SOL     OW32239   0.124   1.902   3.102
10447SOL    HW132240   0.207   1.865   3.060
10447SOL    HW232241   0.141   1.996   3.133
10448SOL     OW32242   2.501   6.295   2.563
10448SOL    HW132243   2.503   6.344   2.650
10448SOL    HW232244   2.422   6.325   2.509
10449SOL     OW32245   3.870   4.858   4.645
10449SOL    HW132246   3.934   4.793   4.684
10449SOL    HW232247   3.891   4.872   4.548
10450SOL     OW32248   6.873   0.870   6.254
10450SOL    HW132249   6.875   0.943   6.186
10450SOL    HW232250   6.828   0.789   6.216
10451SOL     OW32251   3.036   0.827   3.236
10451SOL    HW132252   2.936   0.827   3.239
10451SOL    HW232253   3.071   0.739   3.267
10452SOL     OW32254   6.680   3.841   4.648
10452SOL    HW132255   6.668   3.762   4.708
10452SOL    HW232256   6.759   3.827   4.588
10453SOL     OW32257   3.747   5.661   3.501
10453SOL    HW132258   3.668   5.722   3.509
10453SOL    HW232259   3.732   5.580   3.558
10454SOL     OW32260   6.514   0.959   6.086
10454SOL    HW132261   6.455   1.039   6.074
10454SOL    HW232262   6.607   0.982   6.059
10455SOL     OW32263   6.396   5.646   3.860
10455SOL    HW132264   6.437   5.616   3.946
10455SOL    HW232265   6.334   5.722   3.878
10456SOL     OW32266   1.326   5.076   6.764
10456SOL    HW132267   1.392   5.029   6.705
10456SOL    HW232268   1.233   5.052   6.736
10457SOL     OW32269   3.678   2.385   6.676
10457SOL    HW132270   3.680   2.480   6.707
10457SOL    HW232271   3.771   2.355   6.656
10458SOL     OW32272   0.223   5.873   6.407
10458SOL    HW132273   0.213   5.810   6.484
10458SOL    HW232274   0.318   5.871   6.375
10459SOL     OW32275   0.169   5.128   0.815
10459SOL    HW132276   0.163   5.057   0.745
10459SOL    HW232277   0.188   5.216   0.771
10460SOL     OW32278   0.069   1.869   0.654
10460SOL    HW132279   0.036   1.953   0.698
10460SOL    HW232280   0.153   1.890   0.603
10461SOL     OW32281   6.850   5.013   6.066
10461SOL    HW132282   6.905   5.097   6.056
10461SOL    HW232283   6.758   5.037   6.095
10462SOL     OW32284   4.660   2.051   0.715
10462SOL    HW132285   4.757   2.026   0.718
10462SOL    HW232286   4.625   2.060   0.809
10463SOL     OW32287   4.457   2.768   6.250
10463SOL    HW132288   4.431   2.722   6.165
10463SOL    HW232289   4.555   2.756   6.265
10464SOL     OW32290   6.567   4.739   2.413
10464SOL    HW132291   6.622   4.801   2.468
10464SOL    HW232292   6.622   4.661   2.386
10465SOL     OW32293   5.070   4.446   1.277
10465SOL    HW132294   5.148   4.457   1.216
10465SOL    HW232295   5.018   4.365   1.251
10466SOL     OW32296   6.370   5.081   6.766
10466SOL    HW132297   6.278   5.112   6.791
10466SOL    HW232298   6.364   4.990   6.724
10467SOL     OW32299   0.620   3.325   0.400
10467SOL    HW132300   0.636   3.394   0.471
10467SOL    HW232301   0.706   3.280   0.377
10468SOL     OW32302   2.297   4.731   4.083
10468SOL    HW132303   2.359   4.735   4.162
10468SOL    HW232304   2.342   4.684   4.008
10469SOL     OW32305   6.861   1.341   4.139
10469SOL    HW132306   6.849   1.440   4.139
10469SOL    HW232307   6.959   1.320   4.146
10470SOL     OW32308   1.921   2.686   3.000
10470SOL    HW132309   1.848   2.745   2.965
10470SOL    HW232310   1.972   2.735   3.071
10471SOL     OW32311   2.812   6.931   6.729
10471SOL    HW132312   2.843   7.024   6.747
10471SOL    HW232313   2.714   6.925   6.749
10472SOL     OW32314   3.461   4.392   6.534
10472SOL    HW132315   3.505   4.347   6.456
10472SOL    HW232316   3.481   4.490   6.532
10473SOL     OW32317   5.249   5.445   0.479
10473SOL    HW132318   5.207   5.504   0.409
10473SOL    HW232319   5.274   5.358   0.437
10474SOL     OW32320   5.421   0.762   4.129
10474SOL    HW132321   5.471   0.682   4.098
10474SOL    HW232322   5.420   0.764   4.229
10475SOL     OW32323   1.620   6.568   0.982
10475SOL    HW132324   1.556   6.644   0.991
10475SOL    HW232325   1.627   6.519   1.068
10476SOL     OW32326   4.054   5.553   6.898
10476SOL    HW132327   3.967   5.544   6.947
10476SOL    HW232328   4.126   5.506   6.949
10477SOL     OW32329   6.970   5.445   3.812
10477SOL    HW132330   6.928   5.470   3.899
10477SOL    HW232331   6.969   5.346   3.802
10478SOL     OW32332   5.913   0.891   0.334
10478SOL    HW132333   5.919   0.957   0.259
10478SOL    HW232334   5.844   0.822   0.311
10479SOL     OW32335   1.118   2.352   1.786
10479SOL    HW132336   1.106   2.298   1.702
10479SOL    HW232337   1.106   2.292   1.865
10480SOL     OW32338   1.924   0.041   2.263
10480SOL    HW132339   1.991   7.003   2.303
10480SOL    HW232340   1.965   0.086   2.184
10481SOL     OW32341   0.023   1.223   2.050
10481SOL    HW132342   6.968   1.218   2.111
10481SOL    HW232343   0.095   1.163   2.084
10482SOL     OW32344   4.910   3.934   4.751
10482SOL    HW132345   4.929   3.846   4.710
10482SOL    HW232346   4.847   3.986   4.693
10483SOL     OW32347   6.164   6.409   0.373
10483SOL    HW132348   6.181   6.342   0.301
10483SOL    HW232349   6.123   6.364   0.452
10484SOL     OW32350   6.211   1.119   2.203
10484SOL    HW132351   6.266   1.113   2.286
10484SOL    HW232352   6.125   1.165   2.223
10485SOL     OW32353   5.928   3.908   5.308
10485SOL    HW132354   5.941   3.958   5.394
10485SOL    HW232355   5.943   3.810   5.323
10486SOL     OW32356   5.300   2.900   1.767
10486SOL    HW132357   5.217   2.879   1.818
10486SOL    HW232358   5.280   2.970   1.697
10487SOL     OW32359   5.552   6.745   1.614
10487SOL    HW132360   5.562   6.680   1.538
10487SOL    HW232361   5.458   6.781   1.615
10488SOL     OW32362   2.494   2.358   6.172
10488SOL    HW132363   2.480   2.342   6.270
10488SOL    HW232364   2.581   2.318   6.144
10489SOL     OW32365   0.911   5.889   6.442
10489SOL    HW132366   0.905   5.840   6.529
10489SOL    HW232367   0.991   5.858   6.391
10490SOL     OW32368   0.014   1.052   3.762
10490SOL    HW132369   0.013   1.005   3.850
10490SOL    HW232370   6.960   1.114   3.756
10491SOL     OW32371   1.553   4.052   5.919
10491SOL    HW132372   1.584   4.137   5.961
10491SOL    HW232373   1.496   4.072   5.839
10492SOL     OW32374   4.888   3.335   5.200
10492SOL    HW132375   4.824   3.412   5.202
10492SOL    HW232376   4.979   3.367   5.229
10493SOL     OW32377   3.052   1.089   1.561
10493SOL    HW132378   3.125   1.036   1.519
10493SOL    HW232379   2.971   1.088   1.502
10494SOL     OW32380   5.964   2.018   4.503
10494SOL    HW132381   5.960   1.922   4.475
10494SOL    HW232382   5.888   2.038   4.565
10495SOL     OW32383   1.114   6.689   0.357
10495SOL    HW132384   1.158   6.676   0.446
10495SOL    HW232385   1.116   6.786   0.333
10496SOL     OW32386   0.098   6.981   5.355
10496SOL    HW132387   0.010   6.981   5.402
10496SOL    HW232388   0.166   6.935   5.412
10497SOL     OW32389   1.321   1.119   1.081
10497SOL    HW132390   1.339   1.156   1.172
10497SOL    HW232391   1.331   1.020   1.083
10498SOL     OW32392   2.298   5.976   6.110
10498SOL    HW132393   2.360   5.948   6.037
10498SOL    HW232394   2.338   5.953   6.199
10499SOL     OW32395   3.296   5.675   2.988
10499SOL    HW132396   3.207   5.721   2.988
10499SOL    HW232397   3.303   5.616   3.068
10500SOL     OW32398   1.283   1.637   6.392
10500SOL    HW132399   1.290   1.573   6.316
10500SOL    HW232400   1.317   1.727   6.363
10501SOL     OW32401   1.374   3.258   2.688
10501SOL    HW132402   1.331   3.262   2.778
10501SOL    HW232403   1.473   3.249   2.698
10502SOL     OW32404   3.389   5.885   6.750
10502SOL    HW132405   3.373   5.843   6.661
10502SOL    HW232406   3.482   5.866   6.780
10503SOL     OW32407   2.997   3.080   6.679
10503SOL    HW132408   3.086   3.035   6.683
10503SOL    HW232409   2.950   3.067   6.766
10504SOL     OW32410   2.938   3.222   1.203
10504SOL    HW132411   2.850   3.229   1.158
10504SOL    HW232412   2.966   3.126   1.208
10505SOL     OW32413   6.766   5.999   1.641
10505SOL    HW132414   6.823   6.070   1.599
10505SOL    HW232415   6.684   6.041   1.681
10506SOL     OW32416   0.610   3.944   5.758
10506SOL    HW132417   0.571   3.886   5.686
10506SOL    HW232418   0.666   4.016   5.716
10507SOL     OW32419   0.824   0.420   6.102
10507SOL    HW132420   0.785   0.334   6.071
10507SOL    HW232421   0.912   0.436   6.055
10508SOL     OW32422   5.278   4.082   2.900
10508SOL    HW132423   5.193   4.128   2.925
10508SOL    HW232424   5.284   4.073   2.800
10509SOL     OW32425   1.713   0.109   6.604
10509SOL    HW132426   1.665   0.026   6.576
10509SOL    HW232427   1.717   0.112   6.704
10510SOL     OW32428   6.521   5.642   0.054
10510SOL    HW132429   6.547   5.678   0.144
10510SOL    HW232430   6.531   5.543   0.054
10511SOL     OW32431   4.394   2.858   0.592
10511SOL    HW132432   4.412   2.956   0.596
10511SOL    HW232433   4.295   2.842   0.589
10512SOL     OW32434   4.139   6.441   6.030
10512SOL    HW132435   4.066   6.509   6.034
10512SOL    HW232436   4.188   6.440   6.118
10513SOL     OW32437   0.482   2.691   6.942
10513SOL    HW132438   0.471   2.648   6.852
10513SOL    HW232439   0.555   2.759   6.937
10514SOL     OW32440   0.368   5.015   0.968
10514SOL    HW132441   0.294   5.061   0.920
10514SOL    HW232442   0.395   4.932   0.918
10515SOL     OW32443   6.271   2.240   3.184
10515SOL    HW132444   6.248   2.167   3.119
10515SOL    HW232445   6.220   2.323   3.159
10516SOL     OW32446   4.075   0.445   5.921
10516SOL    HW132447   4.066   0.345   5.915
10516SOL    HW232448   4.165   0.472   5.889
10517SOL     OW32449   6.863   2.118   2.609
10517SOL    HW132450   6.936   2.185   2.610
10517SOL    HW232451   6.777   2.162   2.583
10518SOL     OW32452   0.948   6.050   0.914
10518SOL    HW132453   0.939   6.122   0.846
10518SOL    HW232454   1.016   5.984   0.884
10519SOL     OW32455   3.175   3.262   5.400
10519SOL    HW132456   3.192   3.169   5.435
10519SOL    HW232457   3.220   3.273   5.312
10520SOL     OW32458   4.340   2.058   6.950
10520SOL    HW132459   4.410   2.099   7.008
10520SOL    HW232460   4.366   1.963   6.930
10521SOL     OW32461   6.325   5.552   1.054
10521SOL    HW132462   6.421   5.530   1.070
10521SOL    HW232463   6.319   5.633   0.995
10522SOL     OW32464   6.398   0.815   1.659
10522SOL    HW132465   6.330   0.813   1.732
10522SOL    HW232466   6.353   0.802   1.570
10523SOL     OW32467   0.011   5.627   5.973
10523SOL    HW132468   0.059   5.541   5.991
10523SOL    HW232469   0.015   5.685   6.055
10524SOL     OW32470   2.870   0.352   3.716
10524SOL    HW132471   2.885   0.261   3.756
10524SOL    HW232472   2.816   0.343   3.632
10525SOL     OW32473   2.455   5.974   5.076
10525SOL    HW132474   2.359   5.986   5.049
10525SOL    HW232475   2.508   6.053   5.044
10526SOL     OW32476   7.005   1.026   2.852
10526SOL    HW132477   7.001   0.939   2.803
10526SOL    HW232478   6.918   1.075   2.840
10527SOL     OW32479   0.783   2.782   4.546
10527SOL    HW132480   0.711   2.717   4.572
10527SOL    HW232481   0.871   2.751   4.582
10528SOL     OW32482   0.239   4.993   5.045
10528SOL    HW132483   0.270   4.899   5.028
10528SOL    HW232484   0.317   5.055   5.044
10529SOL     OW32485   6.976   0.293   3.414
10529SOL    HW132486   6.925   0.208   3.423
10529SOL    HW232487   0.012   0.287   3.335
10530SOL     OW32488   2.846   1.981   6.051
10530SOL    HW132489   2.870   1.934   6.136
10530SOL    HW232490   2.787   1.922   5.996
10531SOL     OW32491   1.615   3.085   4.957
10531SOL    HW132492   1.668   3.162   4.925
10531SOL    HW232493   1.675   3.019   5.003
10532SOL     OW32494   3.817   2.489   5.675
10532SOL    HW132495   3.864   2.487   5.763
10532SOL    HW232496   3.839   2.574   5.627
10533SOL     OW32497   2.706   1.352   5.707
10533SOL    HW132498   2.614   1.386   5.728
10533SOL    HW232499   2.713   1.332   5.609
10534SOL     OW32500   0.126   5.479   0.979
10534SOL    HW132501   0.203   5.535   0.950
10534SOL    HW232502   0.042   5.512   0.935
10535SOL     OW32503   0.641   1.362   2.406
10535SOL    HW132504   0.667   1.377   2.311
10535SOL    HW232505   0.658   1.445   2.459
10536SOL     OW32506   4.569   0.388   2.682
10536SOL    HW132507   4.549   0.374   2.779
10536SOL    HW232508   4.623   0.471   2.671
10537SOL     OW32509   1.353   4.735   2.140
10537SOL    HW132510   1.371   4.833   2.135
10537SOL    HW232511   1.438   4.685   2.125
10538SOL     OW32512   4.656   3.867   0.502
10538SOL    HW132513   4.682   3.827   0.414
10538SOL    HW232514   4.738   3.881   0.558
10539SOL     OW32515   0.529   3.532   6.496
10539SOL    HW132516   0.576   3.502   6.412
10539SOL    HW232517   0.431   3.514   6.486
10540SOL     OW32518   1.986   0.414   6.478
10540SOL    HW132519   2.057   0.474   6.442
10540SOL    HW232520   1.949   0.454   6.562
10541SOL     OW32521   3.815   3.197   0.091
10541SOL    HW132522   3.770   3.255   0.023
10541SOL    HW232523   3.747   3.137   0.134
10542SOL     OW32524   6.896   2.436   0.378
10542SOL    HW132525   6.850   2.393   0.301
10542SOL    HW232526   6.896   2.374   0.457
10543SOL     OW32527   0.810   1.088   5.953
10543SOL    HW132528   0.759   1.102   5.869
10543SOL    HW232529   0.804   0.991   5.980
10544SOL     OW32530   2.041   2.132   2.251
10544SOL    HW132531   1.954   2.180   2.248
10544SOL    HW232532   2.090   2.156   2.334
10545SOL     OW32533   6.517   0.830   2.582
10545SOL    HW132534   6.537   0.836   2.485
10545SOL    HW232535   6.557   0.908   2.630
10546SOL     OW32536   2.549   0.579   4.431
10546SOL    HW132537   2.571   0.554   4.336
10546SOL    HW232538   2.591   0.668   4.452
10547SOL     OW32539   4.346   1.627   1.689
10547SOL    HW132540   4.392   1.677   1.616
10547SOL    HW232541   4.310   1.691   1.757
10548SOL     OW32542   5.155   4.072   4.808
10548SOL    HW132543   5.072   4.019   4.790
10548SOL    HW232544   5.212   4.023   4.873
10549SOL     OW32545   1.080   1.246   1.883
10549SOL    HW132546   0.997   1.192   1.883
10549SOL    HW232547   1.131   1.229   1.968
10550SOL     OW32548   5.015   7.006   4.392
10550SOL    HW132549   4.945   6.954   4.441
10550SOL    HW232550   4.976   0.022   4.310
10551SOL     OW32551   1.367   2.455   6.202
10551SOL    HW132552   1.364   2.549   6.237
10551SOL    HW232553   1.274   2.425   6.180
10552SOL     OW32554   3.378   2.248   5.273
10552SOL    HW132555   3.449   2.318   5.283
10552SOL    HW232556   3.297   2.289   5.232
10553SOL     OW32557   1.397   5.324   0.348
10553SOL    HW132558   1.310   5.354   0.309
10553SOL    HW232559   1.386   5.233   0.388
10554SOL     OW32560   6.807   4.802   7.021
10554SOL    HW132561   6.806   4.845   6.931
10554SOL    HW232562   6.797   4.872   0.067
10555SOL     OW32563   3.516   1.493   1.565
10555SOL    HW132564   3.576   1.561   1.523
10555SOL    HW232565   3.428   1.534   1.587
10556SOL     OW32566   1.834   3.535   5.075
10556SOL    HW132567   1.841   3.634   5.063
10556SOL    HW232568   1.775   3.515   5.154
10557SOL     OW32569   6.768   2.640   3.150
10557SOL    HW132570   6.779   2.731   3.110
10557SOL    HW232571   6.792   2.570   3.082
10558SOL     OW32572   4.510   5.806   5.163
10558SOL    HW132573   4.426   5.852   5.191
10558SOL    HW232574   4.580   5.874   5.144
10559SOL     OW32575   4.322   2.146   0.936
10559SOL    HW132576   4.369   2.234   0.938
10559SOL    HW232577   4.234   2.157   0.889
10560SOL     OW32578   1.259   3.434   4.199
10560SOL    HW132579   1.172   3.484   4.200
10560SOL    HW232580   1.284   3.414   4.104
10561SOL     OW32581   2.415   4.214   6.947
10561SOL    HW132582   2.501   4.180   6.909
10561SOL    HW232583   2.423   4.221   0.022
10562SOL     OW32584   4.163   1.391   0.432
10562SOL    HW132585   4.104   1.473   0.432
10562SOL    HW232586   4.127   1.325   0.498
10563SOL     OW32587   1.363   1.979   5.562
10563SOL    HW132588   1.325   2.016   5.647
10563SOL    HW232589   1.331   1.886   5.548
10564SOL     OW32590   6.264   2.154   1.893
10564SOL    HW132591   6.280   2.086   1.821
10564SOL    HW232592   6.287   2.245   1.858
10565SOL     OW32593   5.931   1.588   4.889
10565SOL    HW132594   5.909   1.660   4.823
10565SOL    HW232595   5.992   1.626   4.959
10566SOL     OW32596   3.687   4.023   6.125
10566SOL    HW132597   3.603   3.972   6.108
10566SOL    HW232598   3.739   3.978   6.198
10567SOL     OW32599   1.865   3.533   4.012
10567SOL    HW132600   1.848   3.537   4.110
10567SOL    HW232601   1.846   3.441   3.978
10568SOL     OW32602   5.020   1.249   3.061
10568SOL    HW132603   4.983   1.157   3.069
10568SOL    HW232604   4.998   1.302   3.143
10569SOL     OW32605   5.707   2.984   4.516
10569SOL    HW132606   5.724   2.995   4.614
10569SOL    HW232607   5.621   2.934   4.504
10570SOL     OW32608   1.867   4.949   2.905
10570SOL    HW132609   1.860   4.908   2.813
10570SOL    HW232610   1.935   5.022   2.904
10571SOL     OW32611   6.455   6.361   2.935
10571SOL    HW132612   6.449   6.292   3.007
10571SOL    HW232613   6.369   6.412   2.931
10572SOL     OW32614   5.640   3.509   1.677
10572SOL    HW132615   5.644   3.419   1.720
10572SOL    HW232616   5.545   3.541   1.677
10573SOL     OW32617   5.897   5.196   4.825
10573SOL    HW132618   5.892   5.296   4.832
10573SOL    HW232619   5.980   5.163   4.869
10574SOL     OW32620   0.160   1.636   3.506
10574SOL    HW132621   0.248   1.684   3.499
10574SOL    HW232622   0.102   1.661   3.429
10575SOL     OW32623   1.202   0.234   5.370
10575SOL    HW132624   1.296   0.260   5.346
10575SOL    HW232625   1.162   0.183   5.293
10576SOL     OW32626   2.055   5.482   4.083
10576SOL    HW132627   2.108   5.436   4.155
10576SOL    HW232628   2.043   5.419   4.006
10577SOL     OW32629   1.855   2.869   5.927
10577SOL    HW132630   1.792   2.800   5.890
10577SOL    HW232631   1.880   2.933   5.854
10578SOL     OW32632   6.165   0.384   5.694
10578SOL    HW132633   6.137   0.319   5.623
10578SOL    HW232634   6.263   0.375   5.710
10579SOL     OW32635   4.481   1.842   0.694
10579SOL    HW132636   4.528   1.929   0.678
10579SOL    HW232637   4.488   1.817   0.790
10580SOL     OW32638   6.843   5.964   0.019
10580SOL    HW132639   6.824   6.057   7.013
10580SOL    HW232640   6.763   5.906   0.001
10581SOL     OW32641   5.852   0.437   3.404
10581SOL    HW132642   5.868   0.361   3.340
10581SOL    HW232643   5.908   0.424   3.486
10582SOL     OW32644   3.765   5.027   6.558
10582SOL    HW132645   3.681   5.030   6.611
10582SOL    HW232646   3.765   5.100   6.490
10583SOL     OW32647   3.901   0.909   0.001
10583SOL    HW132648   3.892   0.997   0.048
10583SOL    HW232649   3.960   0.848   0.055
10584SOL     OW32650   5.587   7.020   1.363
10584SOL    HW132651   5.599   0.074   1.302
10584SOL    HW232652   5.614   6.937   1.315
10585SOL     OW32653   0.681   2.853   5.954
10585SOL    HW132654   0.688   2.901   5.866
10585SOL    HW232655   0.730   2.905   6.024
10586SOL     OW32656   2.798   6.077   5.652
10586SOL    HW132657   2.818   6.170   5.684
10586SOL    HW232658   2.757   6.025   5.727
10587SOL     OW32659   5.916   3.909   0.960
10587SOL    HW132660   5.956   3.858   1.036
10587SOL    HW232661   5.958   4.000   0.955
10588SOL     OW32662   0.660   5.432   3.140
10588SOL    HW132663   0.590   5.406   3.074
10588SOL    HW232664   0.740   5.468   3.091
10589SOL     OW32665   5.743   1.995   3.819
10589SOL    HW132666   5.760   2.039   3.731
10589SOL    HW232667   5.831   1.979   3.865
10590SOL     OW32668   1.360   0.199   3.294
10590SOL    HW132669   1.356   0.286   3.246
10590SOL    HW232670   1.454   0.164   3.291
10591SOL     OW32671   0.918   2.305   0.174
10591SOL    HW132672   0.963   2.238   0.234
10591SOL    HW232673   0.986   2.371   0.141
10592SOL     OW32674   6.172   1.259   0.208
10592SOL    HW132675   6.150   1.345   0.254
10592SOL    HW232676   6.166   1.183   0.273
10593SOL     OW32677   2.286   5.598   1.133
10593SOL    HW132678   2.306   5.570   1.039
10593SOL    HW232679   2.210   5.663   1.133
10594SOL     OW32680   6.787   2.041   4.072
10594SOL    HW132681   6.696   2.000   4.083
10594SOL    HW232682   6.780   2.121   4.013
10595SOL     OW32683   3.704   6.612   6.633
10595SOL    HW132684   3.720   6.671   6.555
10595SOL    HW232685   3.751   6.525   6.620
10596SOL     OW32686   3.935   0.125   2.432
10596SOL    HW132687   3.962   0.172   2.516
10596SOL    HW232688   3.946   0.188   2.355
10597SOL     OW32689   1.783   1.062   4.932
10597SOL    HW132690   1.756   1.047   5.027
10597SOL    HW232691   1.826   0.980   4.895
10598SOL     OW32692   2.242   2.220   6.659
10598SOL    HW132693   2.191   2.302   6.633
10598SOL    HW232694   2.338   2.244   6.675
10599SOL     OW32695   5.842   1.512   6.867
10599SOL    HW132696   5.868   1.464   6.950
10599SOL    HW232697   5.850   1.450   6.788
10600SOL     OW32698   2.555   3.091   5.817
10600SOL    HW132699   2.579   2.996   5.839
10600SOL    HW232700   2.466   3.093   5.773
10601SOL     OW32701   3.063   6.035   6.502
10601SOL    HW132702   3.150   6.072   6.471
10601SOL    HW232703   2.992   6.105   6.496
10602SOL     OW32704   4.594   1.809   1.757
10602SOL    HW132705   4.583   1.904   1.788
10602SOL    HW232706   4.582   1.805   1.658
10603SOL     OW32707   1.683   5.511   4.140
10603SOL    HW132708   1.591   5.517   4.102
10603SOL    HW232709   1.709   5.415   4.150
10604SOL     OW32710   6.686   4.390   4.565
10604SOL    HW132711   6.722   4.408   4.657
10604SOL    HW232712   6.593   4.426   4.558
10605SOL     OW32713   1.537   5.319   6.581
10605SOL    HW132714   1.631   5.287   6.572
10605SOL    HW232715   1.475   5.255   6.535
10606SOL     OW32716   0.655   0.339   1.837
10606SOL    HW132717   0.627   0.419   1.785
10606SOL    HW232718   0.729   0.364   1.900
10607SOL     OW32719   5.512   4.739   0.252
10607SOL    HW132720   5.415   4.715   0.255
10607SOL    HW232721   5.565   4.659   0.222
10608SOL     OW32722   6.571   1.486   4.076
10608SOL    HW132723   6.519   1.512   3.995
10608SOL    HW232724   6.508   1.457   4.148
10609SOL     OW32725   3.865   6.496   0.924
10609SOL    HW132726   3.799   6.496   1.000
10609SOL    HW232727   3.822   6.456   0.843
10610SOL     OW32728   1.143   3.095   5.691
10610SOL    HW132729   1.117   3.039   5.612
10610SOL    HW232730   1.227   3.061   5.731
10611SOL     OW32731   5.916   2.568   6.016
10611SOL    HW132732   5.904   2.543   6.112
10611SOL    HW232733   5.935   2.486   5.962
10612SOL     OW32734   1.817   0.342   7.012
10612SOL    HW132735   1.869   0.298   6.938
10612SOL    HW232736   1.770   0.423   6.976
10613SOL     OW32737   0.759   6.083   5.649
10613SOL    HW132738   0.790   6.047   5.561
10613SOL    HW232739   0.831   6.072   5.717
10614SOL     OW32740   6.834   1.055   4.149
10614SOL    HW132741   6.735   1.046   4.132
10614SOL    HW232742   6.855   1.150   4.171
10615SOL     OW32743   5.236   5.459   5.249
10615SOL    HW132744   5.232   5.407   5.164
10615SOL    HW232745   5.179   5.413   5.318
10616SOL     OW32746   3.092   6.087   6.875
10616SOL    HW132747   3.176   6.115   6.829
10616SOL    HW232748   3.059   6.001   6.837
10617SOL     OW32749   1.482   2.133   0.194
10617SOL    HW132750   1.560   2.179   0.237
10617SOL    HW232751   1.494   2.132   0.095
10618SOL     OW32752   5.947   3.101   6.978
10618SOL    HW132753   5.942   3.147   0.042
10618SOL    HW232754   5.986   3.009   6.990
10619SOL     OW32755   1.223   4.493   4.280
10619SOL    HW132756   1.317   4.472   4.254
10619SOL    HW232757   1.205   4.590   4.264
10620SOL     OW32758   1.555   5.598   4.752
10620SOL    HW132759   1.561   5.611   4.851
10620SOL    HW232760   1.465   5.626   4.719
10621SOL     OW32761   2.037   6.570   7.002
10621SOL    HW132762   1.939   6.549   6.993
10621SOL    HW232763   2.058   6.651   6.948
10622SOL     OW32764   3.860   0.911   1.411
10622SOL    HW132765   3.873   0.987   1.474
10622SOL    HW232766   3.944   0.895   1.358
10623SOL     OW32767   5.959   2.313   3.732
10623SOL    HW132768   5.886   2.280   3.672
10623SOL    HW232769   5.938   2.289   3.827
10624SOL     OW32770   1.721   0.535   4.390
10624SOL    HW132771   1.664   0.460   4.423
10624SOL    HW232772   1.665   0.618   4.380
10625SOL     OW32773   0.581   3.128   0.882
10625SOL    HW132774   0.506   3.063   0.879
10625SOL    HW232775   0.563   3.197   0.952
10626SOL     OW32776   0.642   2.420   1.814
10626SOL    HW132777   0.697   2.483   1.758
10626SOL    HW232778   0.701   2.346   1.847
10627SOL     OW32779   5.912   6.204   3.661
10627SOL    HW132780   5.948   6.265   3.732
10627SOL    HW232781   5.976   6.130   3.645
10628SOL     OW32782   6.016   5.562   5.873
10628SOL    HW132783   5.946   5.610   5.821
10628SOL    HW232784   5.988   5.556   5.969
10629SOL     OW32785   2.398   5.530   5.774
10629SOL    HW132786   2.363   5.448   5.817
10629SOL    HW232787   2.443   5.507   5.687
10630SOL     OW32788   6.255   1.803   3.627
10630SOL    HW132789   6.209   1.715   3.617
10630SOL    HW232790   6.352   1.788   3.650
10631SOL     OW32791   1.067   6.918   3.628
10631SOL    HW132792   1.126   6.994   3.657
10631SOL    HW232793   0.991   6.910   3.692
10632SOL     OW32794   0.224   1.882   4.854
10632SOL    HW132795   0.237   1.920   4.946
10632SOL    HW232796   0.200   1.956   4.791
10633SOL     OW32797   1.791   4.982   1.686
10633SOL    HW132798   1.859   5.039   1.733
10633SOL    HW232799   1.805   4.886   1.712
10634SOL     OW32800   3.555   6.399   0.990
10634SOL    HW132801   3.545   6.364   1.083
10634SOL    HW232802   3.562   6.322   0.926
10635SOL     OW32803   2.336   0.881   1.223
10635SOL    HW132804   2.364   0.923   1.136
10635SOL    HW232805   2.417   0.866   1.280
10636SOL     OW32806   1.063   2.077   1.186
10636SOL    HW132807   1.112   2.007   1.237
10636SOL    HW232808   1.024   2.037   1.103
10637SOL     OW32809   3.153   3.909   4.830
10637SOL    HW132810   3.160   3.834   4.764
10637SOL    HW232811   3.229   3.972   4.817
10638SOL     OW32812   0.353   6.344   5.529
10638SOL    HW132813   0.355   6.246   5.549
10638SOL    HW232814   0.409   6.393   5.596
10639SOL     OW32815   2.102   0.929   5.034
10639SOL    HW132816   2.085   0.906   4.938
10639SOL    HW232817   2.123   0.846   5.085
10640SOL     OW32818   4.413   0.998   0.103
10640SOL    HW132819   4.501   1.019   0.146
10640SOL    HW232820   4.414   0.905   0.069
10641SOL     OW32821   5.974   1.771   0.013
10641SOL    HW132822   5.933   1.679   0.018
10641SOL    HW232823   5.908   1.835   6.997
10642SOL     OW32824   0.394   3.028   1.795
10642SOL    HW132825   0.489   2.998   1.798
10642SOL    HW232826   0.362   3.027   1.700
10643SOL     OW32827   2.587   3.411   5.624
10643SOL    HW132828   2.624   3.324   5.659
10643SOL    HW232829   2.617   3.424   5.530
10644SOL     OW32830   4.363   1.196   3.830
10644SOL    HW132831   4.391   1.226   3.921
10644SOL    HW232832   4.408   1.109   3.809
10645SOL     OW32833   2.719   0.394   5.078
10645SOL    HW132834   2.803   0.357   5.117
10645SOL    HW232835   2.712   0.367   4.982
10646SOL     OW32836   1.186   3.447   6.540
10646SOL    HW132837   1.269   3.494   6.572
10646SOL    HW232838   1.137   3.505   6.476
10647SOL     OW32839   6.909   5.157   0.886
10647SOL    HW132840   7.005   5.133   0.902
10647SOL    HW232841   6.881   5.124   0.796
10648SOL     OW32842   4.703   2.771   6.696
10648SOL    HW132843   4.731   2.771   6.791
10648SOL    HW232844   4.621   2.827   6.685
10649SOL     OW32845   0.189   4.900   5.863
10649SOL    HW132846   0.148   4.809   5.862
10649SOL    HW232847   0.145   4.957   5.793
10650SOL     OW32848   2.953   6.707   3.538
10650SOL    HW132849   2.905   6.736   3.621
10650SOL    HW232850   2.904   6.631   3.496
10651SOL     OW32851   4.513   6.172   6.444
10651SOL    HW132852   4.528   6.246   6.377
10651SOL    HW232853   4.514   6.211   6.536
10652SOL     OW32854   3.275   0.795   6.138
10652SOL    HW132855   3.266   0.802   6.038
10652SOL    HW232856   3.184   0.790   6.180
10653SOL     OW32857   5.389   3.398   3.991
10653SOL    HW132858   5.468   3.386   3.931
10653SOL    HW232859   5.315   3.338   3.959
10654SOL     OW32860   4.106   0.810   0.483
10654SOL    HW132861   4.186   0.844   0.433
10654SOL    HW232862   4.118   0.828   0.580
10655SOL     OW32863   2.781   6.256   1.210
10655SOL    HW132864   2.861   6.285   1.157
10655SOL    HW232865   2.754   6.164   1.183
10656SOL     OW32866   6.504   2.585   6.549
10656SOL    HW132867   6.517   2.498   6.595
10656SOL    HW232868   6.478   2.655   6.615
10657SOL     OW32869   6.217   0.674   0.904
10657SOL    HW132870   6.233   0.654   0.807
10657SOL    HW232871   6.119   0.669   0.923
10658SOL     OW32872   0.114   5.660   4.573
10658SOL    HW132873   0.033   5.625   4.621
10658SOL    HW232874   0.144   5.592   4.506
10659SOL     OW32875   6.103   0.679   0.377
10659SOL    HW132876   6.147   0.610   0.320
10659SOL    HW232877   6.025   0.717   0.329
10660SOL     OW32878   4.468   5.068   5.818
10660SOL    HW132879   4.388   5.076   5.878
10660SOL    HW232880   4.460   5.133   5.742
10661SOL     OW32881   0.312   6.549   2.658
10661SOL    HW132882   0.359   6.527   2.573
10661SOL    HW232883   0.218   6.578   2.639
10662SOL     OW32884   5.748   1.295   0.590
10662SOL    HW132885   5.694   1.363   0.641
10662SOL    HW232886   5.712   1.204   0.610
10663SOL     OW32887   6.818   0.300   0.177
10663SOL    HW132888   6.755   0.280   0.101
10663SOL    HW232889   6.907   0.258   0.158
10664SOL     OW32890   2.229   5.411   0.360
10664SOL    HW132891   2.259   5.475   0.290
10664SOL    HW232892   2.243   5.318   0.328
10665SOL     OW32893   6.568   1.564   1.065
10665SOL    HW132894   6.548   1.531   0.973
10665SOL    HW232895   6.654   1.526   1.097
10666SOL     OW32896   1.399   6.707   0.171
10666SOL    HW132897   1.492   6.703   0.134
10666SOL    HW232898   1.360   6.798   0.154
10667SOL     OW32899   3.319   2.012   5.390
10667SOL    HW132900   3.299   2.026   5.487
10667SOL    HW232901   3.344   2.100   5.349
10668SOL     OW32902   1.275   1.032   5.882
10668SOL    HW132903   1.373   1.040   5.864
10668SOL    HW232904   1.230   0.994   5.801
10669SOL     OW32905   1.111   6.869   6.835
10669SOL    HW132906   1.043   6.799   6.861
10669SOL    HW232907   1.068   6.959   6.836
10670SOL     OW32908   6.198   4.663   5.596
10670SOL    HW132909   6.280   4.719   5.582
10670SOL    HW232910   6.117   4.719   5.580
10671SOL     OW32911   2.130   0.974   3.408
10671SOL    HW132912   2.107   0.945   3.501
10671SOL    HW232913   2.215   0.930   3.379
10672SOL     OW32914   0.334   2.831   1.260
10672SOL    HW132915   0.291   2.846   1.171
10672SOL    HW232916   0.421   2.880   1.264
10673SOL     OW32917   2.612   2.895   5.372
10673SOL    HW132918   2.559   2.907   5.288
10673SOL    HW232919   2.671   2.815   5.364
10674SOL     OW32920   3.696   2.557   1.577
10674SOL    HW132921   3.711   2.466   1.615
10674SOL    HW232922   3.668   2.619   1.650
10675SOL     OW32923   0.247   0.831   5.522
10675SOL    HW132924   0.225   0.928   5.520
10675SOL    HW232925   0.181   0.782   5.578
10676SOL     OW32926   6.854   7.006   6.140
10676SOL    HW132927   6.920   7.016   6.215
10676SOL    HW232928   6.772   6.960   6.175
10677SOL     OW32929   0.278   0.255   0.889
10677SOL    HW132930   0.215   0.332   0.876
10677SOL    HW232931   0.293   0.240   0.986
10678SOL     OW32932   2.761   6.205   3.145
10678SOL    HW132933   2.725   6.293   3.175
10678SOL    HW232934   2.849   6.188   3.189
10679SOL     OW32935   5.349   4.981   4.391
10679SOL    HW132936   5.397   5.040   4.326
10679SOL    HW232937   5.289   4.919   4.340
10680SOL     OW32938   1.486   2.211   3.623
10680SOL    HW132939   1.480   2.127   3.569
10680SOL    HW232940   1.574   2.255   3.606
10681SOL     OW32941   0.253   1.450   6.168
10681SOL    HW132942   0.276   1.371   6.226
10681SOL    HW232943   0.302   1.531   6.201
10682SOL     OW32944   0.018   1.701   2.820
10682SOL    HW132945   6.948   1.733   2.814
10682SOL    HW232946   0.062   1.744   2.899
10683SOL     OW32947   1.716   1.539   4.858
10683SOL    HW132948   1.754   1.450   4.834
10683SOL    HW232949   1.777   1.611   4.825
10684SOL     OW32950   5.942   5.577   0.225
10684SOL    HW132951   6.041   5.585   0.220
10684SOL    HW232952   5.915   5.486   0.194
10685SOL     OW32953   0.255   2.809   2.631
10685SOL    HW132954   0.331   2.853   2.581
10685SOL    HW232955   0.254   2.842   2.725
10686SOL     OW32956   3.442   5.054   0.339
10686SOL    HW132957   3.497   5.136   0.321
10686SOL    HW232958   3.345   5.076   0.326
10687SOL     OW32959   0.209   4.606   3.001
10687SOL    HW132960   0.223   4.567   3.092
10687SOL    HW232961   0.255   4.694   2.995
10688SOL     OW32962   6.199   5.403   2.258
10688SOL    HW132963   6.207   5.326   2.195
10688SOL    HW232964   6.121   5.460   2.231
10689SOL     OW32965   0.351   0.751   2.292
10689SOL    HW132966   0.384   0.675   2.235
10689SOL    HW232967   0.368   0.731   2.388
10690SOL     OW32968   4.506   5.127   1.797
10690SOL    HW132969   4.484   5.108   1.701
10690SOL    HW232970   4.479   5.050   1.854
10691SOL     OW32971   6.985   1.257   1.620
10691SOL    HW132972   6.895   1.215   1.629
10691SOL    HW232973   6.981   1.353   1.648
10692SOL     OW32974   3.953   5.967   3.962
10692SOL    HW132975   3.894   5.975   3.882
10692SOL    HW232976   4.030   5.907   3.942
10693SOL     OW32977   6.466   2.058   2.069
10693SOL    HW132978   6.515   1.978   2.033
10693SOL    HW232979   6.403   2.093   2.000
10694SOL     OW32980   3.423   6.497   0.715
10694SOL    HW132981   3.377   6.560   0.777
10694SOL    HW232982   3.521   6.518   0.714
10695SOL     OW32983   6.827   3.083   4.033
10695SOL    HW132984   6.751   3.048   4.088
10695SOL    HW232985   6.898   3.119   4.093
10696SOL     OW32986   6.539   6.065   1.794
10696SOL    HW132987   6.458   6.006   1.792
10696SOL    HW232988   6.535   6.123   1.875
10697SOL     OW32989   2.653   5.967   3.683
10697SOL    HW132990   2.555   5.981   3.697
10697SOL    HW232991   2.702   5.984   3.768
10698SOL     OW32992   3.108   0.106   3.562
10698SOL    HW132993   3.083   0.043   3.488
10698SOL    HW232994   3.039   0.103   3.634
10699SOL     OW32995   2.268   2.411   3.041
10699SOL    HW132996   2.334   2.473   3.084
10699SOL    HW232997   2.226   2.457   2.963
10700SOL     OW32998   6.836   0.434   1.378
10700SOL    HW132999   6.856   0.431   1.476
10700SOL    HW233000   6.757   0.493   1.362
10701SOL     OW33001   3.666   6.512   0.386
10701SOL    HW133002   3.646   6.484   0.292
10701SOL    HW233003   3.739   6.454   0.423
10702SOL     OW33004   6.497   3.045   1.185
10702SOL    HW133005   6.427   3.105   1.147
10702SOL    HW233006   6.516   3.072   1.279
10703SOL     OW33007   4.142   3.648   3.666
10703SOL    HW133008   4.156   3.742   3.696
10703SOL    HW233009   4.125   3.590   3.746
10704SOL     OW33010   5.163   6.665   1.633
10704SOL    HW133011   5.146   6.587   1.573
10704SOL    HW233012   5.098   6.738   1.612
10705SOL     OW33013   0.136   2.608   6.628
10705SOL    HW133014   0.061   2.627   6.691
10705SOL    HW233015   0.135   2.511   6.603
10706SOL     OW33016   3.422   1.116   2.139
10706SOL    HW133017   3.426   1.204   2.186
10706SOL    HW233018   3.406   1.132   2.041
10707SOL     OW33019   6.134   0.039   6.012
10707SOL    HW133020   6.135   0.086   6.101
10707SOL    HW233021   6.214   7.005   6.005
10708SOL     OW33022   4.435   0.988   1.345
10708SOL    HW133023   4.369   0.974   1.419
10708SOL    HW233024   4.412   1.071   1.295
10709SOL     OW33025   0.379   5.992   5.856
10709SOL    HW133026   0.461   6.006   5.912
10709SOL    HW233027   0.356   5.894   5.854
10710SOL     OW33028   6.253   5.758   3.272
10710SOL    HW133029   6.238   5.832   3.337
10710SOL    HW233030   6.309   5.687   3.315
10711SOL     OW33031   2.051   5.694   4.549
10711SOL    HW133032   2.026   5.672   4.643
10711SOL    HW233033   1.986   5.653   4.486
10712SOL     OW33034   3.782   1.293   4.946
10712SOL    HW133035   3.687   1.321   4.955
10712SOL    HW233036   3.789   1.220   4.878
10713SOL     OW33037   1.117   5.946   1.525
10713SOL    HW133038   1.047   5.950   1.454
10713SOL    HW233039   1.164   5.858   1.521
10714SOL     OW33040   6.838   4.813   5.852
10714SOL    HW133041   6.856   4.887   5.917
10714SOL    HW233042   6.924   4.773   5.823
10715SOL     OW33043   6.094   1.381   4.162
10715SOL    HW133044   6.019   1.318   4.185
10715SOL    HW233045   6.058   1.456   4.108
10716SOL     OW33046   5.995   0.271   3.197
10716SOL    HW133047   6.045   0.281   3.284
10716SOL    HW233048   6.035   0.332   3.129
10717SOL     OW33049   6.719   6.259   1.933
10717SOL    HW133050   6.792   6.191   1.932
10717SOL    HW233051   6.730   6.319   2.012
10718SOL     OW33052   0.092   4.734   6.652
10718SOL    HW133053   0.038   4.719   6.569
10718SOL    HW233054   0.147   4.653   6.671
10719SOL     OW33055   4.635   0.717   2.067
10719SOL    HW133056   4.605   0.793   2.124
10719SOL    HW233057   4.716   0.675   2.108
10720SOL     OW33058   0.575   3.724   0.158
10720SOL    HW133059   0.525   3.658   0.213
10720SOL    HW233060   0.602   3.682   0.071
10721SOL     OW33061   4.709   2.730   4.152
10721SOL    HW133062   4.660   2.681   4.081
10721SOL    HW233063   4.735   2.667   4.225
10722SOL     OW33064   0.253   4.199   0.682
10722SOL    HW133065   0.177   4.239   0.734
10722SOL    HW233066   0.231   4.201   0.585
10723SOL     OW33067   6.438   4.174   0.423
10723SOL    HW133068   6.426   4.241   0.351
10723SOL    HW233069   6.390   4.204   0.506
10724SOL     OW33070   3.503   6.697   5.665
10724SOL    HW133071   3.553   6.715   5.581
10724SOL    HW233072   3.406   6.681   5.644
10725SOL     OW33073   6.745   6.613   4.879
10725SOL    HW133074   6.736   6.514   4.888
10725SOL    HW233075   6.726   6.656   4.967
10726SOL     OW33076   4.971   0.867   4.491
10726SOL    HW133077   4.973   0.902   4.397
10726SOL    HW233078   5.057   0.891   4.536
10727SOL     OW33079   2.268   5.889   6.896
10727SOL    HW133080   2.358   5.886   6.852
10727SOL    HW233081   2.264   5.966   6.959
10728SOL     OW33082   5.696   5.766   3.409
10728SOL    HW133083   5.748   5.683   3.387
10728SOL    HW233084   5.734   5.808   3.491
10729SOL     OW33085   5.881   3.310   3.834
10729SOL    HW133086   5.941   3.381   3.798
10729SOL    HW233087   5.934   3.244   3.887
10730SOL     OW33088   1.730   5.905   2.790
10730SOL    HW133089   1.784   5.983   2.819
10730SOL    HW233090   1.644   5.936   2.750
10731SOL     OW33091   4.621   6.431   6.850
10731SOL    HW133092   4.646   6.519   6.891
10731SOL    HW233093   4.637   6.435   6.752
10732SOL     OW33094   5.968   5.872   3.077
10732SOL    HW133095   6.030   5.931   3.025
10732SOL    HW233096   5.985   5.885   3.175
10733SOL     OW33097   0.402   0.835   6.527
10733SOL    HW133098   0.377   0.781   6.447
10733SOL    HW233099   0.464   0.909   6.499
10734SOL     OW33100   1.215   1.248   4.455
10734SOL    HW133101   1.224   1.215   4.549
10734SOL    HW233102   1.147   1.321   4.452
10735SOL     OW33103   0.268   6.150   2.194
10735SOL    HW133104   0.313   6.233   2.161
10735SOL    HW233105   0.169   6.165   2.198
10736SOL     OW33106   5.614   6.268   4.171
10736SOL    HW133107   5.652   6.345   4.223
10736SOL    HW233108   5.650   6.269   4.078
10737SOL     OW33109   6.578   1.238   2.497
10737SOL    HW133110   6.628   1.244   2.411
10737SOL    HW233111   6.578   1.327   2.542
10738SOL     OW33112   4.088   1.323   1.138
10738SOL    HW133113   4.145   1.262   1.193
10738SOL    HW233114   4.039   1.386   1.199
10739SOL     OW33115   5.696   3.085   3.381
10739SOL    HW133116   5.690   3.019   3.456
10739SOL    HW233117   5.615   3.143   3.381
10740SOL     OW33118   2.265   0.450   5.873
10740SOL    HW133119   2.293   0.412   5.961
10740SOL    HW233120   2.302   0.393   5.799
10741SOL     OW33121   2.318   2.225   3.974
10741SOL    HW133122   2.305   2.294   4.046
10741SOL    HW233123   2.301   2.134   4.012
10742SOL     OW33124   5.982   6.471   2.311
10742SOL    HW133125   5.975   6.481   2.411
10742SOL    HW233126   6.078   6.469   2.284
10743SOL     OW33127   2.839   1.312   5.959
10743SOL    HW133128   2.777   1.342   5.887
10743SOL    HW233129   2.818   1.218   5.984
10744SOL     OW33130   1.904   1.290   0.357
10744SOL    HW133131   1.943   1.203   0.328
10744SOL    HW233132   1.901   1.294   0.457
10745SOL     OW33133   1.443   4.154   2.238
10745SOL    HW133134   1.537   4.120   2.237
10745SOL    HW233135   1.443   4.254   2.232
10746SOL     OW33136   1.882   6.242   6.656
10746SOL    HW133137   1.869   6.218   6.752
10746SOL    HW233138   1.968   6.293   6.646
10747SOL     OW33139   6.431   1.108   4.694
10747SOL    HW133140   6.445   1.062   4.782
10747SOL    HW233141   6.506   1.173   4.678
10748SOL     OW33142   3.478   6.361   1.532
10748SOL    HW133143   3.435   6.383   1.619
10748SOL    HW233144   3.550   6.427   1.513
10749SOL     OW33145   5.976   4.465   1.899
10749SOL    HW133146   5.970   4.390   1.964
10749SOL    HW233147   5.891   4.518   1.901
10750SOL     OW33148   4.271   2.202   4.403
10750SOL    HW133149   4.240   2.233   4.313
10750SOL    HW233150   4.259   2.103   4.410
10751SOL     OW33151   0.433   5.268   4.831
10751SOL    HW133152   0.416   5.351   4.884
10751SOL    HW233153   0.347   5.232   4.796
10752SOL     OW33154   6.080   6.301   0.638
10752SOL    HW133155   6.089   6.362   0.717
10752SOL    HW233156   5.983   6.286   0.618
10753SOL     OW33157   5.034   6.707   4.270
10753SOL    HW133158   5.074   6.792   4.304
10753SOL    HW233159   5.054   6.696   4.173
10754SOL     OW33160   0.744   3.760   2.580
10754SOL    HW133161   0.806   3.733   2.506
10754SOL    HW233162   0.775   3.846   2.619
10755SOL     OW33163   0.176   2.658   1.391
10755SOL    HW133164   0.219   2.746   1.373
10755SOL    HW233165   0.231   2.585   1.350
10756SOL     OW33166   0.812   1.255   0.577
10756SOL    HW133167   0.846   1.336   0.626
10756SOL    HW233168   0.862   1.174   0.607
10757SOL     OW33169   0.113   3.984   2.085
10757SOL    HW133170   0.138   4.079   2.108
10757SOL    HW233171   0.073   3.940   2.166
10758SOL     OW33172   0.649   0.680   6.897
10758SOL    HW133173   0.560   0.710   6.863
10758SOL    HW233174   0.677   0.739   6.973
10759SOL     OW33175   2.819   2.197   5.715
10759SOL    HW133176   2.803   2.208   5.617
10759SOL    HW233177   2.882   2.269   5.746
10760SOL     OW33178   1.086   5.221   0.235
10760SOL    HW133179   1.043   5.310   0.251
10760SOL    HW233180   1.095   5.172   0.321
10761SOL     OW33181   0.886   1.595   5.735
10761SOL    HW133182   0.874   1.529   5.809
10761SOL    HW233183   0.856   1.554   5.649
10762SOL     OW33184   3.132   5.811   6.319
10762SOL    HW133185   3.049   5.783   6.270
10762SOL    HW233186   3.110   5.887   6.381
10763SOL     OW33187   5.284   0.018   3.305
10763SOL    HW133188   5.382   0.029   3.325
10763SOL    HW233189   5.238   7.003   3.384
10764SOL     OW33190   4.577   0.176   4.633
10764SOL    HW133191   4.601   0.085   4.664
10764SOL    HW233192   4.645   0.208   4.567
10765SOL     OW33193   0.433   2.268   2.593
10765SOL    HW133194   0.529   2.249   2.617
10765SOL    HW233195   0.430   2.342   2.526
10766SOL     OW33196   1.931   4.905   6.727
10766SOL    HW133197   1.954   4.997   6.757
10766SOL    HW233198   1.982   4.883   6.644
10767SOL     OW33199   1.624   5.214   0.563
10767SOL    HW133200   1.545   5.173   0.517
10767SOL    HW233201   1.699   5.148   0.567
10768SOL     OW33202   5.434   5.674   0.104
10768SOL    HW133203   5.516   5.732   0.099
10768SOL    HW233204   5.368   5.704   0.035
10769SOL     OW33205   3.249   3.119   4.378
10769SOL    HW133206   3.344   3.150   4.377
10769SOL    HW233207   3.221   3.099   4.471
10770SOL     OW33208   5.777   6.907   3.148
10770SOL    HW133209   5.711   6.874   3.080
10770SOL    HW233210   5.787   6.838   3.220
10771SOL     OW33211   4.737   5.897   5.627
10771SOL    HW133212   4.645   5.875   5.658
10771SOL    HW233213   4.737   5.989   5.587
10772SOL     OW33214   5.640   5.207   2.600
10772SOL    HW133215   5.731   5.181   2.568
10772SOL    HW233216   5.593   5.258   2.528
10773SOL     OW33217   6.670   3.369   1.263
10773SOL    HW133218   6.701   3.457   1.299
10773SOL    HW233219   6.737   3.298   1.285
10774SOL     OW33220   0.757   2.749   0.752
10774SOL    HW133221   0.814   2.667   0.741
10774SOL    HW233222   0.809   2.819   0.800
10775SOL     OW33223   1.326   3.858   0.568
10775SOL    HW133224   1.413   3.862   0.616
10775SOL    HW233225   1.339   3.814   0.479
10776SOL     OW33226   1.065   2.609   3.825
10776SOL    HW133227   1.164   2.615   3.816
10776SOL    HW233228   1.024   2.694   3.792
10777SOL     OW33229   2.908   1.411   1.390
10777SOL    HW133230   2.880   1.505   1.367
10777SOL    HW233231   2.826   1.356   1.405
10778SOL     OW33232   6.205   0.242   3.373
10778SOL    HW133233   6.195   0.143   3.364
10778SOL    HW233234   6.263   0.263   3.452
10779SOL     OW33235   5.514   4.195   5.070
10779SOL    HW133236   5.582   4.231   5.134
10779SOL    HW233237   5.555   4.122   5.016
10780SOL     OW33238   2.196   5.535   4.960
10780SOL    HW133239   2.240   5.447   4.946
10780SOL    HW233240   2.262   5.599   5.001
10781SOL     OW33241   5.639   2.410   5.069
10781SOL    HW133242   5.554   2.363   5.047
10781SOL    HW233243   5.685   2.362   5.144
10782SOL     OW33244   0.915   1.479   5.272
10782SOL    HW133245   0.923   1.578   5.278
10782SOL    HW233246   0.833   1.449   5.321
10783SOL     OW33247   1.331   2.523   3.877
10783SOL    HW133248   1.381   2.582   3.814
10783SOL    HW233249   1.316   2.572   3.963
10784SOL     OW33250   3.489   5.556   2.629
10784SOL    HW133251   3.492   5.597   2.720
10784SOL    HW233252   3.471   5.458   2.636
10785SOL     OW33253   1.356   5.012   2.187
10785SOL    HW133254   1.274   5.027   2.241
10785SOL    HW233255   1.381   5.096   2.138
10786SOL     OW33256   4.309   1.486   1.988
10786SOL    HW133257   4.330   1.583   1.998
10786SOL    HW233258   4.366   1.447   1.916
10787SOL     OW33259   4.449   0.519   3.283
10787SOL    HW133260   4.391   0.597   3.311
10787SOL    HW233261   4.469   0.463   3.363
10788SOL     OW33262   1.592   3.981   0.010
10788SOL    HW133263   1.539   3.933   0.079
10788SOL    HW233264   1.540   3.986   6.950
10789SOL     OW33265   6.511   1.260   1.686
10789SOL    HW133266   6.499   1.319   1.766
10789SOL    HW233267   6.425   1.211   1.668
10790SOL     OW33268   0.480   1.370   5.233
10790SOL    HW133269   0.401   1.415   5.275
10790SOL    HW233270   0.448   1.293   5.177
10791SOL     OW33271   1.400   1.974   4.303
10791SOL    HW133272   1.362   2.043   4.364
10791SOL    HW233273   1.385   2.001   4.208
10792SOL     OW33274   3.902   1.724   2.605
10792SOL    HW133275   3.990   1.678   2.590
10792SOL    HW233276   3.877   1.775   2.523
10793SOL     OW33277   4.572   2.169   4.774
10793SOL    HW133278   4.569   2.125   4.684
10793SOL    HW233279   4.608   2.104   4.842
10794SOL     OW33280   5.369   1.933   0.972
10794SOL    HW133281   5.430   1.999   0.928
10794SOL    HW233282   5.372   1.945   1.071
10795SOL     OW33283   6.984   3.931   3.356
10795SOL    HW133284   6.916   3.955   3.286
10795SOL    HW233285   0.046   3.907   3.312
10796SOL     OW33286   0.482   6.802   5.564
10796SOL    HW133287   0.572   6.845   5.552
10796SOL    HW233288   0.448   6.771   5.475
10797SOL     OW33289   4.271   4.244   6.460
10797SOL    HW133290   4.235   4.337   6.466
10797SOL    HW233291   4.338   4.239   6.386
10798SOL     OW33292   1.569   7.020   6.829
10798SOL    HW133293   1.584   0.073   6.890
10798SOL    HW233294   1.496   0.017   6.764
10799SOL     OW33295   3.523   1.182   2.705
10799SOL    HW133296   3.451   1.243   2.737
10799SOL    HW233297   3.556   1.214   2.616
10800SOL     OW33298   1.986   0.184   5.604
10800SOL    HW133299   2.018   0.252   5.670
10800SOL    HW233300   2.019   0.210   5.512
10801SOL     OW33301   2.562   6.234   5.924
10801SOL    HW133302   2.624   6.220   6.001
10801SOL    HW233303   2.527   6.328   5.927
10802SOL     OW33304   0.863   4.957   4.409
10802SOL    HW133305   0.771   4.937   4.375
10802SOL    HW233306   0.927   4.887   4.377
10803SOL     OW33307   0.413   4.212   4.654
10803SOL    HW133308   0.377   4.217   4.561
10803SOL    HW233309   0.508   4.243   4.655
10804SOL     OW33310   5.090   4.714   1.472
10804SOL    HW133311   5.000   4.708   1.429
10804SOL    HW233312   5.161   4.693   1.404
10805SOL     OW33313   3.747   6.293   0.581
10805SOL    HW133314   3.745   6.268   0.485
10805SOL    HW233315   3.838   6.274   0.618
10806SOL     OW33316   5.832   3.783   6.849
10806SOL    HW133317   5.879   3.848   6.910
10806SOL    HW233318   5.831   3.693   6.890
10807SOL     OW33319   4.369   0.245   4.011
10807SOL    HW133320   4.382   0.173   4.080
10807SOL    HW233321   4.368   0.203   3.920
10808SOL     OW33322   0.656   2.916   6.942
10808SOL    HW133323   0.670   2.987   7.012
10808SOL    HW233324   0.741   2.904   6.890
10809SOL     OW33325   3.177   0.560   3.120
10809SOL    HW133326   3.266   0.594   3.149
10809SOL    HW233327   3.159   0.590   3.026
10810SOL     OW33328   0.688   2.214   6.659
10810SOL    HW133329   0.768   2.257   6.617
10810SOL    HW233330   0.635   2.166   6.589
10811SOL     OW33331   4.849   4.818   5.476
10811SOL    HW133332   4.814   4.741   5.531
10811SOL    HW233333   4.915   4.784   5.410
10812SOL     OW33334   6.730   2.567   2.493
10812SOL    HW133335   6.761   2.516   2.413
10812SOL    HW233336   6.630   2.570   2.493
10813SOL     OW33337   2.508   5.402   2.419
10813SOL    HW133338   2.429   5.461   2.432
10813SOL    HW233339   2.556   5.427   2.335
10814SOL     OW33340   1.725   6.093   5.077
10814SOL    HW133341   1.801   6.090   5.142
10814SOL    HW233342   1.643   6.128   5.122
10815SOL     OW33343   4.390   2.444   3.440
10815SOL    HW133344   4.392   2.383   3.361
10815SOL    HW233345   4.338   2.402   3.514
10816SOL     OW33346   2.146   2.192   2.487
10816SOL    HW133347   2.158   2.276   2.540
10816SOL    HW233348   2.080   2.133   2.533
10817SOL     OW33349   4.840   6.651   1.913
10817SOL    HW133350   4.820   6.599   1.830
10817SOL    HW233351   4.776   6.624   1.985
10818SOL     OW33352   4.902   2.958   6.639
10818SOL    HW133353   4.991   2.914   6.653
10818SOL    HW233354   4.831   2.888   6.630
10819SOL     OW33355   0.753   3.428   6.255
10819SOL    HW133356   0.692   3.482   6.197
10819SOL    HW233357   0.847   3.437   6.223
10820SOL     OW33358   0.365   0.240   4.450
10820SOL    HW133359   0.354   0.232   4.549
10820SOL    HW233360   0.394   0.152   4.413
10821SOL     OW33361   0.260   0.071   0.524
10821SOL    HW133362   0.234   0.034   0.434
10821SOL    HW233363   0.205   0.151   0.545
10822SOL     OW33364   1.598   4.927   0.701
10822SOL    HW133365   1.560   4.834   0.705
10822SOL    HW233366   1.671   4.936   0.770
10823SOL     OW33367   1.223   2.008   1.853
10823SOL    HW133368   1.274   1.936   1.901
10823SOL    HW233369   1.239   2.002   1.755
10824SOL     OW33370   5.389   0.399   3.056
10824SOL    HW133371   5.343   0.323   3.008
10824SOL    HW233372   5.472   0.365   3.099
10825SOL     OW33373   3.541   1.997   0.800
10825SOL    HW133374   3.561   1.921   0.738
10825SOL    HW233375   3.496   1.961   0.882
10826SOL     OW33376   6.758   2.905   1.411
10826SOL    HW133377   6.682   2.941   1.465
10826SOL    HW233378   6.824   2.861   1.472
10827SOL     OW33379   1.028   2.462   4.370
10827SOL    HW133380   1.094   2.506   4.309
10827SOL    HW233381   1.020   2.516   4.454
10828SOL     OW33382   1.578   6.048   6.748
10828SOL    HW133383   1.493   6.009   6.781
10828SOL    HW233384   1.559   6.136   6.703
10829SOL     OW33385   2.315   3.978   1.687
10829SOL    HW133386   2.299   3.975   1.785
10829SOL    HW233387   2.325   3.885   1.652
10830SOL     OW33388   4.915   1.620   3.793
10830SOL    HW133389   4.959   1.582   3.875
10830SOL    HW233390   4.931   1.718   3.789
10831SOL     OW33391   5.040   2.761   3.106
10831SOL    HW133392   4.945   2.738   3.084
10831SOL    HW233393   5.048   2.780   3.204
10832SOL     OW33394   6.884   2.378   2.358
10832SOL    HW133395   6.928   2.322   2.287
10832SOL    HW233396   6.811   2.325   2.402
10833SOL     OW33397   3.181   0.190   4.378
10833SOL    HW133398   3.247   0.234   4.318
10833SOL    HW233399   3.196   0.091   4.378
10834SOL     OW33400   7.004   1.257   5.676
10834SOL    HW133401   6.911   1.239   5.645
10834SOL    HW233402   7.002   1.321   5.753
10835SOL     OW33403   6.813   1.924   2.389
10835SOL    HW133404   6.821   1.834   2.432
10835SOL    HW233405   6.851   1.993   2.450
10836SOL     OW33406   1.600   2.979   0.465
10836SOL    HW133407   1.546   3.059   0.440
10836SOL    HW233408   1.597   2.967   0.564
10837SOL     OW33409   0.805   6.052   1.287
10837SOL    HW133410   0.753   6.001   1.218
10837SOL    HW233411   0.811   5.998   1.371
10838SOL     OW33412   6.417   6.950   1.421
10838SOL    HW133413   6.346   6.956   1.491
10838SOL    HW233414   6.493   6.895   1.455
10839SOL     OW33415   2.100   1.732   0.520
10839SOL    HW133416   2.139   1.799   0.583
10839SOL    HW233417   2.028   1.774   0.466
10840SOL     OW33418   3.890   4.906   2.297
10840SOL    HW133419   3.822   4.874   2.363
10840SOL    HW233420   3.952   4.971   2.341
10841SOL     OW33421   5.056   3.444   5.385
10841SOL    HW133422   5.030   3.530   5.343
10841SOL    HW233423   4.985   3.415   5.450
10842SOL     OW33424   6.598   2.712   0.861
10842SOL    HW133425   6.511   2.736   0.818
10842SOL    HW233426   6.591   2.727   0.960
10843SOL     OW33427   0.374   1.307   1.680
10843SOL    HW133428   0.309   1.344   1.614
10843SOL    HW233429   0.403   1.216   1.651
10844SOL     OW33430   3.605   6.639   3.434
10844SOL    HW133431   3.660   6.568   3.389
10844SOL    HW233432   3.666   6.707   3.475
10845SOL     OW33433   1.126   2.985   0.991
10845SOL    HW133434   1.092   2.892   0.982
10845SOL    HW233435   1.086   3.027   1.072
10846SOL     OW33436   3.666   1.981   1.855
10846SOL    HW133437   3.675   2.079   1.873
10846SOL    HW233438   3.600   1.967   1.782
10847SOL     OW33439   3.620   2.438   5.927
10847SOL    HW133440   3.703   2.479   5.888
10847SOL    HW233441   3.634   2.422   6.025
10848SOL     OW33442   0.944   1.622   0.534
10848SOL    HW133443   0.989   1.595   0.449
10848SOL    HW233444   0.995   1.584   0.612
10849SOL     OW33445   2.696   4.960   4.303
10849SOL    HW133446   2.746   4.874   4.308
10849SOL    HW233447   2.755   5.030   4.263
10850SOL     OW33448   5.680   0.896   1.955
10850SOL    HW133449   5.729   0.971   2.000
10850SOL    HW233450   5.665   0.919   1.859
10851SOL     OW33451   4.231   2.313   6.191
10851SOL    HW133452   4.216   2.233   6.249
10851SOL    HW233453   4.285   2.381   6.241
10852SOL     OW33454   0.332   6.671   6.088
10852SOL    HW133455   0.345   6.721   6.002
10852SOL    HW233456   0.314   6.736   6.162
10853SOL     OW33457   2.020   1.179   4.642
10853SOL    HW133458   1.980   1.209   4.729
10853SOL    HW233459   2.046   1.083   4.649
10854SOL     OW33460   0.317   6.347   0.330
10854SOL    HW133461   0.305   6.380   0.237
10854SOL    HW233462   0.323   6.247   0.330
10855SOL     OW33463   1.698   5.885   1.544
10855SOL    HW133464   1.627   5.936   1.593
10855SOL    HW233465   1.754   5.835   1.610
10856SOL     OW33466   5.834   0.222   6.332
10856SOL    HW133467   5.778   0.152   6.376
10856SOL    HW233468   5.929   0.194   6.332
10857SOL     OW33469   6.058   0.449   4.781
10857SOL    HW133470   6.044   0.548   4.771
10857SOL    HW233471   6.051   0.406   4.691
10858SOL     OW33472   2.459   2.200   0.067
10858SOL    HW133473   2.454   2.244   0.157
10858SOL    HW233474   2.537   2.138   0.065
10859SOL     OW33475   0.917   5.734   2.314
10859SOL    HW133476   0.926   5.833   2.324
10859SOL    HW233477   0.830   5.704   2.353
10860SOL     OW33478   5.729   3.051   0.798
10860SOL    HW133479   5.641   3.036   0.843
10860SOL    HW233480   5.800   3.060   0.868
10861SOL     OW33481   3.077   2.688   1.596
10861SOL    HW133482   3.102   2.784   1.584
10861SOL    HW233483   2.989   2.672   1.552
10862SOL     OW33484   3.401   3.165   5.618
10862SOL    HW133485   3.319   3.113   5.592
10862SOL    HW233486   3.483   3.118   5.585
10863SOL     OW33487   2.520   0.923   2.986
10863SOL    HW133488   2.462   0.871   3.049
10863SOL    HW233489   2.477   1.011   2.967
10864SOL     OW33490   3.060   4.680   1.701
10864SOL    HW133491   2.995   4.615   1.741
10864SOL    HW233492   3.124   4.631   1.642
10865SOL     OW33493   3.662   1.298   2.494
10865SOL    HW133494   3.682   1.335   2.585
10865SOL    HW233495   3.747   1.267   2.452
10866SOL     OW33496   0.069   3.195   3.268
10866SOL    HW133497   0.033   3.288   3.263
10866SOL    HW233498   0.085   3.170   3.363
10867SOL     OW33499   4.519   3.187   0.849
10867SOL    HW133500   4.449   3.142   0.903
10867SOL    HW233501   4.588   3.226   0.909
10868SOL     OW33502   1.472   0.195   5.249
10868SOL    HW133503   1.526   0.141   5.313
10868SOL    HW233504   1.531   0.227   5.175
10869NA      NA33505   0.043   1.540   6.062
10870NA      NA33506   4.521   4.511   5.134
10871NA      NA33507   1.413   5.109   2.951
10872NA      NA33508   5.909   4.068   3.240
10873NA      NA33509   3.722   2.305   5.545
10874NA      NA33510   2.242   4.984   0.279
10875NA      NA33511   1.347   5.241   6.911
10876NA      NA33512   3.674   4.318   0.940
10877NA      NA33513   4.434   4.710   0.444
10878NA      NA33514   3.534   1.021   6.745
10879NA      NA33515   5.574   0.093   1.779
10880NA      NA33516   2.350   6.706   5.491
10881NA      NA33517   4.047   5.227   1.430
10882NA      NA33518   3.854   3.125   6.540
   7.02462   7.02462   7.02462
